CNT in water
33518
    1C        C    1   2.855   2.778   4.743  0.1166  0.0638 -0.0199
    1C        C    2   2.901   2.723   4.865 -0.1587  0.0183  0.0595
    1C        C    3   2.839   2.770   4.982 -0.3553 -0.2504  0.0615
    1C        C    4   2.850   2.773   4.255 -0.2660 -0.1447  0.0601
    1C        C    5   2.905   2.727   4.376  0.1789  0.1435 -0.0353
    1C        C    6   2.852   2.775   4.498 -0.0596 -0.1300 -0.0352
    1C        C    7   3.015   2.641   4.625  0.4472  0.4786 -0.0031
    1C        C    8   2.902   2.726   4.621  0.2645  0.2262 -0.0273
    1C        C    9   3.080   2.604   4.745  0.1793  0.0618  0.0064
    1C        C   10   3.009   2.633   4.863  0.0002  0.2156 -0.1413
    1C        C   11   3.186   2.497   4.979  0.2266  0.2854 -0.0938
    1C        C   12   3.066   2.568   4.974 -0.0459 -0.1982 -0.3621
    1C        C   13   2.856   2.768   3.768  0.0173 -0.3647  0.2431
    1C        C   14   2.900   2.717   3.892 -0.0265 -0.7135  0.1154
    1C        C   15   2.839   2.757   4.013 -0.2958 -0.5296 -0.0809
    1C        C   16   3.017   2.642   4.134 -0.2702 -0.3252  0.1192
    1C        C   17   2.896   2.714   4.134  0.0322  0.1823  0.0160
    1C        C   18   3.080   2.615   4.257  0.1825  0.2906  0.0232
    1C        C   19   3.017   2.642   4.380  0.2792  0.2845  0.0710
    1C        C   20   3.202   2.541   4.501  0.0086 -0.3420 -0.5170
    1C        C   21   3.077   2.605   4.503  0.1279 -0.1290  0.0183
    1C        C   22   3.274   2.522   4.621 -0.2104 -0.5379 -0.4229
    1C        C   23   3.210   2.548   4.744  0.0813 -0.1584 -0.3559
    1C        C   24   3.412   2.479   4.864 -0.1133 -0.6264 -0.4341
    1C        C   25   3.271   2.501   4.864 -0.0435 -0.1794 -0.3054
    1C        C   26   3.491   2.465   4.979 -0.3423 -0.3622 -0.2467
    1C        C   27   2.843   2.757   3.280 -1.0061 -0.6859  0.1439
    1C        C   28   2.899   2.712   3.402 -0.5851 -0.5720 -0.0037
    1C        C   29   2.848   2.763   3.523  0.1272  0.4511 -0.1213
    1C        C   30   3.013   2.630   3.645 -0.2681  0.0951 -0.4910
    1C        C   31   2.906   2.721   3.645  0.4031  0.8950 -0.0967
    1C        C   32   3.075   2.598   3.768 -0.1882 -0.2227 -0.6099
    1C        C   33   3.016   2.637   3.891  0.1255 -0.4902 -0.3742
    1C        C   34   3.209   2.548   4.012 -0.1218  0.4481 -0.1806
    1C        C   35   3.082   2.609   4.013 -0.4044 -0.1325 -0.0043
    1C        C   36   3.275   2.532   4.136  0.2270  0.4122 -0.3707
    1C        C   37   3.212   2.563   4.258  0.2643  0.4917 -0.3731
    1C        C   38   3.413   2.504   4.377  0.0998 -0.2474 -0.0231
    1C        C   39   3.275   2.531   4.380  0.1012 -0.2011 -0.4703
    1C        C   40   3.484   2.501   4.499  0.1792 -0.3646 -0.0749
    1C        C   41   3.413   2.499   4.621 -0.2472 -0.7418 -0.3290
    1C        C   42   3.626   2.479   4.743 -0.0376 -0.1926 -0.1722
    1C        C   43   3.484   2.476   4.741 -0.0303 -0.3721 -0.3893
    1C        C   44   3.702   2.477   4.862 -0.4019  0.1722  0.0622
    1C        C   45   3.629   2.461   4.981 -0.3427 -0.2113  0.0461
    1C        C   46   2.838   2.750   2.791 -0.3878 -0.2144 -0.1028
    1C        C   47   2.894   2.707   2.913 -0.4904 -0.6565 -0.2054
    1C        C   48   2.840   2.754   3.035  0.0240 -0.3368 -0.0935
    1C        C   49   3.009   2.626   3.158  0.2622  0.6183 -0.0239
    1C        C   50   2.895   2.711   3.158  0.3528  0.7439  0.1516
    1C        C   51   3.071   2.590   3.279 -0.0807 -0.1589 -0.0669
    1C        C   52   3.014   2.630   3.401 -0.3743 -0.2811 -0.1617
    1C        C   53   3.202   2.532   3.524  0.1661  0.1846 -0.4278
    1C        C   54   3.075   2.593   3.523  0.0880  0.0280 -0.2935
    1C        C   55   3.270   2.516   3.647 -0.3199  0.2292 -0.1460
    1C        C   56   3.205   2.544   3.769 -0.0428  0.1220  0.0287
    1C        C   57   3.414   2.502   3.889  0.2926  0.5619  0.0984
    1C        C   58   3.274   2.521   3.890  0.3320  0.8705 -0.0368
    1C        C   59   3.483   2.498   4.012  0.3983  0.1457  0.0264
    1C        C   60   3.412   2.499   4.134  0.1818  0.2090 -0.0993
    1C        C   61   3.624   2.496   4.255  0.0031  0.3948 -0.3545
    1C        C   62   3.483   2.490   4.256  0.0331 -0.3175 -0.0520
    1C        C   63   3.695   2.503   4.377 -0.1841 -0.2356 -0.2066
    1C        C   64   3.625   2.496   4.500  0.2129  0.5961  0.0722
    1C        C   65   3.832   2.539   4.619  0.3740 -0.1628  0.5375
    1C        C   66   3.696   2.499   4.622  0.2455  0.2335  0.0608
    1C        C   67   3.900   2.555   4.742 -0.0314  0.3520  0.6977
    1C        C   68   3.837   2.517   4.862 -0.4647  0.3934  0.4877
    1C        C   69   4.047   2.585   4.974 -0.0877  0.0680  0.4616
    1C        C   70   3.921   2.524   4.974  0.0544 -0.2352  0.1478
    1C        C   71   2.826   2.735   2.304 -0.0529 -0.0671 -0.0656
    1C        C   72   2.881   2.690   2.426 -0.1026 -0.2365 -0.1021
    1C        C   73   2.834   2.744   2.548 -0.0893 -0.1358 -0.1391
    1C        C   74   3.006   2.620   2.670  0.1009  0.2995 -0.0713
    1C        C   75   2.893   2.704   2.670  0.0279  0.2057 -0.0787
    1C        C   76   3.068   2.587   2.792  0.1232  0.1532 -0.1181
    1C        C   77   3.007   2.623   2.915  0.4098  0.5260 -0.0768
    1C        C   78   3.200   2.534   3.035 -0.0109 -0.0069 -0.1272
    1C        C   79   3.067   2.584   3.036  0.0961  0.2853  0.0065
    1C        C   80   3.267   2.515   3.157  0.3131  0.1940 -0.2709
    1C        C   81   3.203   2.540   3.281 -0.0073  0.0120 -0.3960
    1C        C   82   3.410   2.495   3.400  0.3543  1.3549  0.0087
    1C        C   83   3.270   2.514   3.402  0.1972  0.3332 -0.4354
    1C        C   84   3.480   2.497   3.522  0.0336  0.5078  0.2179
    1C        C   85   3.411   2.501   3.645 -0.2972  0.3919  0.0376
    1C        C   86   3.623   2.496   3.767 -0.1254  0.3830 -0.1610
    1C        C   87   3.482   2.491   3.766 -0.1175  0.0938 -0.0908
    1C        C   88   3.694   2.505   3.889  0.1179  1.4322 -0.3734
    1C        C   89   3.624   2.500   4.012  0.3932  0.5718 -0.2498
    1C        C   90   3.830   2.550   4.134  0.4013  0.0499  0.1498
    1C        C   91   3.694   2.513   4.134  0.3086  0.3861 -0.1819
    1C        C   92   3.901   2.564   4.255  0.2368 -0.3126  0.2872
    1C        C   93   3.832   2.538   4.376 -0.2180 -0.0923  0.0775
    1C        C   94   4.023   2.630   4.496 -0.2454 -0.2141 -0.0127
    1C        C   95   3.899   2.563   4.498 -0.4121  0.0990  0.1461
    1C        C   96   4.082   2.671   4.617 -0.0150 -0.2395 -0.1144
    1C        C   97   4.023   2.626   4.737 -0.0166  0.2962  0.0859
    1C        C   98   4.181   2.769   4.863  0.2679 -0.5109  0.4381
    1C        C   99   4.086   2.662   4.860 -0.6095  0.2584  0.4079
    1C        C  100   4.208   2.841   4.980 -0.2008  0.4834 -0.0538
    1C        C  101   2.825   2.733   2.068  0.4383  0.2079  0.1258
    1C        C  102   2.989   2.588   2.186  0.1731  0.0728  0.0171
    1C        C  103   2.876   2.676   2.185 -0.4992 -0.7719  0.0827
    1C        C  104   3.058   2.568   2.309  0.0689  0.1018  0.0846
    1C        C  105   3.001   2.616   2.429  0.3695  0.5114  0.0704
    1C        C  106   3.198   2.529   2.549  0.2098 -0.0398 -0.0076
    1C        C  107   3.068   2.584   2.549  0.4253  0.4816  0.0353
    1C        C  108   3.264   2.507   2.672  0.1295  0.2530  0.0910
    1C        C  109   3.197   2.529   2.794  0.1381  0.1846  0.1106
    1C        C  110   3.406   2.481   2.912  0.3770  0.5712 -0.2391
    1C        C  111   3.268   2.510   2.914  0.2620  0.0327  0.0161
    1C        C  112   3.476   2.481   3.035  0.2638 -0.0233 -0.1675
    1C        C  113   3.407   2.492   3.157  0.2968  0.0710 -0.1546
    1C        C  114   3.620   2.495   3.277  0.2802  0.6565  0.0844
    1C        C  115   3.480   2.482   3.277  0.2420  1.0505 -0.0284
    1C        C  116   3.688   2.513   3.400  0.5425  0.2042  0.0111
    1C        C  117   3.621   2.504   3.523  0.0360  0.6079 -0.2301
    1C        C  118   3.828   2.547   3.645 -0.0009 -0.6431 -0.1982
    1C        C  119   3.693   2.504   3.644 -0.0307 -0.5525 -0.1802
    1C        C  120   3.894   2.571   3.767 -0.0004  0.0515 -0.3317
    1C        C  121   3.830   2.541   3.889  0.5583 -0.1948 -0.0993
    1C        C  122   4.024   2.629   4.010  0.3242 -0.3512 -0.1181
    1C        C  123   3.897   2.566   4.011  0.3362 -0.3669  0.0588
    1C        C  124   4.084   2.667   4.132  0.2849 -0.2199 -0.1438
    1C        C  125   4.029   2.623   4.254 -0.0118  0.2228 -0.1184
    1C        C  126   4.193   2.761   4.374  0.1634 -0.4902  0.3594
    1C        C  127   4.086   2.668   4.375 -0.0660 -0.2304  0.0776
    1C        C  128   4.240   2.812   4.497  0.5091 -0.5799  0.2616
    1C        C  129   4.186   2.767   4.619  0.0465 -0.3100  0.1580
    1C        C  130   4.319   2.932   4.740 -0.6630 -0.0153 -0.4083
    1C        C  131   4.234   2.818   4.741 -0.2773 -0.3005  0.2829
    1C        C  132   4.349   3.001   4.859 -0.4598  0.0524 -0.4972
    1C        C  133   4.288   2.955   4.977 -0.0732  0.3914 -0.1632
    1C        C  134   3.175   2.467   2.080 -0.4565 -0.1203  0.0588
    1C        C  135   3.043   2.514   2.076 -0.1029  0.8617 -0.6693
    1C        C  136   3.258   2.480   2.192 -0.0963  0.4845 -0.2675
    1C        C  137   3.190   2.515   2.310  0.3062  0.6644 -0.0809
    1C        C  138   3.404   2.476   2.428  0.0826 -0.1680 -0.3495
    1C        C  139   3.265   2.497   2.429  0.0845 -0.1482 -0.0520
    1C        C  140   3.476   2.467   2.549 -0.1383 -0.0133 -0.2048
    1C        C  141   3.404   2.486   2.669  0.1540  0.4221 -0.0945
    1C        C  142   3.617   2.477   2.789  0.3443  0.2109 -0.1718
    1C        C  143   3.476   2.476   2.790  0.3442 -0.0338 -0.2414
    1C        C  144   3.686   2.495   2.911  0.1108  0.5617 -0.0898
    1C        C  145   3.617   2.492   3.034  0.2325  0.4457 -0.0230
    1C        C  146   3.825   2.539   3.157  0.3584  0.1906 -0.0105
    1C        C  147   3.690   2.500   3.154  0.1256  0.9797  0.0081
    1C        C  148   3.895   2.559   3.278  0.9075 -0.4012 -0.2225
    1C        C  149   3.826   2.542   3.400  0.5385  0.2401 -0.3358
    1C        C  150   4.023   2.623   3.523  0.3856 -0.8312  0.6057
    1C        C  151   3.894   2.566   3.521  0.3559 -0.7550 -0.0256
    1C        C  152   4.083   2.666   3.643  1.0231 -0.2859  0.0973
    1C        C  153   4.019   2.637   3.765  0.0120  0.0233 -0.3561
    1C        C  154   4.187   2.761   3.886 -0.1127 -0.1671  0.1412
    1C        C  155   4.084   2.664   3.887 -0.0598 -0.2234 -0.2673
    1C        C  156   4.238   2.812   4.007  0.0638 -0.2049  0.0768
    1C        C  157   4.193   2.757   4.129  0.5388 -0.5235  0.1026
    1C        C  158   4.334   2.915   4.252 -0.2093 -0.2646  0.2737
    1C        C  159   4.243   2.807   4.251 -0.1689 -0.2935  0.3000
    1C        C  160   4.369   2.978   4.374 -0.2458 -0.1430  0.2158
    1C        C  161   4.325   2.925   4.497 -0.4073  0.1195  0.2671
    1C        C  162   4.425   3.115   4.612 -0.6018  0.6918  0.1701
    1C        C  163   4.361   2.990   4.617  0.0586  0.3476  0.0050
    1C        C  164   4.445   3.184   4.734  0.0316  0.2966  0.2927
    1C        C  165   4.421   3.122   4.858 -0.9009  0.3253  0.1307
    1C        C  166   4.513   3.317   4.965 -0.1509  0.0043 -0.4102
    1C        C  167   4.475   3.183   4.972 -0.5477  0.1368  0.0632
    1C        C  168   3.469   2.432   2.072  0.2491 -0.5240  0.4650
    1C        C  169   3.399   2.465   2.189 -0.1721 -0.4180  0.1840
    1C        C  170   3.618   2.460   2.304  0.3671 -0.2663  0.0148
    1C        C  171   3.476   2.464   2.307  0.3532 -0.5618 -0.1552
    1C        C  172   3.688   2.470   2.427  0.0607  0.0186  0.1682
    1C        C  173   3.617   2.467   2.549 -0.1363 -0.0678  0.0520
    1C        C  174   3.824   2.528   2.669  0.3224 -0.0567 -0.2240
    1C        C  175   3.691   2.481   2.668  0.2755  0.0790 -0.2179
    1C        C  176   3.890   2.557   2.791  0.0119 -0.0580 -0.0558
    1C        C  177   3.821   2.538   2.912  0.3799 -0.2768  0.1201
    1C        C  178   4.018   2.619   3.032  1.0034 -1.0376 -0.1565
    1C        C  179   3.891   2.558   3.033  0.4327  0.1395  0.0211
    1C        C  180   4.077   2.660   3.154  0.6776 -0.8896 -0.0510
    1C        C  181   4.021   2.623   3.278  0.6993  0.0105  0.2322
    1C        C  182   4.197   2.742   3.397  0.3266 -0.6186  0.0942
    1C        C  183   4.085   2.655   3.400  0.1967 -0.4315  0.6169
    1C        C  184   4.248   2.793   3.518  0.4722 -0.1117 -0.1820
    1C        C  185   4.191   2.758   3.642  0.5870  0.2226 -0.0394
    1C        C  186   4.335   2.912   3.763 -0.3887  0.1691  0.1632
    1C        C  187   4.245   2.803   3.764  0.4885 -0.5597  0.2935
    1C        C  188   4.382   2.966   3.884 -0.5532  0.0382  0.2778
    1C        C  189   4.337   2.912   4.007  0.1053 -0.2539  0.3855
    1C        C  190   4.430   3.101   4.127 -0.6563  0.0132  0.1594
    1C        C  191   4.376   2.971   4.130  0.2254 -0.3508  0.3868
    1C        C  192   4.464   3.167   4.247 -0.7244  0.2196  0.0587
    1C        C  193   4.429   3.105   4.369 -0.3447 -0.1098 -0.0042
    1C        C  194   4.491   3.312   4.486 -0.5111  0.0858 -0.0839
    1C        C  195   4.456   3.175   4.489 -0.4579  0.0762 -0.0913
    1C        C  196   4.507   3.384   4.607 -0.0420  0.3369 -0.2989
    1C        C  197   4.487   3.320   4.731 -0.0187  0.2984 -0.3183
    1C        C  198   4.549   3.533   4.847  0.0160  0.2042  0.3546
    1C        C  199   4.520   3.393   4.848  0.0905  0.1821 -0.2790
    1C        C  200   4.575   3.615   4.961 -0.3850  0.3405  0.3455
    1C        C  201   3.609   2.428   2.066  0.2477  0.3450 -0.3875
    1C        C  202   3.821   2.513   2.183  0.0617 -0.1564 -0.4584
    1C        C  203   3.689   2.457   2.181  0.1258 -0.3240 -0.1251
    1C        C  204   3.891   2.537   2.305 -0.0195 -0.2856 -0.3865
    1C        C  205   3.822   2.514   2.425 -0.1226  0.5772 -0.2747
    1C        C  206   4.006   2.624   2.543  0.3871 -0.4995 -0.1056
    1C        C  207   3.890   2.544   2.545  0.3137 -0.3910 -0.2694
    1C        C  208   4.074   2.659   2.662  0.6315 -0.8404 -0.1465
    1C        C  209   4.015   2.623   2.784  0.2820 -0.5864 -0.2432
    1C        C  210   4.187   2.741   2.907  0.2479 -0.4261 -0.0811
    1C        C  211   4.075   2.655   2.908  0.4784 -0.7292 -0.3040
    1C        C  212   4.235   2.794   3.028  0.2771 -0.4551 -0.0841
    1C        C  213   4.188   2.747   3.152  0.2601 -0.3564 -0.0568
    1C        C  214   4.329   2.906   3.272 -0.1478 -0.3146  0.2668
    1C        C  215   4.240   2.797   3.274  0.2837 -0.6725  0.0591
    1C        C  216   4.363   2.967   3.395 -0.2481  0.0514  0.1070
    1C        C  217   4.326   2.910   3.519 -0.0831  0.2523  0.2420
    1C        C  218   4.423   3.102   3.637  0.0714  0.1265  0.0917
    1C        C  219   4.362   2.975   3.639 -0.0202  0.1792  0.2559
    1C        C  220   4.454   3.166   3.759 -0.4213  0.2480  0.1492
    1C        C  221   4.436   3.096   3.881 -0.6844  0.0792  0.0078
    1C        C  222   4.491   3.301   4.000 -0.4959 -0.1548 -0.0142
    1C        C  223   4.456   3.164   4.003 -0.7375 -0.0837  0.1001
    1C        C  224   4.502   3.374   4.120  0.2499  0.0181 -0.1861
    1C        C  225   4.498   3.304   4.243 -0.1317  0.0610 -0.1787
    1C        C  226   4.508   3.520   4.360 -0.3889  0.0566 -0.1096
    1C        C  227   4.507   3.379   4.363 -0.8503  0.0652 -0.1331
    1C        C  228   4.501   3.589   4.482  0.1201 -0.1023  0.0055
    1C        C  229   4.527   3.524   4.605  0.4454  0.2748  0.1374
    1C        C  230   4.504   3.740   4.721  0.1864  0.1786 -0.0457
    1C        C  231   4.534   3.601   4.723 -0.3444  0.0682  0.3251
    1C        C  232   4.489   3.813   4.840 -0.2961  0.4905 -0.2970
    1C        C  233   4.536   3.750   4.956 -0.2189  0.3648 -0.3979
    1C        C  234   4.007   2.622   2.062 -0.1748  0.7022 -0.0073
    1C        C  235   3.886   2.554   2.066  0.1365  0.1179 -0.3231
    1C        C  236   4.072   2.656   2.181  0.2333 -0.3622  0.0903
    1C        C  237   4.013   2.610   2.300  0.1052 -0.4715 -0.0168
    1C        C  238   4.185   2.739   2.419  0.2188 -0.3056 -0.0925
    1C        C  239   4.068   2.658   2.421  0.4492 -0.6377 -0.1088
    1C        C  240   4.246   2.782   2.539  0.2882 -0.5677 -0.0382
    1C        C  241   4.187   2.745   2.661  0.1216 -0.1674 -0.0024
    1C        C  242   4.325   2.903   2.782 -0.1979  0.0608 -0.2671
    1C        C  243   4.235   2.794   2.785  0.4751 -0.4917 -0.0158
    1C        C  244   4.366   2.958   2.905 -0.1004 -0.5711 -0.0164
    1C        C  245   4.329   2.900   3.028 -0.1185 -0.1113  0.1900
    1C        C  246   4.426   3.090   3.147 -0.3106 -0.2414 -0.2401
    1C        C  247   4.370   2.961   3.149 -0.0910 -0.3264  0.2848
    1C        C  248   4.453   3.157   3.268 -0.8243 -0.3105 -0.0940
    1C        C  249   4.425   3.094   3.391 -0.0846 -0.0316  0.2151
    1C        C  250   4.489   3.297   3.511  0.0388  0.1259 -0.3751
    1C        C  251   4.454   3.160   3.513  0.0243  0.1373  0.0906
    1C        C  252   4.496   3.367   3.634  0.2842  0.0651 -0.3611
    1C        C  253   4.480   3.305   3.759  0.1171  0.1444 -0.3488
    1C        C  254   4.514   3.515   3.877 -0.5891 -0.0975  0.4614
    1C        C  255   4.504   3.374   3.880 -0.9365 -0.0790 -0.0080
    1C        C  256   4.506   3.586   3.998 -0.5100  0.2408  0.2617
    1C        C  257   4.513   3.514   4.120  0.1673  0.0207  0.0936
    1C        C  258   4.492   3.731   4.235 -0.7419  0.1619 -0.1069
    1C        C  259   4.515   3.592   4.238 -0.4982  0.2078 -0.0203
    1C        C  260   4.475   3.800   4.357  0.1354  0.0242  0.0941
    1C        C  261   4.481   3.729   4.479 -0.4439 -0.1851 -0.0026
    1C        C  262   4.418   3.934   4.598 -0.1659 -0.0357 -0.1658
    1C        C  263   4.471   3.803   4.599 -0.3790 -0.1164 -0.0440
    1C        C  264   4.392   4.003   4.718  0.1561  0.3606 -0.3253
    1C        C  265   4.422   3.937   4.839 -1.2149  0.0010 -0.1703
    1C        C  266   4.320   4.128   4.958 -0.0163  0.0740  0.6673
    1C        C  267   4.382   4.004   4.956  0.1090  0.1438  0.2111
    1C        C  268   4.261   2.769   2.061  0.1212 -0.3321  0.0420
    1C        C  269   4.186   2.740   2.176  0.3249 -0.4863  0.1350
    1C        C  270   4.330   2.896   2.298  0.3181 -0.2184  0.2756
    1C        C  271   4.236   2.790   2.298  0.6371 -0.4953  0.0071
    1C        C  272   4.373   2.953   2.420 -0.0979 -0.0181  0.3273
    1C        C  273   4.334   2.892   2.541  0.5428 -0.7801  0.1499
    1C        C  274   4.442   3.080   2.661 -0.1557  0.1274 -0.2350
    1C        C  275   4.365   2.961   2.660 -0.4608  0.3291 -0.2207
    1C        C  276   4.468   3.147   2.782 -1.2753 -0.0207  0.0980
    1C        C  277   4.436   3.080   2.902 -0.5086 -0.3360  0.1282
    1C        C  278   4.489   3.289   3.022 -0.1607 -0.0304 -0.0325
    1C        C  279   4.452   3.152   3.023 -0.3659  0.0288 -0.1126
    1C        C  280   4.504   3.360   3.143 -0.3811 -0.1422  0.0548
    1C        C  281   4.487   3.294   3.267 -0.8786 -0.3018 -0.0998
    1C        C  282   4.509   3.505   3.387 -0.7338  0.1458 -0.1579
    1C        C  283   4.503   3.364   3.388 -0.3854  0.1323 -0.4181
    1C        C  284   4.498   3.576   3.509 -0.3799 -0.0613 -0.0091
    1C        C  285   4.502   3.508   3.632 -0.5851  0.1032  0.0826
    1C        C  286   4.492   3.720   3.749  0.0658 -0.2405 -0.1945
    1C        C  287   4.515   3.581   3.752 -0.5609 -0.3318  0.3417
    1C        C  288   4.470   3.791   3.869  0.1650  0.1458 -0.4083
    1C        C  289   4.482   3.725   3.993  0.0194  0.3123 -0.3103
    1C        C  290   4.417   3.929   4.111  0.3224  0.3634 -0.1086
    1C        C  291   4.472   3.799   4.113 -0.3125  0.0969 -0.2114
    1C        C  292   4.389   3.992   4.234  0.1853  0.0280  0.0257
    1C        C  293   4.420   3.930   4.357  0.1952  0.0439  0.0256
    1C        C  294   4.318   4.121   4.476  0.3376  0.2906 -0.0215
    1C        C  295   4.393   4.001   4.476  0.2845  0.2617 -0.0901
    1C        C  296   4.277   4.182   4.596 -0.2966 -0.3043  0.0723
    1C        C  297   4.321   4.126   4.717 -0.4273  0.0318  0.2738
    1C        C  298   4.200   4.307   4.832 -0.1385 -0.3055  0.1833
    1C        C  299   4.283   4.190   4.838  0.0092 -0.1822  0.5266
    1C        C  300   4.170   4.396   4.940  0.1309 -0.1909  0.1614
    1C        C  301   4.352   2.874   2.062  0.3935 -0.5705  0.4475
    1C        C  302   4.461   3.068   2.176 -0.2790  0.1148 -0.0952
    1C        C  303   4.386   2.946   2.177  0.3792 -0.2912  0.2766
    1C        C  304   4.477   3.139   2.298 -0.1385 -0.1450  0.0364
    1C        C  305   4.440   3.077   2.419 -0.2315  0.0500  0.1049
    1C        C  306   4.502   3.282   2.536 -0.2717  0.3075 -0.2053
    1C        C  307   4.476   3.143   2.539  0.1019  0.2411 -0.1002
    1C        C  308   4.505   3.354   2.657 -0.4069 -0.1068  0.0442
    1C        C  309   4.498   3.285   2.780 -0.8813 -0.1099  0.0126
    1C        C  310   4.510   3.499   2.899 -0.6521  0.0181  0.1888
    1C        C  311   4.506   3.358   2.900 -0.7422  0.0224 -0.0818
    1C        C  312   4.507   3.569   3.022 -0.6801 -0.1113  0.2579
    1C        C  313   4.502   3.501   3.145 -0.4589 -0.1500  0.2419
    1C        C  314   4.480   3.715   3.261 -1.1557  0.3407  0.1577
    1C        C  315   4.502   3.576   3.265 -1.4192  0.2968 -0.0307
    1C        C  316   4.468   3.784   3.383 -0.0796  0.3483  0.2678
    1C        C  317   4.476   3.715   3.507 -0.4034 -0.0685  0.0550
    1C        C  318   4.419   3.920   3.625  0.0771  0.0723  0.1458
    1C        C  319   4.471   3.788   3.627  0.1025  0.0832 -0.0171
    1C        C  320   4.386   3.985   3.745 -0.5004 -0.0144  0.0319
    1C        C  321   4.419   3.923   3.868  0.2178  0.1674 -0.0713
    1C        C  322   4.323   4.115   3.988  0.0140  0.2410  0.0668
    1C        C  323   4.395   3.994   3.987 -0.1607  0.1420 -0.1351
    1C        C  324   4.277   4.172   4.108  0.3141  0.4022  0.1025
    1C        C  325   4.317   4.113   4.230  0.4940  0.2053 -0.0552
    1C        C  326   4.184   4.279   4.349  0.2496 -0.1272  0.1311
    1C        C  327   4.281   4.176   4.351  0.9440  0.5268 -0.0931
    1C        C  328   4.131   4.334   4.468  0.3297  0.2530 -0.0121
    1C        C  329   4.185   4.290   4.591  0.1621  0.0839 -0.0021
    1C        C  330   4.018   4.424   4.710  0.0550 -0.3499 -0.2435
    1C        C  331   4.136   4.345   4.711  0.4531  0.2415  0.0415
    1C        C  332   3.969   4.483   4.829  0.6630  0.0124 -0.1666
    1C        C  333   4.058   4.479   4.938 -0.3257 -0.7907  0.6263
    1C        C  334   4.546   3.266   2.059 -1.0758  0.0765 -0.2200
    1C        C  335   4.530   3.127   2.065 -0.3160 -0.0145 -0.1847
    1C        C  336   4.528   3.347   2.172 -0.1304  0.1894 -0.1363
    1C        C  337   4.512   3.277   2.293  0.3624 -0.2824 -0.3419
    1C        C  338   4.521   3.492   2.411 -0.8404 -0.0710  0.2489
    1C        C  339   4.514   3.351   2.414 -0.1327 -0.1225 -0.4326
    1C        C  340   4.519   3.565   2.532 -0.0953 -0.0347  0.2400
    1C        C  341   4.509   3.495   2.654 -0.9474 -0.0919  0.1412
    1C        C  342   4.498   3.708   2.775 -0.3816 -0.0723 -0.0952
    1C        C  343   4.507   3.567   2.776 -0.5113 -0.0774  0.1369
    1C        C  344   4.478   3.779   2.895 -0.8309 -0.3416 -0.0133
    1C        C  345   4.490   3.709   3.017 -0.5931 -0.1086  0.0958
    1C        C  346   4.425   3.916   3.137  0.1975  0.3469  0.2127
    1C        C  347   4.468   3.781   3.137 -0.6239  0.0859 -0.0305
    1C        C  348   4.399   3.984   3.258 -0.4141  0.4575  0.0169
    1C        C  349   4.428   3.919   3.380  0.0547  0.3755 -0.1388
    1C        C  350   4.310   4.096   3.498  0.0645 -0.2095  0.0598
    1C        C  351   4.395   3.984   3.502  0.5762  0.1779  0.1052
    1C        C  352   4.270   4.159   3.618  0.3596  0.2139 -0.0632
    1C        C  353   4.311   4.105   3.742  0.1966  0.4230  0.0780
    1C        C  354   4.174   4.264   3.862  0.3485  0.5612 -0.3131
    1C        C  355   4.276   4.166   3.865  0.2212  0.4397  0.0729
    1C        C  356   4.125   4.317   3.983  0.3600  0.1320 -0.1221
    1C        C  357   4.180   4.274   4.106 -0.1730 -0.0635  0.0510
    1C        C  358   4.005   4.392   4.227 -0.4979 -0.8571  0.0328
    1C        C  359   4.129   4.326   4.227 -0.3922 -0.6541  0.2102
    1C        C  360   3.948   4.441   4.347 -0.0885 -0.4523  0.0628
    1C        C  361   4.015   4.414   4.468  0.5817  0.6181 -0.0615
    1C        C  362   3.820   4.503   4.591 -0.4356 -0.9773  0.2423
    1C        C  363   3.952   4.453   4.588 -0.2968 -0.6025 -0.1133
    1C        C  364   3.758   4.535   4.713  0.4503  0.0454  0.4397
    1C        C  365   3.838   4.534   4.830  0.7028  0.1094  0.2699
    1C        C  366   3.628   4.591   4.943 -0.2951  0.2528  0.0518
    1C        C  367   3.765   4.566   4.945 -0.2692  0.3496 -0.4042
    1C        C  368   4.505   3.558   2.048  0.6977  0.2829  0.1116
    1C        C  369   4.516   3.488   2.168  0.2902  0.2316  0.1204
    1C        C  370   4.501   3.702   2.290  0.0118  0.0101  0.4251
    1C        C  371   4.516   3.562   2.289 -0.0339  0.0078  0.2581
    1C        C  372   4.489   3.774   2.411 -0.0404  0.3914  0.1925
    1C        C  373   4.507   3.706   2.533 -0.5873 -0.0739  0.0134
    1C        C  374   4.419   3.902   2.652 -0.6502 -0.0787  0.3293
    1C        C  375   4.484   3.777   2.653 -0.3941  0.0490 -0.0230
    1C        C  376   4.384   3.968   2.772 -0.3520  0.4650  0.1197
    1C        C  377   4.418   3.907   2.894  0.5249  0.2993 -0.1988
    1C        C  378   4.321   4.099   3.012  0.4075 -0.0776 -0.1144
    1C        C  379   4.391   3.976   3.014  0.9562  0.2322 -0.0598
    1C        C  380   4.276   4.157   3.133  1.0466  0.6169 -0.2039
    1C        C  381   4.323   4.103   3.255  0.4391  1.0104  0.2055
    1C        C  382   4.171   4.253   3.374 -0.2969 -0.0024  0.2119
    1C        C  383   4.274   4.157   3.376 -0.0141  0.3060  0.3403
    1C        C  384   4.120   4.307   3.495  0.1032  0.6391  0.0996
    1C        C  385   4.174   4.262   3.617  0.5012  0.3408 -0.1861
    1C        C  386   4.004   4.388   3.739  0.5735  0.7686  0.1168
    1C        C  387   4.121   4.308   3.739  0.6445  0.8750 -0.3267
    1C        C  388   3.942   4.423   3.861  0.5192  0.5374  0.1534
    1C        C  389   4.008   4.396   3.983  0.2764  0.0088  0.1708
    1C        C  390   3.816   4.488   4.104 -0.0238  0.0017 -0.1311
    1C        C  391   3.943   4.427   4.105 -0.2600 -0.4938  0.0171
    1C        C  392   3.750   4.518   4.225  0.3414 -0.2432  0.1302
    1C        C  393   3.819   4.497   4.347  0.0814 -0.0578  0.3100
    1C        C  394   3.615   4.551   4.472 -0.0652 -0.1702  0.2792
    1C        C  395   3.754   4.528   4.469 -0.0319  0.0393  0.2253
    1C        C  396   3.544   4.555   4.594  0.1111 -0.3492  0.3894
    1C        C  397   3.619   4.556   4.713  0.3520 -0.5597  0.2439
    1C        C  398   3.407   4.535   4.833 -0.2399  0.5770  0.0159
    1C        C  399   3.545   4.565   4.833 -0.0451 -0.2734 -0.0175
    1C        C  400   3.338   4.508   4.952 -0.2841  0.2943 -0.0712
    1C        C  401   4.499   3.697   2.052  0.2022  0.2548  0.4312
    1C        C  402   4.447   3.908   2.168  0.1972  0.1254  0.1953
    1C        C  403   4.491   3.774   2.169  0.3355  0.1719  0.4935
    1C        C  404   4.407   3.973   2.287 -0.6166  0.0469 -0.0323
    1C        C  405   4.434   3.904   2.408  0.0659  0.4323  0.0364
    1C        C  406   4.321   4.087   2.526  0.3831  0.2303  0.1151
    1C        C  407   4.391   3.964   2.528  0.0859  0.0600  0.2301
    1C        C  408   4.271   4.145   2.645 -0.0878  0.3946 -0.1619
    1C        C  409   4.305   4.085   2.768  0.3148  0.9184 -0.0161
    1C        C  410   4.173   4.250   2.886 -0.0324  0.3266  0.2387
    1C        C  411   4.270   4.147   2.890 -0.2392  0.1331  0.2321
    1C        C  412   4.122   4.301   3.007  0.3975  0.7274  0.2520
    1C        C  413   4.178   4.258   3.129  0.9370  0.5157 -0.0707
    1C        C  414   4.002   4.377   3.250  0.4613 -0.0792  0.0159
    1C        C  415   4.118   4.298   3.251  0.8896  0.5454 -0.1062
    1C        C  416   3.941   4.415   3.372  0.0971  0.2222 -0.2619
    1C        C  417   4.004   4.388   3.495 -0.0172  0.4633 -0.1527
    1C        C  418   3.808   4.467   3.616  0.4581  0.4286 -0.2330
    1C        C  419   3.940   4.415   3.617  0.3702  0.2245  0.1039
    1C        C  420   3.747   4.503   3.738  0.3717  0.0460 -0.1667
    1C        C  421   3.811   4.475   3.860  0.2599 -0.1080 -0.1454
    1C        C  422   3.608   4.529   3.983  0.0196 -1.0586  0.1917
    1C        C  423   3.747   4.504   3.982  0.3261  0.5509 -0.2629
    1C        C  424   3.540   4.537   4.107  0.2625 -0.0603  0.2743
    1C        C  425   3.611   4.539   4.229  0.4080  0.1981  0.1857
    1C        C  426   3.400   4.546   4.351  0.2510 -0.5357  0.0307
    1C        C  427   3.541   4.551   4.351  0.2319  0.1103  0.0955
    1C        C  428   3.328   4.542   4.473  0.0277 -0.7950 -0.1061
    1C        C  429   3.403   4.550   4.592  0.1019 -0.0608 -0.1955
    1C        C  430   3.192   4.513   4.715  0.0939  0.1524  0.1412
    1C        C  431   3.332   4.538   4.714  0.0506  0.3920 -0.1775
    1C        C  432   3.122   4.490   4.837  0.1861 -0.2140  0.1254
    1C        C  433   3.201   4.485   4.953 -0.1446 -0.5928  0.3372
    1C        C  434   4.383   4.116   2.055  0.1809 -0.1773 -0.2266
    1C        C  435   4.439   3.988   2.054  0.1736 -0.1828 -0.0209
    1C        C  436   4.307   4.164   2.166  0.2285  0.0681 -0.2982
    1C        C  437   4.327   4.090   2.286 -0.6716  0.0073 -0.1838
    1C        C  438   4.179   4.247   2.403  0.1928  0.1566  0.1312
    1C        C  439   4.275   4.144   2.406 -0.1748 -0.1918  0.1206
    1C        C  440   4.121   4.296   2.522  0.4343  0.6719  0.0386
    1C        C  441   4.176   4.249   2.644  0.1268  0.5933  0.1471
    1C        C  442   4.005   4.376   2.763  0.2044  0.3284  0.2164
    1C        C  443   4.126   4.303   2.764  0.4438  0.7217  0.2229
    1C        C  444   3.938   4.406   2.884  0.0785  0.0685  0.2094
    1C        C  445   3.999   4.371   3.006  0.1185  0.2365  0.2349
    1C        C  446   3.810   4.467   3.125 -0.0286 -0.2569 -0.1434
    1C        C  447   3.940   4.411   3.128  0.1840  0.2643  0.2537
    1C        C  448   3.743   4.485   3.248  0.0463  0.0070 -0.1455
    1C        C  449   3.809   4.466   3.371  0.2684  0.6590 -0.1662
    1C        C  450   3.606   4.529   3.494  0.1681  0.0823  0.2378
    1C        C  451   3.741   4.487   3.493  0.0913 -0.1454 -0.1243
    1C        C  452   3.535   4.541   3.616  0.0860  0.2167  0.1711
    1C        C  453   3.608   4.528   3.736  0.3224 -0.2357 -0.0234
    1C        C  454   3.399   4.536   3.862  0.3720  0.0910 -0.2094
    1C        C  455   3.540   4.533   3.860  0.3613 -0.6559  0.0149
    1C        C  456   3.329   4.533   3.985  0.3777 -0.5171 -0.2207
    1C        C  457   3.398   4.539   4.108  0.2461 -0.6371 -0.1405
    1C        C  458   3.191   4.503   4.230  0.3766 -0.4339 -0.0625
    1C        C  459   3.328   4.535   4.230  0.3824 -0.4577 -0.0555
    1C        C  460   3.120   4.493   4.352  0.3514 -0.7529 -0.1036
    1C        C  461   3.190   4.516   4.472 -0.0207 -0.5477  0.0731
    1C        C  462   2.996   4.430   4.596  0.0284  0.2950 -0.2323
    1C        C  463   3.121   4.496   4.594 -0.1520  0.6532  0.2105
    1C        C  464   2.928   4.399   4.715  0.5368 -0.0784 -0.0357
    1C        C  465   2.988   4.441   4.836  0.0287  0.2123  0.1181
    1C        C  466   2.797   4.335   4.950 -0.1680 -0.2207 -0.3366
    1C        C  467   2.906   4.423   4.953 -0.2348 -0.1447 -0.1199
    1C        C  468   4.127   4.283   2.044 -0.1757  0.0274 -0.1186
    1C        C  469   4.193   4.250   2.163  0.3048  0.1683 -0.3446
    1C        C  470   4.006   4.369   2.273  0.7440  0.1138  0.2362
    1C        C  471   4.127   4.295   2.280  1.0925  0.6369 -0.0702
    1C        C  472   3.941   4.400   2.394  0.2920  0.1923 -0.0223
    1C        C  473   3.998   4.364   2.519  0.3571  0.5331  0.0491
    1C        C  474   3.809   4.457   2.640  0.4251  0.4305 -0.3286
    1C        C  475   3.938   4.401   2.641  0.3819  0.3385  0.1201
    1C        C  476   3.743   4.488   2.761  0.1581 -0.3029 -0.2788
    1C        C  477   3.812   4.468   2.883 -0.1611 -0.4163 -0.1170
    1C        C  478   3.603   4.517   3.006 -0.0343  0.0401  0.1008
    1C        C  479   3.742   4.489   3.004 -0.1170 -0.3408 -0.1059
    1C        C  480   3.534   4.520   3.128  0.0848 -0.3071  0.1759
    1C        C  481   3.605   4.512   3.250 -0.0502 -0.5270  0.2359
    1C        C  482   3.395   4.531   3.373  0.0728 -0.6194  0.3262
    1C        C  483   3.536   4.527   3.372  0.0700 -0.5899  0.3070
    1C        C  484   3.325   4.520   3.495 -0.1270 -1.1221  0.1669
    1C        C  485   3.395   4.533   3.617  0.1206 -0.4496 -0.0473
    1C        C  486   3.190   4.495   3.740  0.1177 -0.3251  0.3375
    1C        C  487   3.326   4.533   3.741  0.1228 -0.3418 -0.0493
    1C        C  488   3.127   4.465   3.863 -0.0727 -0.3209  0.2396
    1C        C  489   3.193   4.497   3.984  0.2471 -0.0280 -0.0117
    1C        C  490   3.000   4.414   4.110 -0.0395  0.1624 -0.0978
    1C        C  491   3.126   4.477   4.107  0.4439 -0.7837 -0.0249
    1C        C  492   2.938   4.379   4.231 -0.3357  0.1325 -0.2578
    1C        C  493   2.996   4.426   4.352 -0.0723  0.0250 -0.3436
    1C        C  494   2.827   4.302   4.476  0.0956 -0.0253 -0.1714
    1C        C  495   2.933   4.395   4.474  0.3210 -0.2835 -0.2191
    1C        C  496   2.773   4.250   4.596  0.1267 -0.2352 -0.2501
    1C        C  497   2.817   4.309   4.716  0.5164 -0.0591 -0.4805
    1C        C  498   2.663   4.161   4.839 -0.2944  0.3556 -0.2091
    1C        C  499   2.749   4.273   4.834  0.3884 -0.1797 -0.5923
    1C        C  500   2.592   4.114   4.950  0.3666  0.1258  0.1253
    1C        C  501   4.005   4.349   2.038 -0.1870  0.0085 -0.1063
    1C        C  502   3.811   4.456   2.152  0.4807 -0.2553  0.0679
    1C        C  503   3.940   4.399   2.152  0.7813  0.4062  0.2830
    1C        C  504   3.742   4.477   2.274  0.3106 -0.0162 -0.0671
    1C        C  505   3.811   4.455   2.395  0.1693 -0.0932  0.0023
    1C        C  506   3.603   4.499   2.518 -0.1213 -0.5146  0.5011
    1C        C  507   3.743   4.478   2.516 -0.0098  0.1742 -0.1442
    1C        C  508   3.531   4.511   2.638 -0.2951 -0.1151  0.3665
    1C        C  509   3.603   4.507   2.760  0.0535 -0.9837  0.1450
    1C        C  510   3.394   4.511   2.881  0.0350 -0.5529  0.1171
    1C        C  511   3.535   4.520   2.882  0.0215 -0.3065  0.0618
    1C        C  512   3.325   4.511   3.004  0.1773 -0.5702  0.1991
    1C        C  513   3.392   4.516   3.128  0.0858 -0.3038  0.2396
    1C        C  514   3.187   4.487   3.254  0.0300 -0.3150 -0.0550
    1C        C  515   3.324   4.520   3.251  0.1570 -0.8077  0.2969
    1C        C  516   3.117   4.472   3.375 -0.2582  0.6115 -0.1044
    1C        C  517   3.186   4.495   3.496 -0.1954 -0.7283  0.1289
    1C        C  518   2.996   4.407   3.621 -0.1172  0.1108  0.0610
    1C        C  519   3.122   4.471   3.619  0.0244 -0.1594  0.3591
    1C        C  520   2.939   4.366   3.744 -0.4456  0.2534 -0.0420
    1C        C  521   3.003   4.398   3.866 -0.0994 -0.2813 -0.0763
    1C        C  522   2.835   4.276   3.988 -0.2780  0.1622 -0.2048
    1C        C  523   2.942   4.368   3.989  0.0521 -0.2277  0.0091
    1C        C  524   2.786   4.231   4.113 -0.1515  0.3660 -0.0825
    1C        C  525   2.828   4.291   4.234 -0.2881  0.0832  0.1030
    1C        C  526   2.689   4.135   4.361 -1.0599  0.5288 -0.1265
    1C        C  527   2.778   4.244   4.357 -0.4532  0.0416  0.0192
    1C        C  528   2.646   4.075   4.481 -0.3961  0.0435 -0.1281
    1C        C  529   2.690   4.136   4.601 -0.3090  0.0820 -0.1815
    1C        C  530   2.590   3.952   4.728 -0.0381  0.1223  0.2636
    1C        C  531   2.640   4.085   4.723 -0.2103  0.1722 -0.1053
    1C        C  532   2.543   3.895   4.850  0.0179  0.1177  0.2821
    1C        C  533   2.525   3.991   4.954 -0.0393  0.3408  0.0670
    1C        C  534   3.617   4.554   2.038 -0.3035 -0.3949 -0.2024
    1C        C  535   3.744   4.495   2.036 -0.0726  0.0681  0.4889
    1C        C  536   3.534   4.527   2.152  0.0570 -0.4460  0.0525
    1C        C  537   3.602   4.503   2.274  0.4350  0.6922  0.0831
    1C        C  538   3.390   4.495   2.397  0.4996 -0.3650  0.3783
    1C        C  539   3.532   4.501   2.396  0.5057 -0.4029  0.1228
    1C        C  540   3.317   4.498   2.517 -0.3780  0.1200 -0.1545
    1C        C  541   3.390   4.511   2.637 -0.2954 -0.1612 -0.1684
    1C        C  542   3.182   4.480   2.764  0.0899  0.1187  0.3514
    1C        C  543   3.321   4.504   2.760  0.0161  0.5182  0.0514
    1C        C  544   3.116   4.463   2.888 -0.0167 -0.2118  0.2548
    1C        C  545   3.186   4.483   3.008 -0.0424  0.4715  0.1628
    1C        C  546   2.994   4.398   3.134 -0.2453 -0.1344  0.0404
    1C        C  547   3.121   4.461   3.131  0.0848 -0.7887  0.0151
    1C        C  548   2.933   4.360   3.256 -0.4647  0.4932  0.1306
    1C        C  549   2.994   4.403   3.376 -0.1392  0.4010  0.0025
    1C        C  550   2.826   4.279   3.503 -0.4420  0.7167 -0.0853
    1C        C  551   2.934   4.370   3.500 -0.1286  0.3503 -0.0066
    1C        C  552   2.776   4.229   3.625 -0.9017  0.6555 -0.2951
    1C        C  553   2.828   4.280   3.746 -0.4549  0.2570 -0.3154
    1C        C  554   2.691   4.117   3.869 -0.8005  0.7565 -0.1505
    1C        C  555   2.778   4.229   3.868 -0.5876  0.5914 -0.2291
    1C        C  556   2.654   4.062   3.994  0.1044  0.1798 -0.1272
    1C        C  557   2.695   4.123   4.114 -0.0754  0.3030 -0.1285
    1C        C  558   2.594   3.945   4.241  0.3989 -0.0385 -0.1774
    1C        C  559   2.654   4.072   4.239 -0.4366  0.3647 -0.2210
    1C        C  560   2.571   3.877   4.363  0.7747 -0.2971 -0.2486
    1C        C  561   2.593   3.944   4.485  0.2679 -0.2336 -0.1925
    1C        C  562   2.533   3.743   4.610 -0.1099  0.4405  0.1898
    1C        C  563   2.568   3.880   4.609 -0.0749  0.4297  0.0852
    1C        C  564   2.512   3.679   4.733  0.2315  0.1716  0.1101
    1C        C  565   2.519   3.754   4.854 -0.4720  0.1968  0.1379
    1C        C  566   2.534   3.542   4.973 -0.0234 -0.0651 -0.3543
    1C        C  567   2.527   3.681   4.973  0.6661 -0.0251 -0.0630
    1C        C  568   3.322   4.471   2.038 -0.2244  0.0481  0.5168
    1C        C  569   3.394   4.505   2.154 -0.0369  0.1294  0.3793
    1C        C  570   3.180   4.467   2.276  0.1855 -0.1962 -0.2275
    1C        C  571   3.320   4.493   2.274  0.2752 -0.5961  0.5080
    1C        C  572   3.109   4.451   2.397 -0.3139 -0.1416 -0.5089
    1C        C  573   3.178   4.473   2.518 -0.3196 -0.2536 -0.4810
    1C        C  574   2.987   4.395   2.645  0.2061  0.6424  0.0669
    1C        C  575   3.114   4.456   2.643  0.7900 -0.5220  0.0682
    1C        C  576   2.930   4.359   2.769 -0.3893  0.5919 -0.2138
    1C        C  577   2.991   4.397   2.891 -0.0568 -0.1647 -0.1391
    1C        C  578   2.825   4.267   3.014 -0.4235  0.4300  0.3622
    1C        C  579   2.935   4.355   3.014 -0.1753  0.1268 -0.0894
    1C        C  580   2.778   4.216   3.137  0.3413 -0.3233  0.3570
    1C        C  581   2.824   4.271   3.259 -0.5645  0.6188  0.2873
    1C        C  582   2.684   4.118   3.382 -0.6002  0.3206 -0.0353
    1C        C  583   2.769   4.231   3.383 -0.6921  0.3910  0.1599
    1C        C  584   2.647   4.058   3.504 -0.6524  0.2178 -0.0989
    1C        C  585   2.687   4.120   3.625 -0.6066  0.4123 -0.2091
    1C        C  586   2.586   3.933   3.754  0.0039  0.3079  0.2037
    1C        C  587   2.651   4.058   3.747 -1.2077  0.9432 -0.1107
    1C        C  588   2.563   3.869   3.878  0.8487 -0.1714  0.1189
    1C        C  589   2.597   3.934   3.998  0.4104  0.0497  0.1264
    1C        C  590   2.533   3.736   4.123  0.1730 -0.2077  0.3270
    1C        C  591   2.571   3.872   4.122  0.3948 -0.2697 -0.0346
    1C        C  592   2.512   3.671   4.247 -0.0093 -0.1828  0.3089
    1C        C  593   2.527   3.743   4.368  0.2499 -0.1137  0.2339
    1C        C  594   2.515   3.530   4.491 -0.1458  0.0819 -0.0897
    1C        C  595   2.518   3.671   4.489  0.3224  0.0772  0.3513
    1C        C  596   2.520   3.464   4.615 -0.1414  0.0304 -0.1196
    1C        C  597   2.516   3.537   4.736 -0.8704  0.1292 -0.2000
    1C        C  598   2.541   3.324   4.859  0.4242  0.0706  0.0193
    1C        C  599   2.527   3.464   4.857 -0.7508 -0.0500 -0.3213
    1C        C  600   2.529   3.245   4.974 -0.5079  0.1533 -0.0239
    1C        C  601   3.191   4.429   2.040 -0.1800 -0.1328 -0.2933
    1C        C  602   2.978   4.389   2.157  0.2849 -0.3277  0.0793
    1C        C  603   3.111   4.440   2.154 -0.0503  0.5461 -0.2668
    1C        C  604   2.919   4.351   2.281  0.1202 -0.3800 -0.0129
    1C        C  605   2.983   4.387   2.402 -0.2611 -0.2031  0.1394
    1C        C  606   2.810   4.271   2.530 -0.0085  0.1732  0.0360
    1C        C  607   2.922   4.356   2.526 -0.1802  0.4223  0.3401
    1C        C  608   2.759   4.222   2.652 -0.0094  0.1700  0.0379
    1C        C  609   2.825   4.264   2.770 -0.5797  0.7967  0.1430
    1C        C  610   2.683   4.108   2.895 -0.5532  0.8846  0.3734
    1C        C  611   2.775   4.215   2.893 -0.3357  0.6984  0.2073
    1C        C  612   2.642   4.054   3.018 -1.0039  0.4672  0.0463
    1C        C  613   2.685   4.110   3.140 -0.4262  0.3234 -0.0863
    1C        C  614   2.580   3.928   3.265 -0.2377  0.1436 -0.2541
    1C        C  615   2.645   4.054   3.263 -0.0440  0.0507 -0.0809
    1C        C  616   2.555   3.865   3.389  0.1378  0.0032 -0.2436
    1C        C  617   2.581   3.934   3.509  0.2603 -0.2778 -0.1065
    1C        C  618   2.527   3.731   3.633  0.4866  0.2057 -0.0698
    1C        C  619   2.557   3.869   3.632  0.1644  0.2813  0.1760
    1C        C  620   2.514   3.663   3.757  0.3217  0.0888 -0.1471
    1C        C  621   2.529   3.732   3.879  0.4215 -0.0714 -0.0673
    1C        C  622   2.502   3.524   4.005  0.4757  0.0443  0.1070
    1C        C  623   2.513   3.665   4.003  0.9898  0.0076  0.0532
    1C        C  624   2.509   3.457   4.128  0.0918 -0.0360  0.0853
    1C        C  625   2.501   3.530   4.249 -0.2115 -0.1695  0.1480
    1C        C  626   2.537   3.320   4.370  0.1896 -0.2093  0.0871
    1C        C  627   2.510   3.458   4.370  0.0954 -0.2303  0.0882
    1C        C  628   2.562   3.256   4.493  0.0480 -0.0890  0.1739
    1C        C  629   2.547   3.325   4.615  0.1566  0.0906  0.0811
    1C        C  630   2.604   3.120   4.737 -0.2181 -0.0848  0.0908
    1C        C  631   2.559   3.255   4.737 -0.1840 -0.0775  0.0152
    1C        C  632   2.616   3.051   4.861 -0.5580 -0.3833 -0.0448
    1C        C  633   2.560   3.109   4.979 -0.1698  0.2281 -0.1601
    1C        C  634   2.775   4.302   2.052 -0.1371 -0.1934 -0.3624
    1C        C  635   2.887   4.386   2.046 -0.3052  0.1071  0.5442
    1C        C  636   2.743   4.225   2.165  0.0084  0.0931 -0.1258
    1C        C  637   2.805   4.266   2.285 -0.0615 -0.1368 -0.0097
    1C        C  638   2.669   4.110   2.410  0.2145 -0.1881  0.1750
    1C        C  639   2.755   4.222   2.409  0.1868 -0.1658  0.0819
    1C        C  640   2.627   4.053   2.532 -0.2490  0.1192  0.1612
    1C        C  641   2.667   4.115   2.652 -0.4104  0.5083  0.0182
    1C        C  642   2.575   3.924   2.777 -0.0612  0.8239  0.1846
    1C        C  643   2.634   4.053   2.774 -0.4347  1.0007  0.2681
    1C        C  644   2.551   3.860   2.900 -0.0943  0.2228 -0.1322
    1C        C  645   2.580   3.927   3.021 -0.2806  0.1039 -0.0183
    1C        C  646   2.515   3.726   3.144  0.5886 -0.3118 -0.1648
    1C        C  647   2.550   3.863   3.143 -0.3566 -0.0610 -0.1194
    1C        C  648   2.504   3.658   3.268  0.2367  0.1678  0.0758
    1C        C  649   2.522   3.728   3.389 -0.1680  0.0733  0.1948
    1C        C  650   2.521   3.518   3.514  0.6535 -0.1576  0.0885
    1C        C  651   2.519   3.659   3.512  0.9600 -0.1496  0.1057
    1C        C  652   2.523   3.452   3.638  1.0728  0.1820  0.2671
    1C        C  653   2.510   3.522   3.760  0.2816  0.0953  0.2409
    1C        C  654   2.547   3.317   3.884  0.5943  0.0253  0.0303
    1C        C  655   2.512   3.453   3.883  0.2221 -0.0690  0.1517
    1C        C  656   2.570   3.250   4.006  0.4815 -0.1717 -0.0548
    1C        C  657   2.546   3.321   4.126  0.0636 -0.0398 -0.2120
    1C        C  658   2.614   3.121   4.253 -0.4353 -0.0161  0.2070
    1C        C  659   2.559   3.251   4.248 -0.2935  0.0298 -0.1351
    1C        C  660   2.639   3.056   4.376 -0.3323 -0.0762  0.1507
    1C        C  661   2.607   3.122   4.496  0.4765  0.0620  0.2879
    1C        C  662   2.715   2.937   4.619  0.4200 -0.0210 -0.0650
    1C        C  663   2.635   3.054   4.616  0.3164 -0.0896  0.2330
    1C        C  664   2.757   2.881   4.741 -0.0476 -0.0976  0.0578
    1C        C  665   2.701   2.935   4.860 -0.3709 -0.2428 -0.0320
    1C        C  666   2.742   2.868   4.976 -0.2418 -0.1443 -0.0243
    1C        C  667   2.674   4.023   2.050  0.4366  0.0890  0.0374
    1C        C  668   2.685   4.097   2.168  0.2112  0.0060  0.1107
    1C        C  669   2.581   3.913   2.292 -0.2486  0.2054  0.1009
    1C        C  670   2.640   4.042   2.290 -0.0326  0.1085  0.0664
    1C        C  671   2.558   3.846   2.415 -1.1801  0.4040  0.0478
    1C        C  672   2.574   3.922   2.533 -0.1465  0.0754  0.1379
    1C        C  673   2.508   3.722   2.658  0.2952  0.3373  0.0178
    1C        C  674   2.550   3.857   2.656  0.2745  0.3536  0.3725
    1C        C  675   2.501   3.652   2.781  0.5809  0.0686 -0.1166
    1C        C  676   2.519   3.722   2.902  0.1823  0.1570 -0.1048
    1C        C  677   2.498   3.512   3.027  0.2058 -0.1782  0.1438
    1C        C  678   2.504   3.653   3.024  0.6358 -0.1992 -0.2407
    1C        C  679   2.507   3.443   3.150  0.5337 -0.0966  0.1704
    1C        C  680   2.502   3.517   3.270 -0.0987  0.1681 -0.0137
    1C        C  681   2.537   3.307   3.397  0.6130  0.0996 -0.2400
    1C        C  682   2.515   3.447   3.392  1.0258  0.1708 -0.1254
    1C        C  683   2.560   3.242   3.520  0.4241  0.2759 -0.1058
    1C        C  684   2.549   3.313   3.642  0.1724 -0.0022  0.0382
    1C        C  685   2.612   3.111   3.767 -0.7078 -0.3656  0.1255
    1C        C  686   2.565   3.244   3.764  0.1634 -0.0551  0.0122
    1C        C  687   2.642   3.047   3.889 -0.7700 -0.5541  0.0448
    1C        C  688   2.612   3.116   4.009  0.0897 -0.2953  0.1148
    1C        C  689   2.714   2.932   4.131 -0.3148 -0.1531  0.0402
    1C        C  690   2.645   3.055   4.132  0.0263  0.0367  0.2967
    1C        C  691   2.755   2.877   4.254 -0.3042 -0.1827  0.0208
    1C        C  692   2.714   2.936   4.375 -0.1610  0.0344 -0.0390
    1C        C  693   2.758   2.880   4.497 -0.2692 -0.3249 -0.1683
    1C        C  694   2.617   3.895   2.056 -0.5906  0.5387  0.0290
    1C        C  695   2.520   3.705   2.175 -0.4782  0.3393  0.1442
    1C        C  696   2.564   3.839   2.173 -0.2144  0.2540  0.0652
    1C        C  697   2.506   3.635   2.297 -0.3474  0.1178  0.0349
    1C        C  698   2.524   3.709   2.416 -0.8237  0.3111 -0.0104
    1C        C  699   2.501   3.503   2.542  0.2406  0.2624  0.3703
    1C        C  700   2.508   3.644   2.540 -0.3765  0.2930  0.0407
    1C        C  701   2.506   3.436   2.666  0.1002  0.1368  0.3103
    1C        C  702   2.499   3.511   2.786  0.4649  0.0838  0.3678
    1C        C  703   2.522   3.299   2.911  0.2368 -0.2373 -0.4029
    1C        C  704   2.502   3.439   2.907 -0.1065 -0.2646  0.1827
    1C        C  705   2.536   3.229   3.032  0.2644  0.0084 -0.2598
    1C        C  706   2.529   3.303   3.152  0.4055 -0.1255 -0.1643
    1C        C  707   2.611   3.110   3.276 -0.0315 -0.3404  0.2520
    1C        C  708   2.554   3.239   3.275  0.6622 -0.0310 -0.1628
    1C        C  709   2.644   3.048   3.399 -0.3467 -0.1733  0.4261
    1C        C  710   2.617   3.113   3.522  0.0619  0.1187  0.3707
    1C        C  711   2.714   2.927   3.645 -0.1781 -0.2331  0.4043
    1C        C  712   2.640   3.047   3.644 -0.4314 -0.3880  0.1983
    1C        C  713   2.762   2.874   3.767 -0.0960 -0.4628  0.2759
    1C        C  714   2.711   2.924   3.888 -0.0484 -0.1584  0.1725
    1C        C  715   2.750   2.866   4.011  0.4614  0.0970  0.1323
    1C        C  716   2.443   3.494   2.065 -0.2532 -0.3147  0.0476
    1C        C  717   2.478   3.630   2.064 -0.3631 -0.2786  0.5106
    1C        C  718   2.469   3.418   2.183 -0.1357 -0.0612  0.1891
    1C        C  719   2.484   3.495   2.302 -0.0536  0.0713  0.0935
    1C        C  720   2.519   3.287   2.424 -0.1043  0.3668 -0.1623
    1C        C  721   2.494   3.426   2.424  0.1348  0.4132  0.2753
    1C        C  722   2.541   3.223   2.548  0.1948  0.5871 -0.0971
    1C        C  723   2.531   3.297   2.668  0.2553  0.1604  0.1759
    1C        C  724   2.601   3.098   2.789  0.3489 -0.5872 -0.0731
    1C        C  725   2.549   3.230   2.791  0.9736 -0.3339 -0.1891
    1C        C  726   2.626   3.035   2.912  0.1453 -0.1658  0.1912
    1C        C  727   2.594   3.100   3.033 -0.0980 -0.1601  0.1289
    1C        C  728   2.708   2.921   3.156 -0.5204 -0.4315 -0.0077
    1C        C  729   2.634   3.041   3.155 -0.0428 -0.1327  0.1285
    1C        C  730   2.753   2.866   3.278 -0.6806 -0.4153  0.0629
    1C        C  731   2.718   2.928   3.399 -0.3446 -0.1770  0.0424
    1C        C  732   2.761   2.874   3.523 -0.7374 -0.2069  0.1715
    1C        C  733   2.495   3.198   2.069 -0.2334  0.1938 -0.4745
    1C        C  734   2.487   3.276   2.185  0.0266 -0.0494 -0.2918
    1C        C  735   2.574   3.078   2.305  0.0712  0.3132  0.1076
    1C        C  736   2.516   3.208   2.307 -0.0586  0.2613 -0.0954
    1C        C  737   2.613   3.020   2.427  0.0958  0.1106  0.0059
    1C        C  738   2.588   3.090   2.547 -0.0640  0.4937 -0.2488
    1C        C  739   2.701   2.910   2.671 -0.3326 -0.0987 -0.1335
    1C        C  740   2.626   3.029   2.668 -0.7757 -0.3780 -0.4458
    1C        C  741   2.742   2.854   2.794 -0.4569 -0.2719 -0.1665
    1C        C  742   2.704   2.917   2.914  0.0541 -0.2330 -0.0167
    1C        C  743   2.744   2.857   3.035  0.4686  0.0817  0.0066
    1C        C  744   2.550   3.070   2.069  0.2909  0.4110  0.2801
    1C        C  745   2.684   2.896   2.185  0.0296 -0.0501 -0.0151
    1C        C  746   2.600   3.009   2.184  0.8128  0.5421  0.1300
    1C        C  747   2.732   2.842   2.307 -0.0760 -0.0866  0.0123
    1C        C  748   2.693   2.903   2.428  0.5475  0.4138 -0.0366
    1C        C  749   2.738   2.848   2.549 -0.0984 -0.1431 -0.0427
    1C        C  750   2.730   2.835   2.068  0.2709  0.0542  0.0242
    1C        C  751   3.659   2.358   1.945  0.0445 -0.0213 -0.2615
    1C        O  752   3.625   2.400   1.831 -0.5116 -0.1164 -0.1362
    1C        O  753   3.674   2.219   1.956 -0.1295  0.0155  0.5275
    1C        C  754   4.626   3.053   1.980  0.1015  0.1678  0.1268
    1C        O  755   4.583   2.999   1.875  0.5734  0.2549 -0.1156
    1C        O  756   4.765   3.072   1.979  0.1260  0.0123  0.3684
    1C        C  757   4.441   4.205   1.951  0.0535 -0.3280 -0.4286
    1C        O  758   4.386   4.252   1.848 -0.3328  0.0349 -0.0605
    1C        O  759   4.580   4.219   1.939  0.1244 -0.0996  0.5449
    1C        C  760   3.604   4.671   1.948  0.4598  0.0844  0.3059
    1C        O  761   3.559   4.786   1.973  0.1320  0.0206  0.0117
    1C        O  762   3.598   4.652   1.810 -0.2042  0.1466  0.3228
    1C        C  763   2.870   4.493   1.945 -0.2004 -0.0831  0.3237
    1C        O  764   2.901   4.466   1.826 -0.6538  0.2086  0.1388
    1C        O  765   2.777   4.597   1.958 -0.4686 -0.2520 -0.2346
    1C        C  766   2.339   3.459   1.966 -0.0502 -0.4853 -0.1053
    1C        O  767   2.338   3.505   1.849  0.4791  0.1023  0.1131
    1C        O  768   2.207   3.433   2.004  0.0732  0.2005  0.8393
    1C        C  769   4.669   3.572   5.067 -0.0902 -0.5712 -0.2874
    1C        O  770   4.635   3.589   5.187  0.8587  0.0685 -0.0987
    1C        O  771   4.808   3.580   5.048 -0.0963  0.2002 -0.0179
    1C        C  772   4.264   4.434   5.048 -0.1526  0.2867  0.2414
    1C        O  773   4.237   4.398   5.166  0.2103  0.4277  0.3690
    1C        O  774   4.401   4.465   5.056 -0.0531  0.1164 -0.7822
    1C        C  775   4.158   2.521   5.048  0.6356  0.6545 -0.0972
    1C        O  776   4.198   2.403   5.028  0.1742  0.4528  0.1603
    1C        O  777   4.158   2.550   5.185  0.4290 -1.0169  0.2784
    1C        C  778   2.867   4.540   5.034 -0.0723 -0.1390 -0.0501
    1C        O  779   2.830   4.649   4.982 -0.2435  0.0350  0.4264
    1C        O  780   2.876   4.525   5.173 -0.1785 -0.1921 -0.0486
    1C        C  781   2.472   3.026   5.064 -0.3503  0.4431 -0.1404
    1C        O  782   2.373   2.968   5.014  0.0526  0.2237 -0.6869
    1C        O  783   2.496   3.000   5.199  0.4218  0.4852 -0.2641
    1C        C  784   2.398   3.988   5.030 -0.2969 -0.2787 -0.3772
    1C        O  785   2.286   4.027   4.988 -0.1824 -0.0940 -0.5106
    1C        O  786   2.404   3.971   5.169 -0.0393  0.0988 -0.3409
    1C        C  787   2.957   2.459   1.968 -0.5881  0.5235 -0.1217
    1C        O  788   2.959   2.497   1.848 -0.1531  0.3395 -0.1774
    1C        O  789   2.896   2.336   1.985  0.3056  0.0690 -0.1162
    1C        C  790   3.181   2.370   5.055  0.5821  0.0341 -0.4916
    1C        O  791   3.104   2.275   5.025  0.4288 -0.2166  0.6612
    1C        O  792   3.232   2.377   5.185 -0.1012 -0.2192 -0.2104
    1C        H  793   4.328   2.985   5.071 -1.3888  1.4793  0.0812
    1C        H  794   4.160   2.821   5.074  0.4255 -0.3963  0.0916
    1C        H  795   4.504   3.127   5.058  1.0317  0.1490 -0.4298
    1C        H  796   4.486   3.372   5.053  0.9074 -0.6209  0.3322
    1C        H  797   4.523   3.795   5.052  0.9446  0.3316 -0.2149
    1C        H  798   4.370   3.946   5.045 -0.3866  1.6021  1.1291
    1C        H  799   4.352   4.191   5.038  0.0266 -0.5301  1.1370
    1C        H  800   4.057   4.565   5.002 -0.6276 -1.8673  2.1116
    1C        H  801   3.808   4.552   5.042 -0.8722 -2.4696 -0.4510
    1C        H  802   3.591   4.644   5.028 -1.0556 -1.1153  0.6040
    1C        H  803   3.387   4.480   5.043 -0.9433  0.5238  0.3591
    1C        H  804   3.157   4.469   5.049 -1.0867 -3.1719 -0.4512
    1C        H  805   3.882   2.489   5.067 -0.8963  0.2110 -0.0691
    1C        H  806   3.679   2.396   5.050  0.2215  0.2820  0.1204
    1C        H  807   3.002   2.553   5.059  0.1982  0.1619 -0.1135
    1C        H  808   3.445   2.480   5.075 -0.5525 -1.7870 -0.1007
    1C        H  809   2.882   2.748   5.078  0.8304  1.2302 -0.0995
    1C        H  810   2.669   2.862   5.054 -0.6930 -1.0773 -0.5101
    1C        H  811   2.555   3.293   5.066  0.6736 -1.2363  0.3962
    1C        H  812   2.536   3.495   5.069  0.1008 -0.7626 -0.6892
    1C        H  813   2.511   3.729   5.067 -0.2766  0.3384 -0.3953
    1C        H  814   2.561   4.185   5.024  1.3684 -0.5752  1.2483
    1C        H  815   2.756   4.303   5.043 -0.1499 -1.5242 -0.7603
    1C        H  816   2.652   2.815   1.997  0.9797  0.0803 -0.7819
    1C        H  817   2.832   2.679   1.975  1.6790  0.8864 -0.1986
    1C        H  818   3.218   2.440   1.986  1.3808  0.1625  0.7652
    1C        H  819   3.419   2.359   2.011  1.2170 -2.4575  1.8486
    1C        H  820   3.838   2.531   1.973  1.5452 -0.9523 -0.8155
    1C        H  821   4.050   2.646   1.967 -1.8198  1.2902 -0.6339
    1C        H  822   4.288   2.690   1.995  0.6474 -0.3379  0.2617
    1C        H  823   4.384   2.914   1.968  1.7159 -1.1114  0.6532
    1C        H  824   4.622   3.299   1.991 -0.8721  0.3229  0.1224
    1C        H  825   4.480   3.508   1.957 -1.6028 -0.0915  0.8753
    1C        H  826   4.525   3.743   1.959  1.6559 -0.3100  0.5370
    1C        H  827   3.775   4.458   1.941  0.6996  1.3210  0.2360
    1C        H  828   3.973   4.392   1.945 -1.9328 -0.5861  0.1792
    1C        H  829   4.188   4.286   1.956 -1.3207 -0.5591 -0.9690
    1C        H  830   4.520   3.975   1.985 -0.5354 -0.1879 -0.8684
    1C        H  831   2.612   3.840   1.965  1.2203 -1.0846  0.8300
    1C        H  832   2.705   4.061   1.955 -1.2343 -0.6229 -0.8395
    1C        H  833   2.705   4.305   1.971 -0.3880 -0.4076 -0.1557
    1C        H  834   3.358   4.498   1.941 -0.5541  1.0244  0.6548
    1C        H  835   3.154   4.383   1.950  0.1730  1.2873 -1.1818
    1C        H  836   2.516   3.003   1.993  1.4365 -1.4718  1.3717
    1C        H  837   2.448   3.232   1.979  0.1119 -0.5430 -0.9370
    1C        H  838   2.452   3.686   1.977  0.6710 -0.0985  0.3068
    2V3OU   H29  839   2.808   3.553   0.586  0.4656  1.5929  0.0708
    2V3OU   C27  840   2.781   3.500   0.681  0.2442  0.9991 -0.3137
    2V3OU   H27  841   2.729   3.576   0.745 -2.1030 -1.4536  0.8904
    2V3OU   H28  842   2.724   3.404   0.679  0.4414  0.7908  1.7821
    2V3OU   O11  843   2.905   3.469   0.744 -0.6324  0.0507  1.0226
    2V3OU   C15  844   2.915   3.392   0.857  0.0287 -0.3959  0.6717
    2V3OU   C13  845   3.047   3.366   0.899  0.2166  0.0811  0.3770
    2V3OU   C14  846   3.075   3.260   0.985  0.1995  0.2975  0.6521
    2V3OU   C16  847   2.975   3.186   1.048 -0.3691  0.3523 -0.1763
    2V3OU    H6  848   2.996   3.098   1.110 -0.1649 -0.1911 -0.9956
    2V3OU   C12  849   3.214   3.222   1.019  0.2188 -0.1854  0.0681
    2V3OU    O2  850   3.241   3.124   1.092  0.0270 -0.0537  0.3220
    2V3OU   C10  851   3.325   3.303   0.967  0.0423  0.0124 -0.0079
    2V3OU    C8  852   3.455   3.260   0.993 -0.1351 -0.2793  0.4269
    2V3OU   O10  853   3.486   3.159   1.079 -0.3509 -0.3672  0.4047
    2V3OU   H26  854   3.405   3.114   1.108 -0.0678 -1.0443  0.1726
    2V3OU    C6  855   3.562   3.340   0.944 -0.3351 -0.2695 -0.0012
    2V3OU    C5  856   3.536   3.460   0.879  0.0061 -0.1711  0.0399
    2V3OU    C4  857   3.701   3.287   0.954 -0.1338  0.3041  0.2783
    2V3OU    H4  858   3.714   3.221   1.044  1.7925  1.1593  0.7009
    2V3OU    H5  859   3.709   3.219   0.864 -1.5598 -0.1841  0.4999
    2V3OU    C2  860   3.814   3.391   0.951  0.1025  0.0427  0.0731
    2V3OU    O6  861   3.816   3.470   1.070  0.1413  0.0432  0.0729
    2V3OU   H21  862   3.766   3.550   1.046 -0.9272  0.0165  2.0299
    2V3OU    C3  863   3.781   3.495   0.844 -0.4206 -0.0303  0.1578
    2V3OU    H2  864   3.861   3.574   0.848 -0.7167  0.3415 -0.9314
    2V3OU    H3  865   3.780   3.442   0.745  0.4791 -1.7448  1.0155
    2V3OU   C25  866   3.952   3.324   0.944 -0.1284 -0.4016 -0.2808
    2V3OU    O7  867   3.997   3.294   0.834  0.4386  0.3877 -0.2714
    2V3OU   C26  868   4.028   3.289   1.071 -0.4323  0.3187  0.1075
    2V3OU   H22  869   4.066   3.380   1.123 -0.9568 -0.9178  2.8190
    2V3OU   H23  870   4.118   3.228   1.046 -0.7123 -0.5878  1.2004
    2V3OU    O8  871   3.961   3.202   1.160  0.5272  0.0708  0.5956
    2V3OU   H24  872   3.902   3.265   1.204  1.8483  0.8561  1.2859
    2V3OU    C1  873   3.645   3.561   0.855 -0.4004  0.1397 -0.5382
    2V3OU    H1  874   3.621   3.617   0.760 -0.5661  0.7218 -0.1571
    2V3OU    O3  875   3.655   3.646   0.970 -0.6519 -0.2761 -0.2048
    2V3OU   C19  876   3.616   3.782   0.949  0.5345  0.1671  0.3654
    2V3OU    H9  877   3.522   3.785   0.887  1.2385 -0.9758 -0.8113
    2V3OU    O4  878   3.714   3.837   0.863  0.1953  0.0056 -0.1273
    2V3OU   C20  879   3.841   3.867   0.920  0.1068 -0.7069  0.4608
    2V3OU   H10  880   3.892   3.767   0.939 -2.4762 -1.7461  2.4654
    2V3OU   C24  881   3.601   3.856   1.082 -0.3902  0.1893  0.2578
    2V3OU   H16  882   3.529   3.804   1.149 -3.4653  3.3675 -0.3003
    2V3OU   H17  883   3.562   3.960   1.067 -0.6373 -0.0079 -0.5298
    2V3OU   C23  884   3.739   3.874   1.146 -0.3704 -0.2626  0.3462
    2V3OU   H15  885   3.783   3.770   1.159  1.0559  0.2428 -0.1882
    2V3OU    N1  886   3.731   3.949   1.270  0.2467 -0.2370  0.3749
    2V3OU   H19  887   3.799   3.916   1.336  0.5214  2.8862  1.8175
    2V3OU   H20  888   3.637   3.933   1.302 -0.5809  1.0281 -1.3071
    2V3OU   C21  889   3.840   3.945   1.051 -0.7458 -0.0741  0.0844
    2V3OU   H11  890   3.941   3.926   1.098 -0.4503 -2.3362 -1.2970
    2V3OU    O5  891   3.816   4.085   1.043 -0.3660 -0.0014  0.1961
    2V3OU   H18  892   3.769   4.093   1.128  0.5094  2.1421  0.5399
    2V3OU   C22  893   3.909   3.940   0.805 -0.2021 -0.2607  0.5610
    2V3OU   H12  894   3.853   4.035   0.786 -1.5297 -0.3584  3.4231
    2V3OU   H13  895   3.900   3.880   0.711 -1.2987 -1.6886  1.5482
    2V3OU   H14  896   4.018   3.958   0.824  0.5668  1.1125 -4.0249
    2V3OU   C11  897   3.153   3.465   0.876 -0.1312  0.3372 -0.1746
    2V3OU    O1  898   3.129   3.584   0.847  0.1562  0.4293 -0.0514
    2V3OU    C9  899   3.293   3.421   0.896 -0.2589  0.1306  0.3134
    2V3OU    C7  900   3.401   3.497   0.851 -0.0401 -0.3184  0.0674
    2V3OU    O9  901   3.380   3.608   0.773  0.7319 -0.3009 -0.1171
    2V3OU   H25  902   3.287   3.630   0.787  0.7956 -0.0352 -0.0918
    2V3OU   C17  903   2.817   3.315   0.925 -0.4456  0.2584  0.7390
    2V3OU    H7  904   2.710   3.332   0.913 -0.8345 -2.0695  0.5939
    2V3OU   C18  905   2.842   3.215   1.018 -0.6053  0.0087  0.5127
    2V3OU    H8  906   2.757   3.151   1.046 -0.8696 -0.4249 -1.1559
    3SOL     OW  907   3.416   5.778   0.693 -0.4805  0.3981 -0.2795
    3SOL    HW1  908   3.496   5.745   0.643  1.3267  0.6552  2.2181
    3SOL    HW2  909   3.367   5.700   0.732 -0.5563  0.3083 -0.5554
    4SOL     OW  910   2.233   6.682   4.039 -0.1658  0.8663 -0.2731
    4SOL    HW1  911   2.268   6.606   4.094 -0.0344  0.7122 -0.5653
    4SOL    HW2  912   2.302   6.754   4.034 -0.2639  0.9747 -0.0518
    5SOL     OW  913   4.135   0.871   1.745  0.1177  0.1033  0.4175
    5SOL    HW1  914   4.138   0.773   1.764 -0.2913 -0.0763 -0.3737
    5SOL    HW2  915   4.103   0.920   1.826 -1.6220 -0.6214  0.2117
    6SOL     OW  916   6.571   6.836   3.655  0.4026  0.3844 -0.6436
    6SOL    HW1  917   6.577   6.801   3.748  0.5778 -0.7663 -1.0693
    6SOL    HW2  918   6.660   6.825   3.610  0.2369  0.6573 -1.0402
    7SOL     OW  919   2.760   4.718   3.781 -0.3686  0.2459 -0.0605
    7SOL    HW1  920   2.829   4.748   3.847  0.7110  0.5281 -1.2798
    7SOL    HW2  921   2.695   4.657   3.826  0.1300  0.7090  1.3355
    8SOL     OW  922   0.642   5.975   0.591 -0.6095 -0.4611 -0.2174
    8SOL    HW1  923   0.737   5.986   0.618  0.0446  1.4199 -2.8242
    8SOL    HW2  924   0.624   5.879   0.570  0.9080 -0.7507 -0.3149
    9SOL     OW  925   1.317   5.426   2.619  0.1229 -0.5928  0.4041
    9SOL    HW1  926   1.377   5.350   2.646  0.2852 -1.3526 -1.8410
    9SOL    HW2  927   1.343   5.508   2.669  1.7100 -1.3786  0.9592
   10SOL     OW  928   4.700   4.092   6.583 -0.0446  0.4487  0.4819
   10SOL    HW1  929   4.745   4.181   6.584 -0.8168  0.8927 -1.1886
   10SOL    HW2  930   4.758   4.026   6.536 -0.7706  0.8550 -1.0536
   11SOL     OW  931   3.780   4.267   1.749 -0.0536 -0.1941 -0.0479
   11SOL    HW1  932   3.866   4.228   1.715 -0.2591 -0.1013 -0.6802
   11SOL    HW2  933   3.718   4.194   1.775 -0.0009 -0.2731 -0.1421
   12SOL     OW  934   6.816   4.187   5.773 -0.0742 -0.0430 -0.4008
   12SOL    HW1  935   6.759   4.115   5.733 -0.4389 -0.2960  0.5302
   12SOL    HW2  936   6.912   4.160   5.769 -0.0902 -0.0103 -1.1877
   13SOL     OW  937   0.777   2.128   2.637  0.1117  0.0078  0.2164
   13SOL    HW1  938   0.723   2.150   2.718  1.5099 -0.4768  1.3274
   13SOL    HW2  939   0.726   2.064   2.580  0.1682 -1.9025  2.1560
   14SOL     OW  940   6.970   3.539   4.826  0.1886  0.0478 -0.7319
   14SOL    HW1  941   7.051   3.534   4.769 -0.7418 -1.2620 -1.9978
   14SOL    HW2  942   6.889   3.520   4.771 -0.8851  0.1465  0.7471
   15SOL     OW  943   0.099   1.805   0.673 -0.2488  0.0933 -0.0087
   15SOL    HW1  944   0.060   1.717   0.647 -0.0054  0.1362 -0.5282
   15SOL    HW2  945   0.198   1.800   0.673 -0.1237  1.0338 -2.5678
   16SOL     OW  946   5.233   6.340   2.562  0.2102 -0.3785 -0.7994
   16SOL    HW1  947   5.158   6.382   2.613  2.4268 -1.4990  3.9010
   16SOL    HW2  948   5.206   6.247   2.534 -0.3497 -0.6301  0.4905
   17SOL     OW  949   0.247   0.103   4.699  0.1149 -0.7691  0.2267
   17SOL    HW1  950   0.233   0.202   4.697 -1.4923 -0.9721  0.6285
   17SOL    HW2  951   0.160   0.056   4.685  0.9071 -2.1488 -0.3223
   18SOL     OW  952   1.407   6.456   1.713 -0.2174  0.1912  0.1291
   18SOL    HW1  953   1.347   6.462   1.634 -1.0159 -1.0376  0.6158
   18SOL    HW2  954   1.502   6.468   1.684 -0.4725 -0.5634 -1.0617
   19SOL     OW  955   6.507   6.249   2.470 -0.0496 -0.0613  0.2853
   19SOL    HW1  956   6.413   6.281   2.464  0.0383  0.2912  0.7570
   19SOL    HW2  957   6.509   6.150   2.458 -0.7115 -0.3478  2.1479
   20SOL     OW  958   5.128   6.488   4.170 -0.3470  0.0181 -0.2474
   20SOL    HW1  959   5.049   6.455   4.119  0.0811 -0.3421 -0.6899
   20SOL    HW2  960   5.197   6.522   4.107 -0.1640  0.3720  0.1363
   21SOL     OW  961   5.140   0.474   6.101  0.9903 -0.0457 -0.2086
   21SOL    HW1  962   5.118   0.570   6.119  1.0407 -0.0004 -0.3933
   21SOL    HW2  963   5.059   0.426   6.067  1.1784  0.1217 -0.8924
   22SOL     OW  964   3.246   3.418   4.886 -0.8537  0.5573 -0.5330
   22SOL    HW1  965   3.274   3.397   4.793 -1.2351  1.7128 -0.9321
   22SOL    HW2  966   3.326   3.436   4.942 -0.6695  1.0404 -0.9451
   23SOL     OW  967   2.613   3.901   5.625 -0.1278  0.0953 -0.0860
   23SOL    HW1  968   2.566   3.908   5.537 -0.2663  0.5905  0.0253
   23SOL    HW2  969   2.638   3.806   5.641  1.9035  0.2854 -1.7071
   24SOL     OW  970   1.374   0.299   2.294  0.1069  0.1592 -0.2068
   24SOL    HW1  971   1.416   0.356   2.365  0.2356  1.1827 -1.0731
   24SOL    HW2  972   1.339   0.215   2.335 -1.2912  1.4391  1.3766
   25SOL     OW  973   5.111   6.223   3.914  0.1962 -0.5366  0.1217
   25SOL    HW1  974   5.205   6.256   3.921 -0.4596  1.9740 -1.4819
   25SOL    HW2  975   5.098   6.176   3.827 -0.0219 -0.8868  0.3424
   26SOL     OW  976   1.356   1.051   3.975 -0.0992  0.2235  0.1240
   26SOL    HW1  977   1.336   1.027   3.880 -0.1636 -1.3717  0.5059
   26SOL    HW2  978   1.304   1.132   4.001 -2.7893 -1.3032 -0.1910
   27SOL     OW  979   6.030   0.406   1.050  0.4052 -0.3245  0.0039
   27SOL    HW1  980   5.952   0.425   1.109 -0.2136  1.1176 -1.2265
   27SOL    HW2  981   6.114   0.406   1.104  0.0693  2.7642  0.6764
   28SOL     OW  982   3.207   0.657   5.828  0.2445  0.5713 -0.8095
   28SOL    HW1  983   3.166   0.622   5.744  0.2885 -1.8391  0.0967
   28SOL    HW2  984   3.283   0.717   5.806  1.1964 -1.1573 -2.5379
   29SOL     OW  985   6.964   0.528   5.320 -0.0981 -0.0002 -0.0933
   29SOL    HW1  986   7.036   0.561   5.382  1.7207  1.2603 -2.7073
   29SOL    HW2  987   6.980   0.432   5.299 -0.6140 -0.3819  1.1771
   30SOL     OW  988   3.195   1.979   6.948  0.0216 -0.9056  0.8156
   30SOL    HW1  989   3.249   1.940   6.873 -0.9966 -2.5920  0.9027
   30SOL    HW2  990   3.101   1.945   6.943 -1.0587  1.7909  0.7744
   31SOL     OW  991   4.000   0.164   5.306 -0.2244 -0.6085 -0.1991
   31SOL    HW1  992   3.937   0.145   5.382 -0.2396  0.3096  0.0334
   31SOL    HW2  993   4.047   0.080   5.280 -1.4632 -1.2907 -0.3087
   32SOL     OW  994   4.529   5.288   6.797  0.1714 -0.0582 -0.5833
   32SOL    HW1  995   4.535   5.191   6.773 -0.4910 -0.0806 -0.6734
   32SOL    HW2  996   4.452   5.330   6.748  0.1912  0.4134 -0.2159
   33SOL     OW  997   0.309   4.199   3.098  0.1164  0.0846 -0.6443
   33SOL    HW1  998   0.381   4.268   3.087 -0.4529  0.4369 -2.4109
   33SOL    HW2  999   0.220   4.240   3.078 -0.4567 -0.6500  0.3490
   34SOL     OW 1000   3.002   5.175   0.182 -0.0061  0.1216  0.1091
   34SOL    HW1 1001   3.101   5.192   0.179  0.1723 -0.9809 -1.2411
   34SOL    HW2 1002   2.980   5.122   0.264  0.8632 -1.4210 -0.6148
   35SOL     OW 1003   3.385   0.513   2.003  0.6374  0.1586 -0.3360
   35SOL    HW1 1004   3.381   0.429   1.949 -0.7550 -0.0449  0.0337
   35SOL    HW2 1005   3.315   0.577   1.971  0.8795  0.6875  0.1691
   36SOL     OW 1006   6.626   1.179   3.298  0.1463 -0.3108  0.0440
   36SOL    HW1 1007   6.675   1.177   3.211 -0.1104 -1.1552 -0.0894
   36SOL    HW2 1008   6.630   1.272   3.336  0.4983  0.0003 -0.7218
   37SOL     OW 1009   0.230   2.857   0.203 -0.3661  0.2832 -0.1575
   37SOL    HW1 1010   0.274   2.946   0.196  2.9012 -1.2899 -1.5021
   37SOL    HW2 1011   0.277   2.801   0.271 -0.9160 -1.1667 -0.9195
   38SOL     OW 1012   6.892   0.917   2.945 -0.1641  0.1728  0.4260
   38SOL    HW1 1013   6.942   0.979   2.885 -1.3363 -0.4422 -1.2629
   38SOL    HW2 1014   6.954   0.879   3.014  1.3096  0.6386 -0.6041
   39SOL     OW 1015   2.718   6.704   4.787 -0.1330  0.1321  0.1279
   39SOL    HW1 1016   2.787   6.745   4.848  0.7772 -3.4796  1.7685
   39SOL    HW2 1017   2.629   6.746   4.806  0.6638  1.1886  1.8072
   40SOL     OW 1018   5.195   4.313   6.855 -0.5539  0.0944  0.3347
   40SOL    HW1 1019   5.205   4.408   6.826  1.3560 -0.6991 -1.8613
   40SOL    HW2 1020   5.285   4.272   6.867 -1.2961 -1.9375 -0.6080
   41SOL     OW 1021   2.389   6.093   0.574  0.2006  0.1424  0.2786
   41SOL    HW1 1022   2.307   6.116   0.522  1.3143  1.5607 -0.9384
   41SOL    HW2 1023   2.405   6.164   0.643 -0.8195 -1.3106  2.0813
   42SOL     OW 1024   2.082   3.625   0.238  0.2422 -0.2209  0.3904
   42SOL    HW1 1025   2.071   3.595   0.143 -2.3233  0.0298  0.5464
   42SOL    HW2 1026   2.179   3.638   0.257  0.8068  0.3363 -2.3802
   43SOL     OW 1027   6.316   2.818   5.908  0.2475  0.0043 -0.3377
   43SOL    HW1 1028   6.219   2.832   5.928  0.3578 -0.9395  0.9821
   43SOL    HW2 1029   6.329   2.727   5.869  0.7047 -0.2521  0.3918
   44SOL     OW 1030   0.860   6.575   1.032 -0.2086 -0.0838  0.4510
   44SOL    HW1 1031   0.802   6.531   0.962 -1.1451  0.3557  0.9302
   44SOL    HW2 1032   0.887   6.507   1.100 -0.1678 -0.2922  0.2279
   45SOL     OW 1033   2.918   1.410   4.899  0.4880 -0.5945 -0.3642
   45SOL    HW1 1034   2.966   1.386   4.815  1.2563 -0.4959  0.0330
   45SOL    HW2 1035   2.981   1.457   4.961 -0.6460  1.3671 -0.6270
   46SOL     OW 1036   1.787   3.610   2.124  0.6286 -0.3536  0.5367
   46SOL    HW1 1037   1.808   3.574   2.215 -0.1573  1.2480  1.4083
   46SOL    HW2 1038   1.693   3.588   2.100  1.1229 -1.5959 -0.3348
   47SOL     OW 1039   5.875   0.791   1.847 -0.6249 -0.6513  0.8487
   47SOL    HW1 1040   5.940   0.715   1.855 -0.2815 -0.3752  0.6989
   47SOL    HW2 1041   5.913   0.861   1.788 -1.6808 -1.1193 -0.4200
   48SOL     OW 1042   0.408   3.448   0.669 -0.6536 -0.3445  0.0144
   48SOL    HW1 1043   0.460   3.533   0.679  0.8394 -1.2503  0.3403
   48SOL    HW2 1044   0.366   3.425   0.757  0.3249 -0.7803  0.3820
   49SOL     OW 1045   0.375   4.143   5.434 -0.0999  0.0843  0.0497
   49SOL    HW1 1046   0.392   4.059   5.384 -1.5939 -0.5809  0.5940
   49SOL    HW2 1047   0.450   4.161   5.497  0.8455 -0.1284 -0.9830
   50SOL     OW 1048   3.394   2.937   2.533 -0.6827 -0.3127 -0.2351
   50SOL    HW1 1049   3.375   2.862   2.596 -2.2183 -1.4757 -2.0058
   50SOL    HW2 1050   3.410   3.021   2.586  0.3111 -1.6723  1.7526
   51SOL     OW 1051   5.137   1.538   2.751 -0.4119 -0.2370  0.0385
   51SOL    HW1 1052   5.147   1.450   2.797  0.9656 -1.1500 -1.8237
   51SOL    HW2 1053   5.044   1.548   2.717 -0.3786 -1.4196 -0.4641
   52SOL     OW 1054   0.772   6.428   3.792  0.1845 -0.0727 -0.0403
   52SOL    HW1 1055   0.762   6.455   3.887  1.8935 -0.4111  0.2662
   52SOL    HW2 1056   0.760   6.508   3.733  0.7913  0.4777  0.5678
   53SOL     OW 1057   1.166   3.100   5.687  0.0832 -0.2707 -0.1628
   53SOL    HW1 1058   1.244   3.064   5.636 -0.5966 -1.6029 -0.3258
   53SOL    HW2 1059   1.145   3.038   5.763 -0.3359  0.4845  0.3483
   54SOL     OW 1060   0.128   6.271   6.821  0.4300 -0.5753  0.2687
   54SOL    HW1 1061   0.176   6.317   6.746  0.9429  2.2896  2.2026
   54SOL    HW2 1062   0.195   6.238   6.887 -0.0843 -1.6017  0.2903
   55SOL     OW 1063   2.667   6.726   1.710  0.3255 -0.4154  0.2231
   55SOL    HW1 1064   2.759   6.765   1.704 -0.0364  0.3018 -1.1391
   55SOL    HW2 1065   2.615   6.775   1.781  0.3257  0.6679 -0.4989
   56SOL     OW 1066   0.230   4.349   4.077 -0.1336 -0.2223  0.6186
   56SOL    HW1 1067   0.280   4.328   4.162  0.3220 -0.1049  0.3864
   56SOL    HW2 1068   0.243   4.445   4.054  0.5648 -0.4724 -0.1021
   57SOL     OW 1069   1.644   3.341   3.813 -0.1217 -0.0900 -0.0187
   57SOL    HW1 1070   1.606   3.395   3.738  0.4001  0.2443 -0.0503
   57SOL    HW2 1071   1.673   3.402   3.887 -2.4810 -0.5047  1.3697
   58SOL     OW 1072   2.740   6.191   2.699  0.0038  0.7075 -0.1023
   58SOL    HW1 1073   2.718   6.106   2.749 -0.4494  0.6884 -0.3278
   58SOL    HW2 1074   2.827   6.226   2.731 -0.3160  0.7399  0.7726
   59SOL     OW 1075   0.074   1.166   0.683  0.1375  0.7338 -0.0444
   59SOL    HW1 1076   0.078   1.195   0.587  0.1419  1.7894  0.2567
   59SOL    HW2 1077  -0.011   1.198   0.724  0.2903  0.5899  0.3894
   60SOL     OW 1078   0.342   1.350   3.884  0.4722 -0.0880  0.2023
   60SOL    HW1 1079   0.371   1.439   3.922 -0.1648  0.1829  0.0557
   60SOL    HW2 1080   0.255   1.323   3.925  0.1728 -0.1728 -0.4927
   61SOL     OW 1081   6.718   4.321   3.230 -0.2201 -0.3672 -0.3077
   61SOL    HW1 1082   6.770   4.338   3.314  0.8301 -0.3781 -0.9348
   61SOL    HW2 1083   6.628   4.286   3.253 -0.8686  1.8989  0.9008
   62SOL     OW 1084   5.512   0.899   5.071 -0.7337 -0.7654 -0.0239
   62SOL    HW1 1085   5.417   0.877   5.047 -0.9307 -3.0556  2.3424
   62SOL    HW2 1086   5.542   0.839   5.146  2.2855  0.5626 -0.0228
   63SOL     OW 1087   5.424   6.685   5.382  0.2449 -0.0275  0.6290
   63SOL    HW1 1088   5.442   6.763   5.323  0.2544 -0.8106 -0.4287
   63SOL    HW2 1089   5.502   6.622   5.379 -1.2581 -1.9193 -1.5341
   64SOL     OW 1090   6.816   1.210   0.001  0.0474  0.2220  0.2705
   64SOL    HW1 1091   6.915   1.211  -0.015  0.3806  2.4089  2.1231
   64SOL    HW2 1092   6.782   1.304   0.010 -2.1393 -0.5016  0.1916
   65SOL     OW 1093   3.027   5.718   3.194 -0.0757 -0.2181  0.3534
   65SOL    HW1 1094   2.978   5.632   3.211  1.0998 -0.5163  2.4930
   65SOL    HW2 1095   3.106   5.700   3.135 -2.1902  0.2132 -2.8503
   66SOL     OW 1096   6.259   6.592   7.007 -0.2068  0.1000 -0.1107
   66SOL    HW1 1097   6.302   6.566   7.093  0.4752 -0.2295 -0.5447
   66SOL    HW2 1098   6.325   6.644   6.951 -0.9184  1.0732 -0.0743
   67SOL     OW 1099   1.341   3.156   5.437 -0.2056 -0.0176  0.3010
   67SOL    HW1 1100   1.354   3.059   5.459  0.8851  0.0774  0.1280
   67SOL    HW2 1101   1.318   3.165   5.340 -0.1472 -0.0810  0.2811
   68SOL     OW 1102   1.927   4.883   2.948 -0.0525  0.2712  0.0426
   68SOL    HW1 1103   2.025   4.873   2.930 -0.2012 -2.3009  0.2304
   68SOL    HW2 1104   1.883   4.926   2.869  1.1068  0.7905 -0.3431
   69SOL     OW 1105   1.927   3.446   0.371  0.5915 -0.8849  0.2000
   69SOL    HW1 1106   1.929   3.357   0.325  0.3651 -0.7233 -0.1288
   69SOL    HW2 1107   2.009   3.497   0.347  0.7592 -1.0380  0.4519
   70SOL     OW 1108   5.947   1.381   0.504  0.1906  0.1117 -0.0005
   70SOL    HW1 1109   5.863   1.415   0.463 -0.5526 -0.9513  0.5725
   70SOL    HW2 1110   5.982   1.304   0.451 -0.8435 -1.3519  1.3220
   71SOL     OW 1111   3.959   2.719   0.785 -0.1150 -0.0287  0.2783
   71SOL    HW1 1112   4.059   2.722   0.785 -0.1236  0.7343 -0.6365
   71SOL    HW2 1113   3.923   2.799   0.832 -0.3023 -0.2975  0.5978
   72SOL     OW 1114   0.796   1.444   1.798 -0.1670 -0.1702  0.0112
   72SOL    HW1 1115   0.717   1.495   1.833 -0.7279 -1.1771  0.2461
   72SOL    HW2 1116   0.861   1.428   1.872 -0.5049 -0.7282  0.1954
   73SOL     OW 1117   1.272   0.888   4.173  0.1933  0.3266  0.0193
   73SOL    HW1 1118   1.322   0.927   4.095  0.3668  0.5482  0.2393
   73SOL    HW2 1119   1.175   0.909   4.164 -0.0879 -1.2628 -1.1184
   74SOL     OW 1120   6.517   5.483   2.592  0.4759  0.3965  0.6446
   74SOL    HW1 1121   6.572   5.403   2.569 -2.0811 -1.2920  0.0199
   74SOL    HW2 1122   6.473   5.469   2.681 -1.5932  0.1068 -0.3556
   75SOL     OW 1123   5.037   4.942   1.025  0.0331  0.0611  0.2471
   75SOL    HW1 1124   5.039   5.025   1.081 -0.1987  1.3287 -1.5520
   75SOL    HW2 1125   4.982   4.958   0.943 -1.6007 -2.4795  0.7255
   76SOL     OW 1126   5.564   2.919   2.010 -0.3532  0.2438 -0.0916
   76SOL    HW1 1127   5.542   3.013   2.035 -1.5202 -0.1446  0.4203
   76SOL    HW2 1128   5.641   2.886   2.066  0.4977  1.0811 -0.7337
   77SOL     OW 1129   3.887   0.718   5.582  0.0054  0.0318 -0.0173
   77SOL    HW1 1130   3.888   0.623   5.613  3.9266  0.3214  1.3014
   77SOL    HW2 1131   3.962   0.768   5.625 -1.0691  3.4403 -1.7102
   78SOL     OW 1132   4.992   0.298   3.626 -0.2784 -0.0459 -0.6086
   78SOL    HW1 1133   5.054   0.320   3.551  0.2553  0.1068 -0.1217
   78SOL    HW2 1134   5.025   0.217   3.675  0.4776  1.0371  0.7138
   79SOL     OW 1135   5.805   5.232   3.301 -0.2467  0.2022  0.2302
   79SOL    HW1 1136   5.794   5.315   3.247 -0.2422 -0.5540 -0.9851
   79SOL    HW2 1137   5.893   5.235   3.349  0.3014  0.4101 -0.7461
   80SOL     OW 1138   4.846   0.943   1.704  0.1473  0.2270 -0.3577
   80SOL    HW1 1139   4.767   0.993   1.667  0.6190  0.9218 -0.4466
   80SOL    HW2 1140   4.898   1.003   1.764  1.3065  0.1784 -1.2852
   81SOL     OW 1141   5.115   6.777   4.044  0.0138  0.2340  0.2570
   81SOL    HW1 1142   5.040   6.802   4.104  0.5675  0.8532  0.7092
   81SOL    HW2 1143   5.202   6.783   4.094  0.4065 -0.0511 -0.3717
   82SOL     OW 1144   0.475   1.652   4.938  0.0853  0.4729  0.3030
   82SOL    HW1 1145   0.461   1.731   4.998 -0.5678  0.2963  0.3895
   82SOL    HW2 1146   0.555   1.600   4.969  0.4682  1.0487  0.2968
   83SOL     OW 1147   3.354   6.530   4.785 -0.1319 -0.6921 -0.0445
   83SOL    HW1 1148   3.313   6.499   4.699 -1.9067  1.2051  0.0629
   83SOL    HW2 1149   3.407   6.613   4.769 -0.0241 -0.6256  0.6190
   84SOL     OW 1150   4.699   6.627   6.543  0.2698  0.2563 -0.4199
   84SOL    HW1 1151   4.698   6.690   6.621 -0.8985 -1.3538  0.9572
   84SOL    HW2 1152   4.785   6.577   6.541 -0.9759 -2.3091  2.1942
   85SOL     OW 1153   1.369   1.569   1.053  0.7406  0.2912  0.0455
   85SOL    HW1 1154   1.385   1.506   0.977 -2.2301  1.8069 -1.9875
   85SOL    HW2 1155   1.297   1.532   1.112 -0.6801  1.4286 -0.8943
   86SOL     OW 1156   6.526   5.357   5.000 -0.9793  0.0469 -0.0978
   86SOL    HW1 1157   6.477   5.270   4.991 -1.3213  0.1342  0.9068
   86SOL    HW2 1158   6.462   5.429   5.025 -0.1342 -0.1925  3.1340
   87SOL     OW 1159   0.855   5.261   4.534  0.3962  0.7213  0.1093
   87SOL    HW1 1160   0.758   5.265   4.557  0.5013 -0.0567  0.7558
   87SOL    HW2 1161   0.866   5.252   4.435 -0.1179  2.7317 -0.1820
   88SOL     OW 1162   1.075   1.642   0.276 -0.0187 -0.1079  0.2009
   88SOL    HW1 1163   1.171   1.658   0.254 -0.6281 -0.0168 -2.8515
   88SOL    HW2 1164   1.035   1.726   0.312  0.3870  0.7967 -1.3484
   89SOL     OW 1165   5.183   0.030   1.101 -0.2160  0.8297 -0.1853
   89SOL    HW1 1166   5.229  -0.016   1.026 -1.0804 -2.1682  0.9741
   89SOL    HW2 1167   5.092   0.059   1.071 -0.8871 -1.1004 -0.1666
   90SOL     OW 1168   5.776   2.646   1.750  0.0560 -0.5192 -0.2936
   90SOL    HW1 1169   5.709   2.622   1.680 -2.1901 -2.1198  2.2109
   90SOL    HW2 1170   5.768   2.743   1.772  1.5717  0.2880 -2.8940
   91SOL     OW 1171   4.135   1.329   4.591  0.0554  0.0366 -0.1433
   91SOL    HW1 1172   4.136   1.310   4.492 -1.4730  0.5097 -0.2737
   91SOL    HW2 1173   4.080   1.411   4.608  1.2841  0.6557  1.0103
   92SOL     OW 1174   2.071   1.281   6.417 -0.3120 -0.1872  0.4209
   92SOL    HW1 1175   2.102   1.246   6.505 -0.1418 -1.7784 -0.2357
   92SOL    HW2 1176   1.972   1.293   6.419 -0.2139  0.5826  1.0784
   93SOL     OW 1177   6.010   0.966   3.352  0.1534 -0.2684  0.2323
   93SOL    HW1 1178   5.911   0.957   3.366  0.2552 -0.8613  0.6102
   93SOL    HW2 1179   6.035   0.923   3.265  0.1311 -0.4451  0.3135
   94SOL     OW 1180   5.254   6.341   1.168 -0.4968  0.2893  0.8012
   94SOL    HW1 1181   5.159   6.350   1.139  0.1118  0.7431 -1.2228
   94SOL    HW2 1182   5.313   6.335   1.088  1.2053  0.0310  2.0087
   95SOL     OW 1183   0.386   2.978   5.098  0.2215 -0.2473 -0.2494
   95SOL    HW1 1184   0.480   2.971   5.063  0.6130  0.7536  0.5367
   95SOL    HW2 1185   0.324   2.932   5.035  1.1518 -0.3278 -1.1452
   96SOL     OW 1186   3.110   2.042   6.325 -0.1737 -0.1933  0.5028
   96SOL    HW1 1187   3.119   2.010   6.419 -0.6280  0.2243  0.6936
   96SOL    HW2 1188   3.014   2.037   6.297 -0.4513  1.9069  0.8931
   97SOL     OW 1189   2.504   6.855   2.619 -0.2827 -0.4601 -0.3949
   97SOL    HW1 1190   2.464   6.910   2.692  0.7643  0.3448 -0.4013
   97SOL    HW2 1191   2.483   6.759   2.634  0.5363 -0.3940  1.3814
   98SOL     OW 1192   3.062   4.743   6.731 -0.3948  0.4161 -0.2031
   98SOL    HW1 1193   2.970   4.728   6.769  0.1041 -1.2755  0.4238
   98SOL    HW2 1194   3.079   4.675   6.659  0.0542  1.2696 -0.9126
   99SOL     OW 1195   4.196   0.141   6.754 -0.2705 -0.3000 -0.1110
   99SOL    HW1 1196   4.201   0.136   6.654 -0.1853  0.5572 -0.1548
   99SOL    HW2 1197   4.115   0.193   6.780 -0.2878 -0.5172  0.2650
  100SOL     OW 1198   2.227   1.595   2.516  0.0603  0.6488  0.1643
  100SOL    HW1 1199   2.208   1.600   2.418  2.5843 -0.0390 -0.4187
  100SOL    HW2 1200   2.203   1.505   2.551 -0.5762  0.8038  0.1479
  101SOL     OW 1201   2.262   3.362   5.215 -0.1497  0.1529 -0.0465
  101SOL    HW1 1202   2.217   3.451   5.212  0.2986  0.3790 -0.0970
  101SOL    HW2 1203   2.201   3.293   5.176 -0.6675  0.3609  0.3790
  102SOL     OW 1204   3.866   0.271   5.953  0.2443 -0.0108 -0.0328
  102SOL    HW1 1205   3.839   0.364   5.927 -1.4193 -0.3079  0.4957
  102SOL    HW2 1206   3.950   0.275   6.008 -0.8242  1.4024  1.6362
  103SOL     OW 1207   6.694   0.239   0.946  0.3079 -0.5018  0.2962
  103SOL    HW1 1208   6.697   0.146   0.980 -0.4788  0.0215  1.8975
  103SOL    HW2 1209   6.651   0.299   1.014 -2.4938  0.4255 -2.0725
  104SOL     OW 1210   2.136   1.192   5.447  0.6329 -0.2993  0.0697
  104SOL    HW1 1211   2.052   1.137   5.456 -0.7434  1.9682  2.4212
  104SOL    HW2 1212   2.201   1.166   5.518  1.1189 -0.6939 -0.5094
  105SOL     OW 1213   1.740   3.401   6.363 -0.3014 -0.4923 -0.1545
  105SOL    HW1 1214   1.670   3.353   6.416  0.0068  0.9120  1.6471
  105SOL    HW2 1215   1.709   3.495   6.345  1.2894  0.3529  1.2114
  106SOL     OW 1216   3.671   1.252   3.985  0.6149  0.6310 -0.1773
  106SOL    HW1 1217   3.695   1.316   4.058  0.4985  1.5518 -0.9239
  106SOL    HW2 1218   3.572   1.249   3.973  0.5113 -0.7805  0.7916
  107SOL     OW 1219   2.211   6.052   1.944 -0.1777  0.5565  0.3108
  107SOL    HW1 1220   2.125   6.080   1.901 -0.6712  0.0139  0.9222
  107SOL    HW2 1221   2.235   6.118   2.016 -0.4259  0.3655  0.5732
  108SOL     OW 1222   0.551   2.482   0.903 -0.1291 -0.1699 -0.3508
  108SOL    HW1 1223   0.466   2.483   0.956 -0.5892 -1.6019 -1.0106
  108SOL    HW2 1224   0.628   2.465   0.964 -0.4859 -0.3019  0.0676
  109SOL     OW 1225   5.858   6.409   4.289 -0.5574  0.1512 -0.3013
  109SOL    HW1 1226   5.811   6.493   4.316 -0.2450  0.9928 -2.2285
  109SOL    HW2 1227   5.793   6.346   4.245 -0.3775  0.2792 -0.7551
  110SOL     OW 1228   5.774   2.268   4.701 -0.0141  0.4019  0.2801
  110SOL    HW1 1229   5.708   2.193   4.694  0.8236 -0.2962 -0.4871
  110SOL    HW2 1230   5.788   2.308   4.610 -0.9040  1.9043  0.7845
  111SOL     OW 1231   0.829   3.322   0.421 -0.9676 -0.3857 -0.2169
  111SOL    HW1 1232   0.875   3.282   0.501 -1.9708 -0.0220  0.5571
  111SOL    HW2 1233   0.730   3.323   0.436 -1.0521  1.3783 -0.6711
  112SOL     OW 1234   4.683   0.048   2.529 -0.7380  0.4139 -0.2056
  112SOL    HW1 1235   4.680  -0.011   2.610 -1.1966  0.3123 -0.2916
  112SOL    HW2 1236   4.620   0.125   2.543  0.2677  1.1939  0.1400
  113SOL     OW 1237   1.224   6.626   5.614  0.3897 -0.1865  0.1329
  113SOL    HW1 1238   1.249   6.580   5.529 -2.4967 -1.3592 -0.1910
  113SOL    HW2 1239   1.127   6.613   5.632  0.2965  2.4334  2.1894
  114SOL     OW 1240   4.331   4.872   1.202  0.5718  0.4518  0.2546
  114SOL    HW1 1241   4.408   4.932   1.179 -0.3610  1.2200 -0.9899
  114SOL    HW2 1242   4.263   4.923   1.254  1.0626 -0.3429  1.7360
  115SOL     OW 1243   5.170   6.962   2.724 -0.6867 -0.1843 -0.7276
  115SOL    HW1 1244   5.090   6.985   2.780 -0.7914 -0.8812 -0.5838
  115SOL    HW2 1245   5.140   6.935   2.633 -0.5666  0.1855 -0.8790
  116SOL     OW 1246   0.586   3.893   5.031 -0.1788  0.4955  0.4252
  116SOL    HW1 1247   0.639   3.811   5.010 -0.8461 -0.0308  0.7538
  116SOL    HW2 1248   0.582   3.951   4.950 -0.7666 -0.4087 -0.2157
  117SOL     OW 1249   3.247   3.136   4.068  0.7161  0.2652  0.0912
  117SOL    HW1 1250   3.317   3.207   4.072  0.6463  0.3217  0.3458
  117SOL    HW2 1251   3.166   3.171   4.020  1.6095 -0.4588 -2.0674
  118SOL     OW 1252   3.084   5.564   4.498 -0.0113 -0.5355 -0.2070
  118SOL    HW1 1253   3.091   5.484   4.438 -2.7801 -1.1644  0.1535
  118SOL    HW2 1254   3.101   5.537   4.592  1.0004 -0.2507 -0.2962
  119SOL     OW 1255   1.906   6.288   2.830 -0.9804  0.2988  0.3853
  119SOL    HW1 1256   1.966   6.363   2.857 -1.3787  0.8902 -0.3461
  119SOL    HW2 1257   1.903   6.220   2.904  0.5525  0.2650  0.4458
  120SOL     OW 1258   0.985   5.079   3.905 -0.0837  0.3042  0.6751
  120SOL    HW1 1259   1.020   5.084   3.811 -0.7436 -2.8150  0.1584
  120SOL    HW2 1260   0.888   5.056   3.903 -0.0257 -0.1460  2.1204
  121SOL     OW 1261   3.156   2.180   1.830  0.6168 -0.1600 -0.1166
  121SOL    HW1 1262   3.183   2.091   1.867  0.7717 -0.5431 -1.1397
  121SOL    HW2 1263   3.236   2.229   1.797  0.3803 -0.2210 -0.8058
  122SOL     OW 1264   3.685   6.722   0.719  0.1642 -0.0415  0.2103
  122SOL    HW1 1265   3.717   6.727   0.814  0.7624 -0.1562  0.0168
  122SOL    HW2 1266   3.752   6.766   0.659 -2.1295  4.0624  0.2545
  123SOL     OW 1267   4.988   1.212   3.284 -0.1927  0.2057 -0.0194
  123SOL    HW1 1268   5.039   1.126   3.290 -0.5536 -0.1157 -1.3696
  123SOL    HW2 1269   5.040   1.284   3.331  0.5840 -0.5247  0.2764
  124SOL     OW 1270   3.591   5.137   4.285  0.7043 -0.0006 -0.1594
  124SOL    HW1 1271   3.670   5.077   4.283  1.6280  1.1638  0.1736
  124SOL    HW2 1272   3.568   5.159   4.380  0.4808  0.3023 -0.2830
  125SOL     OW 1273   4.076   5.111   3.447 -0.1312 -0.3662 -0.1049
  125SOL    HW1 1274   4.163   5.064   3.464 -0.5179 -0.6355  1.2198
  125SOL    HW2 1275   4.005   5.044   3.427 -0.4461 -0.2766  0.7051
  126SOL     OW 1276   5.625   2.325   6.507  0.3031 -0.6093  0.3682
  126SOL    HW1 1277   5.586   2.261   6.573 -0.2627 -1.6108 -0.8992
  126SOL    HW2 1278   5.702   2.281   6.460  0.5964  0.0346  0.2370
  127SOL     OW 1279   3.993   1.778   1.080 -0.2886 -0.5052  0.1412
  127SOL    HW1 1280   3.940   1.790   0.996  0.7573 -1.1117 -0.6271
  127SOL    HW2 1281   3.939   1.728   1.147 -2.3548  2.6638  1.0800
  128SOL     OW 1282   5.305   0.886   3.603  0.1578 -0.1877  0.2306
  128SOL    HW1 1283   5.268   0.975   3.629 -0.8042 -0.3569 -0.5103
  128SOL    HW2 1284   5.405   0.891   3.600  0.1395  0.7009  0.7684
  129SOL     OW 1285   7.002   3.732   4.324  0.0476 -0.1568  0.1546
  129SOL    HW1 1286   6.927   3.798   4.328 -0.5896 -0.8696  0.1053
  129SOL    HW2 1287   7.074   3.767   4.264 -0.3489  0.4221  0.0090
  130SOL     OW 1288   5.194   1.430   6.028  0.1718  0.3639 -0.4279
  130SOL    HW1 1289   5.267   1.467   5.971  0.5400 -1.2865 -1.0745
  130SOL    HW2 1290   5.200   1.470   6.120  1.5206  0.6858 -0.6382
  131SOL     OW 1291   5.358   2.346   3.843  0.4027  0.4893  0.0819
  131SOL    HW1 1292   5.259   2.340   3.848  0.3772  0.8859  0.1320
  131SOL    HW2 1293   5.391   2.302   3.760  0.1019  1.2163 -0.4291
  132SOL     OW 1294   4.225   2.779   0.789 -0.0750 -0.1179  0.2377
  132SOL    HW1 1295   4.242   2.754   0.885  0.9362  0.0403  0.1156
  132SOL    HW2 1296   4.240   2.878   0.778  0.0255 -0.1726 -0.1233
  133SOL     OW 1297   1.876   4.220   0.491 -0.4808  0.0213  0.1859
  133SOL    HW1 1298   1.832   4.303   0.523 -1.9270 -0.2123 -1.0666
  133SOL    HW2 1299   1.826   4.184   0.412  0.3405 -1.8224  0.4514
  134SOL     OW 1300   6.960   1.400   3.619 -0.7729  0.6879  0.7516
  134SOL    HW1 1301   6.966   1.301   3.632 -0.3075  0.5319 -0.5152
  134SOL    HW2 1302   6.881   1.421   3.561 -1.1324  1.1006  1.3841
  135SOL     OW 1303   1.125   6.101   1.278  0.2488 -0.0537  0.1720
  135SOL    HW1 1304   1.208   6.153   1.298  0.3037 -0.0169 -0.1436
  135SOL    HW2 1305   1.145   6.032   1.208 -0.1872  0.5392 -0.5552
  136SOL     OW 1306   3.887   0.407   2.195 -0.0581 -0.1044 -0.4135
  136SOL    HW1 1307   3.883   0.506   2.188 -1.1442 -0.1777 -1.1278
  136SOL    HW2 1308   3.842   0.377   2.279  0.2670 -0.0017 -0.2000
  137SOL     OW 1309   5.815   5.061   1.224  0.3169 -0.1169 -0.1360
  137SOL    HW1 1310   5.887   5.128   1.208  0.8328 -0.4977  0.5524
  137SOL    HW2 1311   5.733   5.087   1.172  1.0433  0.1398 -1.1751
  138SOL     OW 1312   2.901   1.938   3.487 -0.0724 -0.4746  0.0510
  138SOL    HW1 1313   2.911   1.887   3.572  0.5696 -2.1170 -0.9723
  138SOL    HW2 1314   2.805   1.965   3.475 -0.2283 -0.5181  1.1167
  139SOL     OW 1315   1.568   2.439   4.805 -0.0328 -0.2637 -0.5552
  139SOL    HW1 1316   1.485   2.491   4.786 -0.6724 -2.0621 -3.2356
  139SOL    HW2 1317   1.647   2.489   4.768 -0.1207  0.5294  0.2779
  140SOL     OW 1318   6.978   3.900   4.932  0.0648 -0.6649  0.3982
  140SOL    HW1 1319   7.058   3.850   4.966  1.2501  0.4901 -0.5718
  140SOL    HW2 1320   6.970   3.885   4.834 -0.7867 -0.5765  0.4531
  141SOL     OW 1321   5.110   4.169   6.533 -0.3176 -0.6455 -0.3378
  141SOL    HW1 1322   5.194   4.132   6.492  0.8158  0.5288  0.8201
  141SOL    HW2 1323   5.049   4.095   6.558  0.9031 -1.6088 -0.1296
  142SOL     OW 1324   1.129   2.783   5.525 -0.7022  0.7195  0.6238
  142SOL    HW1 1325   1.216   2.793   5.572 -0.6159 -1.1376  0.9445
  142SOL    HW2 1326   1.135   2.707   5.460 -2.1854  0.3318  0.9079
  143SOL     OW 1327   3.031   3.716   2.804 -0.3448  0.3286 -0.1813
  143SOL    HW1 1328   2.947   3.743   2.758 -1.1331  1.1255  1.6369
  143SOL    HW2 1329   3.073   3.796   2.847  0.4450 -0.3492  0.3554
  144SOL     OW 1330   3.259   2.841   5.965 -0.3519  0.2972 -1.0697
  144SOL    HW1 1331   3.356   2.865   5.962 -0.3142  0.6318  1.2550
  144SOL    HW2 1332   3.245   2.756   5.914  1.6734 -1.2104  0.6738
  145SOL     OW 1333   6.370   5.673   1.905 -0.1755 -0.5291  0.3373
  145SOL    HW1 1334   6.353   5.752   1.964 -0.7616 -0.8256  0.5791
  145SOL    HW2 1335   6.377   5.704   1.810 -0.1482 -0.1536  0.4583
  146SOL     OW 1336   1.142   1.186   6.512  0.1034 -0.2358 -0.2893
  146SOL    HW1 1337   1.147   1.122   6.589  0.9024  0.5398  0.3381
  146SOL    HW2 1338   1.109   1.139   6.431 -1.2237 -0.9733  0.6415
  147SOL     OW 1339   6.856   6.367   0.245  0.2854 -0.1805  0.2485
  147SOL    HW1 1340   6.922   6.394   0.315  1.3585 -1.1578 -0.3464
  147SOL    HW2 1341   6.793   6.299   0.283 -0.1333  0.4535  0.7022
  148SOL     OW 1342   1.133   5.155   6.848  0.1770  0.1727  0.2712
  148SOL    HW1 1343   1.106   5.162   6.752  0.7410 -1.1545 -0.0079
  148SOL    HW2 1344   1.151   5.059   6.870 -1.2840  0.2570  2.0835
  149SOL     OW 1345   4.591   2.078   2.715 -0.4117 -0.5764 -0.3811
  149SOL    HW1 1346   4.677   2.069   2.764 -1.0198 -0.7217  0.7030
  149SOL    HW2 1347   4.516   2.044   2.773 -1.3643  0.8164 -0.7446
  150SOL     OW 1348   0.505   1.617   6.777 -0.3819 -0.5671  0.1387
  150SOL    HW1 1349   0.432   1.678   6.809  0.6765  0.8681 -0.0859
  150SOL    HW2 1350   0.538   1.561   6.854 -0.7769 -0.2287  0.5580
  151SOL     OW 1351   6.197   5.321   0.711  0.1550 -0.1533 -0.4599
  151SOL    HW1 1352   6.115   5.301   0.764  0.0567  0.8136 -0.2299
  151SOL    HW2 1353   6.250   5.237   0.699 -0.6467 -0.7037 -0.2482
  152SOL     OW 1354   2.993   3.579   4.233 -0.2938  0.9503 -0.0707
  152SOL    HW1 1355   3.009   3.677   4.227 -0.6550  1.0394  0.4516
  152SOL    HW2 1356   2.948   3.557   4.319 -1.6969  0.5155 -0.8924
  153SOL     OW 1357   4.135   2.747   5.351 -0.3243 -0.1630  0.0076
  153SOL    HW1 1358   4.141   2.723   5.448 -2.9343  1.4534  0.6863
  153SOL    HW2 1359   4.125   2.664   5.296  1.4679 -1.1166  1.0587
  154SOL     OW 1360   1.423   0.189   4.858 -0.1479 -0.6860  0.3028
  154SOL    HW1 1361   1.493   0.183   4.929 -0.0015 -0.0130  0.2205
  154SOL    HW2 1362   1.415   0.101   4.812  1.8918 -0.3365 -0.8650
  155SOL     OW 1363   3.971   6.375   5.062 -0.4828  0.2429  0.0288
  155SOL    HW1 1364   3.943   6.411   5.151  3.2212 -0.1373  1.5254
  155SOL    HW2 1365   3.985   6.276   5.068  0.3777  0.2932 -0.8022
  156SOL     OW 1366   2.080   6.782   5.579  0.6124  0.9903  0.5575
  156SOL    HW1 1367   2.164   6.732   5.596  0.5839 -0.0802 -2.0084
  156SOL    HW2 1368   2.012   6.757   5.648  1.2677 -0.9341  0.5586
  157SOL     OW 1369   3.353   4.900   2.933  0.3062 -0.5712  0.0319
  157SOL    HW1 1370   3.415   4.846   2.877 -0.0976 -1.7535  0.7007
  157SOL    HW2 1371   3.259   4.876   2.912  0.0736  0.5597 -0.3259
  158SOL     OW 1372   4.145   1.377   2.912 -0.7735  0.0813  0.2862
  158SOL    HW1 1373   4.092   1.452   2.873 -1.2017 -0.7280 -0.7237
  158SOL    HW2 1374   4.233   1.412   2.945 -0.4993  0.8453 -1.1855
  159SOL     OW 1375   4.608   3.353   0.521  0.4168 -1.0842 -0.2136
  159SOL    HW1 1376   4.590   3.328   0.426  1.4430  0.7607 -0.9538
  159SOL    HW2 1377   4.695   3.402   0.526  0.8412 -1.9735  1.8506
  160SOL     OW 1378   6.063   1.831   6.931  0.4212 -0.4172 -0.1338
  160SOL    HW1 1379   6.014   1.801   7.012 -1.0321  0.6367 -0.5704
  160SOL    HW2 1380   6.083   1.929   6.939  1.1082 -0.5100 -0.6389
  161SOL     OW 1381   2.952   3.751   0.800 -0.1013  0.0396 -0.0525
  161SOL    HW1 1382   2.974   3.788   0.710 -1.7279  1.4862  0.0761
  161SOL    HW2 1383   3.019   3.682   0.826  0.4157 -0.3863 -2.3455
  162SOL     OW 1384   2.025   0.184   3.895 -0.1643 -0.1297  0.1984
  162SOL    HW1 1385   2.083   0.103   3.890 -0.9985 -0.8292  1.4594
  162SOL    HW2 1386   2.081   0.266   3.883  1.3795 -0.6920  2.8451
  163SOL     OW 1387   6.657   5.594   2.332  0.4189  0.2530 -0.5201
  163SOL    HW1 1388   6.603   5.520   2.292  0.0146  0.1277  0.2482
  163SOL    HW2 1389   6.608   5.681   2.322 -0.3324  0.0237  0.8947
  164SOL     OW 1390   4.305   0.637   4.966  0.1539  0.1229 -0.1617
  164SOL    HW1 1391   4.312   0.728   4.924  0.3407  0.8017  1.2617
  164SOL    HW2 1392   4.397   0.600   4.977  0.0118 -0.8869 -2.0155
  165SOL     OW 1393   5.885   2.924   4.384 -0.5579 -0.2138  0.1683
  165SOL    HW1 1394   5.965   2.977   4.353 -0.7816 -0.5724 -1.0965
  165SOL    HW2 1395   5.859   2.859   4.312  0.0193 -2.4242  1.8358
  166SOL     OW 1396   5.859   4.328   5.810  0.2089 -0.5137 -0.3033
  166SOL    HW1 1397   5.879   4.231   5.822  0.7739 -0.4602 -0.7550
  166SOL    HW2 1398   5.899   4.380   5.886 -0.1229 -0.6307 -0.0436
  167SOL     OW 1399   6.545   1.223   2.866  0.6311  0.1801 -0.0500
  167SOL    HW1 1400   6.464   1.256   2.914  2.0587  1.7183  1.4388
  167SOL    HW2 1401   6.610   1.185   2.933  1.0170 -1.3744 -1.2495
  168SOL     OW 1402   4.860   6.691   0.416  0.0420  0.4404 -0.4151
  168SOL    HW1 1403   4.776   6.638   0.430  0.3361 -0.0471 -0.4823
  168SOL    HW2 1404   4.938   6.629   0.415  0.3051  0.7773 -1.4191
  169SOL     OW 1405   0.757   5.204   5.207  0.0551  0.3230 -0.2528
  169SOL    HW1 1406   0.680   5.208   5.269 -1.3508 -0.4244 -1.8688
  169SOL    HW2 1407   0.827   5.143   5.244 -1.4540 -1.3982 -0.1252
  170SOL     OW 1408   5.574   6.368   1.385  0.3065  0.5148  0.4926
  170SOL    HW1 1409   5.483   6.342   1.418 -0.1053 -0.2642 -1.1671
  170SOL    HW2 1410   5.643   6.319   1.437 -0.2636  0.2452  1.0106
  171SOL     OW 1411   0.828   1.325   6.832  0.1715 -0.3201  0.3895
  171SOL    HW1 1412   0.908   1.272   6.804  0.1997  0.7531 -1.7645
  171SOL    HW2 1413   0.770   1.342   6.753 -1.6864 -0.1706  1.7160
  172SOL     OW 1414   4.987   2.242   3.118  0.2620  0.0105  0.0533
  172SOL    HW1 1415   4.959   2.202   3.031 -0.0076 -0.6259  0.4244
  172SOL    HW2 1416   4.931   2.323   3.137  1.8422  1.5484 -1.4511
  173SOL     OW 1417   1.358   4.181   0.147 -0.2666  0.2748  0.4370
  173SOL    HW1 1418   1.447   4.217   0.122 -0.9172  0.4930 -1.8259
  173SOL    HW2 1419   1.320   4.233   0.223  1.7555 -0.2400  1.8745
  174SOL     OW 1420   6.812   6.934   0.958  0.1928 -0.7939  0.0208
  174SOL    HW1 1421   6.736   6.949   1.022  0.9763 -0.9339  1.0171
  174SOL    HW2 1422   6.835   6.837   0.957  2.1970 -0.4193  1.9593
  175SOL     OW 1423   6.673   3.293   2.958 -0.2893  0.4404 -0.1753
  175SOL    HW1 1424   6.748   3.342   3.002 -1.4882  1.4627  0.7943
  175SOL    HW2 1425   6.632   3.352   2.888  1.1065 -0.8817 -2.2354
  176SOL     OW 1426   2.350   4.856   5.440  0.0532  0.5742  0.5887
  176SOL    HW1 1427   2.401   4.869   5.525  0.8933  0.3790  0.1194
  176SOL    HW2 1428   2.384   4.920   5.371  0.4669 -0.3438 -0.0793
  177SOL     OW 1429   6.621   2.013   2.134 -0.3963 -0.2644 -0.6441
  177SOL    HW1 1430   6.640   1.978   2.042  1.7089  1.6690 -1.0181
  177SOL    HW2 1431   6.585   2.106   2.127 -0.2758 -0.1227  0.4859
  178SOL     OW 1432   6.603   6.352   3.957  0.0131 -0.1856 -0.2923
  178SOL    HW1 1433   6.571   6.416   3.887  0.4823 -2.2835 -2.5799
  178SOL    HW2 1434   6.698   6.325   3.937 -0.8681 -3.2995 -0.8546
  179SOL     OW 1435   1.233   4.766   0.189  0.4766  0.5082 -0.3332
  179SOL    HW1 1436   1.295   4.835   0.150  1.7156 -0.2675  0.1981
  179SOL    HW2 1437   1.180   4.807   0.263  0.5584  1.1145 -0.6071
  180SOL     OW 1438   6.766   6.884   1.561  0.6948  0.0842  0.5215
  180SOL    HW1 1439   6.838   6.950   1.581  1.6016 -0.5735 -0.4442
  180SOL    HW2 1440   6.745   6.886   1.463 -1.2164  0.8475  0.9072
  181SOL     OW 1441   4.240   6.295   5.048  0.6045 -0.6789  0.1379
  181SOL    HW1 1442   4.213   6.383   5.088  2.4488 -0.7656  1.7019
  181SOL    HW2 1443   4.238   6.224   5.118  2.8006 -1.0927 -0.1464
  182SOL     OW 1444   6.400   6.930   0.945 -0.3576 -0.2317 -0.0523
  182SOL    HW1 1445   6.330   6.971   1.004 -0.3837  1.2912 -1.0830
  182SOL    HW2 1446   6.360   6.910   0.856  0.1796 -0.6190 -0.2088
  183SOL     OW 1447   0.218   2.024   3.664 -0.6688  0.2346  0.0696
  183SOL    HW1 1448   0.314   2.051   3.651 -0.2414 -0.7344  1.0566
  183SOL    HW2 1449   0.205   1.931   3.630 -1.0876  0.1144  0.5445
  184SOL     OW 1450   5.996   5.073   4.499  0.0252 -0.5642 -0.0215
  184SOL    HW1 1451   5.923   5.079   4.566  0.0097 -0.9403 -0.0033
  184SOL    HW2 1452   5.959   5.040   4.412  0.1660 -0.7386 -0.0170
  185SOL     OW 1453   3.537   6.113   1.270 -0.5914  1.0992  0.0573
  185SOL    HW1 1454   3.551   6.115   1.171 -1.9395  0.6202 -0.1525
  185SOL    HW2 1455   3.509   6.203   1.301 -1.6516  0.8799 -0.2348
  186SOL     OW 1456   0.886   3.085   4.684 -0.2369  0.3205 -0.3798
  186SOL    HW1 1457   0.786   3.092   4.688 -0.1173  3.6119 -0.6364
  186SOL    HW2 1458   0.917   3.110   4.592  0.8332 -2.0949 -0.7550
  187SOL     OW 1459   3.183   3.461   5.267  0.2575  0.7022 -0.2213
  187SOL    HW1 1460   3.225   3.427   5.351  0.9091  1.8222 -0.0674
  187SOL    HW2 1461   3.255   3.489   5.203 -0.2295 -0.1934 -1.1897
  188SOL     OW 1462   2.969   6.706   3.653  0.0633 -0.1076  0.0306
  188SOL    HW1 1463   3.043   6.760   3.694 -1.5458  2.2778  0.0291
  188SOL    HW2 1464   2.984   6.699   3.554  0.8930 -0.7295  0.1876
  189SOL     OW 1465   4.685   5.183   2.667 -0.0533  0.3040 -0.0265
  189SOL    HW1 1466   4.657   5.250   2.736  0.8435 -0.7505  1.4110
  189SOL    HW2 1467   4.757   5.125   2.704  0.7847 -0.0294 -2.0234
  190SOL     OW 1468   4.240   4.892   2.567 -0.2142 -0.2188 -0.1077
  190SOL    HW1 1469   4.263   4.979   2.610 -1.0093 -0.2258  0.3626
  190SOL    HW2 1470   4.238   4.903   2.468 -0.1265  0.2529 -0.0585
  191SOL     OW 1471   1.180   1.716   4.546 -0.1717  0.2071 -0.3350
  191SOL    HW1 1472   1.155   1.766   4.462 -0.4403 -1.1246 -1.0771
  191SOL    HW2 1473   1.270   1.746   4.577 -0.4493  1.3512 -0.5883
  192SOL     OW 1474   0.817   5.138   5.665  0.0255 -0.1521  0.2382
  192SOL    HW1 1475   0.871   5.179   5.591  1.7348 -0.7217  1.1271
  192SOL    HW2 1476   0.878   5.091   5.729 -1.4914 -0.3756  1.5782
  193SOL     OW 1477   1.176   3.333   3.492 -0.5941  0.3535 -0.0393
  193SOL    HW1 1478   1.199   3.376   3.579 -1.4001 -0.8729  0.8191
  193SOL    HW2 1479   1.102   3.384   3.448  0.8114  1.8372 -0.7569
  194SOL     OW 1480   5.808   0.426   5.588  0.0991 -0.2682 -0.1017
  194SOL    HW1 1481   5.851   0.338   5.608 -0.7983 -0.4480  1.2025
  194SOL    HW2 1482   5.879   0.496   5.576  0.7892 -0.9138  0.1293
  195SOL     OW 1483   2.127   5.254   3.464  0.4938  0.0511 -0.0600
  195SOL    HW1 1484   2.181   5.180   3.504  1.2762  0.5604 -0.1476
  195SOL    HW2 1485   2.069   5.217   3.391  1.2106 -0.4164 -0.4091
  196SOL     OW 1486   3.087   0.789   3.165 -0.4012  0.3061  0.1686
  196SOL    HW1 1487   3.023   0.818   3.095 -0.1299 -0.2667 -0.3287
  196SOL    HW2 1488   3.130   0.870   3.207 -1.5040  0.6893  0.5739
  197SOL     OW 1489   5.676   4.084   0.006  0.0832 -0.1304  0.2025
  197SOL    HW1 1490   5.579   4.098   0.024 -0.1498  2.0455 -2.1088
  197SOL    HW2 1491   5.730   4.155   0.051  0.5823 -1.0965  1.1552
  198SOL     OW 1492   3.606   0.714   2.562  0.4496  0.1262 -0.2243
  198SOL    HW1 1493   3.548   0.794   2.571  0.9009  0.5042 -0.6140
  198SOL    HW2 1494   3.675   0.714   2.635  0.4427  0.0898 -0.2177
  199SOL     OW 1495   2.293   1.644   2.170 -0.2128  0.2663 -0.1279
  199SOL    HW1 1496   2.382   1.637   2.215 -0.8487 -1.8406  0.9286
  199SOL    HW2 1497   2.247   1.727   2.201 -0.2099 -0.6128  2.4215
  200SOL     OW 1498   2.050   5.530   1.167 -0.1456 -0.0911 -0.1392
  200SOL    HW1 1499   2.072   5.521   1.070  0.5303 -1.7400  0.1354
  200SOL    HW2 1500   2.134   5.541   1.219 -0.4066 -0.3906  0.3546
  201SOL     OW 1501   0.969   6.571   0.491 -0.4802 -0.1498  0.1007
  201SOL    HW1 1502   1.021   6.653   0.470  0.0295 -0.7460 -1.1003
  201SOL    HW2 1503   1.015   6.520   0.564  0.4761 -0.4907 -0.7037
  202SOL     OW 1504   4.434   5.678   6.961  0.5427 -0.0277  0.2776
  202SOL    HW1 1505   4.372   5.683   7.040 -0.6397 -3.3395 -0.2776
  202SOL    HW2 1506   4.410   5.749   6.895 -0.4632  0.8692  1.5587
  203SOL     OW 1507   2.289   1.927   5.977  0.1480  0.5166  0.0129
  203SOL    HW1 1508   2.201   1.962   5.948 -0.0191  0.9831  1.0565
  203SOL    HW2 1509   2.276   1.849   6.038  0.4623  0.5005  0.0650
  204SOL     OW 1510   3.362   1.983   4.134 -0.3115  0.2869 -0.4699
  204SOL    HW1 1511   3.303   2.047   4.182  1.6738  1.1184  1.0103
  204SOL    HW2 1512   3.420   1.935   4.200  1.2409  0.1105 -1.8817
  205SOL     OW 1513   0.947   5.805   4.972  0.0750 -0.2547  0.1503
  205SOL    HW1 1514   0.974   5.785   5.066 -2.0333 -0.2562  0.8088
  205SOL    HW2 1515   1.028   5.813   4.914  1.3641 -1.4951  1.7132
  206SOL     OW 1516   6.810   2.957   1.874 -0.0986  0.4061 -0.5322
  206SOL    HW1 1517   6.777   3.025   1.940 -1.8922  1.1684 -2.1132
  206SOL    HW2 1518   6.901   2.925   1.901 -0.2047  1.6869  1.5311
  207SOL     OW 1519   6.090   0.930   1.001 -0.2545 -0.0253  0.1773
  207SOL    HW1 1520   6.182   0.905   0.970 -0.9088 -0.3588 -1.6414
  207SOL    HW2 1521   6.026   0.858   0.973 -0.9887 -0.1252  2.0177
  208SOL     OW 1522   6.258   5.481   4.291  0.2346 -0.2229  0.0445
  208SOL    HW1 1523   6.239   5.385   4.270  0.9501 -0.0761 -1.4331
  208SOL    HW2 1524   6.205   5.509   4.371  0.3677 -1.9679  0.7954
  209SOL     OW 1525   1.865   3.108   2.581  0.2076  0.0689 -0.7990
  209SOL    HW1 1526   1.897   3.025   2.537  0.2038 -1.5351  1.9681
  209SOL    HW2 1527   1.943   3.166   2.605  0.3754 -0.0909 -0.9579
  210SOL     OW 1528   4.012   5.936   6.877 -0.3643 -0.1766  0.7923
  210SOL    HW1 1529   4.007   5.936   6.777 -1.3224  2.9477  0.7342
  210SOL    HW2 1530   4.078   6.005   6.907 -0.1864 -0.9832  2.3481
  211SOL     OW 1531   4.362   6.472   2.079 -0.5535  0.2874  0.0913
  211SOL    HW1 1532   4.307   6.389   2.074 -0.0713 -0.0762  0.7040
  211SOL    HW2 1533   4.306   6.547   2.116 -0.5794 -0.1329  0.9170
  212SOL     OW 1534   4.361   3.541   1.700 -0.1367  0.4318 -0.7735
  212SOL    HW1 1535   4.303   3.496   1.768 -0.2807  1.4111 -0.2191
  212SOL    HW2 1536   4.321   3.630   1.677 -1.0513 -0.5710 -3.4702
  213SOL     OW 1537   2.282   2.953   1.248 -0.0340  0.1364  0.2715
  213SOL    HW1 1538   2.281   2.908   1.159 -1.4839  0.1167  0.2721
  213SOL    HW2 1539   2.230   2.899   1.314  1.3463 -0.0449  1.2557
  214SOL     OW 1540   0.190   6.965   5.603  0.4786 -0.2209  0.1191
  214SOL    HW1 1541   0.194   7.061   5.630 -0.7948 -0.4315  1.1648
  214SOL    HW2 1542   0.192   6.958   5.504  5.2650  0.6110 -0.0528
  215SOL     OW 1543   2.183   4.868   2.876 -0.2407  0.1441  0.1118
  215SOL    HW1 1544   2.254   4.808   2.913 -1.6668 -1.7565 -0.0638
  215SOL    HW2 1545   2.217   4.914   2.794 -0.4526 -4.2098 -2.7642
  216SOL     OW 1546   6.763   1.141   1.480  0.6997 -0.6441  0.1827
  216SOL    HW1 1547   6.781   1.107   1.388  2.7488  0.3972  0.1590
  216SOL    HW2 1548   6.831   1.104   1.543  1.0610  0.8987  0.7330
  217SOL     OW 1549   5.529   1.573   5.078  0.4709 -0.2211  0.1433
  217SOL    HW1 1550   5.487   1.645   5.133 -0.3627 -0.9368  0.4744
  217SOL    HW2 1551   5.626   1.592   5.068  0.6252  0.0112  1.7510
  218SOL     OW 1552   5.021   0.007   3.716 -0.4101 -0.3050  0.5378
  218SOL    HW1 1553   4.934   0.036   3.758  1.0156  2.2156  2.0144
  218SOL    HW2 1554   5.073  -0.046   3.783 -0.1192 -0.3971  0.2370
  219SOL     OW 1555   0.155   4.689   2.285 -0.0508  0.1683 -0.2449
  219SOL    HW1 1556   0.157   4.685   2.185 -0.8733 -1.4674 -0.2277
  219SOL    HW2 1557   0.163   4.597   2.322  0.8569  0.8052  1.2339
  220SOL     OW 1558   5.758   4.115   6.481 -0.3531 -0.0213 -0.1265
  220SOL    HW1 1559   5.673   4.090   6.526 -0.2606 -0.9467 -0.4442
  220SOL    HW2 1560   5.835   4.067   6.524 -0.0799  0.2705 -0.2803
  221SOL     OW 1561   2.875   3.540   2.935  0.2956  0.7235 -0.2497
  221SOL    HW1 1562   2.927   3.616   2.896  0.9539  0.9212  0.9481
  221SOL    HW2 1563   2.913   3.453   2.905  1.0514  0.8708  0.2647
  222SOL     OW 1564   0.330   3.158   6.960  0.3182 -0.0018 -0.0367
  222SOL    HW1 1565   0.295   3.250   6.940 -0.3584 -0.3493 -0.4627
  222SOL    HW2 1566   0.427   3.164   6.984  0.0009  0.9736  1.1132
  223SOL     OW 1567   0.592   3.360   4.546 -0.2603 -0.3219 -0.1785
  223SOL    HW1 1568   0.549   3.407   4.468 -0.9688 -0.6701  0.0050
  223SOL    HW2 1569   0.686   3.394   4.556  0.8044 -2.1566 -2.8436
  224SOL     OW 1570   3.749   4.969   2.004 -0.1699 -0.4699  0.5537
  224SOL    HW1 1571   3.705   5.054   1.977  0.5377  0.3708  1.9450
  224SOL    HW2 1572   3.686   4.893   1.989 -0.9536  0.3320 -0.3414
  225SOL     OW 1573   6.128   6.468   3.659  0.1872  0.7414 -0.4497
  225SOL    HW1 1574   6.057   6.490   3.726  0.3010  1.0318 -0.4232
  225SOL    HW2 1575   6.094   6.487   3.567 -0.5108 -1.0678 -0.5981
  226SOL     OW 1576   3.783   0.011   4.182  0.0757 -0.1066  0.3257
  226SOL    HW1 1577   3.763   0.105   4.209  1.5463  0.2380  0.2725
  226SOL    HW2 1578   3.770   0.001   4.084 -0.6084 -0.1145  0.4102
  227SOL     OW 1579   2.641   2.256   1.998 -0.3854 -0.6373 -0.4224
  227SOL    HW1 1580   2.723   2.296   1.955 -0.7660 -0.7734 -1.2809
  227SOL    HW2 1581   2.661   2.162   2.027 -0.0507 -0.4573 -0.0514
  228SOL     OW 1582   5.320   2.209   2.097 -0.2695  0.3809  0.1060
  228SOL    HW1 1583   5.271   2.288   2.134  0.3051  0.4588  0.7230
  228SOL    HW2 1584   5.287   2.189   2.005 -0.2155  1.5227 -0.1656
  229SOL     OW 1585   5.334   0.829   5.974  0.2162 -0.2400  0.3268
  229SOL    HW1 1586   5.293   0.824   5.882  0.5045  0.0665  0.1768
  229SOL    HW2 1587   5.407   0.761   5.981 -0.7821 -1.2710  0.8378
  230SOL     OW 1588   4.538   6.057   6.653 -0.4175 -0.0929 -0.5053
  230SOL    HW1 1589   4.626   6.009   6.659 -0.1231  0.6047  1.3801
  230SOL    HW2 1590   4.529   6.098   6.562  0.2466 -1.9306 -1.4534
  231SOL     OW 1591   0.642   2.262   0.272  0.3423  0.2042  0.1890
  231SOL    HW1 1592   0.717   2.326   0.291 -0.4008  1.4353 -0.8716
  231SOL    HW2 1593   0.556   2.313   0.268 -0.4884 -1.0983  0.7714
  232SOL     OW 1594   4.825   3.535   1.215  0.1024 -1.3308  0.4674
  232SOL    HW1 1595   4.773   3.552   1.298  1.2443 -1.6619  1.2724
  232SOL    HW2 1596   4.803   3.605   1.147 -0.1409 -0.5099  1.3762
  233SOL     OW 1597   0.328   2.112   6.501  0.0226  0.0837 -0.3954
  233SOL    HW1 1598   0.323   2.063   6.588  2.5985  0.5168  0.0652
  233SOL    HW2 1599   0.321   2.211   6.518 -1.9081  0.0849 -0.9841
  234SOL     OW 1600   5.574   3.419   0.400 -0.3148  0.1920 -0.0150
  234SOL    HW1 1601   5.584   3.463   0.489 -1.4440  0.1234  0.1597
  234SOL    HW2 1602   5.618   3.330   0.402 -0.0025  0.3538  0.3576
  235SOL     OW 1603   6.599   7.000   1.105  0.2525 -0.7102 -0.4694
  235SOL    HW1 1604   6.554   7.061   1.170  0.2378 -0.7627 -0.4305
  235SOL    HW2 1605   6.532   6.969   1.037 -0.0541 -1.7698  0.3091
  236SOL     OW 1606   1.994   4.185   4.012  0.0418 -0.0574  0.1555
  236SOL    HW1 1607   1.937   4.149   3.938  0.9024 -1.2612  0.0426
  236SOL    HW2 1608   2.090   4.161   3.994  0.9868  3.8401 -0.8611
  237SOL     OW 1609   2.338   2.838   0.009  0.0417  0.0708 -0.2084
  237SOL    HW1 1610   2.433   2.863  -0.011 -0.9688  2.7746 -2.1476
  237SOL    HW2 1611   2.299   2.790  -0.069 -0.2512 -0.9954  0.5682
  238SOL     OW 1612   0.243   4.952   3.573  0.3482 -0.1511  0.1337
  238SOL    HW1 1613   0.242   4.855   3.597  1.3753  0.3727  2.4900
  238SOL    HW2 1614   0.313   4.969   3.504 -0.1168 -1.1210 -0.6000
  239SOL     OW 1615   5.596   0.287   3.244  0.1821 -0.0731 -0.6294
  239SOL    HW1 1616   5.547   0.274   3.330 -0.8018 -0.4978 -1.2341
  239SOL    HW2 1617   5.679   0.339   3.261 -0.5194  0.7570  0.4124
  240SOL     OW 1618   3.680   5.556   2.829 -0.2649  0.2166  0.0922
  240SOL    HW1 1619   3.721   5.604   2.752 -1.8384  0.1695 -0.8202
  240SOL    HW2 1620   3.671   5.620   2.906 -1.1053  1.0374 -0.6621
  241SOL     OW 1621   4.165   6.788   2.934  0.1269  0.2039 -0.0745
  241SOL    HW1 1622   4.187   6.884   2.918 -1.0443  0.4279 -0.4457
  241SOL    HW2 1623   4.107   6.753   2.860  0.6192 -0.8250 -0.0005
  242SOL     OW 1624   2.601   0.201   4.531 -0.2192 -0.3031 -0.2287
  242SOL    HW1 1625   2.676   0.264   4.508 -0.7746  0.8056  0.8809
  242SOL    HW2 1626   2.565   0.160   4.447 -0.1466  1.2182 -1.0373
  243SOL     OW 1627   0.787   2.412   4.149  0.3262 -0.1320  0.3156
  243SOL    HW1 1628   0.702   2.451   4.184  0.5118 -0.1325  0.7681
  243SOL    HW2 1629   0.805   2.448   4.057 -0.4363 -0.5382  0.0023
  244SOL     OW 1630   2.001   3.255   6.353  0.5358 -0.1696  0.3483
  244SOL    HW1 1631   1.911   3.288   6.381 -0.1370 -0.4433 -1.3914
  244SOL    HW2 1632   1.992   3.162   6.317  1.0867  0.6327 -1.9991
  245SOL     OW 1633   3.955   0.765   6.687 -0.0492 -0.5447  0.3767
  245SOL    HW1 1634   4.006   0.686   6.720  2.7848  0.9848 -0.0079
  245SOL    HW2 1635   3.960   0.769   6.587  2.9978  1.9000  0.4904
  246SOL     OW 1636   5.552   5.471   2.304 -0.7978 -0.0681 -0.0115
  246SOL    HW1 1637   5.520   5.421   2.223  0.1835 -2.0065  0.7284
  246SOL    HW2 1638   5.473   5.500   2.358 -1.4392  0.5836 -1.2528
  247SOL     OW 1639   6.603   2.578   0.483 -0.3097 -0.0175 -0.3956
  247SOL    HW1 1640   6.571   2.644   0.551 -0.9005  0.2319 -0.9064
  247SOL    HW2 1641   6.555   2.593   0.396 -0.1244 -0.8316 -0.6482
  248SOL     OW 1642   1.693   0.186   1.913  0.1696  0.3036 -0.3868
  248SOL    HW1 1643   1.636   0.180   1.995  1.2930  0.3140  0.4305
  248SOL    HW2 1644   1.639   0.163   1.832 -1.3949  1.9272  0.1551
  249SOL     OW 1645   1.088   6.888   5.571  1.0344 -0.5405  0.2160
  249SOL    HW1 1646   1.160   6.888   5.640  0.6963 -0.9978  0.5753
  249SOL    HW2 1647   1.111   6.824   5.498  0.1622 -2.0916  1.2372
  250SOL     OW 1648   5.746   3.592   5.264 -0.1319  0.9712 -0.0512
  250SOL    HW1 1649   5.652   3.596   5.300 -1.3146  0.2951 -2.8076
  250SOL    HW2 1650   5.745   3.608   5.166  2.5816  0.1208 -0.2977
  251SOL     OW 1651   1.538   6.767   1.057  0.2677 -0.1959  0.4984
  251SOL    HW1 1652   1.580   6.682   1.027  2.3480  0.2434  1.9182
  251SOL    HW2 1653   1.508   6.820   0.977  0.7697 -1.3591 -0.4896
  252SOL     OW 1654   5.687   3.672   3.411 -0.5925 -0.6345  0.4289
  252SOL    HW1 1655   5.762   3.706   3.355  0.7979 -2.0795  1.3193
  252SOL    HW2 1656   5.609   3.649   3.352  0.0016 -0.0191 -0.6218
  253SOL     OW 1657   0.138   6.078   4.616 -0.2200  0.6655 -0.3167
  253SOL    HW1 1658   0.074   6.125   4.676  0.4994  0.6465  0.4831
  253SOL    HW2 1659   0.091   6.050   4.532 -1.4041  0.0749  0.5289
  254SOL     OW 1660   1.557   0.658   3.146 -0.5979  0.0858 -0.2863
  254SOL    HW1 1661   1.625   0.609   3.200 -0.4897 -2.3521 -2.4140
  254SOL    HW2 1662   1.466   0.641   3.184 -0.2122  2.4966  1.9477
  255SOL     OW 1663   5.669   1.459   4.772 -0.7937 -0.4483 -0.3429
  255SOL    HW1 1664   5.626   1.408   4.847 -0.8384  0.8643  0.5739
  255SOL    HW2 1665   5.642   1.556   4.779  0.4308 -0.0272 -1.1504
  256SOL     OW 1666   6.595   1.219   0.995 -0.6312  0.1040  0.3912
  256SOL    HW1 1667   6.643   1.140   0.957 -1.1330  0.2919 -0.6684
  256SOL    HW2 1668   6.558   1.196   1.086 -1.6271 -1.2209 -0.3122
  257SOL     OW 1669   6.870   6.711   6.397  0.1133  0.0186 -0.1930
  257SOL    HW1 1670   6.771   6.721   6.386 -0.0486  2.6750  2.3518
  257SOL    HW2 1671   6.895   6.615   6.390 -3.2438 -1.2951  2.7503
  258SOL     OW 1672   6.200   2.657   0.748  0.4296 -0.1498  0.1416
  258SOL    HW1 1673   6.257   2.662   0.830 -1.5990 -1.8918  1.7796
  258SOL    HW2 1674   6.113   2.704   0.765  1.3954  2.9392 -2.4847
  259SOL     OW 1675   2.172   3.051   4.555  1.2327 -0.1866  0.2878
  259SOL    HW1 1676   2.079   3.088   4.561  1.1437 -0.3597 -0.0187
  259SOL    HW2 1677   2.231   3.099   4.619  0.0795 -2.7077  3.5350
  260SOL     OW 1678   2.517   5.660   1.151  1.0217 -0.2397  1.0875
  260SOL    HW1 1679   2.566   5.718   1.215  2.6517 -0.8548  0.4673
  260SOL    HW2 1680   2.583   5.614   1.091 -0.4295  0.8704 -1.5375
  261SOL     OW 1681   4.700   2.485   5.415 -0.0969  0.7793 -0.4750
  261SOL    HW1 1682   4.658   2.511   5.502  1.7192  1.1753  0.3331
  261SOL    HW2 1683   4.791   2.524   5.410  0.5595 -0.8192 -1.7401
  262SOL     OW 1684   3.684   3.217   3.488 -0.2968  0.4324  0.5364
  262SOL    HW1 1685   3.739   3.296   3.514  1.3926 -0.1244 -1.1458
  262SOL    HW2 1686   3.736   3.133   3.503 -1.5226 -0.2932  0.9313
  263SOL     OW 1687   0.537   1.295   2.089 -0.5905 -0.1320 -0.1003
  263SOL    HW1 1688   0.605   1.329   2.154  1.7933 -1.1635 -1.9068
  263SOL    HW2 1689   0.534   1.195   2.092 -1.4597 -0.1337 -0.6102
  264SOL     OW 1690   3.818   1.775   3.107  0.5877 -0.2064  0.3068
  264SOL    HW1 1691   3.819   1.873   3.089  0.0773 -0.2627 -0.0336
  264SOL    HW2 1692   3.846   1.758   3.202  3.1209  0.1009 -0.3046
  265SOL     OW 1693   2.268   5.569   6.240 -0.7184 -0.5643 -0.2921
  265SOL    HW1 1694   2.348   5.547   6.184 -0.8270  0.4760 -0.8735
  265SOL    HW2 1695   2.280   5.661   6.279 -1.3340 -0.6748  0.1561
  266SOL     OW 1696   5.082   3.398   2.443  0.0797 -0.3335  0.0245
  266SOL    HW1 1697   5.011   3.382   2.511 -1.2108 -1.5205 -1.5490
  266SOL    HW2 1698   5.141   3.318   2.437  0.7071  0.0961  0.3075
  267SOL     OW 1699   5.005   0.917   6.649  0.4267  0.0106  0.2807
  267SOL    HW1 1700   5.001   0.865   6.734 -1.5395 -1.3520 -0.5726
  267SOL    HW2 1701   5.059   0.866   6.582  2.0706  1.1365  0.6712
  268SOL     OW 1702   6.077   1.459   2.393 -0.3383  0.2528  0.2993
  268SOL    HW1 1703   6.102   1.459   2.490 -1.5140  0.8110  0.6252
  268SOL    HW2 1704   5.982   1.429   2.383 -0.2040  0.1378 -0.6859
  269SOL     OW 1705   2.678   1.841   0.474 -0.2766 -0.4708 -0.2167
  269SOL    HW1 1706   2.657   1.792   0.389  1.6452 -0.9955 -0.4215
  269SOL    HW2 1707   2.665   1.781   0.552 -0.9902 -0.3160 -0.2084
  270SOL     OW 1708   2.720   0.052   4.786 -0.0809 -1.2172 -0.4069
  270SOL    HW1 1709   2.712   0.113   4.708  0.8143 -1.4403 -0.6828
  270SOL    HW2 1710   2.776  -0.027   4.762 -1.2082 -2.1557 -0.0522
  271SOL     OW 1711   0.945   3.389   3.357 -0.3663 -0.1450  0.2491
  271SOL    HW1 1712   0.974   3.412   3.264  1.5446 -0.0957  0.7997
  271SOL    HW2 1713   0.890   3.306   3.355  0.9848 -1.0700 -0.8091
  272SOL     OW 1714   4.858   2.816   1.149  0.5711 -0.3412  0.5564
  272SOL    HW1 1715   4.795   2.893   1.133 -0.2539 -0.8294  1.3323
  272SOL    HW2 1716   4.880   2.812   1.247  0.9591 -0.8273  0.4489
  273SOL     OW 1717   1.848   2.101   0.818 -0.0637  0.1649 -0.2545
  273SOL    HW1 1718   1.850   2.002   0.804  3.3521  0.1135 -0.2305
  273SOL    HW2 1719   1.815   2.120   0.910 -2.9266 -0.7329 -0.9998
  274SOL     OW 1720   5.717   1.700   4.514 -0.5011 -0.3299  0.0556
  274SOL    HW1 1721   5.695   1.721   4.609 -0.1395 -2.4470  0.6666
  274SOL    HW2 1722   5.814   1.715   4.497  0.0577 -2.6348  0.8870
  275SOL     OW 1723   6.240   2.243   6.420 -0.0429  0.1777  0.5249
  275SOL    HW1 1724   6.338   2.243   6.401 -0.4688 -1.3970 -2.2060
  275SOL    HW2 1725   6.191   2.276   6.340 -1.8260 -0.9614  1.0944
  276SOL     OW 1726   5.806   1.611   5.038 -0.1537  0.0113 -0.5245
  276SOL    HW1 1727   5.885   1.551   5.030 -0.4218 -1.2041  3.6894
  276SOL    HW2 1728   5.836   1.704   5.057  0.2207  0.1491 -1.7105
  277SOL     OW 1729   5.678   3.129   1.287 -0.0223  0.4583  0.5066
  277SOL    HW1 1730   5.642   3.069   1.359 -1.2631  3.0942  2.2576
  277SOL    HW2 1731   5.605   3.190   1.255  0.9511  0.4869 -1.8441
  278SOL     OW 1732   3.711   6.458   5.965 -0.3486  0.4724 -0.5251
  278SOL    HW1 1733   3.668   6.418   5.884  0.9489  1.0589 -1.5452
  278SOL    HW2 1734   3.658   6.434   6.046 -1.6781 -0.1415 -1.5354
  279SOL     OW 1735   1.774   6.996   3.461  0.5002 -0.3426  0.5403
  279SOL    HW1 1736   1.833   6.927   3.419  0.3305 -0.3038  0.2305
  279SOL    HW2 1737   1.724   6.956   3.537  2.0944  0.0219  1.8382
  280SOL     OW 1738   3.312   1.663   6.119 -0.2209 -0.2493  0.2675
  280SOL    HW1 1739   3.301   1.639   6.215  2.3437 -2.9802  0.0162
  280SOL    HW2 1740   3.402   1.702   6.104 -1.0070  1.2533 -0.9171
  281SOL     OW 1741   5.749   2.569   6.765  0.2954  0.5327 -0.0933
  281SOL    HW1 1742   5.704   2.569   6.675  0.5837  5.2869 -0.4990
  281SOL    HW2 1743   5.847   2.580   6.753  0.4496  0.1756  0.8165
  282SOL     OW 1744   0.851   6.966   3.673  0.5471  0.3690 -0.6632
  282SOL    HW1 1745   0.899   6.884   3.704  1.8347  0.6059 -1.9190
  282SOL    HW2 1746   0.912   7.045   3.683 -0.5788  1.1315  0.2711
  283SOL     OW 1747   5.480   2.360   1.234  0.0521  0.1491 -0.1883
  283SOL    HW1 1748   5.531   2.378   1.150  0.4594 -1.1949 -0.2356
  283SOL    HW2 1749   5.514   2.420   1.307  0.9279  0.0581 -0.5106
  284SOL     OW 1750   1.000   0.157   1.761  0.0245  0.1645  0.1144
  284SOL    HW1 1751   1.099   0.174   1.762 -0.0124  0.3795  1.1724
  284SOL    HW2 1752   0.960   0.189   1.847 -1.0107  0.3252 -0.4158
  285SOL     OW 1753   5.060   4.738   2.150  0.4453  0.2229 -0.1172
  285SOL    HW1 1754   5.058   4.690   2.237  0.7026 -0.6123 -0.5650
  285SOL    HW2 1755   5.130   4.698   2.091 -1.1413 -0.6379 -1.5111
  286SOL     OW 1756   3.992   3.059   0.638 -0.4569 -0.4474  0.4696
  286SOL    HW1 1757   3.968   3.147   0.597  1.2600  0.1088  0.5580
  286SOL    HW2 1758   3.983   2.986   0.570 -0.8677 -0.0470  0.0915
  287SOL     OW 1759   3.916   3.108   0.305  0.6631  0.4331 -1.0720
  287SOL    HW1 1760   3.925   3.165   0.223  0.5384  0.2072 -1.2423
  287SOL    HW2 1761   3.863   3.157   0.374 -0.9160 -0.1345 -1.8379
  288SOL     OW 1762   4.139   4.127   6.905  0.3967  0.2311 -0.2206
  288SOL    HW1 1763   4.145   4.035   6.944 -0.4796  0.0650 -0.4460
  288SOL    HW2 1764   4.067   4.129   6.836 -0.1069  1.2584  0.3047
  289SOL     OW 1765   4.116   3.863   6.942 -0.0676 -0.2250 -0.6314
  289SOL    HW1 1766   4.212   3.836   6.925  0.0525 -0.3110  0.1601
  289SOL    HW2 1767   4.079   3.808   7.016 -0.6471  0.0207 -0.7350
  290SOL     OW 1768   5.905   6.172   5.282 -0.4016  0.1730  0.5401
  290SOL    HW1 1769   5.968   6.133   5.216 -1.2930  0.0272 -0.2504
  290SOL    HW2 1770   5.882   6.104   5.352 -0.4783 -0.1001  0.2486
  291SOL     OW 1771   3.017   0.363   6.928 -0.5790 -0.9195 -0.8414
  291SOL    HW1 1772   2.958   0.357   6.848 -0.4711 -0.7564 -0.9333
  291SOL    HW2 1773   2.968   0.327   7.008 -1.3383  0.5579 -0.6200
  292SOL     OW 1774   2.468   0.901   0.220 -0.1876  0.1005  0.6940
  292SOL    HW1 1775   2.522   0.831   0.267  0.1189  0.8144  1.4348
  292SOL    HW2 1776   2.385   0.920   0.273  0.6166  1.5880  1.5043
  293SOL     OW 1777   5.992   3.807   5.476  0.4408 -0.0595 -0.2459
  293SOL    HW1 1778   5.925   3.742   5.440  0.3940 -0.2761  0.2252
  293SOL    HW2 1779   6.045   3.763   5.548 -0.2020  0.7041  0.7185
  294SOL     OW 1780   5.161   5.535   5.599  0.2218 -0.4857  0.0241
  294SOL    HW1 1781   5.137   5.440   5.579  1.5235 -0.8644  0.2376
  294SOL    HW2 1782   5.253   5.555   5.565 -0.3669  0.9699 -0.8364
  295SOL     OW 1783   5.425   0.066   2.729 -0.3105 -0.0356 -0.1709
  295SOL    HW1 1784   5.377  -0.022   2.738  3.2907 -2.1119  0.5662
  295SOL    HW2 1785   5.477   0.067   2.644  3.1189 -0.6482  1.7335
  296SOL     OW 1786   1.129   4.415   2.958  0.0680  0.3890  0.0651
  296SOL    HW1 1787   1.172   4.351   3.022  1.3676 -0.6704 -1.7578
  296SOL    HW2 1788   1.199   4.455   2.899 -0.9934  1.9320 -0.1944
  297SOL     OW 1789   3.186   1.546   6.907 -0.0175  0.1918  0.2563
  297SOL    HW1 1790   3.169   1.448   6.906  1.4562 -0.0756 -0.4778
  297SOL    HW2 1791   3.172   1.581   7.000  1.9430 -1.2061  1.1568
  298SOL     OW 1792   5.925   3.830   1.263  0.4625 -0.1267  0.2258
  298SOL    HW1 1793   5.854   3.900   1.270  0.7996  0.1062  1.9166
  298SOL    HW2 1794   5.893   3.754   1.207 -0.0891  1.1415 -1.2483
  299SOL     OW 1795   3.068   0.791   2.576  0.1182  0.6343 -0.3526
  299SOL    HW1 1796   3.147   0.746   2.536 -1.2449 -2.3622  0.0689
  299SOL    HW2 1797   3.089   0.820   2.669  0.9165  0.4871 -0.4822
  300SOL     OW 1798   3.761   0.292   1.942 -0.4629 -0.4067  0.0984
  300SOL    HW1 1799   3.785   0.331   2.031 -0.0374 -0.2974 -0.0579
  300SOL    HW2 1800   3.833   0.228   1.914 -1.2848 -1.5120  0.4728
  301SOL     OW 1801   6.895   3.927   6.744 -0.8033 -0.1179  0.1605
  301SOL    HW1 1802   6.810   3.979   6.746 -0.8781 -0.2531  0.8233
  301SOL    HW2 1803   6.960   3.971   6.682 -0.3485  1.6075  1.7565
  302SOL     OW 1804   4.582   1.858   0.410 -0.5859 -0.3457  0.0537
  302SOL    HW1 1805   4.521   1.930   0.376 -2.0735 -0.4710  2.2602
  302SOL    HW2 1806   4.677   1.885   0.396 -1.0900  2.1061  0.9206
  303SOL     OW 1807   6.327   0.242   5.758 -0.0521 -1.0432  0.0090
  303SOL    HW1 1808   6.350   0.245   5.855  0.0802 -2.5032  0.0403
  303SOL    HW2 1809   6.239   0.196   5.747 -1.6160  1.7810 -0.3557
  304SOL     OW 1810   3.685   0.872   4.573 -0.6847 -0.7049  0.4423
  304SOL    HW1 1811   3.735   0.785   4.585 -0.4503 -0.4656  1.3194
  304SOL    HW2 1812   3.641   0.873   4.484  0.4531 -1.1508 -0.1516
  305SOL     OW 1813   2.097   4.724   4.604 -0.4919 -0.1496  0.4313
  305SOL    HW1 1814   2.117   4.652   4.538 -1.2052  0.3406 -0.3365
  305SOL    HW2 1815   2.183   4.763   4.637 -0.1240 -0.4989 -0.0947
  306SOL     OW 1816   4.520   6.584   5.551 -0.0703  0.7015 -0.4127
  306SOL    HW1 1817   4.473   6.511   5.600  2.2902 -0.1479  0.7710
  306SOL    HW2 1818   4.512   6.670   5.603 -0.9713  0.7713 -0.6557
  307SOL     OW 1819   4.868   1.962   6.776  0.0588  0.0908 -0.6956
  307SOL    HW1 1820   4.807   1.949   6.698  0.5387  1.5201 -1.3382
  307SOL    HW2 1821   4.921   2.046   6.764 -0.8953  1.1402  1.8477
  308SOL     OW 1822   4.795   5.574   0.990  0.0465 -0.8112  0.3051
  308SOL    HW1 1823   4.873   5.628   1.023 -0.2739  0.2814 -0.6322
  308SOL    HW2 1824   4.828   5.497   0.935  0.4852 -0.8661  0.6415
  309SOL     OW 1825   2.157   2.391   4.148 -0.7158  0.3729 -0.0030
  309SOL    HW1 1826   2.131   2.433   4.061 -0.0655 -1.7007 -1.2991
  309SOL    HW2 1827   2.257   2.385   4.154 -0.7764 -0.2922  0.4788
  310SOL     OW 1828   1.027   2.950   6.229 -0.3980 -0.2540  0.2720
  310SOL    HW1 1829   0.938   2.912   6.253 -1.0962  0.6035 -0.8327
  310SOL    HW2 1830   1.015   3.023   6.162  1.1799 -0.4617 -0.2930
  311SOL     OW 1831   0.043   3.026   2.302 -0.0528  0.3424 -0.1088
  311SOL    HW1 1832   0.022   3.123   2.310 -1.8423 -0.0687  0.7416
  311SOL    HW2 1833   0.115   3.002   2.367 -0.8374  0.7903  0.9663
  312SOL     OW 1834   3.974   5.812   3.195  0.0610 -0.1960  0.2742
  312SOL    HW1 1835   4.028   5.728   3.198 -0.1763 -0.3178  1.4370
  312SOL    HW2 1836   3.966   5.850   3.287  2.3980  2.5294 -0.4886
  313SOL     OW 1837   2.380   3.354   5.678  0.2964  0.0492 -0.0273
  313SOL    HW1 1838   2.377   3.445   5.635  1.8271 -0.2214 -0.7748
  313SOL    HW2 1839   2.434   3.359   5.762  3.0010 -0.6680 -1.5790
  314SOL     OW 1840   2.096   0.230   2.508 -0.3529 -0.1083  0.1446
  314SOL    HW1 1841   2.032   0.248   2.583 -0.5416  0.3208 -0.1113
  314SOL    HW2 1842   2.187   0.263   2.533  0.1704 -2.1289  1.1490
  315SOL     OW 1843   2.297   4.689   5.199  0.6512 -0.5237 -0.0164
  315SOL    HW1 1844   2.208   4.656   5.168  0.4917 -0.6686  0.5789
  315SOL    HW2 1845   2.294   4.704   5.298  0.8568  0.8238 -0.1967
  316SOL     OW 1846   4.015   2.006   1.470  0.2421  0.1778  0.8156
  316SOL    HW1 1847   3.936   1.955   1.504 -2.2173  1.7121 -2.0677
  316SOL    HW2 1848   4.029   2.087   1.527  1.1366 -1.1359  2.5560
  317SOL     OW 1849   3.103   0.106   2.512 -0.8151  0.0355  0.1828
  317SOL    HW1 1850   3.074   0.201   2.512 -2.3650 -0.4076 -0.5352
  317SOL    HW2 1851   3.057   0.057   2.586  0.8478  0.0571  1.2865
  318SOL     OW 1852   2.288   5.932   0.782 -0.0269  0.5726  0.1149
  318SOL    HW1 1853   2.361   5.911   0.847 -1.3083 -0.0856  1.3930
  318SOL    HW2 1854   2.327   5.943   0.691  1.6575  0.2596  0.7624
  319SOL     OW 1855   5.546   1.431   3.055 -0.2775  0.2637  0.2594
  319SOL    HW1 1856   5.627   1.491   3.053  0.3689 -0.4913  1.8375
  319SOL    HW2 1857   5.568   1.345   3.009 -0.3945  0.3038  0.1298
  320SOL     OW 1858   1.078   6.896   3.347  0.0625 -0.6059  0.3243
  320SOL    HW1 1859   0.979   6.904   3.357  0.3349  2.3199  1.9392
  320SOL    HW2 1860   1.123   6.951   3.418  2.7584  2.6642 -3.4501
  321SOL     OW 1861   5.264   4.801   2.540 -0.1402 -0.5318 -0.0695
  321SOL    HW1 1862   5.296   4.872   2.476 -0.7744 -0.3183 -0.1602
  321SOL    HW2 1863   5.266   4.837   2.633  0.8047 -0.8495  0.0418
  322SOL     OW 1864   1.185   2.244   6.977 -0.3003  0.0450 -0.4194
  322SOL    HW1 1865   1.209   2.296   7.059 -2.2426  0.1717  0.1142
  322SOL    HW2 1866   1.197   2.147   6.995  1.6873  0.1748 -0.8514
  323SOL     OW 1867   4.995   6.689   6.818  0.3957 -0.0577 -0.2503
  323SOL    HW1 1868   4.976   6.754   6.892 -0.7403 -2.1172  1.3743
  323SOL    HW2 1869   4.918   6.689   6.754  1.6070  2.1136 -1.8673
  324SOL     OW 1870   1.342   6.371   5.035  0.2883 -0.8774  0.4991
  324SOL    HW1 1871   1.402   6.365   5.114  1.8672  0.0660 -0.5716
  324SOL    HW2 1872   1.315   6.466   5.020 -2.2207 -1.3529  1.4217
  325SOL     OW 1873   1.695   1.166   4.912 -0.6087 -0.1534  0.2318
  325SOL    HW1 1874   1.641   1.091   4.873 -1.4109  1.0663 -1.1190
  325SOL    HW2 1875   1.789   1.136   4.926 -0.9805 -1.4944 -0.0048
  326SOL     OW 1876   1.405   3.786   4.620 -0.5767  0.1220 -0.0903
  326SOL    HW1 1877   1.317   3.828   4.596 -1.5354 -0.6104  1.8578
  326SOL    HW2 1878   1.452   3.844   4.686 -1.1350 -0.9732  1.3311
  327SOL     OW 1879   1.274   1.970   3.670  0.1242  0.1635  0.2987
  327SOL    HW1 1880   1.347   1.903   3.687 -0.0462 -0.0874  0.0344
  327SOL    HW2 1881   1.313   2.062   3.672  0.5810 -0.0046 -0.5451
  328SOL     OW 1882   1.110   4.302   6.950 -0.4408  0.3936 -0.2333
  328SOL    HW1 1883   1.150   4.268   7.036  0.4611 -1.3185 -1.2631
  328SOL    HW2 1884   1.145   4.393   6.930  0.3367  0.2902  0.5924
  329SOL     OW 1885   0.943   3.207   5.547  0.3370  0.2985  0.2509
  329SOL    HW1 1886   0.992   3.160   5.621 -2.1767 -1.0179  1.1755
  329SOL    HW2 1887   0.882   3.276   5.585 -0.5905 -0.0190 -0.6053
  330SOL     OW 1888   1.540   4.636   1.508  0.6308  0.3257  0.2799
  330SOL    HW1 1889   1.638   4.637   1.487  0.2800 -0.8899 -1.6547
  330SOL    HW2 1890   1.488   4.615   1.425 -1.1840 -0.6508  1.5876
  331SOL     OW 1891   4.462   4.850   0.331  0.4353 -0.4229  0.1208
  331SOL    HW1 1892   4.491   4.931   0.382 -0.6012  1.4512 -2.0691
  331SOL    HW2 1893   4.362   4.848   0.326  0.4856 -0.3041 -2.0583
  332SOL     OW 1894   2.239   6.998   6.504 -0.6073  0.5215 -0.0808
  332SOL    HW1 1895   2.339   6.987   6.507 -0.5423  1.1548  0.0458
  332SOL    HW2 1896   2.197   6.925   6.557 -0.3155 -1.1062 -1.9448
  333SOL     OW 1897   4.174   6.483   0.081  0.6654  0.5968 -0.0313
  333SOL    HW1 1898   4.102   6.460   0.146  2.2539  0.0798  1.6690
  333SOL    HW2 1899   4.140   6.549   0.014 -1.3693  0.2917  0.6309
  334SOL     OW 1900   4.837   5.755   6.088 -0.0651 -0.2239 -0.5994
  334SOL    HW1 1901   4.824   5.692   6.164  0.5629 -0.5843 -0.7808
  334SOL    HW2 1902   4.842   5.704   6.003 -1.8205  0.2460 -1.0380
  335SOL     OW 1903   1.262   5.274   0.817 -0.3633  0.1863  0.2065
  335SOL    HW1 1904   1.180   5.248   0.868  0.5886 -0.0908  1.6708
  335SOL    HW2 1905   1.270   5.374   0.816  0.1015  0.1851  1.4851
  336SOL     OW 1906   0.646   5.171   5.872 -0.6101  0.4051 -0.0321
  336SOL    HW1 1907   0.688   5.240   5.931 -1.4716  1.6169 -0.7791
  336SOL    HW2 1908   0.689   5.173   5.782 -0.1540 -0.5518  0.1552
  337SOL     OW 1909   1.956   6.019   4.964  0.4866 -0.4949 -0.0685
  337SOL    HW1 1910   1.880   6.076   4.933  1.9948  0.3840 -2.4319
  337SOL    HW2 1911   1.990   5.964   4.888  1.2752 -1.9997  1.3162
  338SOL     OW 1912   3.097   3.310   2.145 -0.3708 -0.1896 -0.4344
  338SOL    HW1 1913   3.066   3.225   2.102 -0.1865  0.1584 -1.2678
  338SOL    HW2 1914   3.197   3.311   2.146 -0.3742 -0.1581 -0.0665
  339SOL     OW 1915   5.025   3.310   5.450  0.4308 -0.3926  0.3065
  339SOL    HW1 1916   4.942   3.359   5.425  0.1853 -0.9646 -0.0102
  339SOL    HW2 1917   5.101   3.375   5.455  0.4361 -0.1796 -1.6312
  340SOL     OW 1918   3.209   5.599   1.434  0.9726 -0.1231 -0.0921
  340SOL    HW1 1919   3.191   5.687   1.477  1.6374 -0.0004 -0.0533
  340SOL    HW2 1920   3.195   5.525   1.500 -0.1774 -0.0913 -0.2947
  341SOL     OW 1921   6.845   1.287   5.956 -0.3398  0.5570  0.2934
  341SOL    HW1 1922   6.785   1.323   5.884  0.0479 -0.0732 -0.3473
  341SOL    HW2 1923   6.890   1.204   5.925 -0.4590  0.0535  1.4082
  342SOL     OW 1924   3.848   0.646   1.102  0.7549  0.3659 -0.2537
  342SOL    HW1 1925   3.879   0.584   1.174 -1.9350  0.4010  1.0709
  342SOL    HW2 1926   3.819   0.732   1.142 -2.0700 -0.0875 -1.1237
  343SOL     OW 1927   3.759   5.451   1.433 -0.1060  0.3071 -0.0110
  343SOL    HW1 1928   3.773   5.416   1.341  0.1071 -0.1063  0.1735
  343SOL    HW2 1929   3.671   5.498   1.438 -0.3673 -0.1452 -0.2858
  344SOL     OW 1930   2.900   0.156   3.971 -0.5888 -0.2817 -0.4606
  344SOL    HW1 1931   2.985   0.122   3.932 -1.0019 -2.4223  0.3825
  344SOL    HW2 1932   2.822   0.118   3.921 -1.0722  0.2837 -0.1600
  345SOL     OW 1933   2.622   0.865   2.134 -0.0781 -0.0524 -0.0284
  345SOL    HW1 1934   2.639   0.831   2.041 -0.6343 -0.1543 -0.0945
  345SOL    HW2 1935   2.686   0.939   2.154  1.8669 -1.7521  0.4764
  346SOL     OW 1936   0.184   6.800   0.772  0.1787 -0.6514 -0.3536
  346SOL    HW1 1937   0.244   6.878   0.790  2.1471 -1.4884 -2.7047
  346SOL    HW2 1938   0.226   6.717   0.809 -1.9997 -0.7073  2.3280
  347SOL     OW 1939   0.728   2.789   6.798  0.1301  0.0655 -0.1593
  347SOL    HW1 1940   0.768   2.698   6.795  2.2970  0.8665 -4.7127
  347SOL    HW2 1941   0.636   2.787   6.759  0.7019 -0.0489 -1.5470
  348SOL     OW 1942   3.032   6.141   3.683  0.5972 -0.1169  0.1311
  348SOL    HW1 1943   2.973   6.105   3.755 -1.8454 -0.8443 -2.0569
  348SOL    HW2 1944   3.002   6.233   3.658 -0.1751 -0.7404 -1.4457
  349SOL     OW 1945   2.656   1.998   3.438  0.5239 -0.4114 -0.3912
  349SOL    HW1 1946   2.602   2.069   3.485 -1.5442 -1.3628 -1.1999
  349SOL    HW2 1947   2.678   2.030   3.346  2.2566  0.3642  0.2492
  350SOL     OW 1948   1.303   5.900   2.302  0.1885 -0.1538  0.1965
  350SOL    HW1 1949   1.220   5.860   2.262  0.5541  0.8417 -1.6943
  350SOL    HW2 1950   1.370   5.918   2.229  2.0377 -0.7946  1.6471
  351SOL     OW 1951   5.159   2.866   6.995 -0.5788 -0.5334  0.6111
  351SOL    HW1 1952   5.248   2.853   6.953  0.6086  1.3636  2.3539
  351SOL    HW2 1953   5.091   2.886   6.925  0.2603 -2.2164 -0.7659
  352SOL     OW 1954   5.812   0.666   0.581  0.4317  0.1377  0.0261
  352SOL    HW1 1955   5.788   0.584   0.529 -0.6118 -1.0091  2.1642
  352SOL    HW2 1956   5.731   0.723   0.592  0.5392  0.1746  0.6656
  353SOL     OW 1957   6.600   4.085   6.941 -0.5819  0.2869  0.0139
  353SOL    HW1 1958   6.532   4.099   7.013 -2.1882  0.3008 -1.4562
  353SOL    HW2 1959   6.652   4.170   6.928 -0.2320  0.2749  1.1350
  354SOL     OW 1960   1.051   5.451   4.276  0.6683  0.0088 -0.4111
  354SOL    HW1 1961   1.135   5.397   4.283 -0.5836 -2.0940 -0.9950
  354SOL    HW2 1962   1.016   5.447   4.183 -0.1275  0.8249 -0.1624
  355SOL     OW 1963   2.911   1.504   6.819  0.3710 -0.1160 -0.2434
  355SOL    HW1 1964   2.993   1.546   6.858  0.1247  2.1101 -1.8882
  355SOL    HW2 1965   2.831   1.535   6.871  0.4812 -2.3454  1.4079
  356SOL     OW 1966   1.877   5.869   0.847  0.0396 -0.0544  0.2964
  356SOL    HW1 1967   1.834   5.907   0.929 -0.7078 -0.4730  0.1013
  356SOL    HW2 1968   1.955   5.927   0.821 -1.1699  1.4739 -0.1011
  357SOL     OW 1969   3.851   6.435   6.287 -0.4766 -0.6125 -0.1071
  357SOL    HW1 1970   3.883   6.485   6.206  1.1363  0.5636  1.2077
  357SOL    HW2 1971   3.929   6.409   6.343 -1.4724 -2.6275  0.4347
  358SOL     OW 1972   4.793   4.769   2.066 -0.4731  0.6947 -0.6981
  358SOL    HW1 1973   4.748   4.813   2.144  0.6365  1.0418 -0.2398
  358SOL    HW2 1974   4.892   4.766   2.081 -0.3830 -0.6719 -1.3766
  359SOL     OW 1975   1.575   5.964   4.745  0.4796 -0.5749 -0.2392
  359SOL    HW1 1976   1.597   6.019   4.825  0.6855  0.3426 -0.9119
  359SOL    HW2 1977   1.632   5.993   4.668  0.1939 -1.3586 -0.7556
  360SOL     OW 1978   3.340   3.219   5.567 -0.1938  0.1921 -0.4820
  360SOL    HW1 1979   3.320   3.181   5.657 -1.3781 -1.8069 -1.5374
  360SOL    HW2 1980   3.254   3.239   5.520  0.4147  0.3815 -1.5250
  361SOL     OW 1981   4.298   2.390   1.866  0.2369 -0.7314  0.4393
  361SOL    HW1 1982   4.391   2.406   1.833  0.4286  1.9804  2.0072
  361SOL    HW2 1983   4.234   2.447   1.814 -0.1133 -0.2742  1.3515
  362SOL     OW 1984   4.687   5.878   4.787  0.8783  0.6678  0.0555
  362SOL    HW1 1985   4.616   5.941   4.755 -0.0615 -0.5070 -0.2275
  362SOL    HW2 1986   4.757   5.869   4.716 -0.0419 -0.1789 -0.7725
  363SOL     OW 1987   2.831   5.049   6.998 -0.2760 -0.2404 -0.1577
  363SOL    HW1 1988   2.848   5.036   7.096 -1.8246  0.0362  0.1796
  363SOL    HW2 1989   2.838   5.146   6.975  1.8614 -0.4802 -0.7243
  364SOL     OW 1990   3.638   1.066   2.697  0.2772  0.6166  0.4374
  364SOL    HW1 1991   3.657   1.160   2.669  0.6373  0.6689  0.8381
  364SOL    HW2 1992   3.719   1.027   2.742  0.3910 -0.1474 -0.4050
  365SOL     OW 1993   3.033   5.496   2.193  0.6010 -0.4588 -1.1780
  365SOL    HW1 1994   3.112   5.547   2.227 -0.4174  1.1851 -1.1342
  365SOL    HW2 1995   3.032   5.404   2.233  2.1033 -0.2769 -0.6688
  366SOL     OW 1996   6.803   3.653   3.999  1.0072  0.7190 -0.1671
  366SOL    HW1 1997   6.814   3.706   4.083  1.4926  0.7937 -0.2742
  366SOL    HW2 1998   6.725   3.592   4.008  2.0353 -0.4991  0.9968
  367SOL     OW 1999   5.512   6.979   1.534  0.3387  0.7469 -0.4512
  367SOL    HW1 2000   5.441   6.979   1.464  0.6091 -1.2311 -0.7698
  367SOL    HW2 2001   5.544   7.072   1.549 -2.0180  1.6420 -0.6009
  368SOL     OW 2002   6.306   0.641   1.534  0.2010  0.0772 -0.3604
  368SOL    HW1 2003   6.288   0.701   1.613 -1.9418 -0.6089 -0.2502
  368SOL    HW2 2004   6.358   0.561   1.564 -1.0965 -0.4697  0.5265
  369SOL     OW 2005   1.322   0.985   3.717 -0.0543 -0.0505 -0.1342
  369SOL    HW1 2006   1.309   1.049   3.641 -0.9090 -0.6062 -0.4763
  369SOL    HW2 2007   1.255   0.910   3.709 -1.9055  1.1474  2.5478
  370SOL     OW 2008   4.834   0.796   1.434  0.5195 -1.2327 -0.0516
  370SOL    HW1 2009   4.803   0.712   1.479  1.8403 -1.5254  0.3595
  370SOL    HW2 2010   4.832   0.872   1.499 -0.4986 -0.9614 -0.3735
  371SOL     OW 2011   5.266   0.190   5.512  0.1142 -0.5479 -0.2779
  371SOL    HW1 2012   5.341   0.204   5.447  0.7119  0.0102  0.4952
  371SOL    HW2 2013   5.302   0.199   5.605 -1.1414  1.0272  0.0958
  372SOL     OW 2014   5.271   2.027   2.322 -0.5960 -0.3837  0.0570
  372SOL    HW1 2015   5.322   2.071   2.396  0.2467  0.2599 -0.8823
  372SOL    HW2 2016   5.253   2.093   2.249 -2.0305 -0.8269 -0.0269
  373SOL     OW 2017   2.234   2.473   3.173 -0.6171 -0.2386 -0.9262
  373SOL    HW1 2018   2.175   2.466   3.254 -1.3346 -0.8365 -1.4981
  373SOL    HW2 2019   2.217   2.396   3.112 -0.1364  0.2518 -1.6918
  374SOL     OW 2020   0.558   2.761   0.241  0.0528  0.1809  0.0552
  374SOL    HW1 2021   0.615   2.769   0.159  1.7234  0.6597  1.2110
  374SOL    HW2 2022   0.534   2.853   0.273  0.1209  0.0179  0.5763
  375SOL     OW 2023   1.683   2.542   2.356 -0.0913 -0.0273  0.0160
  375SOL    HW1 2024   1.646   2.495   2.276  0.4712  1.0325 -0.8858
  375SOL    HW2 2025   1.610   2.556   2.423 -0.4913 -1.2487 -0.1303
  376SOL     OW 2026   4.678   5.671   1.885 -0.4811 -0.3899  0.0609
  376SOL    HW1 2027   4.741   5.593   1.887 -0.7582 -0.6284  1.9169
  376SOL    HW2 2028   4.587   5.639   1.858 -0.1736 -0.3231 -1.1164
  377SOL     OW 2029   4.513   6.408   5.251  0.4431 -0.6836 -0.3282
  377SOL    HW1 2030   4.528   6.447   5.160  0.5404  0.2536  0.0728
  377SOL    HW2 2031   4.451   6.467   5.303  1.9536 -0.0912  0.9088
  378SOL     OW 2032   3.549   0.970   4.340  0.5184 -0.1225 -0.3590
  378SOL    HW1 2033   3.526   1.059   4.380  1.4111  0.0102 -0.1193
  378SOL    HW2 2034   3.623   0.982   4.274 -0.1839 -0.5129 -1.2425
  379SOL     OW 2035   1.952   4.732   0.555  0.5261  0.4698  0.3683
  379SOL    HW1 2036   1.903   4.788   0.488 -1.9622  0.5161  2.0849
  379SOL    HW2 2037   1.974   4.788   0.635  0.8467 -0.2621  0.7976
  380SOL     OW 2038   6.921   0.455   0.877  0.2204  0.8111 -0.2093
  380SOL    HW1 2039   6.842   0.401   0.907  0.1805  0.4903 -0.8610
  380SOL    HW2 2040   6.892   0.520   0.807  1.0345 -1.4713 -2.8286
  381SOL     OW 2041   0.397   0.753   2.617 -0.2235  0.3517  0.2239
  381SOL    HW1 2042   0.415   0.828   2.681  0.1861 -0.9366  1.6598
  381SOL    HW2 2043   0.483   0.718   2.581 -0.2993 -0.5143  0.8569
  382SOL     OW 2044   1.002   3.173   1.146 -0.4291 -0.3557  0.9368
  382SOL    HW1 2045   0.963   3.252   1.098 -0.9428 -1.8935 -1.3308
  382SOL    HW2 2046   1.100   3.187   1.157 -0.1518 -0.1965 -1.2390
  383SOL     OW 2047   3.903   1.529   3.411  0.4969 -0.6340 -0.0187
  383SOL    HW1 2048   3.985   1.493   3.367  2.0458  1.4718  0.9846
  383SOL    HW2 2049   3.894   1.626   3.392 -1.6588 -0.7531  0.1220
  384SOL     OW 2050   5.541   1.100   5.940 -0.3639  0.0394  0.1271
  384SOL    HW1 2051   5.509   1.013   5.977 -0.7995 -0.5762 -1.5932
  384SOL    HW2 2052   5.492   1.175   5.985 -1.3300 -0.7015  0.3486
  385SOL     OW 2053   4.719   0.641   1.939  0.3167  0.2542  0.7170
  385SOL    HW1 2054   4.700   0.688   2.025 -0.6688 -0.0661  0.6951
  385SOL    HW2 2055   4.808   0.668   1.904  1.3535 -0.6345  2.5336
  386SOL     OW 2056   3.930   0.828   3.457 -0.4531  0.1489  0.2946
  386SOL    HW1 2057   3.841   0.861   3.487  0.5928  1.7971  1.7173
  386SOL    HW2 2058   4.002   0.873   3.509  1.2978 -0.0014 -1.8629
  387SOL     OW 2059   0.838   0.432   3.919  0.0826  0.6294 -0.1244
  387SOL    HW1 2060   0.751   0.400   3.881 -0.0976  2.2127 -1.1465
  387SOL    HW2 2061   0.836   0.424   4.019 -0.5397 -0.9694 -0.2330
  388SOL     OW 2062   0.503   3.412   5.787  0.1905  0.4207 -0.1738
  388SOL    HW1 2063   0.435   3.440   5.719  0.4901  1.0011 -0.2378
  388SOL    HW2 2064   0.488   3.316   5.811 -0.2852  0.3779 -0.6213
  389SOL     OW 2065   3.983   4.813   4.194 -1.2739 -0.2817  0.1450
  389SOL    HW1 2066   4.036   4.821   4.110 -1.8553  1.0726 -0.1206
  389SOL    HW2 2067   4.042   4.780   4.267 -0.7818 -1.5741 -0.7990
  390SOL     OW 2068   3.440   5.958   1.909  0.5732  0.0543 -0.0072
  390SOL    HW1 2069   3.354   5.992   1.949  0.7972  0.3033  0.2622
  390SOL    HW2 2070   3.471   6.020   1.838  0.6126  0.0452  0.0018
  391SOL     OW 2071   0.135   4.438   2.444 -0.7883  0.4216 -0.4330
  391SOL    HW1 2072   0.136   4.354   2.389  0.2644  0.6808 -0.8442
  391SOL    HW2 2073   0.207   4.433   2.513 -0.8742  0.8885 -0.3068
  392SOL     OW 2074   5.946   2.557   2.683 -0.5279 -0.4033  0.3585
  392SOL    HW1 2075   6.009   2.482   2.706  1.2899  0.7703 -0.5684
  392SOL    HW2 2076   5.936   2.563   2.584  0.5035  1.4332  0.3169
  393SOL     OW 2077   6.681   3.781   0.530  0.0448 -0.2319  0.6706
  393SOL    HW1 2078   6.666   3.699   0.475 -0.6328  0.7878 -0.7059
  393SOL    HW2 2079   6.694   3.754   0.626 -0.2122 -1.9294  0.2654
  394SOL     OW 2080   1.668   1.169   3.725  0.5797  0.2558  0.1544
  394SOL    HW1 2081   1.691   1.080   3.766  2.8538 -0.4247 -2.2894
  394SOL    HW2 2082   1.619   1.154   3.640  1.8707  1.2343 -0.8059
  395SOL     OW 2083   5.287   0.555   3.231 -0.6567 -0.0156 -0.0034
  395SOL    HW1 2084   5.220   0.496   3.276  0.1960  0.0231  1.3921
  395SOL    HW2 2085   5.283   0.541   3.132 -1.3366 -1.4797  0.2009
  396SOL     OW 2086   6.275   1.613   3.026  0.7295 -0.0656  0.0004
  396SOL    HW1 2087   6.279   1.671   3.107  0.6741 -0.3722  0.2249
  396SOL    HW2 2088   6.326   1.656   2.951  0.1868  0.5617 -0.0239
  397SOL     OW 2089   1.966   3.147   0.791  0.5930 -0.2496  0.2694
  397SOL    HW1 2090   2.041   3.179   0.849  1.9421  2.9938 -2.8427
  397SOL    HW2 2091   1.879   3.175   0.831  1.1264 -1.7559  2.6472
  398SOL     OW 2092   1.950   5.096   3.283  0.2754 -0.2712  0.8385
  398SOL    HW1 2093   1.956   4.998   3.303  1.5871 -0.4411 -0.2109
  398SOL    HW2 2094   2.003   5.116   3.200  0.2161  1.3697  1.1646
  399SOL     OW 2095   0.444   5.747   4.350 -0.0420 -0.1153 -0.4400
  399SOL    HW1 2096   0.373   5.818   4.355 -0.3826 -0.4534 -0.4300
  399SOL    HW2 2097   0.451   5.701   4.438  0.3900  0.1075 -0.3587
  400SOL     OW 2098   6.458   0.213   1.467  0.3426  0.4446 -0.7157
  400SOL    HW1 2099   6.447   0.128   1.520  1.4812  0.9143  0.3126
  400SOL    HW2 2100   6.449   0.291   1.528 -2.1303  1.1861 -1.8793
  401SOL     OW 2101   3.170   3.230   5.990  0.6568  0.0209  0.5368
  401SOL    HW1 2102   3.195   3.192   5.901  2.0397  1.2262  0.3815
  401SOL    HW2 2103   3.097   3.174   6.031  0.3300 -0.8178 -1.1238
  402SOL     OW 2104   0.110   6.632   5.219  0.4636 -0.3051  0.1510
  402SOL    HW1 2105   0.027   6.628   5.275  0.0107  0.5847 -0.4395
  402SOL    HW2 2106   0.126   6.542   5.178 -0.6542 -0.2898 -0.3493
  403SOL     OW 2107   4.780   0.591   2.332  0.1452 -0.7251 -0.3002
  403SOL    HW1 2108   4.711   0.576   2.402 -0.6584 -0.1611 -0.9490
  403SOL    HW2 2109   4.860   0.535   2.351  0.2275 -0.0560  1.4403
  404SOL     OW 2110   0.816   3.939   3.553 -0.5749  0.2225  0.0492
  404SOL    HW1 2111   0.774   4.007   3.613 -0.3617  2.4874 -2.2423
  404SOL    HW2 2112   0.762   3.930   3.469  0.4698 -1.0494 -0.5234
  405SOL     OW 2113   1.739   6.237   6.239 -0.3577 -0.0804  0.3203
  405SOL    HW1 2114   1.754   6.163   6.174  1.5091 -0.7587  1.4396
  405SOL    HW2 2115   1.774   6.323   6.201  2.3351 -0.7888  1.0227
  406SOL     OW 2116   6.309   6.107   5.387  0.1009  0.8431  0.2890
  406SOL    HW1 2117   6.395   6.062   5.367 -0.4266  0.4605 -1.2586
  406SOL    HW2 2118   6.253   6.112   5.304 -1.3098  1.2141  1.2140
  407SOL     OW 2119   5.635   6.538   6.651 -0.3173 -0.1497 -0.6767
  407SOL    HW1 2120   5.598   6.629   6.671 -1.3762 -0.5243 -0.8267
  407SOL    HW2 2121   5.704   6.514   6.719 -0.8202  0.3246  0.0109
  408SOL     OW 2122   1.089   0.816   6.384  0.1044 -0.0758 -0.3275
  408SOL    HW1 2123   1.109   0.842   6.478  0.6345 -1.1639 -0.1268
  408SOL    HW2 2124   1.174   0.806   6.332  0.0018 -1.9424 -0.2247
  409SOL     OW 2125   4.021   5.033   6.480 -0.4153 -0.0234  0.0585
  409SOL    HW1 2126   4.100   5.088   6.454 -0.5547  0.1576  0.0134
  409SOL    HW2 2127   3.985   4.985   6.400 -2.0300  2.0401 -0.5540
  410SOL     OW 2128   5.534   2.666   1.224 -0.4915  0.6867  1.0604
  410SOL    HW1 2129   5.597   2.681   1.148 -1.4134 -1.2380 -0.1447
  410SOL    HW2 2130   5.440   2.682   1.193 -0.8028  1.1433  2.1778
  411SOL     OW 2131   2.180   5.105   2.259  0.0540 -0.4756  0.0988
  411SOL    HW1 2132   2.199   5.083   2.163  0.8313  1.3209 -0.1943
  411SOL    HW2 2133   2.228   5.041   2.318  1.7634 -0.0100 -0.7137
  412SOL     OW 2134   4.622   4.919   1.505  0.2888 -0.5266 -0.3427
  412SOL    HW1 2135   4.674   4.862   1.569  1.2225 -0.4587 -1.0157
  412SOL    HW2 2136   4.530   4.936   1.541  0.7635 -0.5806  0.9177
  413SOL     OW 2137   4.599   2.543   0.315 -0.9115  0.5149 -0.2917
  413SOL    HW1 2138   4.640   2.605   0.248  0.9828  1.0774  1.2861
  413SOL    HW2 2139   4.569   2.459   0.269  0.3745  0.8514 -1.8450
  414SOL     OW 2140   5.081   6.844   5.169 -0.5024 -0.5502 -0.3181
  414SOL    HW1 2141   5.068   6.930   5.220  1.4341  1.1810 -2.5065
  414SOL    HW2 2142   5.011   6.837   5.098 -0.2497 -0.4064 -0.5839
  415SOL     OW 2143   6.201   4.780   1.682  0.0083  0.2950  0.1496
  415SOL    HW1 2144   6.139   4.811   1.610  0.2177  1.4328  0.4373
  415SOL    HW2 2145   6.239   4.691   1.658 -2.4831 -0.9125  0.4293
  416SOL     OW 2146   2.605   0.942   6.688 -0.6353  0.5396 -0.0511
  416SOL    HW1 2147   2.520   0.903   6.654 -0.0998 -0.2898 -0.4617
  416SOL    HW2 2148   2.596   0.962   6.785 -0.2210 -2.7728  0.7846
  417SOL     OW 2149   0.295   0.365   2.944  0.3308 -0.1644 -0.8012
  417SOL    HW1 2150   0.357   0.362   2.865 -0.6061  1.2256 -1.6384
  417SOL    HW2 2151   0.300   0.455   2.987 -1.1849  0.0412 -0.9878
  418SOL     OW 2152   1.752   6.872   0.224 -0.7386 -0.1495 -0.1617
  418SOL    HW1 2153   1.747   6.920   0.136  0.6873 -1.4658 -1.0134
  418SOL    HW2 2154   1.846   6.873   0.257 -0.9954 -0.9118  0.6252
  419SOL     OW 2155   6.182   2.579   1.404 -0.3421  0.1192 -0.4927
  419SOL    HW1 2156   6.164   2.675   1.426 -0.2451  0.0317 -0.0162
  419SOL    HW2 2157   6.137   2.555   1.318 -0.3094  0.6094 -0.6494
  420SOL     OW 2158   6.316   2.430   1.036 -0.6940 -0.4350  0.2372
  420SOL    HW1 2159   6.290   2.527   1.035 -1.8132 -0.6953  1.6517
  420SOL    HW2 2160   6.292   2.390   1.125  1.9561 -1.4290  0.5977
  421SOL     OW 2161   1.821   3.837   2.933 -0.5234  0.2963 -0.3902
  421SOL    HW1 2162   1.904   3.861   2.883 -0.4876  1.2199  0.0939
  421SOL    HW2 2163   1.784   3.751   2.897  0.5499 -0.0420 -0.7060
  422SOL     OW 2164   3.395   3.780   1.551 -0.0582  0.0905 -0.2458
  422SOL    HW1 2165   3.324   3.831   1.503 -1.5433 -1.0497  0.6841
  422SOL    HW2 2166   3.355   3.728   1.626  1.5914 -1.4395 -0.3522
  423SOL     OW 2167   4.731   0.490   2.970  0.1945 -0.2296  0.1220
  423SOL    HW1 2168   4.649   0.548   2.963 -0.8946 -1.8264 -1.2435
  423SOL    HW2 2169   4.773   0.481   2.879  1.4375 -0.0797  0.6662
  424SOL     OW 2170   6.909   4.260   0.485 -0.5199 -0.0782 -0.2707
  424SOL    HW1 2171   6.948   4.351   0.477 -1.2785  0.2940  0.1653
  424SOL    HW2 2172   6.904   4.217   0.395 -0.5868  0.4888 -0.5381
  425SOL     OW 2173   6.633   3.511   0.392  0.2431 -0.2453 -0.2878
  425SOL    HW1 2174   6.536   3.485   0.400  0.3775 -0.7063 -0.1201
  425SOL    HW2 2175   6.660   3.507   0.296  0.1380 -0.2699 -0.3171
  426SOL     OW 2176   1.968   6.939   1.113 -0.2736  0.4544 -0.6298
  426SOL    HW1 2177   1.880   6.950   1.161 -0.3128  0.5571 -0.7242
  426SOL    HW2 2178   2.043   6.955   1.177 -0.3232  0.1537 -0.4980
  427SOL     OW 2179   0.776   6.776   0.551  0.4975 -0.2170 -0.5716
  427SOL    HW1 2180   0.776   6.876   0.543  0.6887 -0.0654  0.9871
  427SOL    HW2 2181   0.859   6.740   0.510  0.6532  0.3054 -0.7303
  428SOL     OW 2182   6.676   2.399   6.039 -0.8825 -0.0038  0.2781
  428SOL    HW1 2183   6.655   2.303   6.054 -0.8851 -0.3288 -1.6153
  428SOL    HW2 2184   6.724   2.436   6.119 -1.0544 -1.5126  1.1009
  429SOL     OW 2185   4.262   0.287   4.697  0.4376  0.2544  0.9233
  429SOL    HW1 2186   4.241   0.193   4.669  2.7676  0.4263 -1.8726
  429SOL    HW2 2187   4.178   0.342   4.694 -0.5834 -1.2574  0.5342
  430SOL     OW 2188   3.702   1.899   5.371 -0.4949 -0.4992 -0.4080
  430SOL    HW1 2189   3.775   1.896   5.303 -0.8251 -0.8579 -0.7534
  430SOL    HW2 2190   3.623   1.949   5.333  0.2482  1.6186  0.6525
  431SOL     OW 2191   1.481   2.319   0.669 -0.4561  0.1798  0.3303
  431SOL    HW1 2192   1.480   2.268   0.756 -0.4473 -1.6749 -0.6999
  431SOL    HW2 2193   1.463   2.415   0.687 -1.3745 -0.2975  2.3098
  432SOL     OW 2194   3.315   1.748   1.440 -0.0405 -0.2376 -0.2633
  432SOL    HW1 2195   3.290   1.837   1.400 -1.4215  0.1821  1.4240
  432SOL    HW2 2196   3.253   1.727   1.516  1.9060 -1.4154  1.0883
  433SOL     OW 2197   1.135   6.236   0.946  0.2329 -0.3682 -0.2955
  433SOL    HW1 2198   1.167   6.329   0.962  0.1446 -0.0517 -1.8175
  433SOL    HW2 2199   1.039   6.228   0.972  0.6777 -0.5228  1.4493
  434SOL     OW 2200   6.334   3.410   2.885  0.1985 -0.2673  0.1191
  434SOL    HW1 2201   6.264   3.409   2.813  0.4271  0.8930 -0.1320
  434SOL    HW2 2202   6.323   3.492   2.941  0.0725 -1.1198  1.3787
  435SOL     OW 2203   6.191   2.350   4.954  0.1296  0.4096 -0.1991
  435SOL    HW1 2204   6.170   2.367   5.051  1.2902  2.3729 -0.2409
  435SOL    HW2 2205   6.110   2.369   4.899 -0.5042 -0.6026  0.3373
  436SOL     OW 2206   0.457   3.816   6.604 -0.6032 -0.2764 -0.0077
  436SOL    HW1 2207   0.480   3.905   6.565 -0.4371 -0.7611 -1.0490
  436SOL    HW2 2208   0.364   3.792   6.578 -1.4037  0.4970  1.9947
  437SOL     OW 2209   1.847   0.446   5.774  0.1210  0.2905 -0.4359
  437SOL    HW1 2210   1.750   0.468   5.781  0.0450 -0.2509  0.3731
  437SOL    HW2 2211   1.858   0.348   5.755  0.4990  0.5144 -1.4318
  438SOL     OW 2212   6.161   0.336   0.242 -0.6020  0.1808 -0.1933
  438SOL    HW1 2213   6.147   0.238   0.223  1.6059 -1.7363  5.7116
  438SOL    HW2 2214   6.245   0.366   0.198  0.1296 -1.4370  0.0137
  439SOL     OW 2215   1.677   6.871   0.559  0.2287 -0.2497 -0.5423
  439SOL    HW1 2216   1.777   6.869   0.565  0.2090 -0.3877 -0.2379
  439SOL    HW2 2217   1.650   6.905   0.469  0.5496 -0.1266 -0.5956
  440SOL     OW 2218   5.592   1.732   4.775  0.1721 -0.4125  0.6138
  440SOL    HW1 2219   5.644   1.818   4.776  0.8767 -0.8268  0.0433
  440SOL    HW2 2220   5.508   1.744   4.829 -0.4640  1.0813 -0.6074
  441SOL     OW 2221   4.895   4.790   5.740 -0.4683  0.8331 -0.4425
  441SOL    HW1 2222   4.969   4.845   5.780  1.1267 -0.2471 -1.7767
  441SOL    HW2 2223   4.927   4.749   5.655 -1.1006 -3.1900  1.0576
  442SOL     OW 2224   6.780   6.850   2.855 -0.1209 -0.5954  0.1825
  442SOL    HW1 2225   6.686   6.866   2.884 -0.1071 -3.3237  2.0850
  442SOL    HW2 2226   6.780   6.796   2.770 -0.3068 -1.3672  0.6661
  443SOL     OW 2227   5.990   4.921   6.519 -0.3593  0.1101  0.3698
  443SOL    HW1 2228   5.949   5.012   6.524  0.3871  0.4024  2.3281
  443SOL    HW2 2229   6.074   4.919   6.574 -0.2803 -1.7236  0.2694
  444SOL     OW 2230   6.355   5.579   2.393  0.2434  0.2042 -0.3641
  444SOL    HW1 2231   6.347   5.665   2.444 -0.4086 -0.0536 -0.0228
  444SOL    HW2 2232   6.407   5.513   2.447 -0.2570  0.0042 -0.1183
  445SOL     OW 2233   2.693   1.330   3.189  0.2506  0.0512  0.8094
  445SOL    HW1 2234   2.767   1.387   3.153 -0.6981  1.0476  0.4163
  445SOL    HW2 2235   2.688   1.341   3.288  0.8912 -0.3538  0.8968
  446SOL     OW 2236   2.220   0.102   2.155  0.3413  0.7880  0.3901
  446SOL    HW1 2237   2.270   0.144   2.079 -0.6583 -0.1640 -0.8405
  446SOL    HW2 2238   2.122   0.108   2.136  0.0347  1.2838  2.0342
  447SOL     OW 2239   5.563   2.066   5.936 -0.0771 -0.4236 -0.4123
  447SOL    HW1 2240   5.600   1.973   5.935  0.7104 -0.1153 -1.4639
  447SOL    HW2 2241   5.618   2.124   5.876 -0.2253  0.8554  0.6462
  448SOL     OW 2242   6.028   3.859   1.974  0.3148  0.0228 -0.3817
  448SOL    HW1 2243   6.004   3.846   1.877  0.1347  1.2686 -0.5253
  448SOL    HW2 2244   5.985   3.943   2.008  2.0702  0.7552  0.1800
  449SOL     OW 2245   1.226   4.257   3.149  0.1751 -0.7215 -0.0363
  449SOL    HW1 2246   1.240   4.228   3.244  0.6679 -2.5803 -0.6415
  449SOL    HW2 2247   1.249   4.182   3.087 -1.9378 -0.2070 -1.5795
  450SOL     OW 2248   6.766   5.255   1.921 -0.1471  0.3178  0.5850
  450SOL    HW1 2249   6.801   5.170   1.962 -1.3750  0.3948  1.8705
  450SOL    HW2 2250   6.774   5.330   1.987  2.4604  1.6610 -1.0943
  451SOL     OW 2251   3.207   6.832   3.714  0.2697 -0.0364  0.3868
  451SOL    HW1 2252   3.233   6.912   3.660 -0.2361 -0.7979 -1.0165
  451SOL    HW2 2253   3.288   6.777   3.733  0.4543  0.2538  0.4445
  452SOL     OW 2254   3.955   6.676   5.601  0.3133  0.0559 -0.3086
  452SOL    HW1 2255   4.040   6.728   5.614  0.5975 -0.4272 -0.2024
  452SOL    HW2 2256   3.901   6.718   5.529  0.7943  0.1841 -0.6010
  453SOL     OW 2257   6.687   1.326   5.483  0.0006 -0.3287  0.2846
  453SOL    HW1 2258   6.765   1.388   5.472  2.0668 -2.7510  0.3270
  453SOL    HW2 2259   6.619   1.346   5.413 -0.1301  2.8565  1.1717
  454SOL     OW 2260   0.141   0.161   1.011 -0.2254 -0.5144 -0.5042
  454SOL    HW1 2261   0.151   0.228   0.938 -1.3375  0.1023 -0.1151
  454SOL    HW2 2262   0.098   0.079   0.976  0.0127 -0.5466 -0.7209
  455SOL     OW 2263   5.910   3.854   5.059  0.1617 -0.3870 -0.7004
  455SOL    HW1 2264   5.933   3.782   4.993  1.9319  0.0374 -0.6062
  455SOL    HW2 2265   5.985   3.919   5.064 -1.8006  2.0697 -1.5161
  456SOL     OW 2266   0.935   6.705   3.661  0.1805 -0.3612  0.2975
  456SOL    HW1 2267   0.840   6.683   3.641  0.5931 -1.1186 -0.8864
  456SOL    HW2 2268   0.991   6.692   3.579  1.1366  1.1141  0.6814
  457SOL     OW 2269   4.261   1.638   3.903 -0.0045 -0.1953  0.0251
  457SOL    HW1 2270   4.330   1.580   3.860  0.7560  1.2458 -0.7992
  457SOL    HW2 2271   4.294   1.668   3.992  0.0597 -0.2203  0.0099
  458SOL     OW 2272   1.796   0.633   1.609  0.9741 -0.3144 -0.4371
  458SOL    HW1 2273   1.830   0.683   1.529  0.8747  1.7710  0.7551
  458SOL    HW2 2274   1.792   0.535   1.588  1.5549  0.1004 -2.7474
  459SOL     OW 2275   6.313   4.966   0.015 -0.1745 -0.4559  0.3108
  459SOL    HW1 2276   6.260   4.905   0.074  0.2066 -2.2054 -1.0583
  459SOL    HW2 2277   6.268   4.973  -0.074  0.2151  0.6512  0.1896
  460SOL     OW 2278   1.893   5.727   3.947  0.7684 -0.0210 -0.3310
  460SOL    HW1 2279   1.838   5.646   3.969 -0.5732 -0.1610 -3.5935
  460SOL    HW2 2280   1.987   5.699   3.928  0.4658 -0.7555 -0.8004
  461SOL     OW 2281   1.732   4.218   2.290  0.4164  0.0008 -0.6598
  461SOL    HW1 2282   1.749   4.262   2.201  0.8352  1.4360  0.0980
  461SOL    HW2 2283   1.815   4.219   2.345 -0.2288  0.5671  0.3406
  462SOL     OW 2284   4.605   6.873   2.713  0.1033 -0.2381  0.7901
  462SOL    HW1 2285   4.570   6.800   2.772 -0.7031 -0.3482  0.1872
  462SOL    HW2 2286   4.533   6.902   2.650  1.2849 -0.8725 -0.8988
  463SOL     OW 2287   6.992   1.932   3.153  0.1952 -0.2007  0.7207
  463SOL    HW1 2288   7.083   1.968   3.132  0.8095 -2.0707  0.0432
  463SOL    HW2 2289   6.928   1.959   3.081  0.0253  1.5705  1.4601
  464SOL     OW 2290   2.222   3.222   1.203 -0.9222  0.5352  0.0347
  464SOL    HW1 2291   2.171   3.254   1.283 -0.1775  0.8675  0.3889
  464SOL    HW2 2292   2.253   3.129   1.219  0.2814  1.0181  0.6764
  465SOL     OW 2293   0.464   4.675   6.241 -0.1202  0.3965 -0.6811
  465SOL    HW1 2294   0.383   4.634   6.284  0.1097 -0.0955 -0.7044
  465SOL    HW2 2295   0.490   4.757   6.291 -0.2298  0.1776 -0.2519
  466SOL     OW 2296   2.723   5.349   4.612  0.2615 -0.2300  0.2932
  466SOL    HW1 2297   2.641   5.325   4.665  0.4827  1.0029  1.2354
  466SOL    HW2 2298   2.801   5.296   4.645 -0.0310 -0.9927 -0.2234
  467SOL     OW 2299   4.828   1.020   3.888 -0.6936 -0.6314  0.1119
  467SOL    HW1 2300   4.785   1.097   3.935 -0.1832 -0.9125  1.0626
  467SOL    HW2 2301   4.917   1.001   3.930 -0.6120 -1.4515 -0.4128
  468SOL     OW 2302   3.237   3.690   2.574  0.2882  0.0908 -0.0972
  468SOL    HW1 2303   3.304   3.616   2.576  0.0302 -0.1428 -0.0855
  468SOL    HW2 2304   3.162   3.668   2.636  0.2624  0.4123 -0.0124
  469SOL     OW 2305   3.481   3.128   2.758  0.3421 -0.1207 -0.0771
  469SOL    HW1 2306   3.414   3.175   2.815  0.7708 -0.6404  0.8882
  469SOL    HW2 2307   3.551   3.192   2.728  0.0162  0.1969 -0.1621
  470SOL     OW 2308   4.512   3.007   0.887 -0.1946 -0.3611  0.1220
  470SOL    HW1 2309   4.558   3.053   0.811  1.2362  0.5142  1.4540
  470SOL    HW2 2310   4.422   3.047   0.901  0.3168  0.8420  0.1169
  471SOL     OW 2311   4.300   1.060   6.343 -0.1983 -0.2230 -0.6238
  471SOL    HW1 2312   4.204   1.076   6.317 -0.5292 -0.9693  0.1085
  471SOL    HW2 2313   4.305   1.041   6.441  0.6517 -0.6298 -0.7438
  472SOL     OW 2314   5.869   4.667   1.199 -0.0769 -0.1350 -0.2346
  472SOL    HW1 2315   5.969   4.669   1.203  0.0639 -0.3431 -2.4277
  472SOL    HW2 2316   5.838   4.572   1.193 -0.3327 -0.0271 -0.6405
  473SOL     OW 2317   1.331   3.307   4.805 -0.5257 -0.0637 -0.3249
  473SOL    HW1 2318   1.369   3.345   4.889  0.8842  0.6808 -1.2458
  473SOL    HW2 2319   1.246   3.259   4.825  0.2194 -0.6611  1.6483
  474SOL     OW 2320   1.088   1.114   2.289  0.2716 -0.2935 -0.7052
  474SOL    HW1 2321   0.989   1.126   2.279  0.1535 -0.3232  0.3228
  474SOL    HW2 2322   1.132   1.203   2.296 -0.0122 -0.2951  1.6305
  475SOL     OW 2323   5.383   5.684   3.048 -1.0790 -0.2498 -0.2381
  475SOL    HW1 2324   5.318   5.625   3.000 -1.1656 -0.0562 -0.3612
  475SOL    HW2 2325   5.354   5.779   3.038 -2.3955 -0.3485  2.1229
  476SOL     OW 2326   3.807   5.286   4.647 -0.0770  0.0644 -0.2467
  476SOL    HW1 2327   3.832   5.358   4.582 -0.8916  2.0005  1.4935
  476SOL    HW2 2328   3.711   5.261   4.635 -0.9163  2.0817  1.5881
  477SOL     OW 2329   5.767   2.352   5.368 -0.4076 -0.1732  0.1583
  477SOL    HW1 2330   5.788   2.259   5.339 -0.7183 -0.6942  1.5023
  477SOL    HW2 2331   5.670   2.358   5.391 -0.0036 -0.1214  2.0582
  478SOL     OW 2332   5.450   2.018   0.637  0.4739 -0.2145 -0.0017
  478SOL    HW1 2333   5.549   2.026   0.641  0.4499 -0.2132  1.2201
  478SOL    HW2 2334   5.419   1.960   0.713 -0.5467  0.6694  0.2755
  479SOL     OW 2335   5.626   6.990   5.603  0.2102 -0.5399  0.1091
  479SOL    HW1 2336   5.660   7.003   5.696  1.0901 -0.2085 -0.2571
  479SOL    HW2 2337   5.596   7.077   5.565 -0.2268 -0.6879  0.1066
  480SOL     OW 2338   4.450   0.462   0.676  0.6440  0.6231  0.1942
  480SOL    HW1 2339   4.428   0.540   0.617 -1.5867  0.0576  0.1730
  480SOL    HW2 2340   4.374   0.397   0.675  0.7328  0.2922  3.2071
  481SOL     OW 2341   3.622   5.435   6.143 -0.4209 -0.1176 -0.0193
  481SOL    HW1 2342   3.523   5.442   6.134 -0.2220  0.5003 -2.2865
  481SOL    HW2 2343   3.665   5.517   6.107  0.9414 -0.0964  1.5108
  482SOL     OW 2344   5.482   2.448   0.326 -0.3073 -0.0797  0.4290
  482SOL    HW1 2345   5.579   2.429   0.309 -1.0109 -1.6450 -2.5430
  482SOL    HW2 2346   5.435   2.363   0.350 -1.1864  0.4311  0.5610
  483SOL     OW 2347   5.665   4.429   5.665 -0.2673  0.0413  0.1470
  483SOL    HW1 2348   5.702   4.489   5.594 -1.2529  0.4033 -0.0720
  483SOL    HW2 2349   5.741   4.387   5.715  0.4718  2.1003  0.8759
  484SOL     OW 2350   0.173   6.698   2.798  0.2973 -0.1767  0.2540
  484SOL    HW1 2351   0.113   6.775   2.775 -0.5052 -0.7124  0.5035
  484SOL    HW2 2352   0.248   6.730   2.856 -0.3521  0.3168  0.8335
  485SOL     OW 2353   5.860   5.733   3.839  0.1895 -0.1999 -0.8584
  485SOL    HW1 2354   5.901   5.815   3.800  0.7626 -0.1728 -0.2253
  485SOL    HW2 2355   5.781   5.706   3.785  1.2202 -0.4275 -2.3154
  486SOL     OW 2356   6.654   3.096   1.031 -0.3494  0.0038  0.6946
  486SOL    HW1 2357   6.693   3.016   0.984 -0.6942 -0.7071  1.5695
  486SOL    HW2 2358   6.600   3.150   0.967  0.1838 -0.2655  0.0035
  487SOL     OW 2359   4.107   4.712   6.665  0.1967  0.4786 -0.0937
  487SOL    HW1 2360   4.113   4.805   6.701 -0.2082  0.0720  1.0763
  487SOL    HW2 2361   4.145   4.709   6.573  0.0322  1.8407 -0.2231
  488SOL     OW 2362   0.283   3.212   4.362 -0.1005  0.1533 -0.1415
  488SOL    HW1 2363   0.354   3.277   4.389  0.8830 -0.8780 -0.1419
  488SOL    HW2 2364   0.275   3.212   4.262  0.0900  0.0895 -0.1580
  489SOL     OW 2365   0.489   4.984   2.181 -0.4900  0.0429  0.3941
  489SOL    HW1 2366   0.439   4.934   2.110  0.7541  0.1914 -0.6349
  489SOL    HW2 2367   0.473   4.941   2.270 -0.2620 -1.5901 -0.3131
  490SOL     OW 2368   1.966   2.703   4.100  0.1992 -0.3389 -0.5518
  490SOL    HW1 2369   1.906   2.644   4.155  1.1417 -1.7699 -1.0162
  490SOL    HW2 2370   1.912   2.775   4.058 -1.3239 -1.9512 -1.4634
  491SOL     OW 2371   3.706   3.305   2.691 -0.1596 -0.5133  0.5879
  491SOL    HW1 2372   3.784   3.249   2.660  2.4863  1.7797  2.6207
  491SOL    HW2 2373   3.694   3.381   2.628  0.4485  0.1086  1.2068
  492SOL     OW 2374   4.805   6.375   3.303  0.3530 -0.0520  0.0496
  492SOL    HW1 2375   4.803   6.295   3.363  0.7857  0.0233  0.1659
  492SOL    HW2 2376   4.778   6.456   3.355 -0.3406 -0.1547 -0.1310
  493SOL     OW 2377   2.190   3.209   3.013 -0.0856 -0.2961 -0.2892
  493SOL    HW1 2378   2.141   3.137   2.963  0.2601 -0.5022 -0.3316
  493SOL    HW2 2379   2.201   3.289   2.953  1.7290 -1.1134 -1.1073
  494SOL     OW 2380   1.850   5.293   2.397  0.3026  0.1361 -0.0194
  494SOL    HW1 2381   1.855   5.212   2.456 -0.0947 -1.0629 -1.5783
  494SOL    HW2 2382   1.891   5.371   2.445 -0.6440 -0.5966  2.1197
  495SOL     OW 2383   1.397   6.948   4.741 -0.1752 -0.9810  0.1304
  495SOL    HW1 2384   1.421   6.958   4.645  0.6377  1.3797  0.5036
  495SOL    HW2 2385   1.468   6.895   4.788  1.2748  0.7916  0.0422
  496SOL     OW 2386   4.745   4.251   2.152 -0.0010  0.6703  0.3953
  496SOL    HW1 2387   4.711   4.327   2.207 -1.8898 -1.9359  3.2054
  496SOL    HW2 2388   4.677   4.228   2.082  0.4179  1.3501 -0.2377
  497SOL     OW 2389   1.069   5.600   5.548 -0.1455  0.5740 -0.3982
  497SOL    HW1 2390   1.104   5.688   5.518  0.6833  0.2290 -0.4654
  497SOL    HW2 2391   1.135   5.528   5.525  0.9860  0.3594  3.0158
  498SOL     OW 2392   1.781   5.807   5.871 -0.1285 -0.4971  0.1793
  498SOL    HW1 2393   1.858   5.868   5.854  0.1034 -0.9944 -0.5767
  498SOL    HW2 2394   1.696   5.858   5.864  0.1296  0.2356  1.7698
  499SOL     OW 2395   1.611   3.079   5.781 -0.0474  0.4808  0.2486
  499SOL    HW1 2396   1.579   3.001   5.835  0.3306  0.8789  1.0523
  499SOL    HW2 2397   1.568   3.077   5.691  0.0463 -0.7264  0.2175
  500SOL     OW 2398   0.292   5.221   4.380  0.4669  0.0411  0.0260
  500SOL    HW1 2399   0.391   5.205   4.376  0.9172  2.4024  0.2171
  500SOL    HW2 2400   0.274   5.302   4.435 -1.5545  0.0228 -0.5496
  501SOL     OW 2401   4.864   5.084   6.304  0.2456  0.3673  0.4568
  501SOL    HW1 2402   4.951   5.090   6.352  1.0001  0.8593 -0.8971
  501SOL    HW2 2403   4.789   5.089   6.369  1.1754  3.0824  1.4596
  502SOL     OW 2404   4.263   5.783   3.725  0.3708  0.2695 -0.5784
  502SOL    HW1 2405   4.278   5.713   3.655 -0.7937  1.5966 -2.2408
  502SOL    HW2 2406   4.263   5.873   3.682 -2.0321  1.0244  0.8344
  503SOL     OW 2407   2.416   6.106   3.363  0.0911 -0.8115  0.6813
  503SOL    HW1 2408   2.348   6.034   3.364  0.0135 -0.7365  0.9062
  503SOL    HW2 2409   2.498   6.074   3.316  0.2761 -1.2505  1.2836
  504SOL     OW 2410   2.146   4.362   2.516  1.0953 -0.0080  0.0376
  504SOL    HW1 2411   2.215   4.305   2.560  0.7890  0.3724  1.0369
  504SOL    HW2 2412   2.190   4.430   2.458  1.5242 -0.2431  0.0877
  505SOL     OW 2413   1.608   4.562   6.281  0.3255 -0.2506  0.5348
  505SOL    HW1 2414   1.667   4.485   6.306 -1.0245 -0.9411  1.7417
  505SOL    HW2 2415   1.526   4.527   6.236 -0.3511  0.4574  1.1850
  506SOL     OW 2416   6.108   1.979   5.488 -0.4489 -0.6043 -0.0042
  506SOL    HW1 2417   6.202   1.988   5.457 -0.0349  0.5112  1.4189
  506SOL    HW2 2418   6.107   1.950   5.584 -1.4188  1.4489  0.6887
  507SOL     OW 2419   0.301   2.104   0.403  0.4432  0.3510  0.1864
  507SOL    HW1 2420   0.388   2.121   0.356  1.6262 -1.6105  1.5151
  507SOL    HW2 2421   0.295   2.162   0.484  0.5893  0.3766  0.1788
  508SOL     OW 2422   0.571   3.404   2.434 -0.2554  0.1901  0.7369
  508SOL    HW1 2423   0.513   3.341   2.382  0.3537 -0.1794  0.5009
  508SOL    HW2 2424   0.576   3.374   2.529  1.4109 -1.1106  0.2651
  509SOL     OW 2425   4.771   6.000   5.898  0.1880  0.6531 -0.0795
  509SOL    HW1 2426   4.832   6.002   5.818 -1.0020  0.2673 -1.0347
  509SOL    HW2 2427   4.817   5.954   5.974  0.7330 -0.5288 -1.0848
  510SOL     OW 2428   5.309   4.483   2.455  0.3447 -0.1101  0.3968
  510SOL    HW1 2429   5.230   4.517   2.506 -1.1518 -1.1819 -1.0890
  510SOL    HW2 2430   5.380   4.554   2.451 -0.8203  1.1380  1.1872
  511SOL     OW 2431   1.910   5.277   1.733  0.2334  0.0986 -0.5523
  511SOL    HW1 2432   1.811   5.262   1.739  0.2620  0.1311  0.0575
  511SOL    HW2 2433   1.928   5.357   1.676 -0.1615  0.8403  0.3285
  512SOL     OW 2434   4.472   2.328   3.231 -0.2635  0.5105  0.3860
  512SOL    HW1 2435   4.378   2.324   3.264  0.0370 -0.8427  1.1477
  512SOL    HW2 2436   4.492   2.246   3.177  0.2113  1.2283 -0.5779
  513SOL     OW 2437   3.490   2.361   5.916 -0.7686  0.2370 -0.2805
  513SOL    HW1 2438   3.550   2.353   5.836  1.5422  1.2264  1.2427
  513SOL    HW2 2439   3.503   2.282   5.976 -0.4272  0.7995  0.3996
  514SOL     OW 2440   3.606   2.963   5.478  0.0746 -0.9133 -0.5803
  514SOL    HW1 2441   3.508   2.982   5.472  0.2018  0.5309  1.0223
  514SOL    HW2 2442   3.657   3.048   5.477  1.1569 -1.5091  0.6667
  515SOL     OW 2443   1.909   5.626   4.414 -0.1508  0.4383  0.0557
  515SOL    HW1 2444   1.867   5.664   4.497 -0.4824 -0.1570  0.1663
  515SOL    HW2 2445   1.930   5.700   4.350  1.3034  1.0738  1.1949
  516SOL     OW 2446   2.190   1.883   1.692 -0.4276  0.7656 -0.0866
  516SOL    HW1 2447   2.177   1.791   1.729  0.9894  1.3329  1.9463
  516SOL    HW2 2448   2.270   1.926   1.734 -2.5898  3.9724  1.0965
  517SOL     OW 2449   1.224   4.386   5.649 -0.3430  0.7539  0.0618
  517SOL    HW1 2450   1.189   4.438   5.571 -3.6655 -1.5615 -0.2069
  517SOL    HW2 2451   1.310   4.342   5.624 -0.4763  1.4327 -1.6930
  518SOL     OW 2452   4.582   0.772   2.907 -0.2430  0.3982  0.3773
  518SOL    HW1 2453   4.524   0.748   2.830 -0.7643 -1.0265  1.1679
  518SOL    HW2 2454   4.525   0.793   2.987  0.2868 -0.5484  1.0330
  519SOL     OW 2455   6.603   2.465   3.793 -0.2382  0.4444 -0.8454
  519SOL    HW1 2456   6.525   2.423   3.746  0.7950  0.4028 -2.5943
  519SOL    HW2 2457   6.658   2.517   3.727 -0.4002  3.0102  0.8963
  520SOL     OW 2458   0.656   3.682   6.171 -0.7353  0.1375 -0.5252
  520SOL    HW1 2459   0.689   3.630   6.250 -0.1622 -0.1531 -0.9504
  520SOL    HW2 2460   0.664   3.626   6.088 -2.0328  0.1625 -0.6896
  521SOL     OW 2461   6.264   0.104   5.303  0.5015  0.3267 -0.4956
  521SOL    HW1 2462   6.216   0.031   5.254 -1.6211  1.2140  0.1901
  521SOL    HW2 2463   6.319   0.157   5.238 -2.1304  1.3962 -2.0050
  522SOL     OW 2464   6.486   4.510   5.741  0.2447 -0.1110  0.6185
  522SOL    HW1 2465   6.480   4.607   5.764  0.3853 -0.4993  2.5084
  522SOL    HW2 2466   6.472   4.456   5.824 -0.2664 -1.7259 -0.4793
  523SOL     OW 2467   3.885   5.776   3.681 -0.3078  0.1903  0.4785
  523SOL    HW1 2468   3.919   5.864   3.713 -2.7574  1.2156  0.5297
  523SOL    HW2 2469   3.859   5.720   3.761 -1.2475  0.5264  0.4216
  524SOL     OW 2470   6.385   0.496   5.095  0.0908  0.0390 -0.4495
  524SOL    HW1 2471   6.383   0.408   5.143  0.8895  0.2487 -0.0209
  524SOL    HW2 2472   6.390   0.480   4.996 -1.5783 -0.4014 -0.4939
  525SOL     OW 2473   1.637   5.280   1.751 -0.5538 -0.1041 -0.0584
  525SOL    HW1 2474   1.622   5.379   1.753  0.7980  0.1889 -2.0369
  525SOL    HW2 2475   1.561   5.237   1.702 -1.6446 -0.2161  1.6330
  526SOL     OW 2476   2.215   1.605   5.045 -0.0836 -0.2533 -0.3815
  526SOL    HW1 2477   2.210   1.674   4.974 -0.8004 -1.8086 -1.9072
  526SOL    HW2 2478   2.235   1.516   5.004 -0.5488 -1.2102  1.3566
  527SOL     OW 2479   3.548   2.659   1.203  0.3450  0.5363  0.3325
  527SOL    HW1 2480   3.589   2.669   1.293 -0.0513  0.8394  0.4872
  527SOL    HW2 2481   3.619   2.654   1.133  0.6699 -0.4167  0.7276
  528SOL     OW 2482   0.635   0.322   1.122  0.2955  0.3254 -0.1906
  528SOL    HW1 2483   0.682   0.316   1.210  0.6125 -3.4804 -0.4399
  528SOL    HW2 2484   0.540   0.294   1.133  0.0854  0.7410 -0.9026
  529SOL     OW 2485   0.358   6.979   2.686  0.1606 -0.0803  0.1211
  529SOL    HW1 2486   0.423   7.046   2.650 -0.6206  0.0494 -1.1137
  529SOL    HW2 2487   0.278   6.975   2.627  0.4547 -2.5982 -0.2146
  530SOL     OW 2488   2.259   5.301   6.763 -0.2302 -0.4828 -0.2489
  530SOL    HW1 2489   2.166   5.331   6.786  0.1247  1.3861 -1.0269
  530SOL    HW2 2490   2.297   5.362   6.694  1.2765 -1.7486 -0.5930
  531SOL     OW 2491   1.791   1.582   3.493 -0.4105  0.1290  0.1882
  531SOL    HW1 2492   1.793   1.530   3.408  2.1449 -0.5658  0.6076
  531SOL    HW2 2493   1.809   1.522   3.570 -1.1680  1.0222  1.1038
  532SOL     OW 2494   6.645   0.092   0.258  0.2561 -0.6155  0.1630
  532SOL    HW1 2495   6.590   0.106   0.341 -0.2885  0.3357 -0.3456
  532SOL    HW2 2496   6.737   0.063   0.284  1.0141  2.4513  1.2940
  533SOL     OW 2497   2.645   4.688   2.825 -0.4013  0.5525  0.5924
  533SOL    HW1 2498   2.598   4.630   2.758  1.1356 -0.3553  0.2411
  533SOL    HW2 2499   2.744   4.675   2.816  0.0043  3.2759  0.5106
  534SOL     OW 2500   0.761   1.265   1.624  0.2436 -0.2417  0.6436
  534SOL    HW1 2501   0.774   1.332   1.697  1.1438 -1.6504  1.8273
  534SOL    HW2 2502   0.815   1.183   1.643 -1.5296 -1.7077 -0.2705
  535SOL     OW 2503   6.470   2.960   1.216  0.4705  0.5685  0.3653
  535SOL    HW1 2504   6.523   2.996   1.139  0.9932 -0.0363  0.4346
  535SOL    HW2 2505   6.497   2.866   1.234  0.3838  0.7123  1.3222
  536SOL     OW 2506   2.187   0.026   6.994  0.1965  0.0460 -0.0445
  536SOL    HW1 2507   2.167   0.079   6.912 -0.9276  0.9651  0.7919
  536SOL    HW2 2508   2.271  -0.026   6.980  0.1972  0.4261 -1.6527
  537SOL     OW 2509   2.602   3.931   1.645  0.0001  0.2697 -0.0746
  537SOL    HW1 2510   2.562   3.839   1.654 -0.3352  0.2930 -1.1245
  537SOL    HW2 2511   2.541   3.998   1.689 -0.1554  0.0792  0.0036
  538SOL     OW 2512   0.946   1.171   3.976  0.0422 -0.3175 -0.3994
  538SOL    HW1 2513   1.043   1.187   3.961  0.5508 -1.3341  1.5209
  538SOL    HW2 2514   0.893   1.243   3.931  1.7728  1.4427  0.2744
  539SOL     OW 2515   3.263   5.311   5.909  0.3124 -0.2826 -0.9395
  539SOL    HW1 2516   3.227   5.301   6.002  0.5194 -0.7341 -0.9069
  539SOL    HW2 2517   3.322   5.391   5.904 -0.2221  0.1218 -0.8442
  540SOL     OW 2518   3.391   4.272   5.887  0.6426  0.1317  0.9586
  540SOL    HW1 2519   3.363   4.328   5.810 -0.9499 -1.7589  0.0748
  540SOL    HW2 2520   3.490   4.260   5.886  0.7564  1.0654 -0.1114
  541SOL     OW 2521   5.965   4.056   4.775  0.1850 -0.1532 -0.2373
  541SOL    HW1 2522   6.027   3.998   4.829  0.9435  0.7639 -0.1046
  541SOL    HW2 2523   5.949   4.142   4.823 -1.0119 -0.2625 -0.3934
  542SOL     OW 2524   5.852   6.403   2.184  0.2032 -0.1208 -0.0517
  542SOL    HW1 2525   5.912   6.467   2.138  2.2702 -1.7483  0.2437
  542SOL    HW2 2526   5.865   6.311   2.146 -3.1644 -0.3627 -0.9415
  543SOL     OW 2527   2.708   6.777   5.127 -0.2487  0.1268  0.2619
  543SOL    HW1 2528   2.789   6.719   5.135 -1.0759 -1.2804 -0.9879
  543SOL    HW2 2529   2.719   6.840   5.051 -0.8663 -1.0437 -0.8255
  544SOL     OW 2530   3.757   6.158   6.108 -0.0185 -0.9388  0.7574
  544SOL    HW1 2531   3.841   6.211   6.094  1.0623 -2.6243  0.5050
  544SOL    HW2 2532   3.680   6.220   6.125  1.0845  0.6896  0.0363
  545SOL     OW 2533   5.510   4.525   2.698  0.0306 -0.1221  0.1167
  545SOL    HW1 2534   5.471   4.614   2.675  0.3502 -0.1326 -0.4833
  545SOL    HW2 2535   5.595   4.512   2.648  0.0134 -0.7456  0.2391
  546SOL     OW 2536   4.085   5.657   1.894 -0.1321  0.2656  0.0609
  546SOL    HW1 2537   4.051   5.572   1.935  0.2437 -0.0635 -0.3053
  546SOL    HW2 2538   4.115   5.639   1.800 -2.4060  1.3108 -0.9569
  547SOL     OW 2539   3.606   1.531   6.315  0.3717  0.2307 -0.7190
  547SOL    HW1 2540   3.588   1.469   6.391  0.4062  0.5037 -0.4875
  547SOL    HW2 2541   3.581   1.486   6.229  0.6159 -0.1875 -0.5736
  548SOL     OW 2542   5.888   0.763   0.881 -0.5127  0.2914 -0.5322
  548SOL    HW1 2543   5.805   0.707   0.872 -1.3140  1.0843  1.5199
  548SOL    HW2 2544   5.937   0.763   0.794 -0.6071 -3.3689 -0.7556
  549SOL     OW 2545   4.359   2.873   5.313  0.1693  0.5539  0.3333
  549SOL    HW1 2546   4.392   2.894   5.404 -1.0385 -0.9869  1.1724
  549SOL    HW2 2547   4.274   2.821   5.319 -0.1497  0.7348 -1.6829
  550SOL     OW 2548   0.211   6.766   3.426  0.2754 -0.1530 -0.3468
  550SOL    HW1 2549   0.181   6.752   3.520 -0.9217 -0.7619 -0.7966
  550SOL    HW2 2550   0.282   6.700   3.403  0.8705  0.2704  0.2488
  551SOL     OW 2551   5.934   4.343   6.481  0.5137 -0.7636  0.4079
  551SOL    HW1 2552   5.871   4.273   6.450 -0.1351  0.8139 -2.2078
  551SOL    HW2 2553   5.885   4.411   6.535  0.6393 -1.0656  0.9103
  552SOL     OW 2554   2.171   1.820   4.212  0.5166  0.0548  0.0117
  552SOL    HW1 2555   2.235   1.884   4.169  0.9336 -0.9152 -0.8493
  552SOL    HW2 2556   2.222   1.742   4.248 -0.0802 -0.1989  0.3222
  553SOL     OW 2557   2.937   3.316   3.134 -0.0071 -0.0741  0.5933
  553SOL    HW1 2558   2.911   3.386   3.201 -0.4169  0.8061 -0.4667
  553SOL    HW2 2559   2.897   3.338   3.045  1.5647 -0.5346 -0.2613
  554SOL     OW 2560   1.704   1.881   1.050  0.1616  0.3929 -0.1377
  554SOL    HW1 2561   1.795   1.844   1.072 -1.0671 -2.8344  0.1640
  554SOL    HW2 2562   1.655   1.815   0.992 -1.6968  2.4739 -1.0850
  555SOL     OW 2563   4.173   5.018   0.956 -0.1298 -0.4095 -0.0022
  555SOL    HW1 2564   4.201   4.948   1.021 -0.2791 -0.5401 -0.0767
  555SOL    HW2 2565   4.089   4.989   0.909 -1.7353  0.9706  1.8526
  556SOL     OW 2566   1.566   6.235   5.455 -0.1638 -0.0921 -0.1082
  556SOL    HW1 2567   1.506   6.156   5.438  0.6362 -0.6410 -0.4477
  556SOL    HW2 2568   1.658   6.202   5.477 -0.2332  0.6957  1.5268
  557SOL     OW 2569   5.495   0.383   6.339 -0.2935 -0.3635 -0.7435
  557SOL    HW1 2570   5.503   0.297   6.391  0.3294  0.2785  0.2627
  557SOL    HW2 2571   5.586   0.419   6.320 -0.5528  0.2203 -0.9066
  558SOL     OW 2572   4.457   1.080   6.980 -0.7707  0.1471 -0.1335
  558SOL    HW1 2573   4.470   0.990   7.023  1.6823 -0.1059 -1.2803
  558SOL    HW2 2574   4.408   1.069   6.894 -2.5090  0.2363  0.7977
  559SOL     OW 2575   1.610   1.856   6.787 -0.4848 -0.0560  0.2714
  559SOL    HW1 2576   1.661   1.938   6.813 -1.5049  0.3969  0.9278
  559SOL    HW2 2577   1.590   1.859   6.689  1.8667 -0.9063 -0.2869
  560SOL     OW 2578   4.418   5.547   1.883  0.3999 -0.6968  0.1155
  560SOL    HW1 2579   4.384   5.454   1.871 -2.0961  0.0801  0.7414
  560SOL    HW2 2580   4.364   5.610   1.827 -0.0537  0.7512  2.0938
  561SOL     OW 2581   5.302   6.163   3.327  0.2622  0.0005  0.0127
  561SOL    HW1 2582   5.337   6.137   3.237  0.2136  0.1171 -0.0398
  561SOL    HW2 2583   5.378   6.192   3.385  0.0874  1.8354 -0.6223
  562SOL     OW 2584   6.588   5.298   2.977  0.0328  0.1266 -0.4331
  562SOL    HW1 2585   6.633   5.379   2.940  1.7235 -0.6754 -0.2235
  562SOL    HW2 2586   6.574   5.232   2.904 -1.6052  0.6775 -0.6612
  563SOL     OW 2587   5.797   6.013   5.489  0.3795 -0.0053  0.3901
  563SOL    HW1 2588   5.716   5.954   5.487  1.1122 -1.0174 -1.9485
  563SOL    HW2 2589   5.768   6.109   5.491 -0.8494 -0.3698  0.9850
  564SOL     OW 2590   1.621   4.005   5.037  0.3048  0.0984  0.0445
  564SOL    HW1 2591   1.678   4.085   5.053  0.7098  0.1779 -1.5951
  564SOL    HW2 2592   1.679   3.926   5.014 -0.1137 -0.5540  1.1380
  565SOL     OW 2593   3.270   4.069   3.091 -0.2806  0.4809 -0.4770
  565SOL    HW1 2594   3.260   4.097   2.995  0.2692 -0.3284 -0.7796
  565SOL    HW2 2595   3.362   4.035   3.106 -0.4573  0.3177  0.2689
  566SOL     OW 2596   4.930   5.376   4.246  0.4417  0.0730 -0.1664
  566SOL    HW1 2597   4.879   5.299   4.284 -0.9257  0.2525 -1.5541
  566SOL    HW2 2598   5.027   5.367   4.270 -0.1911 -0.3112  2.4654
  567SOL     OW 2599   6.472   2.088   4.128 -0.0054 -0.0048  0.3154
  567SOL    HW1 2600   6.428   2.170   4.093  2.5609  1.1585 -0.4111
  567SOL    HW2 2601   6.477   2.092   4.228 -0.4059  0.4584  0.3178
  568SOL     OW 2602   2.477   2.584   3.093 -0.5245  0.0452  0.0760
  568SOL    HW1 2603   2.396   2.539   3.131  0.0129 -0.0781  1.0972
  568SOL    HW2 2604   2.481   2.678   3.125 -0.9692  0.4640 -1.0510
  569SOL     OW 2605   5.467   6.418   3.394  0.1040  0.0262  0.0551
  569SOL    HW1 2606   5.519   6.333   3.386  0.8523  0.3772  0.9856
  569SOL    HW2 2607   5.527   6.495   3.375 -0.8275  0.3295 -1.8401
  570SOL     OW 2608   5.091   6.836   3.232 -0.8540 -0.7063 -0.2084
  570SOL    HW1 2609   5.118   6.810   3.140  0.7137 -2.7270  0.7245
  570SOL    HW2 2610   5.112   6.761   3.295 -2.1436  0.4882  1.7595
  571SOL     OW 2611   6.997   1.189   4.652 -0.0316 -0.2743 -0.3994
  571SOL    HW1 2612   6.979   1.287   4.654 -1.2435 -0.4889  1.2003
  571SOL    HW2 2613   7.037   1.160   4.739 -0.8214 -1.3817 -0.3833
  572SOL     OW 2614   5.956   1.913   2.507  0.6002  0.1058 -0.2226
  572SOL    HW1 2615   6.028   1.848   2.483  0.2589 -0.1396 -0.6064
  572SOL    HW2 2616   5.867   1.867   2.502  0.4271  0.3570  0.4159
  573SOL     OW 2617   4.221   0.635   6.518 -0.4725 -0.2138  0.0403
  573SOL    HW1 2618   4.266   0.723   6.505  1.5534 -1.3778 -1.4331
  573SOL    HW2 2619   4.251   0.595   6.605  0.9399 -0.7189 -0.6571
  574SOL     OW 2620   4.415   5.737   3.995 -0.0625 -0.2407 -0.3099
  574SOL    HW1 2621   4.458   5.751   3.906 -1.5657  0.0164 -1.0144
  574SOL    HW2 2622   4.418   5.640   4.018 -0.3996 -0.4283 -1.0285
  575SOL     OW 2623   6.314   1.814   4.489 -0.2025  0.4641 -0.0848
  575SOL    HW1 2624   6.329   1.716   4.492 -1.5516  0.2045 -0.9887
  575SOL    HW2 2625   6.399   1.862   4.511  0.2605 -0.8908  1.2234
  576SOL     OW 2626   6.962   1.655   3.233  0.2542  0.0705  0.0310
  576SOL    HW1 2627   6.894   1.665   3.305  2.1041 -0.0690  1.8807
  576SOL    HW2 2628   6.980   1.744   3.191  1.2973  0.7574  1.8419
  577SOL     OW 2629   2.206   6.847   1.368  0.5479 -0.2684 -0.3879
  577SOL    HW1 2630   2.150   6.764   1.378  0.0716 -0.1369 -1.7268
  577SOL    HW2 2631   2.293   6.834   1.415  0.4602 -1.5073 -0.5199
  578SOL     OW 2632   2.398   2.301   4.693 -0.7795  0.0440  0.8480
  578SOL    HW1 2633   2.358   2.392   4.703 -0.7890  0.2009 -0.4213
  578SOL    HW2 2634   2.485   2.298   4.742  0.1969  1.3987 -0.6939
  579SOL     OW 2635   5.681   0.384   4.904  0.0911 -0.2773  0.1609
  579SOL    HW1 2636   5.776   0.415   4.891 -0.2575  0.8472  0.1761
  579SOL    HW2 2637   5.644   0.351   4.817  0.1202  0.3948 -0.1140
  580SOL     OW 2638   3.817   4.495   6.874  0.2454 -0.4202 -0.1857
  580SOL    HW1 2639   3.728   4.512   6.917  0.8951  0.2163  0.9318
  580SOL    HW2 2640   3.819   4.401   6.839 -0.4289 -0.8399  0.8493
  581SOL     OW 2641   2.273   2.794   3.016 -0.3244 -0.2555 -0.0831
  581SOL    HW1 2642   2.265   2.701   3.052 -0.6746 -0.5896 -0.9925
  581SOL    HW2 2643   2.241   2.859   3.084  0.7810 -0.7147  0.9217
  582SOL     OW 2644   3.305   0.029   1.728 -0.3094 -0.4133  0.1186
  582SOL    HW1 2645   3.220  -0.019   1.748 -1.5800  1.2869 -0.8970
  582SOL    HW2 2646   3.382  -0.022   1.765 -1.7079 -2.3104  0.5534
  583SOL     OW 2647   0.978   3.400   0.207 -0.1151 -0.9572  0.3089
  583SOL    HW1 2648   0.932   3.354   0.283 -1.3747 -1.0533 -0.4839
  583SOL    HW2 2649   0.968   3.344   0.124 -0.3491  0.0095 -0.3272
  584SOL     OW 2650   5.471   6.074   0.146  0.2580  0.1687 -0.1848
  584SOL    HW1 2651   5.380   6.084   0.187 -0.2996  1.2968 -1.6139
  584SOL    HW2 2652   5.466   6.009   0.070  0.9970 -0.9090  0.6581
  585SOL     OW 2653   2.418   2.136   5.769 -0.2136 -0.0287  0.0810
  585SOL    HW1 2654   2.474   2.135   5.852 -0.3174 -2.8111  0.2255
  585SOL    HW2 2655   2.475   2.159   5.690 -0.0564  2.3803  0.8346
  586SOL     OW 2656   6.708   3.608   3.088 -0.3696  0.1877 -0.2405
  586SOL    HW1 2657   6.807   3.608   3.075 -0.1046 -1.4759  1.3348
  586SOL    HW2 2658   6.678   3.695   3.125  0.4427  0.8279 -1.0566
  587SOL     OW 2659   2.151   5.225   1.423 -0.5862 -0.1179  0.3572
  587SOL    HW1 2660   2.128   5.146   1.480 -0.1163 -0.3357  0.2476
  587SOL    HW2 2661   2.195   5.294   1.480 -0.9139  0.0338  0.4337
  588SOL     OW 2662   0.497   6.853   4.396  0.1857  0.4108 -0.1791
  588SOL    HW1 2663   0.520   6.921   4.466  1.5309 -0.3670  0.1708
  588SOL    HW2 2664   0.578   6.833   4.341 -0.3952 -0.3254 -0.7795
  589SOL     OW 2665   3.118   5.788   0.263  0.1237  0.0397 -0.2904
  589SOL    HW1 2666   3.176   5.768   0.342  1.0480  0.6520 -0.7873
  589SOL    HW2 2667   3.087   5.702   0.222  2.1853 -0.3959 -1.0688
  590SOL     OW 2668   0.863   2.263   4.678 -0.2808  0.1801 -0.0523
  590SOL    HW1 2669   0.849   2.221   4.589  0.0222  0.2303 -0.1260
  590SOL    HW2 2670   0.788   2.239   4.739 -2.5158  3.1042 -1.3994
  591SOL     OW 2671   2.012   6.857   6.661  0.9428 -0.4919 -0.0911
  591SOL    HW1 2672   2.030   6.814   6.750  0.4265  1.1191  0.8408
  591SOL    HW2 2673   1.922   6.830   6.628  1.3517 -1.5147 -0.3997
  592SOL     OW 2674   6.074   0.158   2.155  0.9719 -0.2476  0.1673
  592SOL    HW1 2675   6.018   0.107   2.220  0.5875 -0.3200 -0.2185
  592SOL    HW2 2676   6.154   0.104   2.129 -0.5808 -1.6396 -1.9827
  593SOL     OW 2677   2.472   4.469   3.634  0.9343 -0.0124  0.1560
  593SOL    HW1 2678   2.498   4.513   3.548 -1.4513  0.9420 -0.1711
  593SOL    HW2 2679   2.427   4.382   3.615  1.2699 -0.2591  0.4944
  594SOL     OW 2680   4.381   5.432   4.254  0.4071  0.2716 -0.0067
  594SOL    HW1 2681   4.397   5.505   4.321 -2.0655  0.2770  0.7020
  594SOL    HW2 2682   4.288   5.397   4.266  0.5168 -0.9734 -2.3109
  595SOL     OW 2683   0.162   5.509   5.765 -0.4609  0.0732  0.1817
  595SOL    HW1 2684   0.189   5.505   5.861 -1.3305  1.0296  0.4794
  595SOL    HW2 2685   0.130   5.419   5.736  1.1305 -0.5895  0.3661
  596SOL     OW 2686   0.184   0.751   2.429  0.2254 -0.1908 -0.6810
  596SOL    HW1 2687   0.173   0.838   2.380  2.7182  0.9495  0.6428
  596SOL    HW2 2688   0.247   0.763   2.505  0.5805 -3.1828 -0.3988
  597SOL     OW 2689   2.940   1.703   4.781 -0.5218 -0.0144 -0.4022
  597SOL    HW1 2690   3.036   1.718   4.755 -0.6198  0.0916 -0.7062
  597SOL    HW2 2691   2.900   1.635   4.720 -1.1625  1.2588 -1.4550
  598SOL     OW 2692   3.838   3.334   4.125 -0.1276 -0.3809  0.8208
  598SOL    HW1 2693   3.824   3.431   4.142 -2.0033 -0.6480  1.0161
  598SOL    HW2 2694   3.762   3.282   4.164  0.2333 -1.8268 -0.3114
  599SOL     OW 2695   1.801   3.185   4.386 -0.1402 -0.8358  0.6896
  599SOL    HW1 2696   1.772   3.198   4.292  2.2697  1.1780  0.1039
  599SOL    HW2 2697   1.883   3.128   4.388 -0.1686 -0.8640  1.5541
  600SOL     OW 2698   4.652   2.301   5.064  0.3536  0.1951 -0.4605
  600SOL    HW1 2699   4.611   2.390   5.042  2.2196  1.2083 -0.0452
  600SOL    HW2 2700   4.628   2.276   5.158  1.1064  1.0462 -0.0288
  601SOL     OW 2701   1.379   5.028   0.548 -0.7689  0.5008  0.0625
  601SOL    HW1 2702   1.396   5.121   0.579  0.2035 -0.1095  1.4640
  601SOL    HW2 2703   1.292   4.996   0.583  0.5771 -0.3889  2.8523
  602SOL     OW 2704   1.788   5.721   3.539  0.1050 -0.2074 -0.2166
  602SOL    HW1 2705   1.834   5.691   3.455  0.2195 -0.3463 -0.1040
  602SOL    HW2 2706   1.690   5.732   3.521  0.1710  0.0224 -0.4380
  603SOL     OW 2707   0.343   4.509   0.921  0.3283 -0.3425 -0.5712
  603SOL    HW1 2708   0.429   4.487   0.967  0.6791  0.3541 -0.8755
  603SOL    HW2 2709   0.341   4.468   0.830 -0.4641 -1.9155  0.1145
  604SOL     OW 2710   6.919   5.389   1.409  0.4998 -0.0475 -0.4764
  604SOL    HW1 2711   6.849   5.363   1.476 -0.3704 -1.4976 -1.8690
  604SOL    HW2 2712   6.900   5.481   1.375 -0.5339 -0.2814 -0.5724
  605SOL     OW 2713   2.715   4.326   0.400 -0.6634 -0.1301 -0.2953
  605SOL    HW1 2714   2.669   4.408   0.365 -0.2604  0.3872  0.3581
  605SOL    HW2 2715   2.648   4.254   0.416 -0.8197 -0.5488 -2.5290
  606SOL     OW 2716   3.024   6.988   0.859 -0.0337 -0.3668 -0.4578
  606SOL    HW1 2717   2.936   6.963   0.820 -0.8973  0.6341  0.7615
  606SOL    HW2 2718   3.083   6.907   0.863 -0.2623 -0.7177 -2.7756
  607SOL     OW 2719   3.657   3.192   6.145  0.3249 -0.3258 -0.1768
  607SOL    HW1 2720   3.562   3.197   6.175  0.4531 -2.4953  0.7909
  607SOL    HW2 2721   3.685   3.281   6.107 -1.8343  0.5699  0.1848
  608SOL     OW 2722   2.243   6.784   0.701 -0.2672 -0.1925  0.2061
  608SOL    HW1 2723   2.289   6.832   0.626  0.0897 -0.8700 -0.0211
  608SOL    HW2 2724   2.209   6.850   0.767  1.5663  0.3293  0.6850
  609SOL     OW 2725   4.177   4.894   0.346  0.6205 -0.0796 -0.2929
  609SOL    HW1 2726   4.116   4.951   0.291 -1.5414  0.0518  2.0750
  609SOL    HW2 2727   4.149   4.798   0.339  1.0020 -0.1977 -0.2425
  610SOL     OW 2728   3.252   6.349   5.915  0.2774 -0.2908 -0.2019
  610SOL    HW1 2729   3.257   6.349   6.015  0.1218 -1.3400 -0.1812
  610SOL    HW2 2730   3.343   6.335   5.877  0.3026 -0.1258 -0.2023
  611SOL     OW 2731   4.848   3.959   2.164  0.2440 -0.8013  0.0859
  611SOL    HW1 2732   4.837   3.901   2.245 -1.3874  0.3439  0.7193
  611SOL    HW2 2733   4.817   4.052   2.184  0.5229 -0.2970 -1.6376
  612SOL     OW 2734   1.573   0.844   5.470 -0.1722  0.2281  0.4779
  612SOL    HW1 2735   1.668   0.820   5.488 -0.1032 -1.2251 -1.4671
  612SOL    HW2 2736   1.561   0.859   5.372 -1.8065  1.1756  0.7906
  613SOL     OW 2737   4.357   0.675   3.870  0.6962  0.8307 -0.2134
  613SOL    HW1 2738   4.409   0.735   3.930  0.3999 -0.4960  1.4228
  613SOL    HW2 2739   4.267   0.658   3.909  0.5208 -0.1293 -1.0026
  614SOL     OW 2740   3.567   1.654   1.888  0.1019  0.4871 -0.2187
  614SOL    HW1 2741   3.545   1.590   1.961  0.7172  0.2099 -0.2707
  614SOL    HW2 2742   3.516   1.630   1.805 -0.1860  0.4785 -0.0407
  615SOL     OW 2743   6.566   2.758   6.503 -0.5320  0.2329 -0.1894
  615SOL    HW1 2744   6.528   2.801   6.585 -0.8364  1.2709 -0.8547
  615SOL    HW2 2745   6.515   2.674   6.483 -1.0425  0.4444  0.1790
  616SOL     OW 2746   4.381   5.216   5.088 -0.4619  0.1050  0.0621
  616SOL    HW1 2747   4.464   5.210   5.142  0.5519  1.0089 -1.3137
  616SOL    HW2 2748   4.356   5.126   5.053 -0.7946 -0.3807  1.5061
  617SOL     OW 2749   1.407   5.198   3.553  0.8220  0.2783 -0.6722
  617SOL    HW1 2750   1.500   5.202   3.590  1.3355 -0.8104 -1.7525
  617SOL    HW2 2751   1.402   5.254   3.471 -0.3284  2.7467  0.9817
  618SOL     OW 2752   4.744   3.353   6.989 -0.6100  0.9977  0.6980
  618SOL    HW1 2753   4.758   3.383   6.895 -1.5259 -0.6478 -0.0016
  618SOL    HW2 2754   4.739   3.433   7.049  1.6469  2.0338 -0.3586
  619SOL     OW 2755   4.404   5.012   3.238 -0.1852 -0.5032  0.0303
  619SOL    HW1 2756   4.390   4.978   3.331  1.2732 -0.5071  0.2756
  619SOL    HW2 2757   4.498   4.993   3.210 -0.2004  0.7157 -0.9301
  620SOL     OW 2758   0.937   3.171   0.607 -0.1497 -0.0160  0.5956
  620SOL    HW1 2759   0.924   3.173   0.706 -0.1456  3.2051  0.6554
  620SOL    HW2 2760   1.012   3.110   0.584 -0.5786 -1.3230  2.4926
  621SOL     OW 2761   2.063   3.488   2.801  0.2492  0.0907  0.0751
  621SOL    HW1 2762   2.035   3.579   2.771  2.3963  0.1052 -2.1648
  621SOL    HW2 2763   2.078   3.489   2.900 -0.9238  1.8222  0.2735
  622SOL     OW 2764   2.768   6.484   0.213  0.5174  0.0564 -0.0992
  622SOL    HW1 2765   2.853   6.497   0.161  0.4159  3.4290  0.3737
  622SOL    HW2 2766   2.778   6.527   0.303 -2.4008  2.6682 -0.8889
  623SOL     OW 2767   5.002   1.223   6.359 -0.5714 -0.0084  0.4096
  623SOL    HW1 2768   5.063   1.209   6.281 -1.4273 -2.3848  0.0872
  623SOL    HW2 2769   4.944   1.304   6.342  1.2092  1.2222 -0.0512
  624SOL     OW 2770   1.330   3.621   5.361  0.1461 -0.2814 -0.6976
  624SOL    HW1 2771   1.276   3.705   5.358 -2.2362 -1.7389 -1.4955
  624SOL    HW2 2772   1.368   3.603   5.270  2.6122  1.0388 -0.0124
  625SOL     OW 2773   0.048   2.154   4.692 -0.2106 -0.7698 -0.2516
  625SOL    HW1 2774   0.037   2.065   4.647 -0.3398 -2.0129  2.0421
  625SOL    HW2 2775   0.141   2.162   4.727  0.3683  0.8509 -1.9856
  626SOL     OW 2776   2.198   4.195   3.292 -0.3480  0.3711 -0.3941
  626SOL    HW1 2777   2.099   4.180   3.290 -0.2236 -1.1826  1.6602
  626SOL    HW2 2778   2.222   4.246   3.375  0.6081  0.4700 -0.7196
  627SOL     OW 2779   2.275   4.616   1.661  0.6633 -0.6830  0.1097
  627SOL    HW1 2780   2.351   4.678   1.638 -0.8939  0.3983 -2.6110
  627SOL    HW2 2781   2.281   4.533   1.606 -1.7606  0.8322 -2.7050
  628SOL     OW 2782   0.935   6.172   5.234  0.1034 -0.6206 -0.3698
  628SOL    HW1 2783   0.951   6.236   5.159  1.9856 -0.1555  0.3546
  628SOL    HW2 2784   0.942   6.078   5.200 -1.6652 -0.4687 -1.2423
  629SOL     OW 2785   5.863   4.075   1.021 -0.5617 -0.2971  0.4836
  629SOL    HW1 2786   5.881   4.124   1.106  0.0721  2.9100 -1.3553
  629SOL    HW2 2787   5.765   4.075   1.002 -0.5669  0.2962  0.4981
  630SOL     OW 2788   5.139   0.785   6.438  0.2166  0.3647 -0.1506
  630SOL    HW1 2789   5.149   0.814   6.343  1.3428 -0.1956 -0.2186
  630SOL    HW2 2790   5.174   0.692   6.448 -0.6280  0.1256  0.6565
  631SOL     OW 2791   6.314   0.605   3.067 -0.1716  0.3939  0.0714
  631SOL    HW1 2792   6.409   0.624   3.095 -0.1012 -1.0454  0.8887
  631SOL    HW2 2793   6.312   0.524   3.009 -1.0313 -0.4059  1.1869
  632SOL     OW 2794   6.678   4.013   4.855  0.1514 -0.1131 -0.0404
  632SOL    HW1 2795   6.749   3.968   4.801  0.2588  0.3109 -0.2570
  632SOL    HW2 2796   6.669   3.967   4.943  1.8251  0.7940  0.6445
  633SOL     OW 2797   0.222   2.538   6.506 -0.3994  0.1730  0.3681
  633SOL    HW1 2798   0.158   2.474   6.464 -0.6034  0.4452  0.2600
  633SOL    HW2 2799   0.252   2.604   6.437  1.7954 -1.3147 -0.2183
  634SOL     OW 2800   6.879   5.837   3.332 -0.5253  0.3841 -0.0370
  634SOL    HW1 2801   6.809   5.782   3.376 -0.7549 -0.3087 -1.2217
  634SOL    HW2 2802   6.853   5.934   3.337 -1.2231  0.1928  0.1330
  635SOL     OW 2803   5.818   0.479   1.243 -0.5303  0.0155 -0.2459
  635SOL    HW1 2804   5.835   0.409   1.313 -1.0347 -1.3558 -1.4326
  635SOL    HW2 2805   5.770   0.556   1.284  1.8249  0.6370  1.5469
  636SOL     OW 2806   5.490   1.313   1.553 -0.2006 -0.5076  0.2530
  636SOL    HW1 2807   5.548   1.290   1.632 -2.1264 -0.7776  1.6628
  636SOL    HW2 2808   5.485   1.412   1.543 -1.5065 -0.3909  1.7489
  637SOL     OW 2809   6.923   2.695   4.346 -0.1384 -0.4452  0.0046
  637SOL    HW1 2810   6.834   2.740   4.358  0.3452  0.3479  0.7365
  637SOL    HW2 2811   6.955   2.663   4.435  1.1488  0.9025  0.0536
  638SOL     OW 2812   2.068   6.998   2.499 -0.1100  0.0156  0.0512
  638SOL    HW1 2813   1.977   6.974   2.466 -0.7150  0.4314  1.3466
  638SOL    HW2 2814   2.081   7.097   2.492  1.6415 -0.2866 -3.4532
  639SOL     OW 2815   2.389   6.190   0.956 -0.3503 -0.8826  0.4601
  639SOL    HW1 2816   2.365   6.211   1.051  0.3666 -1.6190  0.8139
  639SOL    HW2 2817   2.429   6.099   0.951  1.0454 -0.2603 -0.3207
  640SOL     OW 2818   2.378   6.610   2.673  0.4141 -0.4793  0.0045
  640SOL    HW1 2819   2.328   6.586   2.590  2.8870 -0.2932 -1.6341
  640SOL    HW2 2820   2.410   6.527   2.718 -1.6944 -0.6330  1.3802
  641SOL     OW 2821   1.191   3.847   5.142 -0.5583  0.7071 -0.3988
  641SOL    HW1 2822   1.179   3.791   5.060 -1.1851 -0.1634  0.2616
  641SOL    HW2 2823   1.247   3.927   5.120 -1.2184  0.8273 -1.8243
  642SOL     OW 2824   0.769   1.200   0.219  0.0638  0.1834 -0.5169
  642SOL    HW1 2825   0.697   1.132   0.233  1.2071 -0.8271  0.8984
  642SOL    HW2 2826   0.855   1.153   0.199  0.7113  1.2463 -0.2978
  643SOL     OW 2827   0.920   5.359   5.490  0.1688 -0.2275 -0.1448
  643SOL    HW1 2828   0.901   5.454   5.512 -0.4986 -0.4357  0.1968
  643SOL    HW2 2829   0.920   5.347   5.391 -0.3909  0.0050 -0.1777
  644SOL     OW 2830   2.530   2.670   1.097 -0.2070 -0.5643 -0.5827
  644SOL    HW1 2831   2.587   2.590   1.076 -0.4739 -0.3909 -2.0053
  644SOL    HW2 2832   2.435   2.641   1.109 -0.4403 -0.3621 -1.8943
  645SOL     OW 2833   6.459   6.018   2.720  0.1866  0.6490  0.7121
  645SOL    HW1 2834   6.510   6.099   2.750  0.6550 -0.0907  1.9833
  645SOL    HW2 2835   6.510   5.971   2.648 -0.1536  1.5380 -0.1309
  646SOL     OW 2836   1.422   5.583   5.845  0.2493  0.1465  1.0840
  646SOL    HW1 2837   1.464   5.555   5.931  1.4015 -0.1623  0.4480
  646SOL    HW2 2838   1.381   5.673   5.855  1.0541  0.4497  1.7412
  647SOL     OW 2839   4.120   6.431   2.476 -0.1998  0.4205 -0.8514
  647SOL    HW1 2840   4.115   6.374   2.394  0.7759 -0.1879 -0.5065
  647SOL    HW2 2841   4.208   6.417   2.521 -1.0061  0.1528  0.7273
  648SOL     OW 2842   6.101   3.691   0.108 -0.1725  0.0471 -0.1450
  648SOL    HW1 2843   6.133   3.785   0.125 -1.9131  0.2617  2.5904
  648SOL    HW2 2844   6.010   3.694   0.067 -1.6231 -0.2468  2.7721
  649SOL     OW 2845   0.836   5.888   1.022 -0.1733 -0.2155 -0.0154
  649SOL    HW1 2846   0.881   5.833   1.093 -0.8465  0.0749  0.6622
  649SOL    HW2 2847   0.780   5.959   1.066 -0.1011  0.3747 -0.8611
  650SOL     OW 2848   4.603   5.860   6.426  0.1089  0.0947 -0.2791
  650SOL    HW1 2849   4.674   5.795   6.397  0.2640  0.3088 -0.3769
  650SOL    HW2 2850   4.514   5.814   6.424  0.3716 -0.5057  0.9093
  651SOL     OW 2851   2.073   0.694   3.423  0.4288 -0.0073  0.1820
  651SOL    HW1 2852   2.005   0.703   3.350  1.2576  0.2174 -0.5845
  651SOL    HW2 2853   2.155   0.650   3.386  0.9841  0.4060  0.9008
  652SOL     OW 2854   0.388   6.638   4.065  0.4258  0.2007  0.3242
  652SOL    HW1 2855   0.464   6.684   4.019 -0.0995 -1.5361 -2.5913
  652SOL    HW2 2856   0.304   6.689   4.051  0.5102  0.4342  0.6657
  653SOL     OW 2857   6.980   3.325   5.059  0.3283 -0.0772  0.3739
  653SOL    HW1 2858   6.901   3.374   5.095  0.1022 -0.1120 -0.0752
  653SOL    HW2 2859   6.993   3.347   4.962  0.3576 -0.7235  0.2241
  654SOL     OW 2860   4.057   3.512   1.461  0.3360  0.3591  0.0558
  654SOL    HW1 2861   4.064   3.490   1.558  1.8055  0.3496 -0.0200
  654SOL    HW2 2862   4.145   3.495   1.417 -0.0487  1.2102 -1.0995
  655SOL     OW 2863   5.675   0.995   2.357 -0.4885 -0.8342 -0.3439
  655SOL    HW1 2864   5.769   1.020   2.333 -0.1680 -1.4905  0.1655
  655SOL    HW2 2865   5.676   0.906   2.403 -1.2836 -0.5069  0.3308
  656SOL     OW 2866   5.158   5.983   6.373 -0.1133 -0.1938 -0.5266
  656SOL    HW1 2867   5.245   5.959   6.418 -0.3015  0.0576 -0.0210
  656SOL    HW2 2868   5.097   5.904   6.375  0.1672 -0.4324 -1.0543
  657SOL     OW 2869   4.520   2.124   0.338 -0.3806 -0.5657 -0.0046
  657SOL    HW1 2870   4.533   2.210   0.288  1.6295  0.4907  2.1718
  657SOL    HW2 2871   4.428   2.123   0.378 -2.1128 -1.4872 -3.5598
  658SOL     OW 2872   1.626   0.969   3.954  0.0859  0.0560  0.1443
  658SOL    HW1 2873   1.644   0.872   3.937  0.0182 -0.4243  2.5056
  658SOL    HW2 2874   1.528   0.985   3.957  0.0600  0.5554 -1.7804
  659SOL     OW 2875   1.963   0.449   4.124  0.0297 -0.2753  0.4315
  659SOL    HW1 2876   1.984   0.488   4.034 -1.4779  1.3113  0.7183
  659SOL    HW2 2877   2.014   0.363   4.136  1.0125 -0.0171 -1.5168
  660SOL     OW 2878   6.359   3.964   5.282  0.1125 -0.3013 -0.0099
  660SOL    HW1 2879   6.280   3.904   5.277  0.4069 -0.7541  0.6883
  660SOL    HW2 2880   6.376   3.990   5.377  1.0018 -0.4913 -0.1029
  661SOL     OW 2881   4.782   2.023   4.039  0.5023  0.7230 -0.0720
  661SOL    HW1 2882   4.834   2.051   4.119  0.9384  0.6326 -0.3184
  661SOL    HW2 2883   4.823   2.062   3.957  1.3575 -0.8770 -0.4640
  662SOL     OW 2884   3.881   6.916   6.280 -0.3747 -0.1070  0.2710
  662SOL    HW1 2885   3.913   6.938   6.188 -0.6973 -0.9086 -0.0524
  662SOL    HW2 2886   3.955   6.876   6.333 -0.5255 -0.8981 -0.0976
  663SOL     OW 2887   2.509   0.827   4.456 -0.2718 -0.2777 -0.1785
  663SOL    HW1 2888   2.601   0.811   4.492  0.5635 -2.4474 -2.8893
  663SOL    HW2 2889   2.509   0.911   4.402  0.2053 -0.3612 -0.3179
  664SOL     OW 2890   2.418   2.362   6.849 -0.6411  0.3871  0.3975
  664SOL    HW1 2891   2.509   2.334   6.819 -0.8529  1.5766 -1.4958
  664SOL    HW2 2892   2.365   2.395   6.771 -1.8314  2.1070  1.8442
  665SOL     OW 2893   5.986   1.573   2.960 -0.4118 -0.2688  0.3231
  665SOL    HW1 2894   5.971   1.478   2.988 -0.0472 -0.0627  1.2835
  665SOL    HW2 2895   6.071   1.606   3.002 -2.2433  1.5465  2.9184
  666SOL     OW 2896   2.329   0.846   5.744  0.8375  0.2080 -0.4623
  666SOL    HW1 2897   2.249   0.791   5.768  0.8265  1.1615  1.9186
  666SOL    HW2 2898   2.374   0.878   5.827  2.0293  2.0937 -1.7565
  667SOL     OW 2899   1.830   2.926   1.207  0.2920 -0.1810  0.4782
  667SOL    HW1 2900   1.860   2.992   1.275 -0.6293  0.0689  0.6570
  667SOL    HW2 2901   1.909   2.895   1.153  0.9535 -0.0275  1.3340
  668SOL     OW 2902   5.805   5.474   3.178 -0.2769 -0.0354 -0.9791
  668SOL    HW1 2903   5.715   5.505   3.150  0.1648  0.7265 -1.5709
  668SOL    HW2 2904   5.874   5.508   3.114  0.5244  0.1107 -0.0585
  669SOL     OW 2905   5.414   0.820   3.982  0.4017 -0.6117  0.1785
  669SOL    HW1 2906   5.507   0.813   4.018  0.8912 -1.7824 -1.1973
  669SOL    HW2 2907   5.389   0.733   3.938 -1.1473 -0.1360  0.0579
  670SOL     OW 2908   0.916   3.673   1.693 -0.1102 -0.0477  0.2619
  670SOL    HW1 2909   0.981   3.685   1.768 -1.0098 -1.9136  1.4493
  670SOL    HW2 2910   0.926   3.747   1.627  0.9880  1.4674  2.0305
  671SOL     OW 2911   5.732   5.744   0.961  0.2503 -0.8118  0.4533
  671SOL    HW1 2912   5.787   5.773   1.040  0.5964 -0.2618  0.0138
  671SOL    HW2 2913   5.738   5.813   0.889  1.3532 -2.0935 -0.7523
  672SOL     OW 2914   0.885   1.829   2.194  0.3641 -0.5135  0.0219
  672SOL    HW1 2915   0.940   1.758   2.238  1.3437  0.1702 -0.0861
  672SOL    HW2 2916   0.875   1.906   2.256 -1.4657 -1.0767  0.4985
  673SOL     OW 2917   1.315   3.470   3.727 -0.5951 -0.0488 -0.1047
  673SOL    HW1 2918   1.308   3.435   3.820 -0.6071 -3.4578 -1.2234
  673SOL    HW2 2919   1.406   3.450   3.690 -0.9425  0.2603 -1.1670
  674SOL     OW 2920   1.978   3.254   3.206 -0.2999 -0.4018  0.0445
  674SOL    HW1 2921   1.901   3.200   3.172  0.6633 -1.7718  0.0059
  674SOL    HW2 2922   2.064   3.218   3.170  0.4315  0.6674  0.6593
  675SOL     OW 2923   2.337   4.839   0.728  0.4452 -0.0492  0.6058
  675SOL    HW1 2924   2.360   4.742   0.732  1.6494  0.2695  2.2664
  675SOL    HW2 2925   2.238   4.849   0.717  0.3009 -1.4561  0.4691
  676SOL     OW 2926   6.873   3.926   0.392 -0.2711  0.2263  0.4641
  676SOL    HW1 2927   6.794   3.889   0.440 -1.4563  1.1461 -0.7033
  676SOL    HW2 2928   6.942   3.956   0.458 -0.2969 -1.7638  1.4817
  677SOL     OW 2929   1.435   4.419   0.643 -0.1094  0.2174 -0.1725
  677SOL    HW1 2930   1.515   4.472   0.672 -0.0537 -0.0334  0.1368
  677SOL    HW2 2931   1.461   4.359   0.567 -0.5398  1.7337 -1.5644
  678SOL     OW 2932   1.387   2.184   4.766  0.0085  0.4170  0.0829
  678SOL    HW1 2933   1.448   2.181   4.845 -0.1688  3.5763  0.4656
  678SOL    HW2 2934   1.304   2.234   4.790 -0.3311  0.8961 -1.9415
  679SOL     OW 2935   2.036   2.408   1.385  0.1753  0.3652 -0.9072
  679SOL    HW1 2936   2.053   2.381   1.290  1.5327 -0.2180 -0.5063
  679SOL    HW2 2937   1.956   2.470   1.387 -0.2110 -0.0353 -2.3477
  680SOL     OW 2938   4.683   1.923   2.276 -0.5267  0.6693 -0.4530
  680SOL    HW1 2939   4.628   1.994   2.232 -1.7667 -0.5225 -0.8696
  680SOL    HW2 2940   4.779   1.935   2.250 -0.5165  2.8454  0.3708
  681SOL     OW 2941   1.599   6.351   2.156 -0.0192  0.0885  0.3148
  681SOL    HW1 2942   1.502   6.337   2.178 -0.0133 -3.0842 -1.1225
  681SOL    HW2 2943   1.654   6.285   2.206  1.5244  1.9741  1.2541
  682SOL     OW 2944   3.084   1.305   4.668 -0.5187 -0.3956 -0.2027
  682SOL    HW1 2945   3.165   1.327   4.723 -0.9779 -1.2202  0.8390
  682SOL    HW2 2946   3.091   1.211   4.634 -0.3137  0.0490 -1.4612
  683SOL     OW 2947   0.045   3.413   5.969 -0.2979  0.1278  0.3061
  683SOL    HW1 2948  -0.020   3.342   5.944  1.3039 -0.4637 -2.5697
  683SOL    HW2 2949   0.046   3.485   5.899  1.8225  0.2931  0.4355
  684SOL     OW 2950   6.683   0.471   3.676  0.1288  0.4604 -0.2548
  684SOL    HW1 2951   6.743   0.495   3.752 -0.9350  0.3637  0.6536
  684SOL    HW2 2952   6.702   0.529   3.597  1.5904  0.2329 -0.0874
  685SOL     OW 2953   3.308   0.452   2.264  0.2428  0.3867  0.0481
  685SOL    HW1 2954   3.354   0.442   2.176  1.1982 -2.8020  0.7738
  685SOL    HW2 2955   3.209   0.448   2.252  0.3235  1.0401 -0.9279
  686SOL     OW 2956   3.797   0.346   6.394 -0.0491  0.2443  0.1951
  686SOL    HW1 2957   3.822   0.378   6.485  0.0714  1.6640 -0.3214
  686SOL    HW2 2958   3.776   0.248   6.398  3.0289 -0.4971  1.1665
  687SOL     OW 2959   0.068   2.945   0.670 -0.6536 -0.3740 -0.1536
  687SOL    HW1 2960   0.063   2.962   0.769  0.6537 -1.3949  0.1159
  687SOL    HW2 2961   0.072   2.846   0.654  3.4744 -0.2523 -0.8976
  688SOL     OW 2962   3.634   6.594   4.682 -0.0376  0.1582  0.1114
  688SOL    HW1 2963   3.647   6.504   4.642 -0.5605  0.3970 -0.6308
  688SOL    HW2 2964   3.706   6.612   4.749  1.9153  0.4140 -1.9199
  689SOL     OW 2965   0.073   6.506   2.351 -0.4294  0.0740  0.0845
  689SOL    HW1 2966   0.026   6.594   2.338 -0.0226  0.4303  0.9863
  689SOL    HW2 2967   0.081   6.459   2.262  0.0881  1.3148 -0.5461
  690SOL     OW 2968   4.706   6.236   5.729 -0.3505 -0.2708  0.0217
  690SOL    HW1 2969   4.681   6.214   5.635  2.1404 -2.2468 -0.2763
  690SOL    HW2 2970   4.768   6.166   5.764  0.2152  1.3770  2.5417
  691SOL     OW 2971   0.601   4.517   5.439  0.2479  1.0727  0.0484
  691SOL    HW1 2972   0.586   4.503   5.536 -0.1994 -1.3164 -0.3125
  691SOL    HW2 2973   0.518   4.493   5.389  0.6966  1.5953 -0.9751
  692SOL     OW 2974   4.529   6.755   3.343 -0.5866 -0.1151  0.5210
  692SOL    HW1 2975   4.604   6.790   3.398 -0.0194  0.6728 -0.7176
  692SOL    HW2 2976   4.452   6.819   3.347 -0.1081  0.5499 -0.5227
  693SOL     OW 2977   1.408   4.127   2.807  0.1449  0.0341  0.3081
  693SOL    HW1 2978   1.506   4.116   2.789  0.1291 -0.8451  0.6809
  693SOL    HW2 2979   1.387   4.091   2.898 -0.3282  1.3167  0.7288
  694SOL     OW 2980   2.042   0.375   0.523 -0.1187 -0.2570 -0.0140
  694SOL    HW1 2981   2.065   0.410   0.614  1.2858  2.3730 -1.2392
  694SOL    HW2 2982   1.969   0.431   0.484 -1.7244 -2.2707 -0.0111
  695SOL     OW 2983   4.512   2.296   5.330 -0.4250  0.1656 -0.7047
  695SOL    HW1 2984   4.415   2.308   5.311 -1.1247 -0.6382  1.9526
  695SOL    HW2 2985   4.554   2.384   5.350 -0.9966  0.3514 -0.3076
  696SOL     OW 2986   3.659   6.328   1.969 -0.5064  0.1623  0.1156
  696SOL    HW1 2987   3.711   6.246   1.948 -0.5000 -0.3878  2.0593
  696SOL    HW2 2988   3.696   6.371   2.051 -2.6343  0.1265  1.1714
  697SOL     OW 2989   2.144   6.931   0.896 -0.0882  0.4778 -0.0637
  697SOL    HW1 2990   2.090   6.888   0.969  0.1894 -0.1757 -0.2359
  697SOL    HW2 2991   2.221   6.979   0.936 -0.1564  0.4493  0.1028
  698SOL     OW 2992   1.556   2.135   6.510  0.1784 -0.0572 -0.3510
  698SOL    HW1 2993   1.501   2.172   6.585  0.2075 -1.2365  0.2797
  698SOL    HW2 2994   1.561   2.202   6.436  1.0287  1.5953  1.1166
  699SOL     OW 2995   6.749   5.050   6.261  0.0441 -0.2546 -0.2105
  699SOL    HW1 2996   6.772   4.952   6.266 -3.2265 -1.1203  0.5585
  699SOL    HW2 2997   6.704   5.069   6.174 -1.1553  0.0348  0.4401
  700SOL     OW 2998   6.209   5.133   1.775 -0.1345 -0.1525  0.2268
  700SOL    HW1 2999   6.123   5.143   1.725 -0.4063 -1.3433  0.4455
  700SOL    HW2 3000   6.263   5.217   1.765 -1.2795  0.5756  0.0286
  701SOL     OW 3001   3.247   6.010   7.009  0.2173  0.3252  0.2959
  701SOL    HW1 3002   3.193   6.013   7.093 -0.4773 -0.1002 -0.1212
  701SOL    HW2 3003   3.264   5.914   6.985  2.5513  0.4303  1.2830
  702SOL     OW 3004   2.157   5.368   4.828  0.1334 -0.0785 -0.2673
  702SOL    HW1 3005   2.143   5.271   4.849 -1.4523  0.3637  0.9441
  702SOL    HW2 3006   2.233   5.403   4.882  0.7067 -0.6239 -0.7000
  703SOL     OW 3007   2.966   3.753   1.924 -0.2307 -0.0504 -0.0822
  703SOL    HW1 3008   2.934   3.806   1.845  0.7869 -0.6090 -0.8907
  703SOL    HW2 3009   2.991   3.816   1.998 -0.6511  0.5075 -0.4045
  704SOL     OW 3010   5.292   5.136   6.844 -0.3264  0.1108  0.3231
  704SOL    HW1 3011   5.237   5.052   6.836 -2.0803  1.3003 -1.1744
  704SOL    HW2 3012   5.326   5.161   6.753  2.4429 -0.3365  1.1496
  705SOL     OW 3013   0.752   3.061   5.472 -0.3643 -0.3612  0.0070
  705SOL    HW1 3014   0.832   3.120   5.483 -0.7251  0.2537 -0.5510
  705SOL    HW2 3015   0.712   3.041   5.562  0.3812 -0.6388  0.2828
  706SOL     OW 3016   1.525   1.263   3.499 -0.0662  0.2959 -0.6680
  706SOL    HW1 3017   1.546   1.226   3.409 -2.0525 -2.1976 -0.2243
  706SOL    HW2 3018   1.468   1.345   3.489  1.1734  1.0848 -1.6343
  707SOL     OW 3019   0.526   0.311   4.936  0.1452 -0.0451 -0.0045
  707SOL    HW1 3020   0.437   0.355   4.918 -0.2415 -0.9075 -0.2500
  707SOL    HW2 3021   0.525   0.270   5.027  1.0202  1.6581  0.8303
  708SOL     OW 3022   5.627   2.941   1.488 -0.5207  0.0633  0.5294
  708SOL    HW1 3023   5.642   2.842   1.480  0.8020  0.2091  0.9882
  708SOL    HW2 3024   5.630   2.967   1.585 -0.5928  0.6062  0.3859
  709SOL     OW 3025   6.397   5.835   5.791  0.1073 -0.0279 -0.0706
  709SOL    HW1 3026   6.449   5.860   5.872 -1.0396 -0.0477  0.6927
  709SOL    HW2 3027   6.312   5.791   5.818 -0.4862  0.3216 -1.2767
  710SOL     OW 3028   3.296   0.917   1.854 -0.3415  0.0768  0.3915
  710SOL    HW1 3029   3.241   0.918   1.771 -0.7854  2.1281  0.6538
  710SOL    HW2 3030   3.363   0.991   1.850 -2.0833  1.9490  2.8897
  711SOL     OW 3031   0.679   3.530   1.039 -0.4876  0.2945 -0.1666
  711SOL    HW1 3032   0.773   3.521   1.072 -0.5363  0.4186  0.0057
  711SOL    HW2 3033   0.620   3.559   1.114 -0.9420 -1.2591  0.1156
  712SOL     OW 3034   4.865   5.045   4.165  0.0860 -0.4418 -0.0747
  712SOL    HW1 3035   4.815   5.084   4.243  1.4667  0.7477  0.2498
  712SOL    HW2 3036   4.963   5.062   4.176  0.6596 -2.9656 -0.5550
  713SOL     OW 3037   4.360   0.864   5.983  0.0829  0.0948 -0.5364
  713SOL    HW1 3038   4.378   0.824   6.073 -0.7377 -2.7846 -1.5305
  713SOL    HW2 3039   4.261   0.863   5.966  0.3322 -1.4263 -2.2376
  714SOL     OW 3040   2.701   1.976   3.987 -0.3616 -0.2935 -0.4972
  714SOL    HW1 3041   2.662   2.065   4.011 -1.4024 -0.9558  0.3442
  714SOL    HW2 3042   2.664   1.905   4.047  2.0131 -1.0186  0.2518
  715SOL     OW 3043   2.199   0.186   5.628  0.0900 -0.4978 -1.0677
  715SOL    HW1 3044   2.243   0.101   5.658 -0.8418 -0.4947  0.4123
  715SOL    HW2 3045   2.102   0.184   5.654  0.3242  1.5334  0.1316
  716SOL     OW 3046   2.498   3.251   0.406  0.0026  0.0225  0.6593
  716SOL    HW1 3047   2.411   3.298   0.389  0.9858  1.5187 -0.3789
  716SOL    HW2 3048   2.480   3.153   0.422 -1.7988  0.1791 -0.1686
  717SOL     OW 3049   5.001   5.916   0.224  0.1770  0.6615  0.2893
  717SOL    HW1 3050   5.045   5.862   0.296 -1.0415  0.1748  0.6928
  717SOL    HW2 3051   4.902   5.908   0.232 -0.0517  2.7167  0.1702
  718SOL     OW 3052   2.949   4.738   6.344 -0.2289  0.2364 -0.1893
  718SOL    HW1 3053   2.926   4.668   6.412  1.5055  0.2433  0.4388
  718SOL    HW2 3054   3.019   4.704   6.283 -0.7197  0.7733 -1.0779
  719SOL     OW 3055   4.665   5.300   4.607 -0.5452  0.8196  1.0175
  719SOL    HW1 3056   4.669   5.240   4.687 -3.3305  0.8048  1.2669
  719SOL    HW2 3057   4.593   5.369   4.621 -0.6145  1.2692 -1.1722
  720SOL     OW 3058   2.916   1.854   2.273 -0.6515  0.0042  0.0720
  720SOL    HW1 3059   2.952   1.896   2.189 -0.7135 -0.5290 -0.2236
  720SOL    HW2 3060   2.836   1.905   2.304  1.4504  2.4687  1.8583
  721SOL     OW 3061   2.688   0.863   5.530  1.2771 -0.2047  0.0775
  721SOL    HW1 3062   2.665   0.846   5.626  0.1625 -1.5837 -0.3916
  721SOL    HW2 3063   2.725   0.955   5.520  0.5063  0.3161  1.6813
  722SOL     OW 3064   6.824   1.897   6.888 -0.0235  0.7389  0.1130
  722SOL    HW1 3065   6.881   1.972   6.921  2.6625 -0.0032 -2.4039
  722SOL    HW2 3066   6.864   1.859   6.805 -1.2026 -3.5103  1.2294
  723SOL     OW 3067   6.402   6.366   2.953 -0.1445 -0.0026 -0.1853
  723SOL    HW1 3068   6.406   6.410   3.043 -0.1660 -2.0984  0.9098
  723SOL    HW2 3069   6.328   6.406   2.899  1.6643  3.3185 -0.4895
  724SOL     OW 3070   3.053   6.812   6.388  0.3283 -0.2388  0.0088
  724SOL    HW1 3071   3.020   6.887   6.445 -0.4461 -0.8377  0.3686
  724SOL    HW2 3072   3.126   6.764   6.437  1.2953  0.6655 -0.5002
  725SOL     OW 3073   6.777   2.760   2.831 -0.0010  0.3953 -0.5167
  725SOL    HW1 3074   6.741   2.683   2.884 -2.5038  1.1944 -0.9438
  725SOL    HW2 3075   6.848   2.807   2.884  0.5063 -1.2899  0.3574
  726SOL     OW 3076   6.236   0.083   2.621 -0.3558  0.0769  0.1973
  726SOL    HW1 3077   6.224   0.085   2.720 -1.4321  0.2426  0.0778
  726SOL    HW2 3078   6.263   0.173   2.588  1.2474 -0.2762  0.4622
  727SOL     OW 3079   4.543   5.407   4.924 -0.1565 -0.0882  0.1734
  727SOL    HW1 3080   4.460   5.351   4.917 -0.8084  0.9161 -0.4663
  727SOL    HW2 3081   4.621   5.356   4.888 -0.4565 -1.1096  0.9318
  728SOL     OW 3082   3.174   2.326   5.963 -0.5048  0.0835 -0.5610
  728SOL    HW1 3083   3.076   2.345   5.949 -0.8174 -0.3140  0.9531
  728SOL    HW2 3084   3.192   2.230   5.939 -0.3672  0.3061 -1.3663
  729SOL     OW 3085   2.941   6.247   6.875 -0.0996  0.0322  0.6006
  729SOL    HW1 3086   2.897   6.336   6.871  0.9521  0.5373 -0.0341
  729SOL    HW2 3087   2.875   6.178   6.906 -1.3179  0.7658 -0.3120
  730SOL     OW 3088   5.379   5.238   5.481 -0.2134 -0.6039 -0.6440
  730SOL    HW1 3089   5.283   5.261   5.498 -0.0441  0.1684 -0.6810
  730SOL    HW2 3090   5.394   5.140   5.497 -0.7271 -0.4900  0.6677
  731SOL     OW 3091   5.707   0.669   3.246 -0.1248  0.1602  0.1053
  731SOL    HW1 3092   5.748   0.671   3.155 -0.3025  1.8874  0.0413
  731SOL    HW2 3093   5.713   0.759   3.288 -0.5907 -0.4623  1.5733
  732SOL     OW 3094   6.591   6.700   3.129 -0.7376 -0.4054 -0.7339
  732SOL    HW1 3095   6.509   6.756   3.132  0.0423  0.7889 -1.0890
  732SOL    HW2 3096   6.592   6.638   3.208 -0.7876  1.3021  0.6477
  733SOL     OW 3097   6.231   2.929   5.149 -0.0095  0.4201 -0.2571
  733SOL    HW1 3098   6.264   2.863   5.081 -0.3250  0.2939 -0.2871
  733SOL    HW2 3099   6.281   2.916   5.234 -0.5396 -0.3163 -0.0476
  734SOL     OW 3100   1.942   6.426   5.613  0.2016 -0.2177 -0.3039
  734SOL    HW1 3101   2.007   6.440   5.538  1.9265  0.1436  1.1916
  734SOL    HW2 3102   1.946   6.505   5.675 -0.3989 -0.9975  0.7475
  735SOL     OW 3103   3.797   6.368   0.888 -0.3055 -0.7177  0.6772
  735SOL    HW1 3104   3.767   6.273   0.892 -1.0979 -0.5299 -0.4849
  735SOL    HW2 3105   3.761   6.418   0.967  0.1426 -1.3738  1.3089
  736SOL     OW 3106   3.522   0.290   6.827  0.5276 -0.5429 -0.6668
  736SOL    HW1 3107   3.448   0.278   6.893  1.6538  0.2020  0.7769
  736SOL    HW2 3108   3.486   0.276   6.735 -1.7054  0.9214 -0.1165
  737SOL     OW 3109   6.128   0.378   6.885 -0.1233  0.3546  0.3821
  737SOL    HW1 3110   6.038   0.350   6.851 -0.0254 -2.3637  2.0626
  737SOL    HW2 3111   6.200   0.333   6.831  0.0816 -0.8718  1.5978
  738SOL     OW 3112   6.150   1.427   2.775 -0.0422  0.1133  0.1994
  738SOL    HW1 3113   6.084   1.497   2.746  1.5251  2.1061  1.2263
  738SOL    HW2 3114   6.178   1.445   2.869  3.2012  0.3660 -0.7146
  739SOL     OW 3115   3.727   1.520   5.983  0.0822 -0.3664 -0.5402
  739SOL    HW1 3116   3.693   1.594   6.041  0.0450 -0.0257 -0.9876
  739SOL    HW2 3117   3.677   1.520   5.896  1.7583  0.6730 -1.5689
  740SOL     OW 3118   3.014   1.719   5.757  0.4454  0.0454  0.5007
  740SOL    HW1 3119   3.103   1.725   5.712  1.1095 -2.2025  1.3899
  740SOL    HW2 3120   2.965   1.805   5.746  2.3595  1.0294 -0.7578
  741SOL     OW 3121   6.831   4.579   6.039  0.5869  0.2487 -0.2400
  741SOL    HW1 3122   6.889   4.522   6.098 -0.2774  0.1639  0.5597
  741SOL    HW2 3123   6.749   4.528   6.013  0.4648  0.6499 -0.6536
  742SOL     OW 3124   5.931   5.230   0.854  0.7192  0.4506  0.6709
  742SOL    HW1 3125   5.884   5.305   0.807 -0.4137 -0.0282  1.0171
  742SOL    HW2 3126   5.916   5.145   0.805 -0.2103  0.0037  1.7122
  743SOL     OW 3127   3.648   5.967   4.399  0.0310  0.2338  0.0312
  743SOL    HW1 3128   3.707   6.044   4.375 -1.6093  1.8662  0.9735
  743SOL    HW2 3129   3.560   5.977   4.352 -0.0882 -1.2989 -0.1245
  744SOL     OW 3130   3.434   3.855   0.143 -0.1307 -0.2064 -0.2087
  744SOL    HW1 3131   3.480   3.782   0.092 -2.4475 -0.6337 -1.8503
  744SOL    HW2 3132   3.355   3.818   0.191  0.6375  0.6570  1.8213
  745SOL     OW 3133   0.736   2.726   6.456 -0.4010  0.0248  0.4360
  745SOL    HW1 3134   0.749   2.802   6.393 -0.1612 -1.2098 -1.0580
  745SOL    HW2 3135   0.811   2.661   6.446 -0.2078 -0.0881  2.2192
  746SOL     OW 3136   5.421   3.324   5.406 -0.1700  0.2651 -0.0403
  746SOL    HW1 3137   5.412   3.230   5.439  2.6453  0.3862  1.3855
  746SOL    HW2 3138   5.395   3.328   5.310  0.5109 -2.1736 -0.4026
  747SOL     OW 3139   6.528   6.924   2.920  0.3067 -0.2961  0.1829
  747SOL    HW1 3140   6.483   6.960   3.001  1.9274  2.3219  0.0050
  747SOL    HW2 3141   6.458   6.890   2.856 -1.1013 -0.4651  1.7391
  748SOL     OW 3142   6.591   3.560   0.895  0.0809 -0.1334 -0.0652
  748SOL    HW1 3143   6.627   3.491   0.832  0.7959  0.2405 -0.0762
  748SOL    HW2 3144   6.567   3.516   0.981  0.6177 -0.3863 -0.0403
  749SOL     OW 3145   0.629   5.058   1.655 -0.6064  0.2448 -0.3290
  749SOL    HW1 3146   0.663   5.009   1.736  0.5758 -0.5093 -1.2484
  749SOL    HW2 3147   0.660   5.153   1.658  0.3977 -0.0691 -0.4364
  750SOL     OW 3148   1.620   0.797   6.322  0.7997 -0.6145 -0.6205
  750SOL    HW1 3149   1.539   0.741   6.308  0.8213 -1.5916  2.5030
  750SOL    HW2 3150   1.602   0.890   6.291 -1.6199 -0.7479  0.2121
  751SOL     OW 3151   1.649   0.523   4.933  0.5503  0.2133 -0.4337
  751SOL    HW1 3152   1.620   0.581   5.008  0.1561  1.2662 -1.3741
  751SOL    HW2 3153   1.599   0.548   4.850 -1.3866 -3.0018 -0.4005
  752SOL     OW 3154   5.461   0.521   5.558  0.3475 -0.3588 -0.1222
  752SOL    HW1 3155   5.523   0.595   5.532 -0.2638  0.1785 -0.0738
  752SOL    HW2 3156   5.486   0.485   5.648  0.7084 -0.2816 -0.1931
  753SOL     OW 3157   2.972   4.890   3.331  0.4672  0.0058  0.1909
  753SOL    HW1 3158   3.063   4.911   3.296 -0.9450 -0.1915 -4.2792
  753SOL    HW2 3159   2.919   4.974   3.339 -0.1874 -0.2007 -1.5192
  754SOL     OW 3160   1.149   3.841   5.562 -0.2595 -0.1386  0.1140
  754SOL    HW1 3161   1.144   3.933   5.525 -0.8681  0.1790  0.9546
  754SOL    HW2 3162   1.231   3.831   5.619 -1.4873  0.7238  2.1420
  755SOL     OW 3163   1.956   6.197   2.146  0.4736  0.3292  0.4528
  755SOL    HW1 3164   1.967   6.153   2.057 -0.5161  1.2288 -0.1444
  755SOL    HW2 3165   2.030   6.169   2.207 -0.1616 -2.2317  0.1504
  756SOL     OW 3166   2.127   4.864   6.051 -0.2259 -0.0320  0.2043
  756SOL    HW1 3167   2.076   4.782   6.025  3.9668 -3.0789  0.6626
  756SOL    HW2 3168   2.138   4.867   6.150  2.0157 -0.6067  0.0277
  757SOL     OW 3169   5.394   3.306   3.247 -0.2834  0.5225 -0.5322
  757SOL    HW1 3170   5.426   3.401   3.251  2.0960 -0.2513  0.4328
  757SOL    HW2 3171   5.386   3.278   3.151  0.0036  1.3750 -0.8151
  758SOL     OW 3172   3.997   6.709   2.745  0.5350  0.4842  0.4183
  758SOL    HW1 3173   3.926   6.766   2.704 -0.5267  0.6333  2.3434
  758SOL    HW2 3174   3.954   6.638   2.802  1.9127  0.5530  1.5966
  759SOL     OW 3175   4.055   0.924   5.661 -0.2523 -0.3541 -0.0981
  759SOL    HW1 3176   4.081   0.948   5.754  0.6517  1.5156 -0.7863
  759SOL    HW2 3177   4.020   1.005   5.614  1.0621 -0.7791 -1.9353
  760SOL     OW 3178   2.201   3.159   4.837  0.3119 -0.1076  0.4701
  760SOL    HW1 3179   2.245   3.073   4.864 -0.2034 -0.6675 -0.4267
  760SOL    HW2 3180   2.170   3.208   4.919  2.2265  0.1145  1.0953
  761SOL     OW 3181   2.531   2.127   5.484 -0.0794  0.5399 -0.0980
  761SOL    HW1 3182   2.523   2.094   5.390  1.6302 -0.3202  0.0129
  761SOL    HW2 3183   2.492   2.219   5.491  0.2427  0.8309 -1.7638
  762SOL     OW 3184   5.637   5.724   3.184 -0.0369  0.5244 -0.6806
  762SOL    HW1 3185   5.543   5.714   3.154 -0.7906  2.1119  0.9451
  762SOL    HW2 3186   5.662   5.821   3.185  1.1253  0.2443  0.2427
  763SOL     OW 3187   3.683   5.626   3.580 -0.2078 -0.6210 -0.0066
  763SOL    HW1 3188   3.754   5.689   3.612 -1.7933  0.0119  2.5458
  763SOL    HW2 3189   3.709   5.590   3.491  1.3160  2.8130 -1.1473
  764SOL     OW 3190   1.226   0.072   4.185  0.0971  0.1323 -0.2624
  764SOL    HW1 3191   1.154   0.066   4.116  0.4005  1.8122 -0.7526
  764SOL    HW2 3192   1.185   0.068   4.276 -0.6313  1.0132 -0.5389
  765SOL     OW 3193   0.307   3.154   2.221  0.4364  0.3982  0.3838
  765SOL    HW1 3194   0.227   3.118   2.172  0.7634  3.1284 -2.5696
  765SOL    HW2 3195   0.280   3.237   2.270  1.4340  1.5088 -0.8787
  766SOL     OW 3196   1.399   2.379   1.779 -0.2315  0.5457 -0.7676
  766SOL    HW1 3197   1.382   2.282   1.796  0.3327  0.3160 -1.4926
  766SOL    HW2 3198   1.493   2.402   1.804 -0.8766  1.3507  1.2089
  767SOL     OW 3199   5.998   1.228   3.744 -0.2087  0.1329  0.2086
  767SOL    HW1 3200   6.044   1.251   3.829 -0.5715  1.2268  0.1174
  767SOL    HW2 3201   6.065   1.204   3.674  0.1348  0.1973  0.5184
  768SOL     OW 3202   3.139   3.855   5.371 -0.2086  0.2318 -0.1580
  768SOL    HW1 3203   3.217   3.796   5.391 -0.0995 -0.1750 -1.7064
  768SOL    HW2 3204   3.054   3.803   5.380 -0.3438  0.6684  1.5040
  769SOL     OW 3205   5.225   2.411   7.000 -0.1769  0.4567 -0.0902
  769SOL    HW1 3206   5.283   2.332   7.017  0.1451  0.7782  0.3320
  769SOL    HW2 3207   5.144   2.383   6.950 -1.6561 -0.7425  2.7492
  770SOL     OW 3208   2.964   6.488   4.590 -0.1965  0.0319  0.2400
  770SOL    HW1 3209   3.012   6.576   4.592  1.2644 -0.7397  0.1176
  770SOL    HW2 3210   2.872   6.502   4.551  0.0195  1.4854  0.1775
  771SOL     OW 3211   1.489   4.221   1.539  0.1207 -0.0319 -0.3739
  771SOL    HW1 3212   1.493   4.304   1.596  4.4558  0.2988 -0.8455
  771SOL    HW2 3213   1.504   4.141   1.597 -1.7565 -0.3477 -0.2631
  772SOL     OW 3214   1.065   0.144   6.878 -0.2444 -0.8660  0.4562
  772SOL    HW1 3215   1.035   0.218   6.937  1.6184 -1.9515  2.9362
  772SOL    HW2 3216   1.081   0.179   6.786  0.1983  1.7275  1.4467
  773SOL     OW 3217   6.388   1.092   3.431 -0.3004 -0.3227 -0.0633
  773SOL    HW1 3218   6.416   1.001   3.461 -0.8159 -0.2104  0.8121
  773SOL    HW2 3219   6.463   1.137   3.384  2.1811  1.0762  4.5850
  774SOL     OW 3220   4.122   2.789   0.305 -0.1772  0.3398 -0.1472
  774SOL    HW1 3221   4.032   2.818   0.274  0.4758  1.3538 -1.1275
  774SOL    HW2 3222   4.119   2.691   0.326 -1.7515  0.5505  0.8094
  775SOL     OW 3223   2.864   0.529   5.589 -0.2955 -0.6695  0.5651
  775SOL    HW1 3224   2.776   0.518   5.634 -0.6526 -0.7656 -0.1469
  775SOL    HW2 3225   2.854   0.592   5.511  0.8262  1.5465  2.0943
  776SOL     OW 3226   5.404   6.744   0.854  0.0265 -0.1244  0.4188
  776SOL    HW1 3227   5.436   6.742   0.759 -0.2568 -2.4040  0.3132
  776SOL    HW2 3228   5.341   6.820   0.866  2.2047  1.9424 -0.4417
  777SOL     OW 3229   1.989   4.358   4.659 -0.3152  0.4041 -0.4036
  777SOL    HW1 3230   1.931   4.285   4.622  0.5777  0.7575 -2.6799
  777SOL    HW2 3231   2.046   4.321   4.733 -1.5878 -0.5719  0.1210
  778SOL     OW 3232   3.951   2.435   5.775  0.5336  0.0154  0.5416
  778SOL    HW1 3233   3.965   2.521   5.824  0.7219  0.6081 -0.5014
  778SOL    HW2 3234   3.853   2.415   5.769  0.4291  0.6327  0.0391
  779SOL     OW 3235   6.992   3.742   0.216  0.5126 -0.0949  0.3509
  779SOL    HW1 3236   6.977   3.821   0.274  0.8987  0.4769 -0.3128
  779SOL    HW2 3237   6.940   3.752   0.131  1.3239 -0.0766 -0.1614
  780SOL     OW 3238   2.187   2.100   1.170  0.1002  0.2007 -0.4345
  780SOL    HW1 3239   2.246   2.174   1.202 -0.9275  0.8600 -0.0020
  780SOL    HW2 3240   2.212   2.015   1.217 -0.1860  0.7651  0.8040
  781SOL     OW 3241   0.590   2.777   4.543  0.2735 -0.2383  0.6818
  781SOL    HW1 3242   0.655   2.712   4.503  0.9530  0.0544  1.3019
  781SOL    HW2 3243   0.497   2.741   4.533  0.3954 -0.1070 -1.2941
  782SOL     OW 3244   1.759   5.017   0.877 -0.0884  0.1525 -0.4415
  782SOL    HW1 3245   1.806   4.936   0.911  0.8631  0.5974 -0.6629
  782SOL    HW2 3246   1.669   5.024   0.919 -0.2748 -1.1396 -0.6000
  783SOL     OW 3247   2.686   0.839   6.057  0.6851  0.5831  0.4974
  783SOL    HW1 3248   2.753   0.768   6.033  0.1307 -0.2690  1.3747
  783SOL    HW2 3249   2.653   0.883   5.974  2.8505  1.5370  0.0562
  784SOL     OW 3250   1.895   6.981   5.532  0.2714  0.0317  0.0541
  784SOL    HW1 3251   1.921   7.056   5.470 -0.6692 -0.8998 -1.5379
  784SOL    HW2 3252   1.953   6.902   5.515 -0.2470 -0.3595  0.0624
  785SOL     OW 3253   3.284   4.878   5.912  0.3006 -0.1467 -0.4872
  785SOL    HW1 3254   3.335   4.824   5.979 -0.5051 -0.8709 -0.4293
  785SOL    HW2 3255   3.335   4.960   5.889  0.6677  0.0317  0.8841
  786SOL     OW 3256   5.158   6.330   6.344 -0.5520  0.0582  0.5870
  786SOL    HW1 3257   5.210   6.282   6.273  0.6617  1.8088  0.2289
  786SOL    HW2 3258   5.063   6.298   6.343 -0.0119 -1.6329 -0.2331
  787SOL     OW 3259   5.030   6.260   5.420  0.1434 -0.6891 -0.1706
  787SOL    HW1 3260   4.984   6.172   5.413 -0.5877 -0.3501  0.2900
  787SOL    HW2 3261   5.031   6.304   5.330  0.3845 -1.0937 -0.3715
  788SOL     OW 3262   6.614   6.449   3.339  0.1664  0.1094 -0.1524
  788SOL    HW1 3263   6.669   6.440   3.422  1.4022 -1.8584 -1.1388
  788SOL    HW2 3264   6.653   6.394   3.266 -1.0568  1.5679 -2.0069
  789SOL     OW 3265   1.457   1.236   4.293 -0.0814 -0.5500  0.1765
  789SOL    HW1 3266   1.497   1.233   4.201 -2.5943 -1.9639 -1.0019
  789SOL    HW2 3267   1.472   1.148   4.338 -0.9410 -0.7354  0.1140
  790SOL     OW 3268   2.117   5.666   0.099 -0.2341  0.2942  0.0032
  790SOL    HW1 3269   2.157   5.622   0.018 -1.0324  0.4836 -0.5049
  790SOL    HW2 3270   2.177   5.651   0.178  1.1918  1.1665 -0.8785
  791SOL     OW 3271   1.624   5.952   6.488  0.2022 -0.2351  0.1400
  791SOL    HW1 3272   1.716   5.989   6.504 -0.2569  0.3735  1.5256
  791SOL    HW2 3273   1.621   5.856   6.516  0.1681  0.0182  1.0230
  792SOL     OW 3274   5.004   4.106   3.742  0.1688  0.8578  0.2533
  792SOL    HW1 3275   5.012   4.176   3.671 -1.2431  1.5653  0.7637
  792SOL    HW2 3276   5.093   4.094   3.787  0.7975  1.2059 -0.8556
  793SOL     OW 3277   1.303   1.795   5.214 -0.3193  0.2725  0.6444
  793SOL    HW1 3278   1.276   1.817   5.307 -1.2589 -0.6960  0.6125
  793SOL    HW2 3279   1.222   1.780   5.157  0.2312  1.0614 -0.3919
  794SOL     OW 3280   0.041   4.265   3.044  0.7031  0.1976  0.0106
  794SOL    HW1 3281   0.017   4.318   2.963  0.7837 -0.1227 -0.2260
  794SOL    HW2 3282  -0.043   4.233   3.088  0.6603  0.2960  0.0004
  795SOL     OW 3283   6.188   3.646   1.045 -0.1856 -0.1180  0.1546
  795SOL    HW1 3284   6.187   3.550   1.073 -1.1475 -0.4018 -0.7944
  795SOL    HW2 3285   6.096   3.684   1.050  0.4558  1.3606  2.3698
  796SOL     OW 3286   5.887   2.315   3.320 -0.1260  0.3870  0.0711
  796SOL    HW1 3287   5.851   2.331   3.412 -0.3917 -0.2506  0.0851
  796SOL    HW2 3288   5.817   2.270   3.265  0.7879 -1.3562  0.2467
  797SOL     OW 3289   4.713   2.687   4.795  0.0309 -0.2984 -0.4773
  797SOL    HW1 3290   4.623   2.695   4.837 -0.8443  1.4116 -2.4867
  797SOL    HW2 3291   4.777   2.748   4.843 -0.3644 -0.0940 -0.2004
  798SOL     OW 3292   4.695   2.442   2.907  0.3619 -0.0227  0.1614
  798SOL    HW1 3293   4.683   2.484   2.997  0.1508  1.8529 -0.6993
  798SOL    HW2 3294   4.611   2.454   2.854  1.8196  2.6780 -1.7355
  799SOL     OW 3295   2.026   3.895   5.520  0.2190 -0.1222  0.2807
  799SOL    HW1 3296   2.125   3.899   5.536  0.5418 -0.3050 -1.4685
  799SOL    HW2 3297   1.989   3.813   5.563  0.8873 -0.2356  0.6568
  800SOL     OW 3298   6.844   0.068   5.389  0.0285  0.6818 -0.2659
  800SOL    HW1 3299   6.785   0.052   5.468 -0.2150  1.2198 -0.3272
  800SOL    HW2 3300   6.831  -0.004   5.322 -0.2368  0.5607 -0.0857
  801SOL     OW 3301   5.750   4.951   2.318  0.0713 -0.2644  0.3919
  801SOL    HW1 3302   5.673   5.012   2.300  1.1516  1.6339  1.8522
  801SOL    HW2 3303   5.835   5.003   2.315  0.8848 -1.0883  4.0656
  802SOL     OW 3304   1.263   5.704   5.037 -0.2014  0.1746  0.2991
  802SOL    HW1 3305   1.347   5.758   5.027  0.3952 -0.3536  2.0944
  802SOL    HW2 3306   1.277   5.612   5.002  0.5481 -0.4280  2.1025
  803SOL     OW 3307   2.576   5.784   3.257 -0.2936  0.5032  0.1628
  803SOL    HW1 3308   2.606   5.870   3.296  0.7193  0.8795 -1.3671
  803SOL    HW2 3309   2.512   5.740   3.319 -0.0133  1.8413  1.4496
  804SOL     OW 3310   1.535   2.464   6.509  0.5155 -0.0374  0.4395
  804SOL    HW1 3311   1.477   2.542   6.534  0.5895  0.5068 -0.9599
  804SOL    HW2 3312   1.620   2.467   6.561  0.2402  0.4484  0.8688
  805SOL     OW 3313   5.525   4.198   5.552 -0.4974 -0.2193  0.0748
  805SOL    HW1 3314   5.506   4.147   5.636  0.1346  1.6150  1.3805
  805SOL    HW2 3315   5.580   4.278   5.573  1.7295 -0.9273 -2.4315
  806SOL     OW 3316   5.769   6.809   3.912 -0.3669  0.2139  0.2479
  806SOL    HW1 3317   5.737   6.879   3.848 -0.6576  0.8880  1.1069
  806SOL    HW2 3318   5.745   6.836   4.005 -0.4185 -1.0104  0.6004
  807SOL     OW 3319   4.572   6.093   0.335 -0.1881  0.3689 -0.5935
  807SOL    HW1 3320   4.603   6.136   0.420  0.2953  3.1183 -2.0226
  807SOL    HW2 3321   4.638   6.025   0.305 -0.3734 -0.6628  1.1775
  808SOL     OW 3322   4.024   3.294   0.036 -0.1193  0.0683 -0.0556
  808SOL    HW1 3323   4.003   3.358  -0.038  2.5899 -0.5253 -1.4741
  808SOL    HW2 3324   4.067   3.344   0.111 -0.9268  0.3654  0.2144
  809SOL     OW 3325   0.119   4.185   2.330  0.0618  0.0102 -0.2280
  809SOL    HW1 3326   0.094   4.121   2.403 -1.9780  0.3999 -0.5308
  809SOL    HW2 3327   0.079   4.155   2.244  1.3636  0.2641 -0.9546
  810SOL     OW 3328   5.024   2.171   2.180  0.4935 -0.3593  0.4529
  810SOL    HW1 3329   4.984   2.081   2.163 -0.9522  0.2248  0.6158
  810SOL    HW2 3330   4.984   2.210   2.263 -0.7170  1.4327 -0.8874
  811SOL     OW 3331   3.691   0.984   0.247  0.3796  0.2982 -0.1383
  811SOL    HW1 3332   3.644   1.069   0.268 -0.6882 -0.9993  3.4433
  811SOL    HW2 3333   3.774   0.977   0.302  1.0175 -0.5286 -1.1675
  812SOL     OW 3334   6.762   5.129   1.107 -0.0204  0.3502  0.7466
  812SOL    HW1 3335   6.701   5.197   1.066  1.2031  0.3176 -1.3044
  812SOL    HW2 3336   6.855   5.165   1.109  0.8955 -1.5967 -1.5198
  813SOL     OW 3337   3.041   0.282   4.945  0.4471 -0.1135 -0.0494
  813SOL    HW1 3338   3.097   0.324   5.017 -1.4778  2.0236  0.2948
  813SOL    HW2 3339   2.953   0.255   4.984  0.4184 -1.5147 -1.0317
  814SOL     OW 3340   3.991   2.136   3.304 -0.0822  0.2094  0.9556
  814SOL    HW1 3341   3.896   2.142   3.274 -0.0667  3.3843  1.1825
  814SOL    HW2 3342   4.041   2.075   3.243 -1.4908  1.3353 -1.5010
  815SOL     OW 3343   6.347   0.999   4.198  0.1728  0.0957 -0.2017
  815SOL    HW1 3344   6.354   0.910   4.153  0.5364  0.3963 -0.7482
  815SOL    HW2 3345   6.255   1.035   4.184 -0.3233 -0.6544  0.9212
  816SOL     OW 3346   6.288   2.337   2.503 -0.2001 -0.2588  0.6222
  816SOL    HW1 3347   6.248   2.428   2.509 -0.8402 -0.6065  2.0719
  816SOL    HW2 3348   6.214   2.269   2.503  0.3157 -0.8229  0.7889
  817SOL     OW 3349   4.349   1.897   4.314  0.1540  0.0397 -0.0866
  817SOL    HW1 3350   4.355   1.936   4.406  0.8532  1.5618 -0.7302
  817SOL    HW2 3351   4.393   1.959   4.249 -0.7803 -0.7400 -1.5264
  818SOL     OW 3352   0.727   1.561   5.303  0.1676  0.5697  0.0168
  818SOL    HW1 3353   0.792   1.515   5.243 -0.6045  0.5091 -0.7951
  818SOL    HW2 3354   0.638   1.516   5.298  0.5741 -0.7751  2.8494
  819SOL     OW 3355   0.830   2.477   6.163 -0.3189  0.2130 -0.2044
  819SOL    HW1 3356   0.762   2.530   6.214 -1.1640 -2.0021  1.1143
  819SOL    HW2 3357   0.918   2.481   6.211 -0.7874 -0.8010  0.8097
  820SOL     OW 3358   0.354   4.828   6.003 -0.5360 -0.0281  0.2719
  820SOL    HW1 3359   0.322   4.749   5.950 -0.7423  0.3889 -0.2332
  820SOL    HW2 3360   0.348   4.808   6.100 -0.4355 -0.6972  0.1460
  821SOL     OW 3361   3.130   3.118   3.137 -0.0440 -0.0709  0.9624
  821SOL    HW1 3362   3.137   3.094   3.234 -2.1539  0.1111  1.2117
  821SOL    HW2 3363   3.054   3.182   3.124  0.1804 -0.1126 -0.8136
  822SOL     OW 3364   4.046   3.772   0.197 -0.7666  0.6151  0.2643
  822SOL    HW1 3365   3.974   3.809   0.256 -0.7472  1.1085 -0.0132
  822SOL    HW2 3366   4.048   3.673   0.205 -1.5007  0.5903  0.2533
  823SOL     OW 3367   0.328   2.337   4.022  0.0261  0.3302  0.0027
  823SOL    HW1 3368   0.381   2.306   3.943  1.4667 -0.1753  1.1205
  823SOL    HW2 3369   0.336   2.436   4.031  1.2053  0.2191  0.4081
  824SOL     OW 3370   6.325   4.997   1.046 -0.4981  0.0636  0.2991
  824SOL    HW1 3371   6.298   4.964   0.955  0.2813  0.6406 -0.1471
  824SOL    HW2 3372   6.358   4.920   1.100 -2.8194 -0.6438  0.8072
  825SOL     OW 3373   0.795   0.061   6.068 -0.1142  0.1898 -0.1158
  825SOL    HW1 3374   0.750  -0.011   6.016 -0.4889  1.5870 -1.8273
  825SOL    HW2 3375   0.878   0.024   6.111 -0.7614 -1.4420 -0.1850
  826SOL     OW 3376   2.355   3.040   1.496  0.4951 -0.0504  0.5453
  826SOL    HW1 3377   2.279   3.031   1.432 -0.5322  0.4129  1.6622
  826SOL    HW2 3378   2.436   3.072   1.447  0.1811 -1.2004 -0.7877
  827SOL     OW 3379   4.728   2.543   6.028 -0.0017  0.2554 -0.5749
  827SOL    HW1 3380   4.767   2.635   6.041 -1.7238  1.0064 -0.4676
  827SOL    HW2 3381   4.733   2.518   5.932  0.2144  0.5772 -0.6505
  828SOL     OW 3382   5.147   1.253   2.137  0.3089 -0.1783  0.4808
  828SOL    HW1 3383   5.074   1.247   2.205  0.7548  1.7814  1.1924
  828SOL    HW2 3384   5.183   1.162   2.119 -1.2785 -1.0008  1.2287
  829SOL     OW 3385   1.955   1.626   2.758  0.2000  0.0167  0.0270
  829SOL    HW1 3386   2.053   1.632   2.780  0.7227 -2.1878 -1.3715
  829SOL    HW2 3387   1.919   1.539   2.792 -0.9103  0.1499 -0.7634
  830SOL     OW 3388   0.070   5.690   6.177  0.0971 -0.3420  0.0427
  830SOL    HW1 3389   0.078   5.630   6.256 -1.8196 -1.5422 -0.6189
  830SOL    HW2 3390  -0.010   5.749   6.187  0.4712  0.2743 -0.4973
  831SOL     OW 3391   6.929   6.385   2.090 -0.4724  0.1478 -0.2930
  831SOL    HW1 3392   6.873   6.423   2.164  2.0036  3.4904  0.0790
  831SOL    HW2 3393   7.001   6.328   2.130  0.8319  1.9094 -0.0329
  832SOL     OW 3394   4.115   6.987   6.130 -0.6144 -0.3420 -0.1720
  832SOL    HW1 3395   4.197   6.930   6.127 -0.0798  0.3211  1.1420
  832SOL    HW2 3396   4.141   7.083   6.125 -1.3604 -0.1471 -0.4180
  833SOL     OW 3397   5.237   6.966   0.840 -0.6032 -0.1315 -0.0428
  833SOL    HW1 3398   5.189   7.050   0.863  0.1558  0.3055 -0.0169
  833SOL    HW2 3399   5.206   6.933   0.751 -0.8796  0.1913 -0.0691
  834SOL     OW 3400   6.124   5.034   0.287 -0.3518 -0.4769 -0.9777
  834SOL    HW1 3401   6.066   5.003   0.363 -3.4521  0.3275 -2.8389
  834SOL    HW2 3402   6.169   4.955   0.245 -1.8988 -1.4688 -0.8383
  835SOL     OW 3403   3.040   6.229   5.178  0.3782 -0.3246  0.6367
  835SOL    HW1 3404   3.112   6.290   5.211  0.5777 -0.5594  0.6394
  835SOL    HW2 3405   3.064   6.196   5.087  0.2020 -0.2901  0.5764
  836SOL     OW 3406   2.259   0.281   6.532  0.1964  0.3558  0.2508
  836SOL    HW1 3407   2.208   0.349   6.479  1.8189  0.6535 -0.9783
  836SOL    HW2 3408   2.328   0.238   6.474 -1.1878 -2.8692  0.7764
  837SOL     OW 3409   3.984   6.328   3.212 -0.2880 -0.4129 -0.2454
  837SOL    HW1 3410   3.944   6.236   3.211 -0.1123 -0.5094  0.7486
  837SOL    HW2 3411   4.063   6.331   3.152 -0.9633 -0.5922 -1.1714
  838SOL     OW 3412   3.271   1.511   0.594 -0.4369  0.0875 -0.1096
  838SOL    HW1 3413   3.177   1.543   0.586 -0.5257 -0.1266  0.0894
  838SOL    HW2 3414   3.318   1.523   0.506 -1.0957 -1.2433 -0.6631
  839SOL     OW 3415   1.422   0.859   2.479  0.1668 -0.2438  0.3607
  839SOL    HW1 3416   1.361   0.813   2.413  1.7985 -0.6861 -0.9172
  839SOL    HW2 3417   1.383   0.948   2.504 -1.1457 -0.6388 -0.1558
  840SOL     OW 3418   1.277   5.584   0.342 -0.4213  0.2559 -0.2686
  840SOL    HW1 3419   1.195   5.641   0.347  0.1760  1.0608  0.7505
  840SOL    HW2 3420   1.323   5.598   0.254 -1.1069  0.1479 -0.6532
  841SOL     OW 3421   2.519   0.627   5.197  0.2660  0.4163  0.4066
  841SOL    HW1 3422   2.557   0.712   5.234  0.2967 -0.3849  2.3538
  841SOL    HW2 3423   2.538   0.622   5.099  2.3186  1.5766  0.6767
  842SOL     OW 3424   2.381   6.969   0.532  0.2238  0.1830 -0.4281
  842SOL    HW1 3425   2.425   7.049   0.572  2.2802 -1.6383  1.1736
  842SOL    HW2 3426   2.350   6.991   0.439  1.3463  2.6104 -0.2972
  843SOL     OW 3427   4.303   4.583   5.502  0.6280 -0.8242 -0.5129
  843SOL    HW1 3428   4.297   4.676   5.538 -1.3166 -0.5834 -1.3179
  843SOL    HW2 3429   4.287   4.518   5.576 -3.3803 -0.3397 -0.7249
  844SOL     OW 3430   0.570   0.298   5.553 -0.2689  0.2478 -0.5861
  844SOL    HW1 3431   0.644   0.313   5.488 -0.8552  2.3886 -0.8522
  844SOL    HW2 3432   0.593   0.339   5.641 -0.3370 -0.8115 -0.0602
  845SOL     OW 3433   0.950   5.504   4.680 -0.0363  0.4623 -0.4122
  845SOL    HW1 3434   0.906   5.579   4.632 -0.8338  0.0841 -0.2991
  845SOL    HW2 3435   0.918   5.417   4.643 -2.0126  0.1066  1.8456
  846SOL     OW 3436   0.854   3.255   4.339  0.0987  0.3062  0.7237
  846SOL    HW1 3437   0.893   3.346   4.348  1.9630 -0.1344 -1.7299
  846SOL    HW2 3438   0.922   3.187   4.366  0.7519 -0.4408 -2.3508
  847SOL     OW 3439   0.805   1.139   2.180 -0.4806 -0.4190 -0.8116
  847SOL    HW1 3440   0.836   1.161   2.088  1.0611 -1.2173 -0.5217
  847SOL    HW2 3441   0.721   1.086   2.176 -0.2157 -0.7799 -1.7871
  848SOL     OW 3442   4.969   2.577   2.299  0.1215  0.1183  0.0630
  848SOL    HW1 3443   5.020   2.505   2.253  0.4990  0.0035  0.6402
  848SOL    HW2 3444   4.945   2.547   2.391 -2.1289 -0.3286 -0.6201
  849SOL     OW 3445   6.517   2.107   4.392  0.5305  0.5610 -0.3548
  849SOL    HW1 3446   6.494   2.183   4.453 -1.9890 -0.2899 -0.1498
  849SOL    HW2 3447   6.576   2.042   4.440  1.7123  1.7519 -0.1366
  850SOL     OW 3448   3.910   5.340   3.565 -0.3695  0.1533  0.0591
  850SOL    HW1 3449   3.963   5.262   3.531 -1.3395 -0.8966  0.8525
  850SOL    HW2 3450   3.847   5.308   3.636 -1.5467  1.4871 -0.3465
  851SOL     OW 3451   1.023   3.600   1.966  0.1994 -0.0497 -0.3484
  851SOL    HW1 3452   1.054   3.529   2.029  0.7778  0.5862  0.1095
  851SOL    HW2 3453   0.945   3.648   2.006 -1.4220 -1.6152 -1.4794
  852SOL     OW 3454   3.582   3.550   4.547  0.4858  0.2042 -0.3461
  852SOL    HW1 3455   3.579   3.631   4.606 -0.3159 -0.4403  0.5184
  852SOL    HW2 3456   3.540   3.572   4.459 -0.0841  0.6227  0.0246
  853SOL     OW 3457   6.561   1.980   3.116 -0.5858  0.4940  0.3384
  853SOL    HW1 3458   6.623   2.033   3.058  0.5270  0.9412  1.8725
  853SOL    HW2 3459   6.466   2.006   3.097 -0.1549  1.7636 -0.1586
  854SOL     OW 3460   6.693   2.477   4.061 -0.0647  0.1284 -0.5246
  854SOL    HW1 3461   6.669   2.437   3.972  1.0095  0.0466 -0.7900
  854SOL    HW2 3462   6.615   2.472   4.122 -0.4806 -0.7884 -1.1202
  855SOL     OW 3463   1.897   2.298   6.487  0.1479  0.2317 -0.0766
  855SOL    HW1 3464   1.965   2.365   6.460  0.2383  0.0426 -0.3158
  855SOL    HW2 3465   1.846   2.333   6.566 -1.0479  1.4044 -1.2940
  856SOL     OW 3466   3.814   3.056   6.348 -0.2387  0.1805 -0.4712
  856SOL    HW1 3467   3.770   2.966   6.352 -1.7323  0.8794 -0.4816
  856SOL    HW2 3468   3.775   3.109   6.273 -2.2780  2.2614  1.8821
  857SOL     OW 3469   6.824   1.397   1.225  0.2489  0.2680  0.1064
  857SOL    HW1 3470   6.817   1.337   1.145  1.2617  1.9184 -1.2915
  857SOL    HW2 3471   6.745   1.458   1.228 -0.5201 -0.7338  1.2336
  858SOL     OW 3472   2.692   6.030   0.006  0.0555 -0.4478  0.5499
  858SOL    HW1 3473   2.608   6.035  -0.049 -1.2301 -0.6480  2.3761
  858SOL    HW2 3474   2.699   5.940   0.049  0.9939 -0.2960  0.7386
  859SOL     OW 3475   0.735   6.423   0.505  0.2547 -0.0637 -0.5848
  859SOL    HW1 3476   0.782   6.343   0.542  1.4067  0.6070 -0.5746
  859SOL    HW2 3477   0.799   6.499   0.496 -0.7779  0.8129 -0.7702
  860SOL     OW 3478   2.262   6.726   6.360  0.3474  0.3313 -0.3434
  860SOL    HW1 3479   2.236   6.781   6.439  0.5582  0.0135 -0.0473
  860SOL    HW2 3480   2.234   6.772   6.276 -0.1794  0.5154 -0.0721
  861SOL     OW 3481   1.498   2.974   5.132  0.0826 -0.3813  0.4874
  861SOL    HW1 3482   1.434   3.051   5.138  1.1131  0.6317 -0.9545
  861SOL    HW2 3483   1.587   3.002   5.169  1.8394  0.7572 -4.0219
  862SOL     OW 3484   2.024   6.438   3.631 -0.1226  0.1262 -0.0978
  862SOL    HW1 3485   2.057   6.347   3.606  0.1470  0.2073 -0.0329
  862SOL    HW2 3486   2.092   6.485   3.687 -0.4000  0.2430  0.1481
  863SOL     OW 3487   1.759   0.435   4.289  0.1972  0.9012  0.4958
  863SOL    HW1 3488   1.830   0.432   4.218 -0.5241  0.2959 -0.2087
  863SOL    HW2 3489   1.702   0.515   4.276  0.0173  0.7487  0.3507
  864SOL     OW 3490   0.126   5.348   3.479  0.1217 -0.0309 -0.1502
  864SOL    HW1 3491   0.082   5.431   3.514  0.7669 -0.6327  2.2619
  864SOL    HW2 3492   0.187   5.373   3.404 -1.0577  1.4065 -0.6747
  865SOL     OW 3493   1.395   1.452   5.167 -0.6227  0.4445 -0.3824
  865SOL    HW1 3494   1.393   1.517   5.091  0.0883  0.4842 -0.3734
  865SOL    HW2 3495   1.349   1.368   5.141 -0.5646  0.5367 -0.7828
  866SOL     OW 3496   1.720   1.827   4.105  0.3928 -0.2067 -0.3308
  866SOL    HW1 3497   1.748   1.829   4.201  0.3238  1.0156 -0.3190
  866SOL    HW2 3498   1.634   1.776   4.097  0.8201 -1.0278  0.1246
  867SOL     OW 3499   5.370   4.818   1.105 -0.1508 -0.2315  0.5184
  867SOL    HW1 3500   5.467   4.811   1.127  1.0126 -0.1908 -3.6546
  867SOL    HW2 3501   5.342   4.914   1.106 -0.6629 -0.3352  3.1386
  868SOL     OW 3502   2.195   5.922   3.629  0.2242 -0.7193  0.0568
  868SOL    HW1 3503   2.128   5.872   3.683 -0.1295  0.2910  0.5813
  868SOL    HW2 3504   2.191   5.892   3.534 -2.3601  0.6684 -0.3438
  869SOL     OW 3505   0.605   5.153   0.157 -0.2202 -0.3579 -0.1276
  869SOL    HW1 3506   0.584   5.096   0.236  1.9029 -0.1465  0.6296
  869SOL    HW2 3507   0.604   5.098   0.074  0.1461 -1.1368  0.3809
  870SOL     OW 3508   3.747   0.044   0.848 -0.4033  0.3028  0.4332
  870SOL    HW1 3509   3.704   0.135   0.845 -0.4316  0.3011 -2.7814
  870SOL    HW2 3510   3.698  -0.013   0.913 -0.0789  2.6703  2.9362
  871SOL     OW 3511   1.568   0.440   5.531 -0.0804  0.0013  0.2088
  871SOL    HW1 3512   1.531   0.533   5.526 -1.3221 -0.5373 -2.6813
  871SOL    HW2 3513   1.668   0.445   5.533 -0.1274  1.4065  0.3154
  872SOL     OW 3514   3.684   2.133   5.636 -0.0749 -0.8374  0.1093
  872SOL    HW1 3515   3.694   2.045   5.682 -0.1720 -1.5547 -1.1924
  872SOL    HW2 3516   3.714   2.124   5.541 -0.4941  0.4333 -0.1546
  873SOL     OW 3517   2.267   3.389   0.371  0.4045 -0.2813  0.3538
  873SOL    HW1 3518   2.291   3.484   0.390 -0.9543  0.3567 -0.9452
  873SOL    HW2 3519   2.196   3.359   0.434  0.1699 -0.1303  0.1614
  874SOL     OW 3520   3.757   0.196   4.819  0.4013  0.4380  0.0111
  874SOL    HW1 3521   3.683   0.194   4.751  0.5430 -0.4370 -0.1186
  874SOL    HW2 3522   3.774   0.104   4.853  1.0693  0.7165  0.4401
  875SOL     OW 3523   2.490   1.360   3.748 -0.0054 -0.2914  0.3280
  875SOL    HW1 3524   2.581   1.321   3.743 -0.1860 -0.8394  1.0756
  875SOL    HW2 3525   2.496   1.457   3.769  0.4584  0.1855 -1.7864
  876SOL     OW 3526   5.626   5.610   5.304  0.3522 -0.2557 -0.6045
  876SOL    HW1 3527   5.703   5.565   5.257  1.9458 -0.6130  2.0918
  876SOL    HW2 3528   5.641   5.605   5.403 -2.8379  0.3478  0.0064
  877SOL     OW 3529   6.163   1.728   0.737 -0.4216 -0.7909 -0.0023
  877SOL    HW1 3530   6.085   1.776   0.776 -0.0963  1.1295 -1.5192
  877SOL    HW2 3531   6.237   1.724   0.804 -0.4832  0.8219  0.1893
  878SOL     OW 3532   1.931   1.635   2.435 -0.2389 -0.4188 -0.9959
  878SOL    HW1 3533   1.840   1.594   2.432 -0.0235 -0.8624 -1.5701
  878SOL    HW2 3534   1.966   1.630   2.529 -0.2607 -1.4566 -1.0275
  879SOL     OW 3535   4.852   3.680   1.792  0.2026 -0.7274 -0.4829
  879SOL    HW1 3536   4.764   3.696   1.746 -0.1324 -1.7632 -0.2283
  879SOL    HW2 3537   4.855   3.586   1.826  0.5558 -0.1116  1.3488
  880SOL     OW 3538   3.616   3.017   1.789 -0.0723 -0.0215 -0.1443
  880SOL    HW1 3539   3.665   2.943   1.834  1.7806  0.7713 -0.7305
  880SOL    HW2 3540   3.518   3.011   1.810  0.0460 -2.4933 -0.0605
  881SOL     OW 3541   3.234   2.066   0.206  0.5384 -0.0559  0.0790
  881SOL    HW1 3542   3.161   2.131   0.226 -0.5463 -1.2077 -0.0683
  881SOL    HW2 3543   3.244   2.056   0.107  3.5510  2.9868 -0.1141
  882SOL     OW 3544   3.178   0.694   1.951  0.0067 -0.8130  0.2532
  882SOL    HW1 3545   3.225   0.775   1.916  0.3524 -1.0511  0.1630
  882SOL    HW2 3546   3.097   0.722   2.003  1.5017 -0.2395  2.4329
  883SOL     OW 3547   3.940   1.158   3.152  0.6761  0.0137 -0.5290
  883SOL    HW1 3548   3.862   1.121   3.203 -0.9364  0.5752 -2.4567
  883SOL    HW2 3549   3.922   1.149   3.054  2.8706  0.5907 -1.0201
  884SOL     OW 3550   6.908   0.795   0.040  0.1324  0.1559  0.3695
  884SOL    HW1 3551   6.875   0.732  -0.031  1.0934 -2.2277  1.9106
  884SOL    HW2 3552   6.848   0.874   0.045 -0.9823 -0.4649 -1.8590
  885SOL     OW 3553   5.018   4.237   2.071  0.3047 -0.4040  0.1916
  885SOL    HW1 3554   4.918   4.227   2.070  0.4317 -1.9489  0.1354
  885SOL    HW2 3555   5.043   4.315   2.128 -0.9324  0.0507  0.1521
  886SOL     OW 3556   3.380   4.027   6.434  1.3403  0.4357  0.6811
  886SOL    HW1 3557   3.355   3.965   6.508  0.1241  0.9571  0.7380
  886SOL    HW2 3558   3.305   4.092   6.419  1.4060  0.1138 -1.2466
  887SOL     OW 3559   6.122   1.987   1.160 -0.2605  0.7134  0.2061
  887SOL    HW1 3560   6.094   1.902   1.205 -1.1872  1.0597  0.3102
  887SOL    HW2 3561   6.097   2.065   1.217 -1.6938  1.1794 -0.9941
  888SOL     OW 3562   6.004   5.301   2.897  0.5250 -0.3117 -0.3959
  888SOL    HW1 3563   6.044   5.274   2.809  1.2939 -0.4539 -0.0167
  888SOL    HW2 3564   5.932   5.369   2.882  2.0691  1.2704 -0.9870
  889SOL     OW 3565   0.454   0.062   3.043 -0.3482 -0.1827  0.2072
  889SOL    HW1 3566   0.410   0.112   3.118  0.9747  0.2037  0.7638
  889SOL    HW2 3567   0.402   0.075   2.959 -1.1313  0.4750  0.7740
  890SOL     OW 3568   1.016   6.250   4.838  0.3141 -0.0338 -0.0432
  890SOL    HW1 3569   1.070   6.298   4.769  1.5511 -0.9215  0.2697
  890SOL    HW2 3570   0.939   6.203   4.794  1.5808 -1.3065 -0.9883
  891SOL     OW 3571   3.082   1.157   1.294  0.0257 -0.1938 -0.3916
  891SOL    HW1 3572   3.160   1.139   1.234 -0.1028  0.3261 -0.7203
  891SOL    HW2 3573   3.076   1.255   1.312 -0.1121 -0.3153  0.2367
  892SOL     OW 3574   3.136   4.640   0.464  0.2712  0.3930  0.4750
  892SOL    HW1 3575   3.135   4.540   0.472 -2.5050  0.4280  1.3334
  892SOL    HW2 3576   3.097   4.667   0.376  0.9822  0.7395  0.2584
  893SOL     OW 3577   3.660   5.638   1.988  0.0147  0.1858  0.0285
  893SOL    HW1 3578   3.645   5.601   1.897 -0.7226 -0.5957  0.4531
  893SOL    HW2 3579   3.577   5.629   2.042  0.6048  0.1207  0.9587
  894SOL     OW 3580   1.640   3.090   3.944 -0.2458 -0.1574 -0.3515
  894SOL    HW1 3581   1.703   3.116   4.017 -1.4812  0.5309  0.5001
  894SOL    HW2 3582   1.587   3.169   3.915 -1.5077 -0.9512 -0.2701
  895SOL     OW 3583   0.808   2.721   1.213  0.3286 -0.3449  0.1008
  895SOL    HW1 3584   0.766   2.712   1.123  1.2494  0.5552 -0.4427
  895SOL    HW2 3585   0.766   2.797   1.263  0.1423 -0.5384  0.2377
  896SOL     OW 3586   1.419   6.798   6.529 -0.2802  0.1136 -0.4513
  896SOL    HW1 3587   1.462   6.751   6.606  1.3274  0.6431 -0.9827
  896SOL    HW2 3588   1.358   6.869   6.563 -0.0944 -0.0936  0.3260
  897SOL     OW 3589   1.325   0.926   0.885 -0.1836  0.4996  0.0681
  897SOL    HW1 3590   1.391   0.860   0.922  0.4517  0.8717 -0.3779
  897SOL    HW2 3591   1.232   0.897   0.908  0.1355  0.0023  0.7630
  898SOL     OW 3592   4.714   3.519   0.820  0.0169 -0.8788 -0.3645
  898SOL    HW1 3593   4.805   3.480   0.828 -0.4055 -1.6613  0.9428
  898SOL    HW2 3594   4.685   3.518   0.724  1.4980 -0.2831 -0.8465
  899SOL     OW 3595   6.515   5.288   1.791  0.0714  0.7527 -0.4456
  899SOL    HW1 3596   6.550   5.212   1.846 -3.9082 -0.7550  0.2972
  899SOL    HW2 3597   6.518   5.373   1.845  0.6250  0.2858  0.2759
  900SOL     OW 3598   1.204   0.735   0.550  0.1137 -0.2510  0.3768
  900SOL    HW1 3599   1.105   0.745   0.560  0.2361  0.5749  0.8844
  900SOL    HW2 3600   1.232   0.646   0.585 -0.4053 -0.3445  0.5635
  901SOL     OW 3601   6.504   6.270   5.697 -0.0346  0.3808  0.4434
  901SOL    HW1 3602   6.477   6.175   5.686  0.2803  0.4453 -0.9888
  901SOL    HW2 3603   6.603   6.277   5.702  0.0982  0.8045 -1.7768
  902SOL     OW 3604   2.371   5.524   2.273  0.3572 -0.1326 -0.4264
  902SOL    HW1 3605   2.407   5.612   2.242 -0.8088  0.9875  1.2332
  902SOL    HW2 3606   2.278   5.512   2.239  0.2797 -0.4224 -0.1189
  903SOL     OW 3607   2.226   5.048   5.206 -0.2660 -0.2427 -0.3495
  903SOL    HW1 3608   2.310   5.101   5.216  0.4065 -1.4215  0.6206
  903SOL    HW2 3609   2.178   5.045   5.294 -0.6876 -0.5718 -0.5890
  904SOL     OW 3610   0.859   0.541   1.259 -0.4307  0.0069  0.3494
  904SOL    HW1 3611   0.939   0.487   1.284 -0.5628 -0.8985 -1.0692
  904SOL    HW2 3612   0.829   0.515   1.167 -1.0598  1.8650 -0.0065
  905SOL     OW 3613   3.224   6.427   2.450  0.0791  0.1301  0.1543
  905SOL    HW1 3614   3.204   6.358   2.519 -2.8713 -2.3564 -2.8740
  905SOL    HW2 3615   3.169   6.509   2.467 -2.2224 -1.2528 -0.2707
  906SOL     OW 3616   6.872   0.957   1.641  0.0834 -0.4411 -0.2019
  906SOL    HW1 3617   6.967   0.929   1.654  0.4145 -0.9365 -3.0502
  906SOL    HW2 3618   6.813   0.905   1.703  1.5649 -0.7457  1.0102
  907SOL     OW 3619   1.008   5.958   6.646  0.4265 -0.3494  0.4786
  907SOL    HW1 3620   1.001   5.957   6.546 -0.9704 -0.5424  0.5615
  907SOL    HW2 3621   0.997   6.051   6.679 -2.8947 -0.6539  0.6209
  908SOL     OW 3622   5.689   6.789   1.652  0.2748 -0.0262  0.1851
  908SOL    HW1 3623   5.656   6.694   1.648 -0.7285  0.2849  0.6484
  908SOL    HW2 3624   5.613   6.851   1.632  0.7155  0.7119  0.7580
  909SOL     OW 3625   0.422   2.660   4.142  0.1895 -0.3437  0.3413
  909SOL    HW1 3626   0.441   2.742   4.196 -0.5195  0.1762 -0.1708
  909SOL    HW2 3627   0.493   2.649   4.073 -0.6776  0.9493 -0.8308
  910SOL     OW 3628   2.118   2.032   5.427 -0.3283 -0.0883 -0.4239
  910SOL    HW1 3629   2.030   2.038   5.472 -0.4460 -1.7085 -0.3515
  910SOL    HW2 3630   2.140   2.119   5.383 -0.8322  1.1104  1.5680
  911SOL     OW 3631   4.015   0.951   2.309 -0.1697  0.0169  0.4955
  911SOL    HW1 3632   3.922   0.990   2.308 -0.3684 -0.4464 -1.0569
  911SOL    HW2 3633   4.080   1.022   2.335 -0.6095  1.2406 -1.5581
  912SOL     OW 3634   1.367   1.422   1.294  0.0776 -0.2742  0.2351
  912SOL    HW1 3635   1.351   1.366   1.376 -2.2871 -3.3675 -2.0863
  912SOL    HW2 3636   1.458   1.402   1.258  0.4447 -0.2331  1.0997
  913SOL     OW 3637   2.881   6.602   1.433  0.2077  0.7580  0.1315
  913SOL    HW1 3638   2.936   6.519   1.439 -0.4151  0.2341 -0.9109
  913SOL    HW2 3639   2.913   6.669   1.499 -0.7910 -1.1732  2.7502
  914SOL     OW 3640   6.397   4.405   0.241 -0.1538  0.0575  0.2997
  914SOL    HW1 3641   6.341   4.398   0.159 -0.4644  1.2803  0.3865
  914SOL    HW2 3642   6.354   4.469   0.305  1.1343  0.7042  0.5401
  915SOL     OW 3643   0.520   5.690   3.116 -0.1423  0.3495 -0.3426
  915SOL    HW1 3644   0.578   5.609   3.105 -0.4951 -0.1079  0.9624
  915SOL    HW2 3645   0.436   5.679   3.063 -1.5430 -1.5154  2.0552
  916SOL     OW 3646   2.243   4.350   4.252 -0.2522 -0.2286 -0.1163
  916SOL    HW1 3647   2.305   4.348   4.174  0.3680  0.2272  0.3575
  916SOL    HW2 3648   2.235   4.257   4.290 -0.7973 -0.5089 -0.8960
  917SOL     OW 3649   2.677   5.610   4.996 -0.5048 -0.7957  0.6298
  917SOL    HW1 3650   2.744   5.572   4.933  0.0390  1.6456 -0.3744
  917SOL    HW2 3651   2.602   5.651   4.944 -0.9807 -0.3653  1.6304
  918SOL     OW 3652   0.639   3.635   2.688  0.2987  0.1677 -0.4369
  918SOL    HW1 3653   0.678   3.592   2.770 -0.9821  2.4794  1.5365
  918SOL    HW2 3654   0.544   3.605   2.677  0.8354 -1.0870 -1.8612
  919SOL     OW 3655   5.630   2.005   3.532  0.7737 -0.2612 -0.7555
  919SOL    HW1 3656   5.582   1.961   3.456 -1.2510 -2.4547  1.6190
  919SOL    HW2 3657   5.695   1.941   3.572  0.9990  0.4691  0.0740
  920SOL     OW 3658   3.278   0.805   6.137  0.1919 -0.1962  0.2635
  920SOL    HW1 3659   3.372   0.837   6.133  0.0156  0.3905  0.6352
  920SOL    HW2 3660   3.216   0.884   6.143 -0.4477 -0.4792 -1.8314
  921SOL     OW 3661   2.421   5.965   3.052  0.3222  0.3324 -0.2307
  921SOL    HW1 3662   2.453   5.871   3.066  1.1773  0.7465  0.6501
  921SOL    HW2 3663   2.370   5.995   3.132  1.1192  1.0472  0.0178
  922SOL     OW 3664   1.289   4.038   3.040  0.0563 -0.4775 -0.0071
  922SOL    HW1 3665   1.330   3.973   3.104  3.0546 -1.4265 -2.6249
  922SOL    HW2 3666   1.230   3.989   2.976  2.6486 -0.9407 -2.2488
  923SOL     OW 3667   3.078   6.311   2.641 -0.2328 -0.4570  0.3458
  923SOL    HW1 3668   3.126   6.235   2.684 -0.4555 -0.9300 -0.2221
  923SOL    HW2 3669   2.994   6.330   2.690 -0.7808 -1.3812 -0.2077
  924SOL     OW 3670   1.264   2.294   3.393 -0.0271 -0.1315 -0.2455
  924SOL    HW1 3671   1.289   2.287   3.489 -1.7886 -1.5195  0.1627
  924SOL    HW2 3672   1.266   2.204   3.351 -0.2279  0.3206 -1.2728
  925SOL     OW 3673   3.684   2.052   4.768 -0.2340 -0.0109  0.3434
  925SOL    HW1 3674   3.744   1.973   4.772 -0.3496 -0.0699  0.8775
  925SOL    HW2 3675   3.628   2.057   4.850 -0.1315  0.7044  0.3811
  926SOL     OW 3676   0.006   6.731   5.633  0.2342 -0.1056  0.5623
  926SOL    HW1 3677  -0.079   6.729   5.686  0.3538  0.1950  0.7710
  926SOL    HW2 3678   0.043   6.824   5.634 -0.6358  0.3140 -1.4422
  927SOL     OW 3679   5.386   6.256   6.958  0.2798  0.6709  0.4463
  927SOL    HW1 3680   5.415   6.190   7.028  1.1551 -0.4055 -0.8943
  927SOL    HW2 3681   5.376   6.210   6.870  1.6231  2.4484 -0.6997
  928SOL     OW 3682   0.162   1.139   4.162 -0.1033 -0.2419 -0.1354
  928SOL    HW1 3683   0.202   1.055   4.198  0.8904  0.6603  0.9251
  928SOL    HW2 3684   0.127   1.195   4.237 -1.7282 -0.1501 -0.9007
  929SOL     OW 3685   5.681   4.809   5.416 -0.4409  0.5119  0.3254
  929SOL    HW1 3686   5.737   4.850   5.488  0.4223  0.4747 -0.3144
  929SOL    HW2 3687   5.601   4.764   5.457  0.7334 -0.6885  1.4008
  930SOL     OW 3688   1.371   1.124   4.721 -0.2475 -0.0621 -0.3173
  930SOL    HW1 3689   1.296   1.081   4.771  0.0927 -0.1139  0.1632
  930SOL    HW2 3690   1.342   1.213   4.687 -0.1581  0.4566  0.9155
  931SOL     OW 3691   6.719   2.755   2.228 -0.2161 -0.5704 -0.6656
  931SOL    HW1 3692   6.661   2.758   2.309 -1.0385 -1.8589 -1.1637
  931SOL    HW2 3693   6.795   2.818   2.239 -0.2475 -0.7933  1.1429
  932SOL     OW 3694   3.541   5.176   4.559 -0.9203  0.5424 -0.4066
  932SOL    HW1 3695   3.473   5.245   4.583  0.5705  1.1888  2.5148
  932SOL    HW2 3696   3.523   5.092   4.610  0.8958  1.0562  1.2290
  933SOL     OW 3697   0.076   5.521   2.119  0.0554 -0.0026  0.3440
  933SOL    HW1 3698   0.101   5.601   2.066  1.3827 -0.9509 -0.5148
  933SOL    HW2 3699   0.156   5.484   2.166 -0.5939 -0.6316  0.9993
  934SOL     OW 3700   6.203   1.345   6.853  0.3516 -0.3402  0.1031
  934SOL    HW1 3701   6.186   1.289   6.772  0.0135 -0.4058  0.2190
  934SOL    HW2 3702   6.223   1.439   6.825  0.3229 -0.3813 -0.0596
  935SOL     OW 3703   0.860   5.696   1.650 -0.2915  0.4534 -0.0420
  935SOL    HW1 3704   0.780   5.690   1.591  0.9830  0.2937 -1.8202
  935SOL    HW2 3705   0.871   5.610   1.700  0.8843 -1.0855 -2.7242
  936SOL     OW 3706   2.312   6.029   1.667 -0.3051  0.2061  0.0466
  936SOL    HW1 3707   2.263   5.972   1.601 -1.1327  1.0139 -0.0530
  936SOL    HW2 3708   2.274   6.014   1.758 -1.1896  1.2795 -0.1188
  937SOL     OW 3709   3.790   4.252   6.731 -0.2275  0.5856 -0.4109
  937SOL    HW1 3710   3.747   4.169   6.768 -1.9130  1.3179 -0.6220
  937SOL    HW2 3711   3.735   4.286   6.655 -1.3281  3.5461  1.5406
  938SOL     OW 3712   5.544   2.404   0.963 -0.2091 -0.4761  0.2706
  938SOL    HW1 3713   5.449   2.380   0.943 -0.3518 -0.8458  1.3303
  938SOL    HW2 3714   5.604   2.349   0.906 -0.6043 -1.3390  0.6710
  939SOL     OW 3715   1.141   2.560   5.990  0.0146  0.0245  0.4208
  939SOL    HW1 3716   1.124   2.466   5.960  0.6665 -0.0663  0.3210
  939SOL    HW2 3717   1.078   2.622   5.943 -0.2520 -0.3362  0.3015
  940SOL     OW 3718   5.689   3.619   3.899 -0.1736  0.4047  0.3678
  940SOL    HW1 3719   5.594   3.591   3.886 -0.8274  2.2601  0.8809
  940SOL    HW2 3720   5.692   3.706   3.949  1.7348  0.9653 -0.6160
  941SOL     OW 3721   4.875   3.383   2.711 -0.0684  0.1635 -0.2106
  941SOL    HW1 3722   4.895   3.299   2.661  2.4645  0.6024 -0.0642
  941SOL    HW2 3723   4.846   3.360   2.803 -1.6925 -0.5684 -0.8647
  942SOL     OW 3724   2.860   0.756   4.305  0.5129 -0.1185  0.2113
  942SOL    HW1 3725   2.830   0.791   4.393 -0.8734 -1.3316  0.2482
  942SOL    HW2 3726   2.955   0.783   4.289  0.3258  1.3620  1.3951
  943SOL     OW 3727   3.716   0.045   5.213  0.5279  0.0512  0.1626
  943SOL    HW1 3728   3.626   0.021   5.250 -0.2278 -1.4959 -2.3852
  943SOL    HW2 3729   3.716   0.142   5.186  0.1554  0.4377  1.4921
  944SOL     OW 3730   0.921   4.285   2.823 -0.1041  0.6467  0.3514
  944SOL    HW1 3731   0.934   4.305   2.726  0.5215 -0.6752  0.1351
  944SOL    HW2 3732   0.989   4.335   2.877  0.1169  0.6965  0.0263
  945SOL     OW 3733   1.817   4.096   3.813 -0.0999 -0.3701  0.1220
  945SOL    HW1 3734   1.721   4.119   3.798  0.5745  1.1726 -2.5319
  945SOL    HW2 3735   1.873   4.138   3.741  2.5653 -1.3571  1.4781
  946SOL     OW 3736   0.129   3.710   5.802 -0.2682  0.4236 -0.0395
  946SOL    HW1 3737   0.168   3.661   5.724  0.3884  0.3101  0.3567
  946SOL    HW2 3738   0.199   3.768   5.843 -0.9471  1.4569 -0.3010
  947SOL     OW 3739   6.406   6.988   6.695  0.4071 -0.1000  0.0018
  947SOL    HW1 3740   6.457   7.030   6.620 -0.6260  1.0891 -0.0591
  947SOL    HW2 3741   6.470   6.965   6.769  1.0189  1.6559  0.0642
  948SOL     OW 3742   0.011   3.721   3.847  0.4721 -0.0947 -0.8085
  948SOL    HW1 3743   0.091   3.663   3.866  0.6600  0.8596  1.6651
  948SOL    HW2 3744  -0.060   3.703   3.915  0.2059  1.9388 -0.4948
  949SOL     OW 3745   2.656   1.840   2.826  0.0671  0.1762  0.0326
  949SOL    HW1 3746   2.732   1.841   2.760  0.0463 -2.4806 -0.1604
  949SOL    HW2 3747   2.654   1.751   2.872 -1.3431  1.1592  1.9799
  950SOL     OW 3748   6.275   2.066   3.051  0.0261 -0.3374  0.4028
  950SOL    HW1 3749   6.190   2.042   3.096  0.5732 -3.1598  0.0730
  950SOL    HW2 3750   6.268   2.045   2.953  0.9065 -0.0366  0.2634
  951SOL     OW 3751   5.653   3.990   5.093 -0.4576  0.0276  0.4644
  951SOL    HW1 3752   5.661   4.056   5.168 -1.6994  0.0596  0.5894
  951SOL    HW2 3753   5.733   3.929   5.094 -0.0588  0.5414  1.2999
  952SOL     OW 3754   5.586   5.225   3.530 -0.1400  0.3634  0.3044
  952SOL    HW1 3755   5.502   5.266   3.495 -0.6019  0.3259  1.3342
  952SOL    HW2 3756   5.637   5.183   3.455 -0.5210  1.2926 -0.4952
  953SOL     OW 3757   0.711   2.663   5.204 -0.3001  0.0717  0.4146
  953SOL    HW1 3758   0.650   2.734   5.239  1.3220  0.9620  1.5190
  953SOL    HW2 3759   0.749   2.692   5.116 -1.3054 -0.4220 -0.2052
  954SOL     OW 3760   3.235   1.531   2.443 -0.4301 -0.7896 -0.3757
  954SOL    HW1 3761   3.164   1.496   2.382 -0.0796  0.0046 -1.2702
  954SOL    HW2 3762   3.309   1.572   2.389  0.2538 -0.7418  0.5644
  955SOL     OW 3763   5.480   0.311   2.808  0.1417 -0.6164 -0.1215
  955SOL    HW1 3764   5.463   0.223   2.762 -1.0665 -0.0924 -0.7299
  955SOL    HW2 3765   5.497   0.381   2.739 -1.2241  0.0913  0.2436
  956SOL     OW 3766   0.395   6.680   1.446 -0.3866 -0.0012 -0.0709
  956SOL    HW1 3767   0.410   6.601   1.386 -1.8246 -1.0840  0.9192
  956SOL    HW2 3768   0.460   6.677   1.522  0.2153  0.3401 -0.5646
  957SOL     OW 3769   0.511   4.868   1.461  0.1927 -0.8323 -0.1036
  957SOL    HW1 3770   0.552   4.926   1.532  1.2923 -1.2574 -0.3677
  957SOL    HW2 3771   0.452   4.800   1.504 -0.9168  0.2980  0.2263
  958SOL     OW 3772   4.136   6.860   3.204  0.1880 -0.6531 -0.0262
  958SOL    HW1 3773   4.210   6.848   3.269  0.8599  0.9223 -0.4483
  958SOL    HW2 3774   4.169   6.841   3.111  0.1620  0.2963 -0.2424
  959SOL     OW 3775   3.459   6.259   0.525  0.3442  0.1484  0.1356
  959SOL    HW1 3776   3.435   6.288   0.432 -0.8119  0.3805  0.4885
  959SOL    HW2 3777   3.533   6.316   0.560  1.3202 -0.4362 -0.9100
  960SOL     OW 3778   2.427   6.873   3.983  0.3901 -0.2153  0.6404
  960SOL    HW1 3779   2.520   6.887   4.018  1.0801 -2.2131 -0.1991
  960SOL    HW2 3780   2.432   6.855   3.884 -0.9360 -0.0062  0.5264
  961SOL     OW 3781   0.988   1.856   4.336 -0.1189 -0.1098 -0.0792
  961SOL    HW1 3782   0.943   1.779   4.382 -1.0383 -2.1438 -3.9584
  961SOL    HW2 3783   0.924   1.932   4.325 -1.6727 -1.6253 -2.4030
  962SOL     OW 3784   3.108   5.966   5.698 -0.6892  0.5530  1.0309
  962SOL    HW1 3785   3.123   5.873   5.666  0.4609  0.1754  2.5849
  962SOL    HW2 3786   3.107   5.968   5.798  1.5613  2.4943  1.1050
  963SOL     OW 3787   2.203   4.571   4.078  0.6996 -0.0958  0.1064
  963SOL    HW1 3788   2.158   4.483   4.098 -0.6418  0.9378  1.9161
  963SOL    HW2 3789   2.271   4.590   4.149  0.9663  0.3397 -0.2647
  964SOL     OW 3790   4.225   1.903   6.684  0.1719 -0.5010 -0.5053
  964SOL    HW1 3791   4.145   1.920   6.626 -0.3652 -2.0044 -0.2494
  964SOL    HW2 3792   4.204   1.830   6.748  1.6575 -0.6913 -0.2068
  965SOL     OW 3793   2.152   1.830   4.544  0.1224  0.2057 -0.1367
  965SOL    HW1 3794   2.132   1.859   4.450  0.4020 -1.9712 -0.9308
  965SOL    HW2 3795   2.114   1.739   4.559  1.5070 -0.1742  1.3247
  966SOL     OW 3796   1.931   6.338   0.201  0.7683 -0.1590 -0.5465
  966SOL    HW1 3797   1.870   6.405   0.243  1.2323  0.9275 -1.5281
  966SOL    HW2 3798   2.019   6.382   0.180  0.9907 -1.0023 -1.4727
  967SOL     OW 3799   5.379   3.849   1.281  0.1516  0.3936  0.5170
  967SOL    HW1 3800   5.409   3.826   1.373  1.4841  0.1791  0.0612
  967SOL    HW2 3801   5.283   3.877   1.282 -0.0473 -0.2844  1.8511
  968SOL     OW 3802   3.193   5.495   5.345 -0.0347  0.3293  0.4632
  968SOL    HW1 3803   3.251   5.434   5.291 -1.2193  1.7065 -2.5359
  968SOL    HW2 3804   3.230   5.588   5.341 -1.1109  0.7760  0.5345
  969SOL     OW 3805   1.975   6.486   1.989 -0.2096  0.4732 -0.1781
  969SOL    HW1 3806   1.892   6.433   1.968  0.0236  0.6977 -1.7999
  969SOL    HW2 3807   2.025   6.441   2.063 -0.5186 -1.0292 -0.8422
  970SOL     OW 3808   6.568   6.814   3.917 -0.1934  0.0076 -0.2720
  970SOL    HW1 3809   6.577   6.914   3.920 -1.2638  0.0982  1.1575
  970SOL    HW2 3810   6.656   6.773   3.939 -0.3292  0.7032  1.8334
  971SOL     OW 3811   1.184   6.943   6.655  0.2465  0.4098  0.6674
  971SOL    HW1 3812   1.086   6.963   6.654  0.2928  0.7956 -2.0625
  971SOL    HW2 3813   1.235   7.027   6.671  0.1707  0.5556  0.1558
  972SOL     OW 3814   6.048   6.570   0.623 -1.0909 -0.0696 -0.1761
  972SOL    HW1 3815   5.997   6.567   0.709 -1.0002  0.1146 -0.1153
  972SOL    HW2 3816   5.986   6.593   0.548 -1.0496  0.4074 -0.0648
  973SOL     OW 3817   1.642   3.657   6.310  0.0278  0.1986  0.1126
  973SOL    HW1 3818   1.599   3.725   6.369 -1.3171 -0.5465  0.0393
  973SOL    HW2 3819   1.576   3.626   6.242  0.9538 -0.3954 -0.5454
  974SOL     OW 3820   1.399   6.849   0.465  0.4584  0.4586  0.0217
  974SOL    HW1 3821   1.424   6.933   0.418 -1.3075  0.2562 -1.3703
  974SOL    HW2 3822   1.467   6.778   0.446  1.8893  1.4829  1.0973
  975SOL     OW 3823   2.230   0.646   6.012 -0.8579  0.2024  0.1685
  975SOL    HW1 3824   2.202   0.623   5.918  0.1305 -0.7521  0.0942
  975SOL    HW2 3825   2.183   0.586   6.076 -0.1782 -0.3676  0.1469
  976SOL     OW 3826   6.158   2.801   1.919  0.8241 -0.2971  0.4467
  976SOL    HW1 3827   6.197   2.825   2.007 -2.0193  0.6636  1.5821
  976SOL    HW2 3828   6.142   2.702   1.915  0.3170 -0.2545  1.3183
  977SOL     OW 3829   5.210   3.120   2.610  0.2516 -0.2485  0.4638
  977SOL    HW1 3830   5.239   3.026   2.630  0.4293  0.1495  2.1703
  977SOL    HW2 3831   5.288   3.171   2.574  0.3794 -0.5226  0.3488
  978SOL     OW 3832   4.879   1.236   2.240  0.1360 -0.0292  0.0481
  978SOL    HW1 3833   4.890   1.288   2.325  0.2479  0.5877 -0.3379
  978SOL    HW2 3834   4.793   1.186   2.243  0.2426 -0.1930  0.6163
  979SOL     OW 3835   3.193   6.931   5.893 -0.1188  0.0215 -0.0103
  979SOL    HW1 3836   3.104   6.904   5.857 -1.3160 -0.5746  3.0963
  979SOL    HW2 3837   3.221   7.018   5.851 -0.4755 -1.4085 -3.4970
  980SOL     OW 3838   4.276   3.284   6.747  0.0225 -1.1018 -0.2808
  980SOL    HW1 3839   4.217   3.228   6.689 -1.0726  0.1509 -0.4263
  980SOL    HW2 3840   4.234   3.373   6.762  1.0446 -0.8055  1.1177
  981SOL     OW 3841   3.191   5.284   3.712 -0.4977  0.6080  0.0108
  981SOL    HW1 3842   3.262   5.309   3.646 -0.3404 -0.7324 -0.3503
  981SOL    HW2 3843   3.227   5.291   3.805 -0.2513  1.0265 -0.1151
  982SOL     OW 3844   5.017   5.193   3.977  0.1304 -0.0219 -0.5578
  982SOL    HW1 3845   4.965   5.271   3.944  1.0604  0.8774  0.0318
  982SOL    HW2 3846   4.965   5.109   3.964 -0.5864  0.6079 -1.8883
  983SOL     OW 3847   4.921   6.980   1.849 -0.1859 -0.0964 -0.0541
  983SOL    HW1 3848   4.857   7.001   1.922  0.1186  0.8289 -0.0358
  983SOL    HW2 3849   5.013   7.011   1.876  0.0401 -0.2990 -0.5802
  984SOL     OW 3850   7.005   6.666   6.134 -0.9814 -0.4834  0.1274
  984SOL    HW1 3851   6.985   6.746   6.191 -1.4338 -1.6311  1.6652
  984SOL    HW2 3852   6.942   6.591   6.159  0.2300 -1.7186 -0.3961
  985SOL     OW 3853   2.158   2.790   0.282  0.2684  0.7017  0.4591
  985SOL    HW1 3854   2.152   2.889   0.297 -0.4982  0.5646  1.1397
  985SOL    HW2 3855   2.238   2.769   0.227  0.4633  1.7015  0.3504
  986SOL     OW 3856   6.672   3.748   4.567  0.7915 -0.7140 -0.0639
  986SOL    HW1 3857   6.696   3.712   4.477  0.6353  0.8932 -0.7733
  986SOL    HW2 3858   6.605   3.822   4.557  0.1079 -1.0837  1.4411
  987SOL     OW 3859   2.128   3.531   3.436 -0.1244 -0.0295 -0.0047
  987SOL    HW1 3860   2.189   3.483   3.499 -1.3580 -0.3248  1.0120
  987SOL    HW2 3861   2.042   3.480   3.427 -1.3918  1.8374  0.9187
  988SOL     OW 3862   1.914   2.356   2.705  0.2204  0.2811 -0.2343
  988SOL    HW1 3863   1.900   2.453   2.729 -3.7763 -0.2887  0.5125
  988SOL    HW2 3864   1.946   2.349   2.611  0.3163  2.3313 -0.4020
  989SOL     OW 3865   0.871   0.699   5.785  0.0609 -0.3160  0.3302
  989SOL    HW1 3866   0.884   0.678   5.882  1.2615 -1.1278  0.0179
  989SOL    HW2 3867   0.880   0.615   5.732  0.3903  0.2725 -0.5638
  990SOL     OW 3868   6.103   4.800   0.144 -0.5619  0.0471  0.3861
  990SOL    HW1 3869   6.098   4.722   0.082 -2.1807 -0.4907  1.1565
  990SOL    HW2 3870   6.024   4.859   0.131  0.0447  0.9445  0.6428
  991SOL     OW 3871   4.214   5.737   2.496  0.0402 -0.1946 -0.0229
  991SOL    HW1 3872   4.149   5.772   2.563  1.0117  1.1107  0.2692
  991SOL    HW2 3873   4.194   5.641   2.477 -2.5822  0.3975 -0.6914
  992SOL     OW 3874   2.442   1.408   2.682 -0.6423 -0.0542  0.0818
  992SOL    HW1 3875   2.398   1.489   2.644 -0.8556 -0.3079 -0.2206
  992SOL    HW2 3876   2.541   1.422   2.685 -0.6836  0.2350  0.0767
  993SOL     OW 3877   1.656   5.817   2.670  0.3177  0.5607  0.2975
  993SOL    HW1 3878   1.724   5.884   2.641  0.9797 -0.1135  0.2652
  993SOL    HW2 3879   1.699   5.749   2.729 -0.0616 -0.5004 -0.6094
  994SOL     OW 3880   5.763   5.073   6.278 -0.2771 -0.3338  0.3399
  994SOL    HW1 3881   5.849   5.031   6.249 -0.5212  0.2766 -1.4146
  994SOL    HW2 3882   5.781   5.148   6.341  0.3476 -1.2294  1.2561
  995SOL     OW 3883   6.083   4.635   6.946  1.0763  0.4668  0.4323
  995SOL    HW1 3884   6.034   4.555   6.912  2.1066  0.1510 -0.3570
  995SOL    HW2 3885   6.068   4.712   6.884  0.3789  0.7996  0.9982
  996SOL     OW 3886   0.076   4.546   6.614  0.3031 -0.5444 -0.0939
  996SOL    HW1 3887  -0.008   4.566   6.564 -0.2865 -0.6608  0.8289
  996SOL    HW2 3888   0.070   4.584   6.707  0.9282 -1.2632  0.2528
  997SOL     OW 3889   6.160   6.805   4.808  0.1275  0.3669  0.2280
  997SOL    HW1 3890   6.235   6.871   4.809 -0.7666  1.4415 -1.0955
  997SOL    HW2 3891   6.118   6.802   4.899  1.9052 -0.4926  1.0950
  998SOL     OW 3892   3.380   1.504   1.684  0.6961  0.5972 -0.2185
  998SOL    HW1 3893   3.365   1.419   1.736  2.8772  0.4010  0.2078
  998SOL    HW2 3894   3.401   1.481   1.589  0.0554  0.7453 -0.3975
  999SOL     OW 3895   1.361   4.915   3.555 -0.3839 -0.2054 -0.2107
  999SOL    HW1 3896   1.385   4.887   3.648 -2.0528 -0.3130  0.2323
  999SOL    HW2 3897   1.342   5.014   3.555  1.8587  0.2840 -0.9707
 1000SOL     OW 3898   6.641   1.863   4.548 -0.8282  0.0409 -0.6304
 1000SOL    HW1 3899   6.709   1.846   4.477 -1.0222  0.2255 -0.8601
 1000SOL    HW2 3900   6.659   1.952   4.590  0.0211 -0.5729  0.3835
 1001SOL     OW 3901   4.462   4.153   6.284 -0.1628  0.3090  0.5415
 1001SOL    HW1 3902   4.478   4.105   6.370 -1.1676 -1.0555 -0.0145
 1001SOL    HW2 3903   4.365   4.149   6.260  0.2579 -0.3397 -1.2258
 1002SOL     OW 3904   0.751   0.644   3.391 -0.5196  0.1974  0.5744
 1002SOL    HW1 3905   0.803   0.715   3.345  0.1792  1.0644  2.5702
 1002SOL    HW2 3906   0.771   0.646   3.489 -1.6754 -1.7486  0.9159
 1003SOL     OW 3907   4.533   5.872   4.218 -0.1526  0.7542 -0.1784
 1003SOL    HW1 3908   4.625   5.851   4.187 -0.2924  0.0895 -0.1526
 1003SOL    HW2 3909   4.467   5.846   4.146 -0.4411 -0.3032  0.4545
 1004SOL     OW 3910   6.251   1.758   3.256 -0.1811 -0.1084 -0.7727
 1004SOL    HW1 3911   6.327   1.775   3.318  0.1887 -1.2473 -0.8873
 1004SOL    HW2 3912   6.171   1.809   3.287 -0.8101 -2.6286  2.2680
 1005SOL     OW 3913   1.952   4.485   0.998 -0.3729  0.2079 -0.5730
 1005SOL    HW1 3914   1.991   4.432   0.923 -0.1314 -0.8852  0.3073
 1005SOL    HW2 3915   1.868   4.441   1.030  1.3802 -1.4081  2.1402
 1006SOL     OW 3916   2.002   4.028   4.507 -0.0760  0.1424 -0.3039
 1006SOL    HW1 3917   1.942   4.003   4.583  0.5577 -0.1073  0.1186
 1006SOL    HW2 3918   1.953   4.017   4.421 -0.3167 -1.0340 -0.0303
 1007SOL     OW 3919   6.028   0.399   2.651  0.3472 -0.1923  0.0386
 1007SOL    HW1 3920   6.011   0.357   2.562 -1.5090  0.9271 -0.1842
 1007SOL    HW2 3921   6.003   0.335   2.724  0.8132 -0.6960 -0.2335
 1008SOL     OW 3922   3.579   0.355   0.811 -0.4758  0.3863 -0.0377
 1008SOL    HW1 3923   3.503   0.372   0.872 -0.3398  1.2734 -0.0967
 1008SOL    HW2 3924   3.662   0.399   0.847  0.5412 -2.2510  1.0974
 1009SOL     OW 3925   0.616   0.014   5.506  0.3419  0.4634 -0.2527
 1009SOL    HW1 3926   0.577   0.104   5.527 -0.1042  0.3938 -0.7492
 1009SOL    HW2 3927   0.713   0.024   5.482 -0.0079  0.9974 -1.5556
 1010SOL     OW 3928   2.423   6.418   4.417  0.2008  0.4614 -0.2522
 1010SOL    HW1 3929   2.506   6.370   4.446  0.7064  1.9424  0.9383
 1010SOL    HW2 3930   2.426   6.512   4.452 -0.9969  1.2019 -2.0028
 1011SOL     OW 3931   0.017   1.557   0.022  0.2673  0.6531 -0.3888
 1011SOL    HW1 3932   0.058   1.579   0.110 -0.3276 -1.0098  0.3569
 1011SOL    HW2 3933   0.077   1.587  -0.052  2.0872 -0.3051  0.6250
 1012SOL     OW 3934   0.572   1.455   6.317  0.9503  0.2311  0.0422
 1012SOL    HW1 3935   0.602   1.442   6.412  0.2099  1.9437  0.5446
 1012SOL    HW2 3936   0.512   1.535   6.311  1.1228  0.2705 -1.9079
 1013SOL     OW 3937   0.776   3.298   5.957 -0.2615  0.0310  0.0652
 1013SOL    HW1 3938   0.696   3.238   5.949 -0.0770 -0.2099  0.0167
 1013SOL    HW2 3939   0.813   3.315   5.866  0.2749 -0.5844  0.1633
 1014SOL     OW 3940   2.452   6.356   3.136 -0.2031 -0.0041  0.0028
 1014SOL    HW1 3941   2.495   6.389   3.052 -1.4908  0.7692 -0.3739
 1014SOL    HW2 3942   2.384   6.286   3.114  0.3652 -0.7472  0.5363
 1015SOL     OW 3943   1.328   5.086   0.074  0.0806 -0.3585 -0.1270
 1015SOL    HW1 3944   1.256   5.152   0.054  0.7652  0.8863  1.2829
 1015SOL    HW2 3945   1.328   5.014   0.005 -1.5875  0.3630 -0.9342
 1016SOL     OW 3946   4.332   6.228   4.488  0.3361 -0.2685 -0.3282
 1016SOL    HW1 3947   4.377   6.307   4.528 -1.2447  0.5583 -0.1091
 1016SOL    HW2 3948   4.374   6.207   4.400 -0.3594  1.9837 -1.2803
 1017SOL     OW 3949   1.230   3.432   0.040 -0.2338  0.1313 -0.2608
 1017SOL    HW1 3950   1.234   3.519   0.087  2.4391  0.1320 -0.3104
 1017SOL    HW2 3951   1.233   3.447  -0.059  1.4944  0.0330 -0.2615
 1018SOL     OW 3952   3.328   5.302   3.934  0.1321 -0.7678 -0.5329
 1018SOL    HW1 3953   3.317   5.401   3.927  0.0901 -0.8177 -1.2703
 1018SOL    HW2 3954   3.425   5.279   3.933  0.4081 -0.5006  3.4659
 1019SOL     OW 3955   1.924   5.609   3.282 -0.0619 -0.5757  0.0039
 1019SOL    HW1 3956   1.914   5.510   3.275  0.2209 -0.6079  0.0289
 1019SOL    HW2 3957   1.871   5.653   3.210 -1.7026 -0.6584  1.1128
 1020SOL     OW 3958   0.147   1.047   3.326  0.1072  0.5713 -0.1820
 1020SOL    HW1 3959   0.109   1.134   3.296  0.3077  0.6478 -0.2169
 1020SOL    HW2 3960   0.239   1.061   3.362 -0.9464  0.8535  2.6593
 1021SOL     OW 3961   3.597   6.763   2.191 -0.0561  0.5438 -0.0008
 1021SOL    HW1 3962   3.636   6.828   2.256  1.1275  3.5654 -3.3617
 1021SOL    HW2 3963   3.504   6.790   2.168  0.2121  0.7153 -0.9378
 1022SOL     OW 3964   5.264   1.612   2.537 -0.0189 -0.7284 -0.2366
 1022SOL    HW1 3965   5.235   1.576   2.625  1.4204 -1.5644 -0.0603
 1022SOL    HW2 3966   5.361   1.638   2.542 -0.3286  0.6707 -1.1368
 1023SOL     OW 3967   6.078   5.206   0.062 -0.3259 -0.3790 -0.4055
 1023SOL    HW1 3968   6.113   5.151   0.138 -0.8636  0.3600  0.3864
 1023SOL    HW2 3969   6.003   5.264   0.094 -1.2767 -0.8266 -1.7415
 1024SOL     OW 3970   4.846   4.299   3.832  0.1635  0.0860  0.1202
 1024SOL    HW1 3971   4.855   4.202   3.809 -2.9042 -0.1338 -0.7076
 1024SOL    HW2 3972   4.929   4.348   3.806  1.1683 -2.0647 -0.9554
 1025SOL     OW 3973   2.274   6.236   2.713  0.3019 -0.0376  0.3126
 1025SOL    HW1 3974   2.286   6.140   2.739  1.4854  0.2981  1.1199
 1025SOL    HW2 3975   2.259   6.243   2.615 -1.1835 -1.1375  0.4210
 1026SOL     OW 3976   0.718   3.761   5.285 -0.7603 -0.4503 -0.1501
 1026SOL    HW1 3977   0.710   3.774   5.186  0.4749  0.3839 -0.1576
 1026SOL    HW2 3978   0.814   3.764   5.312 -0.9501 -2.1097  0.9074
 1027SOL     OW 3979   6.764   2.395   6.920  0.2118  0.3885 -0.3285
 1027SOL    HW1 3980   6.756   2.494   6.921  0.3061  0.4035  1.0197
 1027SOL    HW2 3981   6.754   2.360   7.013 -1.1899 -0.9860 -0.9530
 1028SOL     OW 3982   1.640   5.113   2.305  0.1257  0.0875 -0.1152
 1028SOL    HW1 3983   1.586   5.124   2.221 -1.4411 -0.2070  0.8164
 1028SOL    HW2 3984   1.705   5.188   2.312  0.5874 -0.1059 -1.7983
 1029SOL     OW 3985   5.225   4.307   5.243  0.1670  0.3680 -0.5269
 1029SOL    HW1 3986   5.294   4.301   5.171 -1.2567 -0.4969 -1.8937
 1029SOL    HW2 3987   5.253   4.252   5.321  1.2874  0.5378 -0.7914
 1030SOL     OW 3988   6.875   0.265   4.784 -0.7502  0.0578  0.2723
 1030SOL    HW1 3989   6.848   0.340   4.844 -0.6924 -0.9216  1.5508
 1030SOL    HW2 3990   6.829   0.181   4.812  2.2532 -1.3272  1.5042
 1031SOL     OW 3991   2.290   0.964   4.573 -0.1828 -0.7013  0.1381
 1031SOL    HW1 3992   2.355   0.889   4.559  1.1201  0.5045 -0.4118
 1031SOL    HW2 3993   2.271   1.008   4.485 -3.2169 -2.1569 -0.0859
 1032SOL     OW 3994   0.435   5.354   3.971  0.1717 -0.1249 -0.2064
 1032SOL    HW1 3995   0.402   5.377   4.063 -1.3036 -1.5709 -0.3281
 1032SOL    HW2 3996   0.404   5.423   3.906 -0.2437  0.0020  0.1201
 1033SOL     OW 3997   3.963   0.459   1.282 -0.1612  0.7895 -0.5197
 1033SOL    HW1 3998   3.970   0.490   1.377  0.1291 -0.3510 -0.1631
 1033SOL    HW2 3999   4.054   0.448   1.244 -0.2131 -0.9113 -0.2079
 1034SOL     OW 4000   6.700   4.434   4.299 -0.3062 -0.1341 -0.1211
 1034SOL    HW1 4001   6.694   4.533   4.289 -0.4481 -0.0842  0.4624
 1034SOL    HW2 4002   6.639   4.391   4.232 -2.1378  0.2333  1.2350
 1035SOL     OW 4003   2.230   2.835   6.321 -0.7324  0.0972  0.4166
 1035SOL    HW1 4004   2.139   2.793   6.324 -1.4614  1.5726 -0.0052
 1035SOL    HW2 4005   2.276   2.821   6.409 -1.8605  0.3453  1.0677
 1036SOL     OW 4006   2.962   0.425   5.912 -0.3081 -0.6741 -0.0632
 1036SOL    HW1 4007   2.935   0.517   5.881 -0.3997 -0.3017  1.0685
 1036SOL    HW2 4008   3.061   0.417   5.910 -0.2819 -0.4297  0.1338
 1037SOL     OW 4009   0.157   1.885   6.164 -0.5925  0.3790 -0.5323
 1037SOL    HW1 4010   0.236   1.933   6.201 -0.1735 -1.3080  0.8954
 1037SOL    HW2 4011   0.075   1.941   6.176 -0.0087  1.0568  0.3582
 1038SOL     OW 4012   2.542   5.608   2.705 -0.1813  0.4531  0.0957
 1038SOL    HW1 4013   2.570   5.667   2.780 -0.5938 -0.1608  0.7479
 1038SOL    HW2 4014   2.615   5.605   2.636 -0.1659  1.7190  0.0318
 1039SOL     OW 4015   4.136   3.696   2.027  0.0411  0.3784 -0.6584
 1039SOL    HW1 4016   4.212   3.738   2.076 -0.0240 -0.5963  0.3378
 1039SOL    HW2 4017   4.144   3.596   2.034 -2.7697  0.1932  1.8787
 1040SOL     OW 4018   0.503   4.701   4.816 -0.6548  0.0615  0.2021
 1040SOL    HW1 4019   0.440   4.746   4.752  0.2624  0.4152 -0.4783
 1040SOL    HW2 4020   0.491   4.602   4.810 -1.2155  0.1278  0.1575
 1041SOL     OW 4021   4.979   3.335   1.520 -0.0599  0.3558 -0.2156
 1041SOL    HW1 4022   5.062   3.316   1.468 -1.4597 -2.3357 -1.7093
 1041SOL    HW2 4023   4.980   3.285   1.606  0.2872  1.1558  0.2540
 1042SOL     OW 4024   3.076   5.157   3.300 -0.4768  0.0391 -0.1727
 1042SOL    HW1 4025   3.070   5.255   3.319 -0.6739  0.0106 -0.0897
 1042SOL    HW2 4026   3.046   5.140   3.206  1.4307  0.3026 -0.8763
 1043SOL     OW 4027   6.234   4.636   3.491  0.5846  0.2473 -0.4505
 1043SOL    HW1 4028   6.331   4.618   3.510  0.5584 -0.0616 -0.6061
 1043SOL    HW2 4029   6.182   4.551   3.500  0.5905  0.0505 -1.9702
 1044SOL     OW 4030   6.807   1.595   6.534 -0.5626 -0.0213 -0.1519
 1044SOL    HW1 4031   6.837   1.514   6.585 -0.7906 -0.9122 -1.3817
 1044SOL    HW2 4032   6.707   1.594   6.525 -0.4261 -0.7293 -1.9298
 1045SOL     OW 4033   6.462   5.920   6.063  0.2853 -0.2950  0.4156
 1045SOL    HW1 4034   6.474   5.880   6.154  0.8795  0.9101  0.8993
 1045SOL    HW2 4035   6.457   6.020   6.071 -2.1415 -0.2635 -0.6404
 1046SOL     OW 4036   5.719   5.984   6.886  0.4829 -0.3285 -0.1111
 1046SOL    HW1 4037   5.671   6.018   6.805 -0.4344  0.4382  0.7297
 1046SOL    HW2 4038   5.783   6.054   6.918  1.2212 -0.8321 -0.4563
 1047SOL     OW 4039   5.901   3.324   0.483 -0.5332 -0.4247  0.4007
 1047SOL    HW1 4040   5.855   3.353   0.399 -0.0508 -1.3295 -0.1870
 1047SOL    HW2 4041   5.939   3.233   0.470  2.1929  0.6143  0.5768
 1048SOL     OW 4042   6.127   0.452   6.174 -0.2342  0.2204 -0.1747
 1048SOL    HW1 4043   6.091   0.396   6.249  1.7879 -0.7245  0.1452
 1048SOL    HW2 4044   6.054   0.470   6.108 -1.7431 -0.0019  1.3642
 1049SOL     OW 4045   2.763   4.904   6.665  0.1268  0.2413  0.6447
 1049SOL    HW1 4046   2.671   4.937   6.641  0.1757  0.6853  1.0531
 1049SOL    HW2 4047   2.830   4.942   6.602  0.1742  0.8933  1.0700
 1050SOL     OW 4048   4.759   5.194   3.792  0.9594 -0.1725  0.4633
 1050SOL    HW1 4049   4.781   5.292   3.787  1.0611 -0.1662  0.9289
 1050SOL    HW2 4050   4.712   5.166   3.709  1.6869  0.0820 -0.0391
 1051SOL     OW 4051   2.186   4.737   0.420 -0.2629  0.4154 -0.1438
 1051SOL    HW1 4052   2.247   4.658   0.423  2.1054  2.0842 -1.2193
 1051SOL    HW2 4053   2.122   4.734   0.497  0.3089 -2.0736  0.3001
 1052SOL     OW 4054   5.127   1.609   4.893  0.5585  0.1321 -0.4342
 1052SOL    HW1 4055   5.156   1.516   4.914  0.6076  0.4996  1.3341
 1052SOL    HW2 4056   5.028   1.611   4.879  0.6783 -0.3152 -1.4151
 1053SOL     OW 4057   0.803   3.789   2.115 -0.3560 -0.2942 -0.8449
 1053SOL    HW1 4058   0.730   3.801   2.049 -0.1608  2.8890 -0.5925
 1053SOL    HW2 4059   0.768   3.740   2.195 -1.7610 -0.2468 -1.4034
 1054SOL     OW 4060   6.645   2.732   1.448  0.4896 -0.3602  0.0493
 1054SOL    HW1 4061   6.590   2.718   1.530 -0.1968 -0.2078 -0.3822
 1054SOL    HW2 4062   6.588   2.724   1.367  0.9389  0.5892 -0.3765
 1055SOL     OW 4063   5.292   5.524   0.149  0.1811  0.3128 -0.0909
 1055SOL    HW1 4064   5.196   5.525   0.121 -0.0954 -2.1905  0.5115
 1055SOL    HW2 4065   5.344   5.465   0.088  0.5991 -1.1021  1.5634
 1056SOL     OW 4066   5.945   0.127   5.296 -0.0117  0.1328  0.1143
 1056SOL    HW1 4067   5.871   0.059   5.293  0.5805 -0.6939  2.0656
 1056SOL    HW2 4068   6.012   0.099   5.365  0.7887  2.1982  0.2440
 1057SOL     OW 4069   4.217   3.120   5.372 -0.5836  0.8954  0.1905
 1057SOL    HW1 4070   4.281   3.043   5.381 -1.5428  0.2786  2.5252
 1057SOL    HW2 4071   4.160   3.106   5.291 -2.3385 -2.2342  1.7584
 1058SOL     OW 4072   3.987   6.328   6.509  0.6983  0.5480 -0.3756
 1058SOL    HW1 4073   3.988   6.375   6.598  0.5882 -0.7321  0.3159
 1058SOL    HW2 4074   4.042   6.245   6.514 -2.3815 -1.6573 -0.2864
 1059SOL     OW 4075   2.861   2.149   5.248  0.7261  0.5993 -0.4535
 1059SOL    HW1 4076   2.824   2.057   5.239  0.0327  0.3523  3.1939
 1059SOL    HW2 4077   2.841   2.202   5.165 -1.3161 -1.6956 -1.5394
 1060SOL     OW 4078   3.287   6.421   1.183 -0.2113  0.1536  0.0324
 1060SOL    HW1 4079   3.217   6.397   1.116  2.5210 -1.8933 -2.3763
 1060SOL    HW2 4080   3.294   6.521   1.190 -1.3812  0.4217 -1.8803
 1061SOL     OW 4081   6.344   3.712   0.839  0.7625 -0.9081  0.3763
 1061SOL    HW1 4082   6.425   3.654   0.844  0.1452 -1.7807  0.4880
 1061SOL    HW2 4083   6.295   3.709   0.926  1.7975  1.4304  1.1206
 1062SOL     OW 4084   3.852   3.598   6.965  0.5391 -0.1251  0.0198
 1062SOL    HW1 4085   3.823   3.598   6.869  0.9640 -1.1046 -0.1192
 1062SOL    HW2 4086   3.952   3.603   6.970  0.5204 -0.1059  0.4151
 1063SOL     OW 4087   3.394   5.298   5.249  0.2734  0.0957  0.5266
 1063SOL    HW1 4088   3.485   5.262   5.231  0.0742 -0.0264 -0.2963
 1063SOL    HW2 4089   3.345   5.236   5.310  0.7439  0.1755  0.9903
 1064SOL     OW 4090   5.839   4.994   0.791 -0.0910  0.1357 -0.2371
 1064SOL    HW1 4091   5.915   4.953   0.841  0.4297  0.4464 -0.7639
 1064SOL    HW2 4092   5.754   4.979   0.842  0.4734  0.8014  0.9611
 1065SOL     OW 4093   4.333   4.624   4.100  0.2994 -0.0971  0.1435
 1065SOL    HW1 4094   4.364   4.575   4.019  1.4727  2.6749 -1.1917
 1065SOL    HW2 4095   4.269   4.696   4.074 -1.0358 -0.5331  1.9881
 1066SOL     OW 4096   3.730   5.811   3.014 -0.2021  0.4837  0.6785
 1066SOL    HW1 4097   3.638   5.841   3.037  0.4441  2.3027  1.0151
 1066SOL    HW2 4098   3.782   5.793   3.098 -0.2089 -0.4861  0.4911
 1067SOL     OW 4099   6.999   1.207   5.038 -0.2910  0.1410  0.4554
 1067SOL    HW1 4100   6.949   1.156   5.108 -0.6046 -0.6120 -0.2986
 1067SOL    HW2 4101   6.935   1.241   4.969  0.2184 -0.8476 -0.5345
 1068SOL     OW 4102   1.512   2.821   4.364  0.3847  0.2210  0.6531
 1068SOL    HW1 4103   1.437   2.774   4.409 -0.4834 -0.5081 -1.4362
 1068SOL    HW2 4104   1.599   2.791   4.403 -0.3373  0.9338  2.9756
 1069SOL     OW 4105   5.517   6.649   4.246 -0.5851 -0.0812 -0.4588
 1069SOL    HW1 4106   5.601   6.647   4.299  0.7788 -3.5349 -2.4096
 1069SOL    HW2 4107   5.534   6.692   4.158 -0.5797 -1.4880 -1.1690
 1070SOL     OW 4108   5.394   6.400   1.788  0.4188 -0.0736 -0.3138
 1070SOL    HW1 4109   5.418   6.432   1.696 -0.7096 -1.2781 -1.0722
 1070SOL    HW2 4110   5.451   6.321   1.812  0.3529 -0.0855 -0.1955
 1071SOL     OW 4111   1.025   2.837   4.221 -0.1843  0.2237 -0.0728
 1071SOL    HW1 4112   1.092   2.884   4.163  0.4285  1.2723  1.4237
 1071SOL    HW2 4113   0.981   2.764   4.169  2.2304 -0.6126 -1.0943
 1072SOL     OW 4114   1.747   4.276   5.038 -0.0187 -0.2366  0.6504
 1072SOL    HW1 4115   1.712   4.336   4.967  3.5891 -1.0161 -2.0952
 1072SOL    HW2 4116   1.814   4.326   5.094 -0.9420 -0.3263  1.8643
 1073SOL     OW 4117   0.641   3.103   1.127  0.1936 -0.1618 -0.3838
 1073SOL    HW1 4118   0.708   3.116   1.200  0.1098 -1.3300 -0.0698
 1073SOL    HW2 4119   0.665   3.161   1.049  1.1974 -0.0670 -0.0257
 1074SOL     OW 4120   4.083   0.702   6.081  0.1690  0.3665 -0.1966
 1074SOL    HW1 4121   4.089   0.790   6.034  2.1011  0.0664 -0.6161
 1074SOL    HW2 4122   4.125   0.631   6.024  1.6615 -0.1926  1.5229
 1075SOL     OW 4123   2.993   0.656   7.011  0.0310 -0.4749 -0.0711
 1075SOL    HW1 4124   3.056   0.580   7.000  1.0778  0.3945 -0.1852
 1075SOL    HW2 4125   3.028   0.719   7.080 -0.5339  0.1957 -0.3803
 1076SOL     OW 4126   5.403   3.183   2.969  0.1999  0.2633 -0.1432
 1076SOL    HW1 4127   5.443   3.094   2.993  1.2726  0.4265 -1.1716
 1076SOL    HW2 4128   5.477   3.247   2.948 -0.5577  1.5358  1.0103
 1077SOL     OW 4129   1.919   4.007   6.096 -0.2246  0.1277 -0.1885
 1077SOL    HW1 4130   1.879   4.089   6.056 -0.5759  0.6120  1.1034
 1077SOL    HW2 4131   1.972   3.958   6.026 -2.9630 -0.5326 -1.9691
 1078SOL     OW 4132   1.477   3.515   4.614  0.0971 -0.1699 -0.0363
 1078SOL    HW1 4133   1.402   3.451   4.632 -0.4235  0.1395 -1.0088
 1078SOL    HW2 4134   1.446   3.609   4.630  0.5473 -0.0906  0.3895
 1079SOL     OW 4135   4.205   5.321   3.889 -0.5624  0.4807  0.4819
 1079SOL    HW1 4136   4.138   5.262   3.933  0.2245 -0.7431  0.0906
 1079SOL    HW2 4137   4.173   5.416   3.891 -2.0688 -0.0095  0.7157
 1080SOL     OW 4138   4.598   2.657   3.408 -0.7259 -0.1615  0.3653
 1080SOL    HW1 4139   4.569   2.611   3.492 -0.2533 -1.6883 -0.2759
 1080SOL    HW2 4140   4.622   2.752   3.429  1.3514 -1.0404  2.3712
 1081SOL     OW 4141   6.828   5.515   5.816  0.2157  0.4073  0.1375
 1081SOL    HW1 4142   6.907   5.484   5.869  1.4912  2.5457 -0.3893
 1081SOL    HW2 4143   6.799   5.606   5.848 -1.4721  0.0625 -0.2846
 1082SOL     OW 4144   4.774   2.936   5.403  0.2860 -0.5986 -0.6173
 1082SOL    HW1 4145   4.730   3.011   5.354 -1.2922  0.6012  2.3479
 1082SOL    HW2 4146   4.757   2.850   5.356 -0.1609  0.5749 -2.6991
 1083SOL     OW 4147   4.724   5.185   1.557 -0.8738  0.2798  0.1219
 1083SOL    HW1 4148   4.769   5.224   1.476 -0.0506 -0.5454  0.1742
 1083SOL    HW2 4149   4.693   5.092   1.536 -0.4185 -0.0363  0.8345
 1084SOL     OW 4150   2.506   6.553   5.888 -0.0660 -0.2387  0.2570
 1084SOL    HW1 4151   2.502   6.453   5.875 -0.7573 -0.0893 -0.8479
 1084SOL    HW2 4152   2.413   6.587   5.904  0.1192  0.2670  0.2517
 1085SOL     OW 4153   1.145   1.004   4.846 -1.2184 -0.9406  0.3821
 1085SOL    HW1 4154   1.176   0.913   4.819  1.4492  0.3584 -1.3479
 1085SOL    HW2 4155   1.138   1.009   4.945 -0.6648 -2.8090  0.5544
 1086SOL     OW 4156   6.628   3.784   1.281 -0.3606  0.1908 -0.4190
 1086SOL    HW1 4157   6.598   3.839   1.360 -1.3813  0.3572 -0.9009
 1086SOL    HW2 4158   6.615   3.837   1.197 -0.2637 -0.3624 -0.7862
 1087SOL     OW 4159   3.496   5.714   2.292  0.1552  0.8820 -0.2031
 1087SOL    HW1 4160   3.464   5.737   2.200  1.8467  0.6603 -0.8738
 1087SOL    HW2 4161   3.596   5.711   2.293  0.1455  0.1543  1.4748
 1088SOL     OW 4162   0.253   4.173   4.790 -0.0147 -0.4838  0.2122
 1088SOL    HW1 4163   0.247   4.112   4.712 -1.9993 -1.8020  1.3105
 1088SOL    HW2 4164   0.184   4.246   4.781  1.0243  0.4747 -0.1503
 1089SOL     OW 4165   4.865   5.222   5.024  0.2523 -0.1453 -0.3585
 1089SOL    HW1 4166   4.938   5.157   5.045  1.2329  1.2171  0.6296
 1089SOL    HW2 4167   4.888   5.274   4.942 -0.1397 -0.4477 -0.6688
 1090SOL     OW 4168   1.832   4.162   0.876  0.0257  0.6016 -0.1697
 1090SOL    HW1 4169   1.755   4.167   0.812 -1.1049  1.9211  1.2134
 1090SOL    HW2 4170   1.912   4.205   0.836 -0.7827  1.7754 -0.5570
 1091SOL     OW 4171   3.321   0.748   2.340  0.0664  0.2818 -0.0944
 1091SOL    HW1 4172   3.412   0.785   2.358  1.4053 -2.2071 -1.2755
 1091SOL    HW2 4173   3.329   0.664   2.287 -2.9723  0.1284 -0.4853
 1092SOL     OW 4174   4.012   2.132   3.769  0.2509  0.0847 -0.1842
 1092SOL    HW1 4175   4.013   2.060   3.700 -1.7032 -0.8461  0.6866
 1092SOL    HW2 4176   4.067   2.209   3.737 -0.1158 -0.5411 -2.5205
 1093SOL     OW 4177   0.027   0.848   3.173 -0.3027 -0.3057 -0.0104
 1093SOL    HW1 4178   0.028   0.760   3.219 -0.8995 -0.4534 -0.2652
 1093SOL    HW2 4179   0.064   0.918   3.234 -0.2753 -0.6499  0.3702
 1094SOL     OW 4180   5.748   2.201   0.242  0.0227 -0.3422 -0.0815
 1094SOL    HW1 4181   5.736   2.243   0.332  1.6618 -1.2750  0.6393
 1094SOL    HW2 4182   5.803   2.261   0.184  0.3535 -0.4398  0.1259
 1095SOL     OW 4183   5.630   2.100   1.538 -0.1244  0.0313  0.7395
 1095SOL    HW1 4184   5.572   2.037   1.589 -0.1862 -0.4262  0.1200
 1095SOL    HW2 4185   5.591   2.114   1.447  0.6046 -0.0862  0.4026
 1096SOL     OW 4186   3.347   3.810   6.570 -0.0785 -0.4676 -0.0633
 1096SOL    HW1 4187   3.412   3.788   6.642 -0.8050  0.4958  0.9170
 1096SOL    HW2 4188   3.257   3.773   6.594 -0.3949  0.1250 -0.3142
 1097SOL     OW 4189   2.045   6.632   1.423 -0.7897 -0.0383 -0.0604
 1097SOL    HW1 4190   1.969   6.620   1.487 -1.1787  0.4269 -0.4296
 1097SOL    HW2 4191   2.108   6.555   1.433 -0.4020  0.4315  1.4682
 1098SOL     OW 4192   6.181   0.565   4.192  0.2226 -0.4961 -0.5263
 1098SOL    HW1 4193   6.178   0.495   4.264 -0.8225  0.2055  0.1388
 1098SOL    HW2 4194   6.090   0.577   4.152 -0.5999  2.9284  1.8621
 1099SOL     OW 4195   2.053   2.080   6.412 -0.2756  0.0415  0.0727
 1099SOL    HW1 4196   2.003   2.166   6.416  0.3514  0.4676 -0.9654
 1099SOL    HW2 4197   2.134   2.085   6.469 -0.5754 -0.1036  0.5220
 1100SOL     OW 4198   3.251   1.381   4.355  0.5643 -0.4693 -0.0653
 1100SOL    HW1 4199   3.188   1.395   4.279 -0.1121 -1.3866  0.3084
 1100SOL    HW2 4200   3.262   1.466   4.405  2.4661  0.6917 -2.2280
 1101SOL     OW 4201   4.617   6.829   4.885  0.4161  0.2134 -0.1967
 1101SOL    HW1 4202   4.629   6.927   4.902  0.9624  0.1939 -0.4437
 1101SOL    HW2 4203   4.600   6.814   4.788 -1.9237  0.2545  0.1401
 1102SOL     OW 4204   5.808   2.455   2.063 -0.4306  0.4646 -0.4490
 1102SOL    HW1 4205   5.810   2.388   2.137  1.6152 -0.0213 -0.8932
 1102SOL    HW2 4206   5.758   2.417   1.985 -1.5482  0.5127  0.2220
 1103SOL     OW 4207   0.302   3.429   0.919 -0.1840 -0.1692 -0.2832
 1103SOL    HW1 4208   0.230   3.498   0.930 -0.6143 -0.4360 -1.3655
 1103SOL    HW2 4209   0.376   3.449   0.983 -0.6508  0.8448 -0.0336
 1104SOL     OW 4210   4.925   3.658   2.687 -0.0284  0.5690 -0.3972
 1104SOL    HW1 4211   4.898   3.564   2.703 -0.4198  0.7834  0.2468
 1104SOL    HW2 4212   4.957   3.669   2.593  0.5728 -0.3274 -0.3020
 1105SOL     OW 4213   2.847   0.848   3.780  0.3184 -0.1329  0.3630
 1105SOL    HW1 4214   2.795   0.799   3.850 -1.3764  0.5650 -0.3637
 1105SOL    HW2 4215   2.942   0.816   3.781  0.0783 -0.8943  2.2360
 1106SOL     OW 4216   4.294   1.198   2.761 -0.1083 -0.0037 -0.6561
 1106SOL    HW1 4217   4.221   1.130   2.765 -0.7118  0.6157 -1.0071
 1106SOL    HW2 4218   4.284   1.263   2.836  0.1052  0.0539 -0.6763
 1107SOL     OW 4219   5.478   4.915   6.094 -0.3073 -0.2008  0.2871
 1107SOL    HW1 4220   5.532   4.881   6.170 -1.5918 -0.4960  1.1035
 1107SOL    HW2 4221   5.472   5.015   6.098 -0.1801 -0.2009  0.4477
 1108SOL     OW 4222   5.967   0.753   4.656  0.3695 -0.2958  0.0100
 1108SOL    HW1 4223   6.043   0.716   4.709  0.5486  0.7686  0.5171
 1108SOL    HW2 4224   5.897   0.789   4.718 -1.0629 -2.1683 -0.4092
 1109SOL     OW 4225   1.850   4.218   5.895  0.0848 -0.0551  0.3809
 1109SOL    HW1 4226   1.792   4.189   5.819  0.3754  2.0699 -0.7171
 1109SOL    HW2 4227   1.850   4.318   5.901  0.8184 -0.1332  2.6162
 1110SOL     OW 4228   4.547   0.074   3.505  0.2463 -0.0411 -0.0276
 1110SOL    HW1 4229   4.647   0.070   3.500  0.2114 -0.7539 -0.1812
 1110SOL    HW2 4230   4.519   0.072   3.601  0.4995  3.7167  0.2800
 1111SOL     OW 4231   2.122   2.392   0.559  0.3348  0.6168 -0.0460
 1111SOL    HW1 4232   2.137   2.375   0.462 -1.6900  1.0701 -0.4869
 1111SOL    HW2 4233   2.140   2.309   0.611  4.5172  1.1401 -0.3159
 1112SOL     OW 4234   4.862   2.290   0.756 -0.0169 -0.4795  0.7491
 1112SOL    HW1 4235   4.805   2.237   0.694  0.4191  1.1440 -1.1194
 1112SOL    HW2 4236   4.837   2.387   0.751  2.3240  0.1884  0.4524
 1113SOL     OW 4237   2.357   5.680   3.071  0.2161 -0.1239  0.0600
 1113SOL    HW1 4238   2.300   5.617   3.019  0.5724 -0.1607 -0.3010
 1113SOL    HW2 4239   2.408   5.630   3.141  0.5204 -0.2487 -0.2452
 1114SOL     OW 4240   5.291   2.896   1.956  0.1237 -0.8135 -0.3662
 1114SOL    HW1 4241   5.292   2.917   2.054  0.5739 -0.2193 -0.4941
 1114SOL    HW2 4242   5.385   2.883   1.924  0.2328  1.8249 -1.3089
 1115SOL     OW 4243   1.815   4.606   1.463 -0.2943 -0.0798 -0.2670
 1115SOL    HW1 4244   1.819   4.507   1.448 -2.2758 -0.6072  2.0834
 1115SOL    HW2 4245   1.846   4.627   1.556 -2.9317  1.0692  0.4458
 1116SOL     OW 4246   2.768   4.724   1.715  0.3638  0.7961 -0.3100
 1116SOL    HW1 4247   2.782   4.661   1.639  0.3837  1.5196 -0.9183
 1116SOL    HW2 4248   2.790   4.678   1.801  0.5201  0.0260 -0.7521
 1117SOL     OW 4249   6.574   6.812   2.464 -0.0298 -0.2478 -0.2435
 1117SOL    HW1 4250   6.567   6.819   2.365 -0.2814  3.0958 -0.0774
 1117SOL    HW2 4251   6.648   6.749   2.488 -0.2815 -1.4984 -2.4930
 1118SOL     OW 4252   6.764   5.889   1.539 -0.3201 -0.1235  0.3237
 1118SOL    HW1 4253   6.734   5.944   1.461  0.6593  0.0048  0.0161
 1118SOL    HW2 4254   6.721   5.799   1.535 -1.6627  0.4779  0.6367
 1119SOL     OW 4255   4.505   6.727   0.024 -0.3222  0.0516 -0.5469
 1119SOL    HW1 4256   4.517   6.789  -0.054  0.4622  1.1573  0.4064
 1119SOL    HW2 4257   4.577   6.658   0.022  1.9658  2.2096  1.0686
 1120SOL     OW 4258   3.007   3.454   2.583 -0.2899  0.1372  0.4437
 1120SOL    HW1 4259   3.083   3.391   2.600  1.6339  1.8929 -1.0213
 1120SOL    HW2 4260   2.980   3.448   2.487  0.7605  2.3022 -0.0420
 1121SOL     OW 4261   5.062   0.710   4.304 -0.5225 -0.4915  0.1342
 1121SOL    HW1 4262   5.009   0.639   4.350  1.0882 -0.5467  2.0829
 1121SOL    HW2 4263   5.159   0.691   4.315 -0.0718  1.1949 -0.6396
 1122SOL     OW 4264   5.701   5.756   1.592 -0.3351 -0.2359  0.1738
 1122SOL    HW1 4265   5.654   5.767   1.504  1.2624  0.3053 -0.6537
 1122SOL    HW2 4266   5.689   5.839   1.646  1.3521  0.7754 -0.9127
 1123SOL     OW 4267   4.905   3.384   0.295 -0.6119 -0.5293  0.1155
 1123SOL    HW1 4268   4.837   3.426   0.235  0.4335  0.3635 -0.4708
 1123SOL    HW2 4269   4.947   3.454   0.353 -1.2270 -1.2937  1.5484
 1124SOL     OW 4270   2.927   3.506   6.958  0.1690 -0.3341  0.2716
 1124SOL    HW1 4271   2.847   3.527   7.014 -0.3301 -1.0061 -0.1764
 1124SOL    HW2 4272   2.991   3.583   6.962 -0.6338  0.3457  0.3788
 1125SOL     OW 4273   2.714   1.454   6.168  0.2991 -0.3931  0.2812
 1125SOL    HW1 4274   2.790   1.445   6.232 -0.3143  0.1748  1.0922
 1125SOL    HW2 4275   2.735   1.525   6.100 -0.3253  1.2071  1.7068
 1126SOL     OW 4276   3.906   6.175   2.498 -0.6348 -0.3616 -0.0931
 1126SOL    HW1 4277   3.939   6.269   2.508  0.0783 -0.7306  1.3728
 1126SOL    HW2 4278   3.806   6.175   2.493 -0.6198  0.5069 -0.8653
 1127SOL     OW 4279   2.697   5.305   6.800 -0.1411 -0.2323 -0.3466
 1127SOL    HW1 4280   2.626   5.236   6.788 -1.5885  1.1216  0.1383
 1127SOL    HW2 4281   2.655   5.393   6.825  1.8199  0.0894  2.2577
 1128SOL     OW 4282   2.458   4.780   6.015 -0.2967  0.7403 -0.1639
 1128SOL    HW1 4283   2.438   4.716   6.089 -0.4115 -1.3492 -1.8893
 1128SOL    HW2 4284   2.556   4.801   6.014 -0.3556  1.1327  0.7899
 1129SOL     OW 4285   7.017   0.098   6.812 -0.0641 -0.3753  0.1840
 1129SOL    HW1 4286   7.095   0.035   6.809 -0.2914 -0.6113 -1.3442
 1129SOL    HW2 4287   6.932   0.045   6.810 -0.2716 -0.0501 -2.3244
 1130SOL     OW 4288   1.377   6.165   1.775  0.2093 -0.0402 -0.7344
 1130SOL    HW1 4289   1.370   6.259   1.741 -1.6526  0.1755  0.1441
 1130SOL    HW2 4290   1.309   6.150   1.846  2.6018 -1.0900  1.4955
 1131SOL     OW 4291   5.438   6.392   4.217  0.3805 -0.0466  0.5173
 1131SOL    HW1 4292   5.397   6.348   4.297 -0.7754 -0.2896 -0.1870
 1131SOL    HW2 4293   5.472   6.483   4.242 -1.8771  0.7578  0.8434
 1132SOL     OW 4294   1.475   0.818   0.557 -1.3426 -0.0461 -0.2712
 1132SOL    HW1 4295   1.376   0.827   0.566 -1.2025  2.9569 -0.7883
 1132SOL    HW2 4296   1.511   0.895   0.505  1.4545 -0.3716  1.0115
 1133SOL     OW 4297   2.971   3.873   3.276 -0.3836 -0.2833 -0.3723
 1133SOL    HW1 4298   2.972   3.853   3.374 -3.9673 -0.8599 -0.2961
 1133SOL    HW2 4299   2.921   3.959   3.260  1.2147  0.4655 -1.6761
 1134SOL     OW 4300   6.344   3.188   4.652 -0.4209  0.2106  0.0974
 1134SOL    HW1 4301   6.424   3.144   4.612 -0.2468 -0.3332  1.0065
 1134SOL    HW2 4302   6.367   3.282   4.677 -0.5773  0.5988 -1.1895
 1135SOL     OW 4303   1.469   4.820   6.974  0.1185 -0.7415 -0.0520
 1135SOL    HW1 4304   1.492   4.789   6.881  2.2502  1.9811 -0.5635
 1135SOL    HW2 4305   1.546   4.803   7.035 -0.5206 -0.7563  0.7709
 1136SOL     OW 4306   6.087   6.479   5.997 -0.0787 -0.1676  0.0844
 1136SOL    HW1 4307   6.064   6.412   5.926  1.6645 -0.9891  0.2540
 1136SOL    HW2 4308   6.068   6.440   6.087 -3.1907  1.2075  0.1750
 1137SOL     OW 4309   0.254   4.827   4.711  0.4546  0.0867 -0.0354
 1137SOL    HW1 4310   0.201   4.909   4.731 -0.8298 -1.0144  1.2367
 1137SOL    HW2 4311   0.247   4.807   4.613 -1.2371  0.1480  0.0399
 1138SOL     OW 4312   6.904   4.735   5.181 -0.0071  0.1312 -0.5956
 1138SOL    HW1 4313   6.964   4.795   5.129  0.2830  1.5431  1.2579
 1138SOL    HW2 4314   6.959   4.666   5.229 -0.1694 -0.4682 -1.2560
 1139SOL     OW 4315   3.254   1.606   2.179  0.0958 -0.2648  0.5503
 1139SOL    HW1 4316   3.292   1.698   2.171  1.6910 -0.5938  3.1665
 1139SOL    HW2 4317   3.162   1.611   2.217  0.4114  0.2540  1.2686
 1140SOL     OW 4318   3.596   0.552   4.793  0.5449  0.1049 -0.2560
 1140SOL    HW1 4319   3.591   0.455   4.768  2.0949  0.4262 -2.0154
 1140SOL    HW2 4320   3.504   0.586   4.811 -0.0031 -1.7568  0.7638
 1141SOL     OW 4321   2.332   4.915   2.380  0.0060 -0.6031  0.2441
 1141SOL    HW1 4322   2.296   4.829   2.345 -0.1257 -0.3261 -0.3262
 1141SOL    HW2 4323   2.422   4.933   2.340  0.2382 -0.7028  0.7216
 1142SOL     OW 4324   6.701   2.059   4.712  0.9049 -0.0686  0.0859
 1142SOL    HW1 4325   6.734   2.152   4.700 -0.2087  0.1829 -1.2202
 1142SOL    HW2 4326   6.769   2.006   4.763  1.9005  1.2263  0.1607
 1143SOL     OW 4327   1.481   3.325   6.083 -0.1897  0.6024  0.8932
 1143SOL    HW1 4328   1.491   3.424   6.081 -0.5310  0.6683  1.8322
 1143SOL    HW2 4329   1.406   3.300   6.144  0.5089 -0.2625  1.4275
 1144SOL     OW 4330   0.537   3.841   1.417  0.3243 -0.5186 -0.2699
 1144SOL    HW1 4331   0.622   3.793   1.393 -0.2268 -1.0212 -1.2979
 1144SOL    HW2 4332   0.535   3.929   1.370  0.3736 -0.4088 -0.0675
 1145SOL     OW 4333   5.847   6.189   6.142 -0.2729 -0.1478 -0.2967
 1145SOL    HW1 4334   5.905   6.122   6.096 -1.0964 -1.3588  0.3801
 1145SOL    HW2 4335   5.903   6.244   6.204  0.4476 -0.0631 -1.0108
 1146SOL     OW 4336   6.016   5.088   2.247  0.3682  0.2640 -0.5269
 1146SOL    HW1 4337   6.062   5.086   2.159  1.8358 -0.0706  0.2073
 1146SOL    HW2 4338   5.993   5.183   2.271 -1.2744  0.2295 -1.8481
 1147SOL     OW 4339   6.788   2.901   0.888  0.3599  0.0034  0.0463
 1147SOL    HW1 4340   6.788   2.807   0.923 -0.3273  0.5693  1.6938
 1147SOL    HW2 4341   6.872   2.947   0.918  1.2577 -0.3797 -1.7372
 1148SOL     OW 4342   0.289   3.752   4.915 -0.1355  0.2378  0.5847
 1148SOL    HW1 4343   0.378   3.771   4.874 -0.4554 -0.9308 -0.7380
 1148SOL    HW2 4344   0.300   3.689   4.992  0.2450  0.6130  0.8366
 1149SOL     OW 4345   1.975   2.245   0.171 -0.0023  0.8201  0.1610
 1149SOL    HW1 4346   2.058   2.272   0.220  0.0388  0.5204  0.2550
 1149SOL    HW2 4347   1.912   2.199   0.234 -1.0457  2.6713  0.5599
 1150SOL     OW 4348   0.526   0.823   3.762  0.2574  0.3765  0.0196
 1150SOL    HW1 4349   0.444   0.867   3.727  0.5281  0.1842 -0.8797
 1150SOL    HW2 4350   0.539   0.847   3.858 -0.5415  0.8538  0.0092
 1151SOL     OW 4351   1.003   3.444   1.065  0.0737  0.7192 -0.5217
 1151SOL    HW1 4352   1.020   3.509   1.139  1.5309  1.3004 -1.3047
 1151SOL    HW2 4353   1.057   3.471   0.985 -1.2048 -0.0760 -1.6906
 1152SOL     OW 4354   0.667   3.592   0.773  0.2301  0.3995 -0.6459
 1152SOL    HW1 4355   0.761   3.627   0.767  1.1475 -1.9214 -0.9929
 1152SOL    HW2 4356   0.643   3.579   0.869  0.3659  0.7106 -0.5670
 1153SOL     OW 4357   6.005   2.456   0.914  0.2066 -1.0198  0.3725
 1153SOL    HW1 4358   5.996   2.368   0.867  1.9111 -1.3969  0.6600
 1153SOL    HW2 4359   6.101   2.486   0.911  0.1406 -0.3980  2.4292
 1154SOL     OW 4360   6.899   5.348   0.495  0.5720  0.1344  0.5275
 1154SOL    HW1 4361   6.963   5.357   0.418  0.3308  1.3955  0.4430
 1154SOL    HW2 4362   6.888   5.252   0.518  1.7568 -0.1749 -0.0871
 1155SOL     OW 4363   5.400   1.759   6.796 -0.2318 -0.5845 -0.3494
 1155SOL    HW1 4364   5.349   1.814   6.862 -1.4536  0.2050 -1.8815
 1155SOL    HW2 4365   5.381   1.792   6.703  3.1824 -0.2202 -1.0273
 1156SOL     OW 4366   5.520   2.535   2.029 -0.5674  0.2106  0.5483
 1156SOL    HW1 4367   5.564   2.477   1.960 -2.6718 -0.8416  0.0362
 1156SOL    HW2 4368   5.422   2.538   2.013 -0.6346  3.5033  0.9131
 1157SOL     OW 4369   1.068   1.705   2.951 -0.3706 -0.3288 -0.1864
 1157SOL    HW1 4370   0.987   1.751   2.987 -0.3088  0.4291 -0.9919
 1157SOL    HW2 4371   1.145   1.769   2.949 -0.5830 -0.0768 -2.4227
 1158SOL     OW 4372   6.270   1.956   1.961  0.2042  0.5372 -0.1909
 1158SOL    HW1 4373   6.177   1.938   1.929 -0.2655 -0.4766  1.5886
 1158SOL    HW2 4374   6.268   2.025   2.033  0.6261 -0.4296  0.7826
 1159SOL     OW 4375   0.224   1.962   5.039  0.1269 -0.0353  0.4265
 1159SOL    HW1 4376   0.269   1.922   5.119  2.8035  1.3062 -0.3296
 1159SOL    HW2 4377   0.285   1.958   4.960 -1.8692  0.0733 -1.2166
 1160SOL     OW 4378   6.922   2.552   5.509  0.4164 -0.5950  0.3230
 1160SOL    HW1 4379   6.879   2.471   5.468 -0.6532  0.0342  0.1787
 1160SOL    HW2 4380   6.870   2.634   5.485  1.1316  0.0719  0.9834
 1161SOL     OW 4381   4.303   3.385   5.357 -0.4764  0.2230 -0.1819
 1161SOL    HW1 4382   4.243   3.430   5.290 -1.7119 -0.9998  0.0687
 1161SOL    HW2 4383   4.277   3.289   5.367  1.3366 -0.2798  0.1895
 1162SOL     OW 4384   0.792   5.207   3.046  0.2591  0.5969 -0.5802
 1162SOL    HW1 4385   0.768   5.113   3.069  1.5283  0.2256 -0.7068
 1162SOL    HW2 4386   0.720   5.269   3.079 -0.7419 -0.4287 -0.7661
 1163SOL     OW 4387   6.131   5.522   3.032 -0.3110 -0.5690  0.2974
 1163SOL    HW1 4388   6.102   5.440   2.983 -1.2263  0.0122 -0.1638
 1163SOL    HW2 4389   6.216   5.556   2.993 -0.5267 -0.6656 -0.2656
 1164SOL     OW 4390   0.651   6.193   6.843  0.3367  0.6867 -0.4757
 1164SOL    HW1 4391   0.622   6.105   6.807 -0.9419  0.0296  1.9649
 1164SOL    HW2 4392   0.732   6.224   6.794 -0.3853 -0.8246 -2.7762
 1165SOL     OW 4393   0.495   5.882   2.772  0.1378 -0.2893  0.3018
 1165SOL    HW1 4394   0.569   5.901   2.707  0.0203  1.3027  0.5978
 1165SOL    HW2 4395   0.498   5.948   2.847 -1.9117  0.1907  0.0291
 1166SOL     OW 4396   0.768   0.657   0.215 -0.4208  0.1286 -0.4817
 1166SOL    HW1 4397   0.823   0.580   0.250  0.0226  0.8709  0.5106
 1166SOL    HW2 4398   0.688   0.622   0.168 -0.8904 -0.9497  1.0432
 1167SOL     OW 4399   2.331   1.768   2.933 -0.1650  0.9837 -0.4984
 1167SOL    HW1 4400   2.409   1.739   2.989 -0.6825 -1.3226 -0.8896
 1167SOL    HW2 4401   2.363   1.796   2.843  0.3811  1.9543 -0.0185
 1168SOL     OW 4402   0.127   4.681   4.273  0.1354 -0.0115 -0.1994
 1168SOL    HW1 4403   0.113   4.603   4.335  2.1714  1.3340  2.1597
 1168SOL    HW2 4404   0.057   4.750   4.291  2.1171  1.4525  2.6227
 1169SOL     OW 4405   0.028   3.456   2.920 -0.3543 -0.4692 -0.5527
 1169SOL    HW1 4406   0.124   3.430   2.909  0.1860  0.9505  0.4209
 1169SOL    HW2 4407  -0.006   3.492   2.833  0.1170 -0.6188 -0.8072
 1170SOL     OW 4408   1.931   1.813   2.228  0.3780  0.8133  0.5814
 1170SOL    HW1 4409   2.017   1.850   2.193  1.4344 -2.0592 -0.1534
 1170SOL    HW2 4410   1.942   1.789   2.324  0.1481  1.1089  0.6830
 1171SOL     OW 4411   5.398   5.922   0.455  0.3700  0.4424 -0.5726
 1171SOL    HW1 4412   5.466   5.986   0.419 -1.8978  2.8698 -0.8794
 1171SOL    HW2 4413   5.338   5.893   0.380 -0.7475  0.7710  0.1741
 1172SOL     OW 4414   4.844   5.843   1.695 -0.2391  0.5258 -0.1457
 1172SOL    HW1 4415   4.866   5.851   1.793 -0.4672  0.8103 -0.1185
 1172SOL    HW2 4416   4.819   5.748   1.675  1.2309  0.1191 -0.2264
 1173SOL     OW 4417   5.236   0.267   1.274  0.1973 -0.2102  0.4856
 1173SOL    HW1 4418   5.264   0.176   1.241  2.1078  0.7749 -0.7997
 1173SOL    HW2 4419   5.172   0.256   1.350 -0.4910 -2.6142 -0.3274
 1174SOL     OW 4420   6.182   0.823   6.064 -0.0940 -0.1283 -1.0101
 1174SOL    HW1 4421   6.217   0.787   6.150  0.5407 -0.6117 -1.4636
 1174SOL    HW2 4422   6.231   0.781   5.988  0.3735  1.3659 -1.5642
 1175SOL     OW 4423   2.617   4.956   1.826  0.6695  0.3579 -0.0472
 1175SOL    HW1 4424   2.709   4.920   1.812  0.4555  0.5046 -2.1888
 1175SOL    HW2 4425   2.551   4.900   1.776 -0.5990 -0.3586  2.2505
 1176SOL     OW 4426   3.584   0.083   1.953 -0.6880 -0.0322 -0.0505
 1176SOL    HW1 4427   3.488   0.080   1.978 -0.9803 -0.2244 -1.1147
 1176SOL    HW2 4428   3.614   0.178   1.945 -1.4455  0.1019 -1.9496
 1177SOL     OW 4429   3.032   5.825   1.866 -0.8198 -0.2337 -0.2232
 1177SOL    HW1 4430   3.044   5.797   1.771  0.8066  0.7727 -0.3544
 1177SOL    HW2 4431   2.976   5.757   1.914 -1.2000 -1.0394 -1.7445
 1178SOL     OW 4432   2.315   3.150   5.375 -0.4320 -0.3243  0.8054
 1178SOL    HW1 4433   2.321   3.230   5.315 -0.9583 -0.0283  1.1423
 1178SOL    HW2 4434   2.339   3.068   5.323 -0.7218 -0.0506  0.2288
 1179SOL     OW 4435   1.240   5.674   6.931  0.4857 -0.2313 -0.2910
 1179SOL    HW1 4436   1.265   5.582   6.902  3.7471  0.8440 -1.2465
 1179SOL    HW2 4437   1.166   5.668   6.998  2.1133 -3.7222  1.4536
 1180SOL     OW 4438   4.600   6.940   1.661  0.1419  0.0406 -0.1501
 1180SOL    HW1 4439   4.642   6.852   1.683 -0.3877  0.4440  2.9023
 1180SOL    HW2 4440   4.536   6.965   1.733  0.1780  2.9119 -1.0049
 1181SOL     OW 4441   2.791   2.202   5.517  0.3430  0.5782 -0.5935
 1181SOL    HW1 4442   2.692   2.200   5.508  0.2951 -1.0489  0.0344
 1181SOL    HW2 4443   2.833   2.183   5.428  0.1015  1.4694 -0.9015
 1182SOL     OW 4444   0.819   0.770   4.094  0.0313  0.1245 -0.0167
 1182SOL    HW1 4445   0.734   0.818   4.071 -0.1860 -0.7095 -1.0552
 1182SOL    HW2 4446   0.803   0.671   4.089  0.4253 -0.1061  2.2197
 1183SOL     OW 4447   3.940   0.128   7.010 -0.8891  0.0844 -0.2902
 1183SOL    HW1 4448   3.875   0.072   7.060 -0.5958 -0.4322 -0.4774
 1183SOL    HW2 4449   3.892   0.183   6.942 -1.6446  2.6989  2.1757
 1184SOL     OW 4450   0.355   0.625   3.950 -0.2769  0.3712 -0.0000
 1184SOL    HW1 4451   0.281   0.566   3.983 -0.4639  1.4627  1.6405
 1184SOL    HW2 4452   0.443   0.579   3.964 -0.5097 -0.2067 -0.3556
 1185SOL     OW 4453   4.850   4.029   1.439 -0.4333 -0.4218  0.2647
 1185SOL    HW1 4454   4.919   4.096   1.411 -0.5279 -0.0283  0.9485
 1185SOL    HW2 4455   4.871   3.995   1.531 -1.3098 -0.0647  0.6158
 1186SOL     OW 4456   0.723   1.992   6.250  0.4471  0.6198 -0.1266
 1186SOL    HW1 4457   0.729   1.931   6.171  1.5939  0.8466 -0.2233
 1186SOL    HW2 4458   0.747   1.941   6.333 -0.7962  0.3701  0.1077
 1187SOL     OW 4459   4.937   5.875   2.494  0.1169 -0.1974  0.2231
 1187SOL    HW1 4460   4.925   5.907   2.588  0.2750 -1.8150  0.8304
 1187SOL    HW2 4461   4.869   5.804   2.474  0.9665 -0.8675 -0.3878
 1188SOL     OW 4462   5.942   1.004   5.549  0.1881 -0.2843  1.1000
 1188SOL    HW1 4463   6.038   0.999   5.521  0.1027  1.9221  0.2361
 1188SOL    HW2 4464   5.934   1.061   5.630 -0.6202  1.7621 -0.3548
 1189SOL     OW 4465   0.586   6.783   0.200  0.6334 -0.8998  0.0038
 1189SOL    HW1 4466   0.573   6.750   0.294  0.3361  0.3463  0.4228
 1189SOL    HW2 4467   0.645   6.863   0.202  1.3762 -1.4089 -0.9915
 1190SOL     OW 4468   0.130   2.350   6.095 -0.6347  0.3596  0.3413
 1190SOL    HW1 4469   0.105   2.426   6.154  1.5425  0.2881  1.4564
 1190SOL    HW2 4470   0.226   2.327   6.109 -0.5499 -0.9306 -1.8630
 1191SOL     OW 4471   0.660   2.634   5.522  0.1697 -0.3476 -0.0822
 1191SOL    HW1 4472   0.572   2.604   5.486 -1.1172  1.2616  1.5710
 1191SOL    HW2 4473   0.701   2.700   5.459 -2.5433  3.2420  1.5591
 1192SOL     OW 4474   3.123   3.471   1.330  0.1048  0.1734 -0.8148
 1192SOL    HW1 4475   3.126   3.548   1.267  0.8651  0.8643  0.0390
 1192SOL    HW2 4476   3.029   3.437   1.336 -0.7149  2.4658  0.4571
 1193SOL     OW 4477   4.903   3.081   4.927 -0.2535  0.2713  0.1571
 1193SOL    HW1 4478   4.936   3.139   4.853  0.2368  1.4535  1.2657
 1193SOL    HW2 4479   4.872   3.138   5.003  2.0783 -0.8596  2.0856
 1194SOL     OW 4480   4.473   3.980   6.503  0.3002  0.2289 -0.2712
 1194SOL    HW1 4481   4.401   4.010   6.566 -0.3556 -0.2954 -0.7593
 1194SOL    HW2 4482   4.562   4.013   6.536 -0.3285  2.3437 -0.5703
 1195SOL     OW 4483   2.530   1.215   5.213 -0.0606  0.0364  0.1176
 1195SOL    HW1 4484   2.470   1.141   5.181  0.8517 -0.3728 -0.7136
 1195SOL    HW2 4485   2.556   1.272   5.135  1.2599 -0.2683  0.3120
 1196SOL     OW 4486   4.574   6.687   2.005 -0.5180 -0.7270 -0.1996
 1196SOL    HW1 4487   4.514   6.618   2.047  0.6046 -1.8917 -0.4596
 1196SOL    HW2 4488   4.581   6.670   1.907 -1.5863  0.8225 -0.5839
 1197SOL     OW 4489   4.542   0.547   5.535  0.1073  0.1648  0.3027
 1197SOL    HW1 4490   4.513   0.575   5.444  1.2113  1.6018  0.3466
 1197SOL    HW2 4491   4.619   0.605   5.564  0.8636 -1.3522  1.4680
 1198SOL     OW 4492   3.176   6.641   3.991 -0.2431 -0.2327  0.4024
 1198SOL    HW1 4493   3.185   6.733   3.952 -2.4160  1.3161  3.1912
 1198SOL    HW2 4494   3.256   6.623   4.049 -0.0522  0.0885  0.2481
 1199SOL     OW 4495   5.884   0.063   6.212  0.6671 -0.3473 -0.1431
 1199SOL    HW1 4496   5.802   0.012   6.187  1.6084 -1.7674 -0.4859
 1199SOL    HW2 4497   5.948   0.002   6.258  1.1539  0.9678  0.9809
 1200SOL     OW 4498   5.162   0.016   1.513  0.0773 -1.1266 -0.4298
 1200SOL    HW1 4499   5.173  -0.056   1.582  0.2235  0.5749  1.4162
 1200SOL    HW2 4500   5.154  -0.026   1.422 -2.2373 -3.6154  0.7624
 1201SOL     OW 4501   5.139   0.347   3.325  0.0755 -0.0396  0.1812
 1201SOL    HW1 4502   5.157   0.251   3.300 -0.1396 -1.0067  3.3046
 1201SOL    HW2 4503   5.046   0.371   3.300 -0.0036 -0.7825 -0.2818
 1202SOL     OW 4504   0.264   2.016   2.292  0.7406  0.2625  0.3014
 1202SOL    HW1 4505   0.280   1.968   2.378  2.7032  1.2927  0.5654
 1202SOL    HW2 4506   0.200   2.092   2.308  0.9171  0.3084  0.7918
 1203SOL     OW 4507   1.792   4.822   1.256  0.3670  0.5408  0.5957
 1203SOL    HW1 4508   1.788   4.743   1.317 -0.2411  0.8247  0.9363
 1203SOL    HW2 4509   1.820   4.903   1.309 -0.2117  0.7973  0.5184
 1204SOL     OW 4510   6.552   0.718   2.748  0.0808  0.6240 -0.0703
 1204SOL    HW1 4511   6.649   0.727   2.769  0.0767 -1.3484  1.1025
 1204SOL    HW2 4512   6.500   0.786   2.800  0.7919  1.4979 -0.4792
 1205SOL     OW 4513   0.558   2.421   6.450 -0.6136  0.2803 -0.2949
 1205SOL    HW1 4514   0.631   2.368   6.407 -0.3781  0.2948  0.0854
 1205SOL    HW2 4515   0.525   2.490   6.385  0.2248  0.7739 -0.2167
 1206SOL     OW 4516   5.400   2.898   6.786  0.0221 -0.6243  0.6182
 1206SOL    HW1 4517   5.477   2.931   6.731  0.1191  0.6441  1.4605
 1206SOL    HW2 4518   5.403   2.798   6.791  2.4157 -0.5815  1.7114
 1207SOL     OW 4519   0.149   1.054   4.875  0.7362 -0.4784 -0.1720
 1207SOL    HW1 4520   0.241   1.089   4.860 -0.0167  0.5149 -3.2481
 1207SOL    HW2 4521   0.098   1.117   4.934  1.9481 -1.0485  1.5717
 1208SOL     OW 4522   4.683   5.490   0.633 -0.2270  0.1248 -0.1346
 1208SOL    HW1 4523   4.675   5.583   0.669 -2.3541 -0.2878  0.5815
 1208SOL    HW2 4524   4.701   5.495   0.535 -3.2262  1.4015 -0.7326
 1209SOL     OW 4525   1.935   1.186   3.388 -0.6230 -0.5768 -0.0123
 1209SOL    HW1 4526   1.960   1.184   3.485  0.0231 -0.9847 -0.1855
 1209SOL    HW2 4527   1.892   1.275   3.367  0.8146  0.2119  0.2646
 1210SOL     OW 4528   3.327   4.419   5.359 -0.2427  0.1259  0.4151
 1210SOL    HW1 4529   3.232   4.450   5.370  0.0270  1.3594 -0.4461
 1210SOL    HW2 4530   3.331   4.320   5.366 -1.8510 -0.0876 -1.0055
 1211SOL     OW 4531   5.225   3.930   0.037  0.1485 -0.4048  0.3301
 1211SOL    HW1 4532   5.180   3.930  -0.052  0.1651 -0.6973  0.3204
 1211SOL    HW2 4533   5.211   3.841   0.081 -1.6997  0.4054  1.5416
 1212SOL     OW 4534   4.445   0.266   3.306 -0.7174  0.3321 -0.3586
 1212SOL    HW1 4535   4.481   0.226   3.390 -1.0184  0.1442 -0.3183
 1212SOL    HW2 4536   4.351   0.234   3.291 -0.1861 -0.7796 -1.5055
 1213SOL     OW 4537   4.532   0.345   5.030  0.0401  0.2594 -0.3270
 1213SOL    HW1 4538   4.580   0.433   5.030  2.2381 -0.8669 -0.3024
 1213SOL    HW2 4539   4.506   0.321   5.123 -0.0045  0.6113 -0.2482
 1214SOL     OW 4540   1.862   0.435   5.451  0.0835  0.5089  0.0462
 1214SOL    HW1 4541   1.831   0.443   5.357 -0.4072 -2.0174 -0.0759
 1214SOL    HW2 4542   1.962   0.441   5.454  0.1294  0.1419 -0.6936
 1215SOL     OW 4543   1.385   4.511   2.544  0.7373  0.3368  0.2690
 1215SOL    HW1 4544   1.431   4.533   2.459 -1.4182  0.9405 -0.8025
 1215SOL    HW2 4545   1.370   4.412   2.549  2.2891  0.0997  0.7522
 1216SOL     OW 4546   5.645   6.165   5.908  0.4339  0.0993 -0.3056
 1216SOL    HW1 4547   5.652   6.232   5.982  0.4126  0.1826 -0.3785
 1216SOL    HW2 4548   5.657   6.073   5.945 -0.3955  0.0819 -0.0630
 1217SOL     OW 4549   2.885   3.630   1.136  0.0192  0.0513 -0.7192
 1217SOL    HW1 4550   2.811   3.590   1.190  0.0275 -0.9647 -1.4439
 1217SOL    HW2 4551   2.849   3.705   1.080  0.0554  1.3130  0.8426
 1218SOL     OW 4552   5.327   6.627   4.797 -0.3146 -0.0058 -0.5303
 1218SOL    HW1 4553   5.246   6.684   4.811 -0.8834 -0.6632 -1.0765
 1218SOL    HW2 4554   5.323   6.585   4.707  0.0556 -0.9756 -0.1076
 1219SOL     OW 4555   0.983   5.908   4.107  0.5083  0.8057  0.3684
 1219SOL    HW1 4556   0.929   5.961   4.172 -1.2332  0.1052 -0.4407
 1219SOL    HW2 4557   0.975   5.949   4.016  0.4499  0.0789  0.0366
 1220SOL     OW 4558   5.514   5.112   5.772  0.0498  0.0210  0.1723
 1220SOL    HW1 4559   5.426   5.070   5.750  0.7042 -0.3872 -1.8336
 1220SOL    HW2 4560   5.541   5.086   5.864 -1.3068 -0.9104  0.3340
 1221SOL     OW 4561   3.311   4.957   4.169 -0.1047 -0.0630  0.1703
 1221SOL    HW1 4562   3.407   4.963   4.142 -0.5765  0.6200 -1.4272
 1221SOL    HW2 4563   3.269   5.047   4.162 -1.2023 -0.6106 -0.4335
 1222SOL     OW 4564   6.183   2.327   4.624  0.5062  0.3242  0.0892
 1222SOL    HW1 4565   6.178   2.366   4.716  3.3637  0.0366  0.4599
 1222SOL    HW2 4566   6.279   2.316   4.598 -0.1687  1.6852 -3.5281
 1223SOL     OW 4567   6.567   3.472   3.972 -0.0970  0.2335  0.4546
 1223SOL    HW1 4568   6.562   3.445   3.876  0.3205  1.4056  0.0896
 1223SOL    HW2 4569   6.602   3.395   4.026 -1.1270 -0.7175 -0.1799
 1224SOL     OW 4570   5.696   6.731   3.040 -0.1254  0.2372 -0.2009
 1224SOL    HW1 4571   5.620   6.777   3.087 -1.6039  0.2202 -2.3920
 1224SOL    HW2 4572   5.690   6.633   3.057  0.7616  0.4245  1.3963
 1225SOL     OW 4573   1.459   5.180   5.840 -0.1814 -0.0361 -0.0115
 1225SOL    HW1 4574   1.469   5.172   5.939 -0.9597 -1.2761 -0.0068
 1225SOL    HW2 4575   1.397   5.256   5.819 -1.8780 -1.1912  0.5914
 1226SOL     OW 4576   2.869   2.449   0.872 -0.4889  0.0491  0.5504
 1226SOL    HW1 4577   2.845   2.523   0.810  0.5288 -2.8161 -3.6943
 1226SOL    HW2 4578   2.905   2.487   0.958 -1.7624  4.3024 -0.5906
 1227SOL     OW 4579   5.319   1.260   4.732 -0.2706 -0.3253 -0.6926
 1227SOL    HW1 4580   5.400   1.201   4.744 -0.3850 -0.1401  1.4674
 1227SOL    HW2 4581   5.270   1.234   4.649 -0.1065 -3.0489 -0.0245
 1228SOL     OW 4582   2.626   3.949   6.800  0.0902  0.4034 -0.1269
 1228SOL    HW1 4583   2.616   3.851   6.810  0.6148  0.4835  1.4202
 1228SOL    HW2 4584   2.624   3.973   6.702  0.1223 -1.1390 -0.5303
 1229SOL     OW 4585   4.724   6.140   4.145 -0.5985 -0.6642 -0.7465
 1229SOL    HW1 4586   4.677   6.207   4.088  0.0663 -2.0934 -3.0923
 1229SOL    HW2 4587   4.762   6.068   4.088  2.5629 -0.7442  1.2268
 1230SOL     OW 4588   5.130   4.649   6.918  0.7349 -0.2254  0.4584
 1230SOL    HW1 4589   5.107   4.655   6.821  4.0455  2.3707 -0.3555
 1230SOL    HW2 4590   5.046   4.650   6.972 -1.1653 -0.0535 -2.2759
 1231SOL     OW 4591   0.509   5.684   3.674  0.3966 -0.4446  0.0432
 1231SOL    HW1 4592   0.586   5.730   3.629  0.6006  0.2360  1.0498
 1231SOL    HW2 4593   0.517   5.696   3.773 -0.8849 -0.5564  0.1721
 1232SOL     OW 4594   6.525   2.289   6.790 -0.1210  0.1722  0.0145
 1232SOL    HW1 4595   6.585   2.330   6.859  0.2120 -3.8946  2.4373
 1232SOL    HW2 4596   6.558   2.197   6.768 -3.6392 -0.9693 -1.0786
 1233SOL     OW 4597   3.915   2.040   1.202  0.0475 -0.1730 -0.5202
 1233SOL    HW1 4598   3.958   2.033   1.292 -1.3940  0.2463  0.2399
 1233SOL    HW2 4599   3.931   1.956   1.150  0.6930 -0.5169  0.2142
 1234SOL     OW 4600   5.559   4.580   6.939 -0.0026  0.7540 -0.5640
 1234SOL    HW1 4601   5.578   4.526   6.858  1.9837  0.2551  0.1869
 1234SOL    HW2 4602   5.476   4.546   6.984 -0.5421  0.3970 -1.8089
 1235SOL     OW 4603   3.416   1.346   2.823  0.5054  0.1370 -0.2759
 1235SOL    HW1 4604   3.353   1.329   2.747  2.3854  1.6371 -2.3268
 1235SOL    HW2 4605   3.409   1.442   2.851  1.6621  0.2604 -0.3739
 1236SOL     OW 4606   3.936   0.333   4.640  0.4411 -0.3932  0.1265
 1236SOL    HW1 4607   3.875   0.271   4.690 -0.1972 -0.5782 -0.8633
 1236SOL    HW2 4608   3.952   0.415   4.695 -0.0970 -0.6696  0.7061
 1237SOL     OW 4609   0.669   4.211   3.235 -0.3096  0.1663  0.1199
 1237SOL    HW1 4610   0.759   4.181   3.267 -0.2057 -0.6024 -0.8380
 1237SOL    HW2 4611   0.599   4.185   3.302 -0.0170 -0.7490  0.0815
 1238SOL     OW 4612   2.035   0.394   0.886 -0.3036  0.1482 -0.3038
 1238SOL    HW1 4613   2.025   0.295   0.877 -1.9538  0.3122 -0.6081
 1238SOL    HW2 4614   2.128   0.416   0.916  0.2249 -1.4539 -0.6793
 1239SOL     OW 4615   6.355   4.238   3.498  0.1598 -0.0859  0.0305
 1239SOL    HW1 4616   6.383   4.242   3.594 -2.1083  1.0720  0.7134
 1239SOL    HW2 4617   6.298   4.317   3.477 -1.2382 -1.4486 -1.6389
 1240SOL     OW 4618   2.580   5.015   3.829 -0.3616  0.0996 -0.1510
 1240SOL    HW1 4619   2.581   4.994   3.731  2.2126 -0.2283 -0.1254
 1240SOL    HW2 4620   2.587   4.930   3.881 -0.5146  0.3588  0.2951
 1241SOL     OW 4621   0.975   4.919   4.125  0.4661 -0.0196  0.1677
 1241SOL    HW1 4622   0.979   4.978   4.045 -0.2442 -0.9160 -0.5590
 1241SOL    HW2 4623   1.047   4.850   4.119  0.8255  0.3064  0.6413
 1242SOL     OW 4624   2.271   0.503   3.341  0.2557  0.1321  0.5425
 1242SOL    HW1 4625   2.268   0.411   3.301  0.9575  1.0545 -1.8168
 1242SOL    HW2 4626   2.357   0.547   3.315 -0.5659  1.8675  0.6469
 1243SOL     OW 4627   2.480   5.115   2.884 -0.5846  0.6377  0.4199
 1243SOL    HW1 4628   2.456   5.170   2.803 -1.3344  0.9816  0.8603
 1243SOL    HW2 4629   2.488   5.175   2.963  1.8726  0.5502  0.3042
 1244SOL     OW 4630   6.901   1.488   5.379 -0.0902 -0.3952 -0.0069
 1244SOL    HW1 4631   6.963   1.482   5.457  1.4356  1.1114 -1.0315
 1244SOL    HW2 4632   6.869   1.582   5.369 -2.2286 -1.0416  0.1952
 1245SOL     OW 4633   3.491   3.469   2.223  0.4465 -0.4172 -0.4065
 1245SOL    HW1 4634   3.559   3.500   2.157  0.2190  1.1643  0.0594
 1245SOL    HW2 4635   3.442   3.548   2.261  0.6176 -1.2400  1.7023
 1246SOL     OW 4636   1.305   0.370   4.158 -0.0060 -0.0642  0.3385
 1246SOL    HW1 4637   1.348   0.338   4.074 -0.2043 -0.2863  0.3237
 1246SOL    HW2 4638   1.260   0.294   4.205 -0.4187  0.1750  0.3367
 1247SOL     OW 4639   1.223   1.537   6.623 -0.1664 -0.7711  0.2896
 1247SOL    HW1 4640   1.132   1.501   6.601  0.5760 -2.3617 -0.3583
 1247SOL    HW2 4641   1.257   1.492   6.706  1.0001 -2.0342 -0.8281
 1248SOL     OW 4642   4.240   1.555   0.351 -0.2726 -0.3309  0.0143
 1248SOL    HW1 4643   4.194   1.616   0.287  0.8036 -0.1127 -0.5752
 1248SOL    HW2 4644   4.210   1.577   0.444 -1.3588 -0.2162 -0.3481
 1249SOL     OW 4645   3.719   1.240   1.525  0.0263  0.2322 -0.4461
 1249SOL    HW1 4646   3.751   1.206   1.614 -0.6232  1.0971  0.1336
 1249SOL    HW2 4647   3.779   1.313   1.494 -0.7962  1.1849  0.1716
 1250SOL     OW 4648   5.869   5.822   3.321 -0.0914 -0.4123  0.7972
 1250SOL    HW1 4649   5.838   5.738   3.366 -0.3146 -0.7817 -0.0337
 1250SOL    HW2 4650   5.969   5.824   3.320 -0.0772 -0.9735  0.2783
 1251SOL     OW 4651   4.630   1.672   2.192 -0.1509  0.3586 -0.1088
 1251SOL    HW1 4652   4.649   1.767   2.220  1.0708  0.0893  0.0194
 1251SOL    HW2 4653   4.695   1.611   2.237 -1.5312 -0.6612  0.5536
 1252SOL     OW 4654   3.142   0.921   2.843 -0.3763  0.3306  0.4597
 1252SOL    HW1 4655   3.223   0.893   2.894 -0.6883 -0.9701  0.2995
 1252SOL    HW2 4656   3.061   0.881   2.886 -0.9308  1.5252  0.5603
 1253SOL     OW 4657   6.257   5.614   0.945  0.0767 -0.0258  0.1827
 1253SOL    HW1 4658   6.168   5.617   0.990  0.2760 -2.8751  0.9799
 1253SOL    HW2 4659   6.245   5.592   0.848 -0.1132  1.2810 -0.1143
 1254SOL     OW 4660   6.336   3.755   4.325  0.0221 -0.6451  0.5471
 1254SOL    HW1 4661   6.377   3.666   4.343 -0.0606 -0.3511  2.3674
 1254SOL    HW2 4662   6.237   3.749   4.337  0.1920  0.0979  2.6851
 1255SOL     OW 4663   5.611   0.316   6.848  0.4335 -0.1085 -0.3882
 1255SOL    HW1 4664   5.560   0.283   6.768 -0.0968 -0.9598  0.2696
 1255SOL    HW2 4665   5.593   0.413   6.862 -0.8534 -0.3275 -0.3290
 1256SOL     OW 4666   3.579   3.683   2.446  0.1970  0.0621 -0.1064
 1256SOL    HW1 4667   3.485   3.682   2.412 -1.1584 -2.6011  3.1373
 1256SOL    HW2 4668   3.620   3.593   2.434  3.0503  1.5673 -2.8405
 1257SOL     OW 4669   3.453   3.895   5.955 -0.4171  0.2220 -0.4387
 1257SOL    HW1 4670   3.418   3.919   5.864 -1.0111 -0.5312 -0.4251
 1257SOL    HW2 4671   3.378   3.898   6.021 -0.6333 -1.9327 -0.5010
 1258SOL     OW 4672   5.013   4.230   5.866 -0.0658 -0.3851  0.2178
 1258SOL    HW1 4673   5.018   4.217   5.767 -1.3785  1.4416 -0.1370
 1258SOL    HW2 4674   4.941   4.296   5.887  0.5146 -0.3779  2.3710
 1259SOL     OW 4675   2.847   5.565   4.757 -0.3632  0.0761  0.6678
 1259SOL    HW1 4676   2.889   5.506   4.826 -0.0781  0.1009  0.5178
 1259SOL    HW2 4677   2.812   5.508   4.682 -0.0072  0.1031  0.4803
 1260SOL     OW 4678   3.725   2.929   1.479  0.0202  0.0447  0.4862
 1260SOL    HW1 4679   3.697   2.890   1.566 -0.9253 -0.3050  0.0327
 1260SOL    HW2 4680   3.662   3.002   1.453 -0.4026 -0.6364 -0.4605
 1261SOL     OW 4681   3.202   4.078   5.240  0.1425  0.0779 -0.3074
 1261SOL    HW1 4682   3.301   4.081   5.228  0.2837 -1.3367  0.3607
 1261SOL    HW2 4683   3.179   4.010   5.309 -1.4260 -1.3271 -2.0975
 1262SOL     OW 4684   0.480   2.898   1.068 -0.5178 -0.5324 -0.6607
 1262SOL    HW1 4685   0.548   2.831   1.038 -0.8190 -1.3666  0.4728
 1262SOL    HW2 4686   0.522   2.989   1.068  0.6708 -1.0512  0.1415
 1263SOL     OW 4687   0.812   0.366   1.657  0.3721 -0.3201  0.1728
 1263SOL    HW1 4688   0.737   0.360   1.723 -0.9637 -0.9665 -1.3489
 1263SOL    HW2 4689   0.889   0.310   1.689 -0.3320 -0.8092  1.0680
 1264SOL     OW 4690   6.790   0.304   3.391 -0.6624 -0.0161  0.6060
 1264SOL    HW1 4691   6.804   0.400   3.415 -0.0196  0.2581 -0.7834
 1264SOL    HW2 4692   6.697   0.277   3.414 -0.5389  0.6207  1.9862
 1265SOL     OW 4693   0.034   0.610   0.240  0.5368 -0.7312  0.7387
 1265SOL    HW1 4694  -0.004   0.694   0.202  0.2231  0.3819  3.3069
 1265SOL    HW2 4695  -0.039   0.543   0.252  0.7141 -1.2666 -0.9152
 1266SOL     OW 4696   6.464   4.569   4.894  0.3357 -0.1153 -0.3857
 1266SOL    HW1 4697   6.536   4.576   4.962 -0.1750  0.1019  0.1364
 1266SOL    HW2 4698   6.493   4.616   4.810  0.2773  1.1212  0.2696
 1267SOL     OW 4699   4.190   6.588   5.146  0.0463  0.1015  0.2096
 1267SOL    HW1 4700   4.159   6.572   5.052 -0.0493  1.7074 -0.0706
 1267SOL    HW2 4701   4.116   6.628   5.199 -0.5684 -2.6855  1.6050
 1268SOL     OW 4702   3.837   3.251   6.766 -0.0057  0.4124 -0.0035
 1268SOL    HW1 4703   3.892   3.179   6.808 -0.0550  0.7083  0.5897
 1268SOL    HW2 4704   3.775   3.211   6.699 -0.4623 -0.1959  0.7528
 1269SOL     OW 4705   5.018   2.513   5.665  0.2185  0.1154 -0.0402
 1269SOL    HW1 4706   5.035   2.450   5.589  0.9376  0.8916 -0.5409
 1269SOL    HW2 4707   5.084   2.588   5.662  0.0073  0.3776  1.1262
 1270SOL     OW 4708   0.989   2.315   4.309 -0.5446  0.3023  0.4815
 1270SOL    HW1 4709   1.074   2.361   4.283  0.2233 -1.4032 -0.1216
 1270SOL    HW2 4710   0.920   2.332   4.238  0.3061 -0.9613 -0.7041
 1271SOL     OW 4711   1.793   2.538   3.480 -0.5264 -0.5430  0.0878
 1271SOL    HW1 4712   1.777   2.495   3.569  1.9738 -1.7257  0.0511
 1271SOL    HW2 4713   1.720   2.511   3.417 -1.2223 -1.3877  1.2000
 1272SOL     OW 4714   1.792   1.277   6.442 -0.3085 -0.0102  0.4104
 1272SOL    HW1 4715   1.698   1.278   6.408 -0.9634  0.0560  2.1292
 1272SOL    HW2 4716   1.822   1.182   6.453 -0.0244 -0.0319 -0.5008
 1273SOL     OW 4717   4.151   1.184   6.784  0.0716  0.3510  0.7247
 1273SOL    HW1 4718   4.103   1.103   6.817 -0.2765  0.4622  0.5083
 1273SOL    HW2 4719   4.244   1.159   6.757  1.1207  0.6396  3.7153
 1274SOL     OW 4720   0.399   0.029   3.600  0.0134 -0.3625  0.2418
 1274SOL    HW1 4721   0.307   0.005   3.631  0.1807  1.1348  2.0580
 1274SOL    HW2 4722   0.394   0.106   3.538  0.0189 -0.5595 -0.0050
 1275SOL     OW 4723   2.777   6.998   0.646 -0.4016  0.0803 -0.6014
 1275SOL    HW1 4724   2.764   6.904   0.678  0.3230  0.2443  0.2109
 1275SOL    HW2 4725   2.712   7.058   0.692  0.8309  0.3618  0.8504
 1276SOL     OW 4726   3.483   6.335   1.368  0.1512  0.3125  0.0921
 1276SOL    HW1 4727   3.422   6.369   1.297 -1.5792 -1.7848  0.4617
 1276SOL    HW2 4728   3.446   6.358   1.458 -2.1856 -3.8413  0.4309
 1277SOL     OW 4729   4.788   0.866   5.831  0.0868 -0.5688  0.1580
 1277SOL    HW1 4730   4.794   0.890   5.734 -1.5562  0.7601  0.3345
 1277SOL    HW2 4731   4.832   0.937   5.886 -0.5256 -0.4164  0.4599
 1278SOL     OW 4732   2.768   6.008   5.846 -0.6336  0.0956  0.0175
 1278SOL    HW1 4733   2.854   6.001   5.897  0.3582  1.2208 -1.4108
 1278SOL    HW2 4734   2.702   6.062   5.900 -0.6275 -1.1208  1.3012
 1279SOL     OW 4735   6.679   5.493   0.227  0.3207 -0.1801 -0.0920
 1279SOL    HW1 4736   6.733   5.475   0.309  1.0349 -0.7069 -0.6706
 1279SOL    HW2 4737   6.721   5.449   0.148 -2.9316 -3.9406 -0.0368
 1280SOL     OW 4738   6.481   6.902   0.566 -0.2624 -0.6712 -0.1121
 1280SOL    HW1 4739   6.458   6.977   0.504 -0.1097  0.2074  0.8651
 1280SOL    HW2 4740   6.408   6.890   0.632  1.7019  1.9102  2.7961
 1281SOL     OW 4741   4.666   6.321   1.834 -0.2210  0.3624 -0.4787
 1281SOL    HW1 4742   4.736   6.341   1.902  0.3547 -0.1227 -0.9176
 1281SOL    HW2 4743   4.695   6.244   1.778 -1.3567 -0.1940 -0.3222
 1282SOL     OW 4744   2.740   1.378   4.622  0.6110  0.1599  0.8282
 1282SOL    HW1 4745   2.661   1.425   4.582  1.1053 -0.2003 -0.6016
 1282SOL    HW2 4746   2.824   1.411   4.579  1.0181 -1.5815  0.2125
 1283SOL     OW 4747   5.455   4.642   3.466  0.5919 -0.0559 -0.4179
 1283SOL    HW1 4748   5.515   4.628   3.544  0.6574  1.6165 -0.1316
 1283SOL    HW2 4749   5.506   4.687   3.392  1.0060 -3.0809 -2.1519
 1284SOL     OW 4750   6.118   6.617   6.324  0.6310  0.2314 -0.3954
 1284SOL    HW1 4751   6.198   6.565   6.352 -0.9278 -2.7432 -1.1235
 1284SOL    HW2 4752   6.137   6.662   6.236  1.2900 -0.9786 -0.8952
 1285SOL     OW 4753   4.696   4.654   4.730 -0.4379  0.3544 -0.1692
 1285SOL    HW1 4754   4.608   4.655   4.777  0.0948  1.3649  0.8684
 1285SOL    HW2 4755   4.696   4.581   4.661 -1.8791 -0.0113  0.1747
 1286SOL     OW 4756   3.496   3.008   0.790 -0.2444  0.2021  0.4507
 1286SOL    HW1 4757   3.574   2.985   0.848 -0.5537  0.1539  0.8553
 1286SOL    HW2 4758   3.522   3.000   0.694 -0.6278 -3.0587  0.5055
 1287SOL     OW 4759   2.852   0.569   4.582  0.4508  0.0876 -0.3407
 1287SOL    HW1 4760   2.830   0.486   4.634  0.4801  1.4329  1.9844
 1287SOL    HW2 4761   2.781   0.638   4.598  1.8784  1.4937  0.1630
 1288SOL     OW 4762   6.489   1.369   3.876  1.0432  0.2239 -0.0922
 1288SOL    HW1 4763   6.455   1.429   3.949 -0.0242 -0.6104  0.1263
 1288SOL    HW2 4764   6.413   1.342   3.817  1.8896  0.8447 -1.5026
 1289SOL     OW 4765   3.804   6.511   3.553 -0.3393  0.0967  0.4393
 1289SOL    HW1 4766   3.722   6.532   3.500 -0.4066  0.7208  0.7855
 1289SOL    HW2 4767   3.884   6.512   3.493 -0.5482 -0.2895  0.1468
 1290SOL     OW 4768   3.496   0.806   0.292 -0.1259  0.4788 -0.7199
 1290SOL    HW1 4769   3.574   0.867   0.278 -1.1283  1.8851 -0.4285
 1290SOL    HW2 4770   3.528   0.714   0.309  1.4708  1.0233 -0.6498
 1291SOL     OW 4771   5.265   2.726   2.924 -0.0378 -0.2713  0.4422
 1291SOL    HW1 4772   5.253   2.780   2.840 -1.2143  0.3077  0.9449
 1291SOL    HW2 4773   5.272   2.629   2.901 -2.0059 -0.3033 -0.2726
 1292SOL     OW 4774   6.573   0.209   4.535 -0.1990 -0.4626 -0.2983
 1292SOL    HW1 4775   6.671   0.218   4.515  1.0844 -3.4944  3.4751
 1292SOL    HW2 4776   6.549   0.112   4.540 -3.8343  0.1419 -2.2807
 1293SOL     OW 4777   1.188   3.919   4.491 -0.1117 -0.2658  0.3133
 1293SOL    HW1 4778   1.106   3.889   4.442  0.0670 -0.0612 -0.1215
 1293SOL    HW2 4779   1.261   3.937   4.425 -0.1376  0.8777  0.5728
 1294SOL     OW 4780   1.800   3.952   4.673 -0.1965 -0.2141 -0.1607
 1294SOL    HW1 4781   1.800   3.866   4.622  0.9447 -0.8689  0.8762
 1294SOL    HW2 4782   1.807   3.932   4.771  0.3131  1.0576  0.0818
 1295SOL     OW 4783   4.999   0.256   3.025 -0.5825 -0.0454 -0.0752
 1295SOL    HW1 4784   5.058   0.315   2.970 -0.3001 -0.8725 -0.6912
 1295SOL    HW2 4785   4.968   0.305   3.106  1.0774  0.3743  0.3451
 1296SOL     OW 4786   4.940   2.477   6.458  0.5503 -0.0169  0.3947
 1296SOL    HW1 4787   4.840   2.473   6.460  0.5861 -1.0421  1.2218
 1296SOL    HW2 4788   4.973   2.429   6.377  0.4001 -0.9612  0.8789
 1297SOL     OW 4789   5.183   3.600   2.781 -0.3779  0.4199 -0.2814
 1297SOL    HW1 4790   5.148   3.511   2.809 -0.3911  0.3923 -0.3839
 1297SOL    HW2 4791   5.110   3.654   2.740 -0.4592  0.6260  0.1298
 1298SOL     OW 4792   6.919   5.854   1.085 -0.3135  0.1432  0.0485
 1298SOL    HW1 4793   6.953   5.786   1.020  0.2153  0.5410 -0.0945
 1298SOL    HW2 4794   6.940   5.946   1.052 -1.5766  0.4131 -0.0803
 1299SOL     OW 4795   1.286   0.698   6.549  0.1968 -0.0600 -0.0455
 1299SOL    HW1 4796   1.360   0.673   6.487 -0.4818  0.2560 -1.0029
 1299SOL    HW2 4797   1.209   0.636   6.536 -0.6176  1.0852 -0.7973
 1300SOL     OW 4798   6.275   4.786   2.531 -0.0132 -0.2029 -0.3764
 1300SOL    HW1 4799   6.196   4.804   2.472  0.4099  1.0024 -0.5951
 1300SOL    HW2 4800   6.272   4.691   2.562 -0.9935 -0.4620 -1.2101
 1301SOL     OW 4801   1.714   3.077   2.344 -0.0534 -0.2240 -0.0532
 1301SOL    HW1 4802   1.774   3.079   2.263 -0.2406  1.4295 -0.1885
 1301SOL    HW2 4803   1.767   3.103   2.425 -0.4260  0.5859 -0.0636
 1302SOL     OW 4804   2.227   4.101   0.292 -0.0776  0.4407 -0.1757
 1302SOL    HW1 4805   2.206   4.178   0.232 -0.8071  0.4294  0.0492
 1302SOL    HW2 4806   2.153   4.034   0.286 -1.6590  1.6969  2.7604
 1303SOL     OW 4807   4.402   1.414   4.338  0.0331 -0.1343  0.7445
 1303SOL    HW1 4808   4.378   1.384   4.246  0.0092 -0.6250  0.9054
 1303SOL    HW2 4809   4.336   1.481   4.370  0.3812  0.4896  0.1740
 1304SOL     OW 4810   2.609   4.220   0.095  0.2187 -0.0156  0.1464
 1304SOL    HW1 4811   2.697   4.200   0.053 -0.0050  0.2406 -0.4632
 1304SOL    HW2 4812   2.580   4.312   0.068 -0.3141 -0.1634  0.1999
 1305SOL     OW 4813   0.689   5.492   3.007 -0.5583  0.3095 -0.3116
 1305SOL    HW1 4814   0.771   5.535   3.045  0.9671 -2.6599  0.0100
 1305SOL    HW2 4815   0.699   5.482   2.908 -0.9037  0.6526 -0.3836
 1306SOL     OW 4816   5.189   1.806   6.983  0.6867 -0.1727  0.1934
 1306SOL    HW1 4817   5.184   1.707   6.987  1.6859 -0.1881  2.8363
 1306SOL    HW2 4818   5.106   1.846   7.023  0.0446  0.1371 -1.3312
 1307SOL     OW 4819   1.078   0.107   1.221  0.0423 -0.7061 -0.2940
 1307SOL    HW1 4820   0.999   0.049   1.201 -0.9075  0.5765 -0.3357
 1307SOL    HW2 4821   1.074   0.138   1.315 -1.7213  2.5531 -1.2882
 1308SOL     OW 4822   2.510   0.221   6.835 -0.3598  0.3247  0.1165
 1308SOL    HW1 4823   2.600   0.260   6.814 -0.7559  1.0315 -0.3069
 1308SOL    HW2 4824   2.515   0.170   6.921  0.5478 -0.0176 -0.1240
 1309SOL     OW 4825   2.006   6.080   3.451 -0.7317  0.0174 -0.1046
 1309SOL    HW1 4826   2.063   6.149   3.497 -2.4576  1.1685  0.4222
 1309SOL    HW2 4827   1.982   6.008   3.516 -0.3563 -0.1799 -0.1788
 1310SOL     OW 4828   0.562   0.062   3.976  0.1197  0.3028  0.0346
 1310SOL    HW1 4829   0.563   0.145   3.922 -1.4187  0.6726  0.5369
 1310SOL    HW2 4830   0.639   0.063   4.040 -0.1717  1.5797  0.3805
 1311SOL     OW 4831   5.489   5.522   3.962  0.1246 -0.2494 -0.9359
 1311SOL    HW1 4832   5.515   5.447   4.022  0.3096 -0.1518 -0.8925
 1311SOL    HW2 4833   5.502   5.493   3.867 -0.2467 -0.4319 -0.9329
 1312SOL     OW 4834   5.239   2.557   4.961  0.3158  0.4185  0.1907
 1312SOL    HW1 4835   5.313   2.622   4.977 -1.0730  2.9523 -2.7136
 1312SOL    HW2 4836   5.259   2.504   4.879  1.0777 -2.5073  2.1154
 1313SOL     OW 4837   1.290   3.638   2.241 -0.2899 -0.2275 -0.0979
 1313SOL    HW1 4838   1.340   3.712   2.285 -0.2466 -0.6628  0.5907
 1313SOL    HW2 4839   1.270   3.663   2.146  1.4291 -0.1371 -0.4551
 1314SOL     OW 4840   0.781   6.969   0.177 -0.5449  0.3180 -0.2595
 1314SOL    HW1 4841   0.786   7.031   0.255 -0.3513 -0.3589  0.2830
 1314SOL    HW2 4842   0.855   6.988   0.114  0.8607 -0.7761  0.9888
 1315SOL     OW 4843   0.043   5.724   5.349 -0.5180  1.0724  0.0572
 1315SOL    HW1 4844   0.087   5.795   5.295 -0.6784  0.7820 -0.4598
 1315SOL    HW2 4845   0.034   5.641   5.295 -0.5189  0.7199  0.5898
 1316SOL     OW 4846   2.729   6.776   1.284 -0.2212  0.5800  0.1531
 1316SOL    HW1 4847   2.786   6.720   1.344  0.7526  0.1321 -1.1371
 1316SOL    HW2 4848   2.727   6.870   1.319 -0.3259  0.1734  1.2988
 1317SOL     OW 4849   4.141   1.951   1.814  0.4562 -0.8723 -0.2894
 1317SOL    HW1 4850   4.100   1.920   1.727 -1.3021 -1.2893  0.6311
 1317SOL    HW2 4851   4.206   2.024   1.795 -1.1604  0.2724 -1.8514
 1318SOL     OW 4852   2.359   0.913   1.030 -0.4144  0.0605  0.0587
 1318SOL    HW1 4853   2.442   0.932   0.978 -0.6435  3.9655  0.8254
 1318SOL    HW2 4854   2.379   0.845   1.101  1.4389 -0.8510 -1.2656
 1319SOL     OW 4855   3.390   5.329   6.469  0.9696  0.3679  0.4576
 1319SOL    HW1 4856   3.350   5.304   6.557 -2.4152 -1.1461 -1.3456
 1319SOL    HW2 4857   3.402   5.248   6.413  1.6486  1.4571 -1.0462
 1320SOL     OW 4858   6.854   1.020   5.201  0.0156  0.5423  0.4581
 1320SOL    HW1 4859   6.860   1.064   5.290 -0.1246  1.8438 -0.1621
 1320SOL    HW2 4860   6.862   0.921   5.213 -2.9363  0.3799  2.2808
 1321SOL     OW 4861   4.541   4.498   0.021  0.2245  0.0209 -0.5149
 1321SOL    HW1 4862   4.543   4.398   0.028 -1.4050 -0.0110 -0.2444
 1321SOL    HW2 4863   4.581   4.526  -0.066  1.1618 -0.8177 -0.3817
 1322SOL     OW 4864   6.402   6.471   6.269  0.2078 -0.0887  0.4298
 1322SOL    HW1 4865   6.435   6.495   6.360 -0.6276 -1.0021  0.9966
 1322SOL    HW2 4866   6.423   6.376   6.249 -1.9032 -0.6758  0.7687
 1323SOL     OW 4867   5.123   0.313   2.606 -0.4722  0.2249 -0.0382
 1323SOL    HW1 4868   5.166   0.307   2.696 -1.5930 -0.8759  0.4575
 1323SOL    HW2 4869   5.035   0.265   2.607  0.2023 -1.2470 -2.1324
 1324SOL     OW 4870   2.508   4.230   5.693 -0.2792 -0.0675  0.3420
 1324SOL    HW1 4871   2.517   4.195   5.600 -1.7682 -0.5671  0.3565
 1324SOL    HW2 4872   2.570   4.181   5.754 -1.7272 -2.2145  0.2120
 1325SOL     OW 4873   3.878   0.140   5.539 -0.0784  0.0209  0.5004
 1325SOL    HW1 4874   3.942   0.121   5.614  0.5972 -1.4545 -0.4012
 1325SOL    HW2 4875   3.785   0.145   5.575  0.2460 -0.5723  1.4511
 1326SOL     OW 4876   6.074   4.818   1.923  0.7416  0.0613  0.6246
 1326SOL    HW1 4877   6.113   4.774   1.842 -1.5493  1.4624 -1.3727
 1326SOL    HW2 4878   6.148   4.861   1.976  2.6326 -3.1373  0.8571
 1327SOL     OW 4879   3.489   2.095   5.267  0.0872 -0.1501 -0.2612
 1327SOL    HW1 4880   3.502   2.192   5.287 -2.1669  0.6197 -2.0786
 1327SOL    HW2 4881   3.407   2.062   5.314 -0.7950 -0.3760 -1.9025
 1328SOL     OW 4882   4.843   3.265   3.530 -0.3733  0.3633  0.1125
 1328SOL    HW1 4883   4.862   3.356   3.567 -1.0097  1.0552 -1.2028
 1328SOL    HW2 4884   4.883   3.257   3.439 -0.2906 -0.7046  0.2260
 1329SOL     OW 4885   0.223   2.593   3.919 -0.3505  0.2200 -0.1211
 1329SOL    HW1 4886   0.277   2.636   3.991  0.8413  0.3462 -1.0639
 1329SOL    HW2 4887   0.132   2.635   3.916 -0.5815 -0.0893  1.5729
 1330SOL     OW 4888   4.228   4.624   1.310  0.1196  0.4562  0.1761
 1330SOL    HW1 4889   4.169   4.660   1.383 -0.3826 -0.0355  0.0208
 1330SOL    HW2 4890   4.270   4.699   1.261 -0.8589  0.8336 -0.0962
 1331SOL     OW 4891   1.956   5.419   0.111  0.1137  0.0289  0.7188
 1331SOL    HW1 4892   1.996   5.491   0.168  0.9008  0.5986 -0.5028
 1331SOL    HW2 4893   2.021   5.343   0.102  0.7705  0.7175 -0.8240
 1332SOL     OW 4894   0.693   1.442   3.304 -0.0056  0.0112 -0.2326
 1332SOL    HW1 4895   0.633   1.466   3.381  0.0989  0.0177 -0.1522
 1332SOL    HW2 4896   0.639   1.401   3.231 -0.0004 -0.6478  0.1261
 1333SOL     OW 4897   5.391   0.982   6.190 -0.0503 -0.3128 -0.0918
 1333SOL    HW1 4898   5.407   0.910   6.122  0.5789 -1.0888  0.8379
 1333SOL    HW2 4899   5.464   0.980   6.258 -0.9082  0.1275  0.8683
 1334SOL     OW 4900   5.155   6.533   2.344 -0.1106  0.0388 -0.5879
 1334SOL    HW1 4901   5.058   6.535   2.370  0.0414  0.8971 -0.0593
 1334SOL    HW2 4902   5.197   6.450   2.379 -0.2684  0.4499  0.6202
 1335SOL     OW 4903   6.418   1.731   3.485 -0.7584  0.1404  0.3015
 1335SOL    HW1 4904   6.423   1.719   3.584  1.1202 -1.3265  0.0963
 1335SOL    HW2 4905   6.494   1.788   3.455  0.3711 -1.6892 -0.5214
 1336SOL     OW 4906   5.579   0.888   3.626  0.0906  0.0422  0.5738
 1336SOL    HW1 4907   5.575   0.790   3.647 -1.0360  0.2922  1.7267
 1336SOL    HW2 4908   5.653   0.931   3.678  0.9556 -0.2689 -0.3680
 1337SOL     OW 4909   1.812   5.661   5.624  0.0949  0.1759 -0.4195
 1337SOL    HW1 4910   1.794   5.672   5.721  1.0435  1.2606 -0.3573
 1337SOL    HW2 4911   1.729   5.627   5.579 -0.2001 -0.8552  0.8288
 1338SOL     OW 4912   5.225   5.247   2.850  0.2878  0.3671 -0.2371
 1338SOL    HW1 4913   5.318   5.217   2.874 -0.0250 -0.9325 -0.5919
 1338SOL    HW2 4914   5.215   5.249   2.751 -0.1516  0.2416 -0.1966
 1339SOL     OW 4915   6.719   6.202   0.422 -0.1291  0.1063 -0.1848
 1339SOL    HW1 4916   6.638   6.146   0.435 -0.8794  1.1002 -0.4343
 1339SOL    HW2 4917   6.789   6.150   0.372  0.7805 -1.9636  2.9797
 1340SOL     OW 4918   4.008   1.598   2.418  0.5385 -0.0632 -0.4474
 1340SOL    HW1 4919   3.977   1.570   2.509 -2.4349 -1.7281 -1.8426
 1340SOL    HW2 4920   3.931   1.633   2.365  1.8500 -0.5215 -2.8253
 1341SOL     OW 4921   3.483   4.922   3.190 -0.8059  0.3685 -0.2788
 1341SOL    HW1 4922   3.448   4.980   3.264  0.3037 -0.8037  1.2235
 1341SOL    HW2 4923   3.410   4.905   3.124 -2.0832  0.7459  0.9784
 1342SOL     OW 4924   4.892   2.816   1.983 -0.5824 -0.5211 -0.6821
 1342SOL    HW1 4925   4.920   2.782   1.894 -0.2121 -0.1914 -0.6940
 1342SOL    HW2 4926   4.844   2.903   1.972  0.3068  0.0094 -0.4942
 1343SOL     OW 4927   3.666   2.578   7.001  0.0202  0.3888 -0.1060
 1343SOL    HW1 4928   3.747   2.588   6.943  0.2314 -2.2143 -0.3590
 1343SOL    HW2 4929   3.692   2.591   7.097  0.3442  1.3920 -0.3192
 1344SOL     OW 4930   3.247   0.121   1.082 -0.0660 -0.5555 -0.2135
 1344SOL    HW1 4931   3.263   0.097   1.177  0.0052 -0.3436 -0.1714
 1344SOL    HW2 4932   3.310   0.070   1.023  0.9993  0.5064 -0.0276
 1345SOL     OW 4933   6.833   2.879   5.678 -0.1877  0.0432 -0.2395
 1345SOL    HW1 4934   6.896   2.951   5.652  0.0553  0.8046  2.1809
 1345SOL    HW2 4935   6.742   2.918   5.693 -0.2353 -0.2648  0.3293
 1346SOL     OW 4936   3.643   5.188   0.917  0.0865  0.0589 -0.2253
 1346SOL    HW1 4937   3.567   5.225   0.970  0.4808 -1.9098  1.8752
 1346SOL    HW2 4938   3.729   5.224   0.954  0.3283 -0.7705  0.0476
 1347SOL     OW 4939   6.126   1.045   1.984  0.0232 -0.9278 -0.4565
 1347SOL    HW1 4940   6.126   1.114   2.058 -4.1630  0.3311 -1.3752
 1347SOL    HW2 4941   6.160   1.087   1.900  1.0840 -1.1963 -0.1784
 1348SOL     OW 4942   6.877   3.216   5.919  0.0713 -0.4202  0.3420
 1348SOL    HW1 4943   6.828   3.245   5.836  0.6607  0.2059  0.2050
 1348SOL    HW2 4944   6.899   3.119   5.912  2.0216  0.0583 -1.2590
 1349SOL     OW 4945   3.952   2.133   2.580 -0.6287  0.0451 -0.1121
 1349SOL    HW1 4946   3.980   2.145   2.484 -1.7870  1.0824 -0.3454
 1349SOL    HW2 4947   4.015   2.183   2.639 -0.4664  0.2003 -0.4122
 1350SOL     OW 4948   0.222   0.090   2.089 -0.6292 -0.1030  0.4831
 1350SOL    HW1 4949   0.243   0.182   2.120 -0.3267 -0.2913  0.8376
 1350SOL    HW2 4950   0.148   0.094   2.022 -0.2917  0.4477  0.1249
 1351SOL     OW 4951   3.530   1.654   5.203 -0.3775 -0.0514  0.1364
 1351SOL    HW1 4952   3.547   1.588   5.276 -0.8744  1.5706  1.8016
 1351SOL    HW2 4953   3.596   1.640   5.130  1.4202 -0.5115  1.7599
 1352SOL     OW 4954   2.488   0.086   4.287  0.3538  0.4373 -0.7378
 1352SOL    HW1 4955   2.508   0.005   4.342 -0.9311  1.1631  0.8947
 1352SOL    HW2 4956   2.396   0.078   4.249  0.8032  0.4623 -1.8514
 1353SOL     OW 4957   4.227   6.970   0.886  0.2249 -0.4374 -0.3215
 1353SOL    HW1 4958   4.156   7.017   0.835 -0.8833 -2.2497 -0.5516
 1353SOL    HW2 4959   4.296   6.935   0.823 -0.0675 -0.9196 -0.3790
 1354SOL     OW 4960   6.520   3.328   6.555 -0.4890  0.2486 -0.0014
 1354SOL    HW1 4961   6.558   3.420   6.546  1.2098 -0.2910  1.0432
 1354SOL    HW2 4962   6.560   3.268   6.486 -1.8659  0.3523 -0.9129
 1355SOL     OW 4963   6.612   5.321   5.786 -1.0313  0.1428 -0.2647
 1355SOL    HW1 4964   6.693   5.368   5.819  0.2509 -1.2052 -1.3492
 1355SOL    HW2 4965   6.533   5.381   5.793  0.3680  2.1432 -0.8153
 1356SOL     OW 4966   4.618   0.641   6.418  0.3472  0.5236 -0.6482
 1356SOL    HW1 4967   4.717   0.628   6.416  0.3880  0.8904 -2.0902
 1356SOL    HW2 4968   4.572   0.553   6.407  0.5069  0.3939 -0.2957
 1357SOL     OW 4969   2.942   3.665   1.561 -0.1339  0.3001  0.1731
 1357SOL    HW1 4970   2.904   3.742   1.611 -0.6188  0.0036  0.2692
 1357SOL    HW2 4971   2.973   3.595   1.625  1.1835  0.8191  0.1127
 1358SOL     OW 4972   1.307   1.570   3.529  0.2266 -0.3272  0.8335
 1358SOL    HW1 4973   1.227   1.529   3.572  0.7733 -1.1666  1.0835
 1358SOL    HW2 4974   1.373   1.596   3.600 -0.2796  1.3998  0.7115
 1359SOL     OW 4975   3.754   5.996   6.342 -0.2150 -0.4114  0.3977
 1359SOL    HW1 4976   3.738   6.070   6.277  1.2396  0.9235  1.4694
 1359SOL    HW2 4977   3.794   5.917   6.294  0.5722  0.4390 -0.3780
 1360SOL     OW 4978   3.084   4.280   1.518 -0.3444 -0.4492  0.0567
 1360SOL    HW1 4979   3.131   4.192   1.508 -1.1575 -0.8910  0.0673
 1360SOL    HW2 4980   3.146   4.346   1.562  1.2208 -0.2063 -2.3281
 1361SOL     OW 4981   0.122   6.957   6.524  0.2170 -0.2352 -0.0503
 1361SOL    HW1 4982   0.133   6.886   6.592  1.4055 -1.2558 -1.2649
 1361SOL    HW2 4983   0.194   6.950   6.455 -1.2510  0.3922 -1.7387
 1362SOL     OW 4984   0.635   3.184   6.957  0.0917  0.0133  0.9662
 1362SOL    HW1 4985   0.720   3.171   7.008  0.3933  1.9709  1.0571
 1362SOL    HW2 4986   0.652   3.172   6.859  0.2099 -0.6770  1.0661
 1363SOL     OW 4987   1.282   0.031   5.270  0.0186  0.5444 -0.5002
 1363SOL    HW1 4988   1.348   0.015   5.344 -1.3925  0.6458  0.8364
 1363SOL    HW2 4989   1.301  -0.032   5.195  0.9134 -0.2284  0.3399
 1364SOL     OW 4990   6.199   5.281   5.761  0.2896  0.0453 -0.4910
 1364SOL    HW1 4991   6.240   5.347   5.824 -0.5107  2.3031 -2.1919
 1364SOL    HW2 4992   6.104   5.264   5.789 -0.2677  1.5256 -1.3131
 1365SOL     OW 4993   6.676   1.015   3.050 -0.3826  0.3475  0.0481
 1365SOL    HW1 4994   6.625   0.931   3.066 -0.9387  0.4492 -1.0888
 1365SOL    HW2 4995   6.765   0.993   3.010 -1.3809  0.3461 -2.3412
 1366SOL     OW 4996   0.936   2.077   5.888  0.2804 -0.7250 -0.2640
 1366SOL    HW1 4997   0.961   2.060   5.983  0.1040 -0.4810 -0.1741
 1366SOL    HW2 4998   0.943   1.992   5.836 -1.1721 -1.2183  0.3115
 1367SOL     OW 4999   3.990   1.610   0.777  0.1448 -0.1107  0.3176
 1367SOL    HW1 5000   3.927   1.570   0.844 -0.6427 -0.8193 -0.7947
 1367SOL    HW2 5001   4.074   1.555   0.773 -0.5047 -1.0866 -0.4606
 1368SOL     OW 5002   4.556   5.254   5.387 -0.1232  0.0548 -0.1769
 1368SOL    HW1 5003   4.594   5.201   5.311  1.6372  1.9430 -0.6820
 1368SOL    HW2 5004   4.525   5.343   5.355 -0.6580  0.3458  1.0777
 1369SOL     OW 5005   1.671   2.007   4.918 -0.0526 -0.0584 -0.2706
 1369SOL    HW1 5006   1.635   2.085   4.968 -0.4324 -0.3062 -0.1506
 1369SOL    HW2 5007   1.615   1.926   4.937  0.5333 -0.4404 -0.1252
 1370SOL     OW 5008   0.831   6.006   1.984 -0.3397 -0.0295  0.0972
 1370SOL    HW1 5009   0.863   6.002   1.889  0.9938 -2.0722  0.5790
 1370SOL    HW2 5010   0.825   5.914   2.022  0.2521  0.7951  2.3559
 1371SOL     OW 5011   3.704   4.858   3.313  0.0373  0.3544 -0.4617
 1371SOL    HW1 5012   3.613   4.890   3.285 -0.7360 -0.2391  1.2473
 1371SOL    HW2 5013   3.749   4.814   3.235 -0.4523  2.0881 -1.7769
 1372SOL     OW 5014   2.202   0.877   1.523 -0.5372  0.3519  0.7331
 1372SOL    HW1 5015   2.140   0.818   1.574  0.5419 -1.4576  0.0741
 1372SOL    HW2 5016   2.294   0.836   1.523  0.0532  1.5912 -0.5147
 1373SOL     OW 5017   2.271   3.775   1.170  0.2155  0.0324 -0.2624
 1373SOL    HW1 5018   2.324   3.784   1.254  0.4824 -3.4213  0.1038
 1373SOL    HW2 5019   2.179   3.742   1.193 -0.2594  0.6441 -1.2365
 1374SOL     OW 5020   0.309   0.378   2.123 -0.2666 -0.2431  0.8716
 1374SOL    HW1 5021   0.369   0.329   2.060 -1.8440 -0.5680 -0.4493
 1374SOL    HW2 5022   0.267   0.455   2.076 -2.5017 -1.2607  1.0806
 1375SOL     OW 5023   3.405   4.178   3.687 -0.6773  0.1917 -0.2988
 1375SOL    HW1 5024   3.366   4.174   3.595 -0.5122  2.1023 -0.4894
 1375SOL    HW2 5025   3.339   4.141   3.752 -0.6258 -1.5943 -1.1936
 1376SOL     OW 5026   0.470   1.715   1.020  0.0300 -0.6507 -0.5180
 1376SOL    HW1 5027   0.454   1.618   1.000 -0.9672 -0.1566 -2.4132
 1376SOL    HW2 5028   0.497   1.762   0.936 -2.0825  1.1938 -0.2522
 1377SOL     OW 5029   6.590   0.238   6.171 -0.7220 -0.3066 -0.3784
 1377SOL    HW1 5030   6.683   0.226   6.206 -0.7574 -2.9617 -0.9507
 1377SOL    HW2 5031   6.540   0.302   6.229  0.7862 -0.5778  1.3035
 1378SOL     OW 5032   4.952   4.614   4.871 -0.6926 -0.5110 -0.1826
 1378SOL    HW1 5033   4.879   4.628   4.804 -2.0669 -0.3454  1.3001
 1378SOL    HW2 5034   4.977   4.518   4.875  0.1199 -0.3949 -1.6088
 1379SOL     OW 5035   4.913   1.945   4.871 -0.0493  0.0675 -0.0614
 1379SOL    HW1 5036   5.005   1.963   4.838 -0.4370  2.9920  0.1337
 1379SOL    HW2 5037   4.857   1.908   4.796  0.6694  0.6457 -0.9088
 1380SOL     OW 5038   6.833   3.294   0.106  0.2000  0.4056 -0.3516
 1380SOL    HW1 5039   6.918   3.274   0.057 -0.5805  2.3471 -2.6774
 1380SOL    HW2 5040   6.854   3.348   0.187  1.3596 -1.3898  0.6154
 1381SOL     OW 5041   5.253   6.028   5.650 -0.1884  0.6918 -0.5307
 1381SOL    HW1 5042   5.343   5.999   5.617 -0.1022 -1.3005  1.2431
 1381SOL    HW2 5043   5.264   6.098   5.720  0.0035  0.2714 -0.1396
 1382SOL     OW 5044   5.123   4.321   4.874  0.5449 -0.3916  0.0629
 1382SOL    HW1 5045   5.115   4.272   4.787  1.8640  0.8480 -0.7959
 1382SOL    HW2 5046   5.051   4.289   4.936  0.4097 -2.2890 -0.9684
 1383SOL     OW 5047   3.730   6.205   5.449  0.1206  0.5526 -0.5241
 1383SOL    HW1 5048   3.774   6.159   5.526  0.3812 -0.3093 -1.1789
 1383SOL    HW2 5049   3.690   6.137   5.388 -1.7532  1.2876 -0.1875
 1384SOL     OW 5050   6.061   4.306   3.169  0.4984  0.1024 -0.6108
 1384SOL    HW1 5051   6.122   4.257   3.232 -0.7995 -1.2692 -0.3546
 1384SOL    HW2 5052   6.116   4.360   3.105  1.9284 -0.2506  0.2616
 1385SOL     OW 5053   2.821   0.856   1.076  0.0715  0.1278 -0.3261
 1385SOL    HW1 5054   2.809   0.949   1.112 -2.1960  0.8912 -2.7613
 1385SOL    HW2 5055   2.865   0.860   0.986  1.4197 -1.3416  0.2193
 1386SOL     OW 5056   5.247   4.798   1.334 -0.4908  0.0100  0.6877
 1386SOL    HW1 5057   5.217   4.893   1.344  0.7848  0.5502 -0.2697
 1386SOL    HW2 5058   5.300   4.789   1.249  3.3593 -0.4293  2.8732
 1387SOL     OW 5059   6.084   4.765   2.733 -0.3281  0.4146  0.0118
 1387SOL    HW1 5060   6.149   4.763   2.809 -0.5341 -1.6286  0.2042
 1387SOL    HW2 5061   6.105   4.690   2.670 -0.9343  1.3091 -1.2917
 1388SOL     OW 5062   0.235   6.759   2.520  0.6010  0.1980  0.4314
 1388SOL    HW1 5063   0.252   6.757   2.619  0.8526 -0.3388  0.3823
 1388SOL    HW2 5064   0.260   6.671   2.480  0.8656  0.5389 -0.1737
 1389SOL     OW 5065   0.838   1.153   0.661  0.2488 -0.0594 -0.2220
 1389SOL    HW1 5066   0.850   1.205   0.576  1.9242 -2.8531 -1.8406
 1389SOL    HW2 5067   0.927   1.142   0.706 -0.1608 -1.0003  0.3973
 1390SOL     OW 5068   1.621   1.700   0.867 -0.5338  0.1789 -0.3544
 1390SOL    HW1 5069   1.589   1.610   0.894 -0.8553  0.5040  0.3781
 1390SOL    HW2 5070   1.560   1.738   0.796  0.6965 -0.9541 -2.1021
 1391SOL     OW 5071   4.881   3.857   2.405  0.0884  0.3952 -0.2714
 1391SOL    HW1 5072   4.794   3.823   2.440  0.9030 -0.7444  0.7335
 1391SOL    HW2 5073   4.955   3.794   2.430  1.3670  1.8418 -0.1892
 1392SOL     OW 5074   1.111   0.826   3.658  0.2443  0.5933  0.8031
 1392SOL    HW1 5075   1.022   0.866   3.634 -0.9887 -0.6578  2.9450
 1392SOL    HW2 5076   1.097   0.744   3.712  2.7514 -0.2937  0.2483
 1393SOL     OW 5077   3.133   0.969   3.604 -0.4640 -0.0838  0.0239
 1393SOL    HW1 5078   3.063   0.906   3.569  0.1585 -0.7718  0.0066
 1393SOL    HW2 5079   3.142   0.957   3.703 -0.4351  0.0662  0.0389
 1394SOL     OW 5080   0.294   6.993   4.932  0.9539 -0.4373 -0.5751
 1394SOL    HW1 5081   0.387   6.956   4.936  0.9350 -0.4875 -0.5916
 1394SOL    HW2 5082   0.285   7.052   4.852  1.0898 -0.1032 -0.3434
 1395SOL     OW 5083   5.970   3.518   3.579  0.1949  0.1394  0.0816
 1395SOL    HW1 5084   5.953   3.457   3.657 -0.8226 -0.6916 -0.7540
 1395SOL    HW2 5085   5.906   3.595   3.583 -0.5334 -0.4195 -0.4331
 1396SOL     OW 5086   6.143   4.122   6.242 -0.0131  0.1483 -0.2618
 1396SOL    HW1 5087   6.153   4.053   6.170 -1.0270  1.5462 -1.8299
 1396SOL    HW2 5088   6.184   4.089   6.326 -1.2525 -2.7467 -0.6926
 1397SOL     OW 5089   2.482   4.748   6.986  0.4695  0.3846 -0.0361
 1397SOL    HW1 5090   2.471   4.796   7.073  2.6612 -0.0786  0.5517
 1397SOL    HW2 5091   2.540   4.803   6.925  0.9600 -0.4035 -0.2879
 1398SOL     OW 5092   2.508   1.291   4.937  0.1397  0.0835  0.5172
 1398SOL    HW1 5093   2.570   1.367   4.958  1.8846 -1.2037  0.2658
 1398SOL    HW2 5094   2.549   1.232   4.867 -0.7756 -1.5190  1.2545
 1399SOL     OW 5095   3.574   0.967   3.785  0.4643 -0.1590  0.0427
 1399SOL    HW1 5096   3.641   0.900   3.817 -0.1643 -1.3719 -1.0434
 1399SOL    HW2 5097   3.621   1.047   3.750  1.3313 -0.8022 -0.3104
 1400SOL     OW 5098   0.117   1.891   0.021  0.1936  1.2560 -0.0434
 1400SOL    HW1 5099   0.073   1.963  -0.033  0.6583  2.2564  0.8773
 1400SOL    HW2 5100   0.156   1.822  -0.041  0.0429  1.9697 -0.9550
 1401SOL     OW 5101   5.328   3.949   0.551  0.1775  0.3265 -0.6342
 1401SOL    HW1 5102   5.398   3.940   0.623 -1.6067 -1.0165  1.0414
 1401SOL    HW2 5103   5.298   4.044   0.546  0.8088  0.5659 -0.0836
 1402SOL     OW 5104   1.304   0.215   1.755  0.0473 -0.1422  0.1153
 1402SOL    HW1 5105   1.377   0.283   1.745  0.7844 -1.0918 -1.2240
 1402SOL    HW2 5106   1.283   0.202   1.852  0.8927  0.9381  0.4591
 1403SOL     OW 5107   5.692   0.669   1.396  0.1372  0.9268  0.3794
 1403SOL    HW1 5108   5.672   0.664   1.494  1.3274  1.2068  0.6580
 1403SOL    HW2 5109   5.751   0.748   1.379  0.4308  0.5296 -0.4706
 1404SOL     OW 5110   5.456   5.168   4.334  0.3078 -0.2703 -0.3460
 1404SOL    HW1 5111   5.493   5.091   4.386 -0.2095 -0.3501 -0.0927
 1404SOL    HW2 5112   5.480   5.158   4.237  0.2431 -0.7440 -0.3120
 1405SOL     OW 5113   4.540   0.529   6.897 -0.0862 -0.0024  0.1975
 1405SOL    HW1 5114   4.541   0.628   6.888  0.3341  0.0655  0.9339
 1405SOL    HW2 5115   4.535   0.504   6.994 -0.5144 -0.6975  0.0037
 1406SOL     OW 5116   6.447   3.241   0.849 -0.1978  0.0484  0.6252
 1406SOL    HW1 5117   6.353   3.248   0.816  0.2629  0.7569 -0.5952
 1406SOL    HW2 5118   6.457   3.294   0.934 -0.6575  0.8017  0.2189
 1407SOL     OW 5119   1.140   6.834   2.547  0.0709 -0.0955  0.0362
 1407SOL    HW1 5120   1.087   6.812   2.465 -1.4924  0.0470  0.9713
 1407SOL    HW2 5121   1.096   6.794   2.627  1.3025  0.1865  0.8865
 1408SOL     OW 5122   5.061   1.838   1.466  0.8313  0.5757 -0.0654
 1408SOL    HW1 5123   5.068   1.740   1.482  1.2771  0.4220 -1.1235
 1408SOL    HW2 5124   4.975   1.872   1.505  0.7872 -0.1807  0.5219
 1409SOL     OW 5125   4.392   4.541   1.876  0.3389 -0.3920  0.4595
 1409SOL    HW1 5126   4.389   4.442   1.862 -1.5471 -0.3124  0.1591
 1409SOL    HW2 5127   4.324   4.586   1.818  1.0530  1.0811  0.7113
 1410SOL     OW 5128   1.080   5.549   1.073  0.2127 -0.2618  0.2183
 1410SOL    HW1 5129   1.144   5.611   1.028  0.6554  0.0850  1.3057
 1410SOL    HW2 5130   1.070   5.466   1.018  0.1459  0.4649 -0.9025
 1411SOL     OW 5131   1.580   3.086   0.817 -0.0799  0.2944 -0.2058
 1411SOL    HW1 5132   1.569   3.140   0.733 -0.0342  2.1138  0.9059
 1411SOL    HW2 5133   1.621   3.144   0.888 -1.2456 -0.8494  1.4492
 1412SOL     OW 5134   2.168   4.985   0.984 -0.2500  0.1990  0.3571
 1412SOL    HW1 5135   2.124   4.933   1.057  0.3287 -1.2732 -0.3093
 1412SOL    HW2 5136   2.265   4.962   0.981 -0.2822  0.1928 -0.9105
 1413SOL     OW 5137   1.507   5.679   0.497  0.1082  0.0799  0.1808
 1413SOL    HW1 5138   1.410   5.658   0.496  0.5289 -2.1095 -0.7006
 1413SOL    HW2 5139   1.522   5.765   0.546 -2.5086  1.9707 -2.0170
 1414SOL     OW 5140   0.442   5.384   3.543  0.1440 -0.6835  0.0314
 1414SOL    HW1 5141   0.391   5.366   3.458  2.4467 -2.9459 -1.0216
 1414SOL    HW2 5142   0.399   5.333   3.618 -2.6938  2.3474  0.7164
 1415SOL     OW 5143   3.008   5.008   4.606  0.3748 -0.2687  0.1669
 1415SOL    HW1 5144   3.014   4.958   4.692  1.0410  1.1431  0.9724
 1415SOL    HW2 5145   3.091   4.993   4.553  0.0867 -0.9099 -0.1136
 1416SOL     OW 5146   6.147   6.549   1.558  0.3734 -0.6391  0.2236
 1416SOL    HW1 5147   6.156   6.615   1.483  0.3581  0.6579  1.3211
 1416SOL    HW2 5148   6.234   6.502   1.571  0.8572  0.2669  0.3892
 1417SOL     OW 5149   3.753   2.658   1.017 -0.6848 -0.5420  0.2667
 1417SOL    HW1 5150   3.787   2.613   0.934 -1.3803  0.3406 -0.5211
 1417SOL    HW2 5151   3.830   2.681   1.076 -0.0443  0.0143 -0.7548
 1418SOL     OW 5152   0.293   2.748   2.734 -0.3351 -0.1854  0.3235
 1418SOL    HW1 5153   0.356   2.800   2.676  0.1580 -2.4796 -1.3156
 1418SOL    HW2 5154   0.338   2.727   2.821  0.5491 -0.3526 -0.1620
 1419SOL     OW 5155   6.227   2.792   1.643 -0.7310 -0.1648 -0.1831
 1419SOL    HW1 5156   6.269   2.876   1.609  0.0953  0.1659  1.5360
 1419SOL    HW2 5157   6.201   2.804   1.739 -0.1802 -1.9902  0.2435
 1420SOL     OW 5158   0.886   5.558   6.165  0.4326 -0.0995 -0.1856
 1420SOL    HW1 5159   0.934   5.623   6.107 -0.3079 -1.0446 -1.9502
 1420SOL    HW2 5160   0.796   5.539   6.126 -0.6985  0.2746  2.0590
 1421SOL     OW 5161   4.445   4.766   6.004 -0.7837 -0.3318 -0.1084
 1421SOL    HW1 5162   4.425   4.668   5.994 -0.8382 -0.2909 -0.4063
 1421SOL    HW2 5163   4.500   4.780   6.086 -0.5843 -0.6402 -0.1860
 1422SOL     OW 5164   0.812   3.111   2.003  0.0773  0.3051 -0.3114
 1422SOL    HW1 5165   0.904   3.078   2.025 -0.2007  0.4946  1.3138
 1422SOL    HW2 5166   0.768   3.047   1.940  1.5851  0.6256 -1.7393
 1423SOL     OW 5167   0.138   5.075   6.471  0.0667  0.8386 -0.5939
 1423SOL    HW1 5168   0.092   5.124   6.546  0.5190  0.3368  0.0233
 1423SOL    HW2 5169   0.185   5.140   6.412  0.2054  1.1969 -0.0948
 1424SOL     OW 5170   4.595   1.289   1.653 -0.0816 -0.6270  0.0651
 1424SOL    HW1 5171   4.617   1.232   1.732  0.1214 -0.6032  0.0270
 1424SOL    HW2 5172   4.539   1.366   1.683  1.0984  0.1217  0.4292
 1425SOL     OW 5173   2.103   6.469   2.930  0.2630  0.4014 -0.1564
 1425SOL    HW1 5174   2.196   6.495   2.956 -0.0925 -0.6926  2.4560
 1425SOL    HW2 5175   2.037   6.524   2.981 -0.4988 -0.8449  0.2401
 1426SOL     OW 5176   2.606   0.881   0.904 -0.1327 -0.2214  0.0930
 1426SOL    HW1 5177   2.666   0.847   0.976  1.3174 -2.1593 -1.8999
 1426SOL    HW2 5178   2.633   0.973   0.878  0.4612 -0.1901  0.8049
 1427SOL     OW 5179   1.080   1.530   1.393  0.4543  0.1285  0.0917
 1427SOL    HW1 5180   1.162   1.482   1.361  2.1077  1.8429  1.5536
 1427SOL    HW2 5181   1.059   1.502   1.486 -1.0274 -0.7283 -0.4644
 1428SOL     OW 5182   0.638   6.283   4.611 -0.2486 -0.0675  0.4466
 1428SOL    HW1 5183   0.554   6.250   4.655 -1.0539 -1.1966 -1.7976
 1428SOL    HW2 5184   0.713   6.221   4.632 -0.1354  0.4642  1.7389
 1429SOL     OW 5185   5.443   4.889   2.770 -0.0743 -0.3340  0.1375
 1429SOL    HW1 5186   5.492   4.831   2.835 -0.8229  0.7045  1.6920
 1429SOL    HW2 5187   5.509   4.939   2.714  0.6455 -0.0207  1.2309
 1430SOL     OW 5188   0.787   4.195   6.249 -0.0946 -0.1809 -0.7590
 1430SOL    HW1 5189   0.701   4.244   6.233 -0.1761  0.5956  1.6334
 1430SOL    HW2 5190   0.772   4.097   6.233 -1.8237 -0.2289  0.7321
 1431SOL     OW 5191   5.993   3.611   2.422 -0.2509  0.4728  0.3112
 1431SOL    HW1 5192   6.008   3.604   2.521  0.6501  1.1154  0.2340
 1431SOL    HW2 5193   6.043   3.690   2.386  0.8237 -0.7209 -0.9321
 1432SOL     OW 5194   3.243   6.448   1.957  0.4089 -0.0855 -0.6631
 1432SOL    HW1 5195   3.298   6.530   1.948  1.6610 -0.6531  1.3267
 1432SOL    HW2 5196   3.146   6.473   1.964  0.7762  1.1993 -0.0803
 1433SOL     OW 5197   0.465   1.175   4.543  0.3680  0.1633  0.3450
 1433SOL    HW1 5198   0.514   1.108   4.599 -0.3315 -0.3593  0.3358
 1433SOL    HW2 5199   0.531   1.234   4.497  1.0603 -1.5558 -0.9591
 1434SOL     OW 5200   1.249   3.475   1.237  0.0637 -0.2418  0.2572
 1434SOL    HW1 5201   1.238   3.399   1.172  0.9832 -0.9520  0.9003
 1434SOL    HW2 5202   1.218   3.560   1.194 -1.2298 -1.0005 -0.3992
 1435SOL     OW 5203   1.043   6.408   6.198  0.5207  0.2145 -1.0745
 1435SOL    HW1 5204   0.975   6.458   6.252  0.2574 -0.4963 -0.7366
 1435SOL    HW2 5205   1.019   6.311   6.195  0.7663  0.1776 -2.1306
 1436SOL     OW 5206   5.634   2.380   1.569 -0.4699 -0.1660  0.1794
 1436SOL    HW1 5207   5.542   2.419   1.580 -0.7990 -1.0958  0.8492
 1436SOL    HW2 5208   5.628   2.280   1.565  0.4015 -0.1872 -1.0337
 1437SOL     OW 5209   2.022   2.540   2.994  0.0372  0.2242 -0.0353
 1437SOL    HW1 5210   2.020   2.594   2.909 -0.1894 -0.3224 -0.3825
 1437SOL    HW2 5211   1.977   2.591   3.067  0.3541  0.7602 -0.2027
 1438SOL     OW 5212   3.632   6.868   0.983 -0.0494  0.0529  0.5091
 1438SOL    HW1 5213   3.709   6.806   0.998  3.0558  2.9684 -1.9946
 1438SOL    HW2 5214   3.571   6.865   1.062  2.5898 -2.3898  2.6713
 1439SOL     OW 5215   3.510   1.040   6.263  0.1070  0.1990  0.3716
 1439SOL    HW1 5216   3.522   0.944   6.288 -2.5023 -0.2998  0.0456
 1439SOL    HW2 5217   3.443   1.081   6.325 -0.2859  1.2417 -0.7112
 1440SOL     OW 5218   3.011   0.496   2.292  0.7067  0.2017  0.6146
 1440SOL    HW1 5219   2.925   0.449   2.311  0.6001 -1.3813 -3.0239
 1440SOL    HW2 5220   2.992   0.587   2.256  0.4650 -0.3441 -0.6926
 1441SOL     OW 5221   4.325   1.301   2.497 -0.8359 -0.1629 -0.0896
 1441SOL    HW1 5222   4.338   1.253   2.585  1.6359  0.2480 -0.1484
 1441SOL    HW2 5223   4.294   1.394   2.515 -3.6385 -1.0521  0.1223
 1442SOL     OW 5224   4.087   6.715   2.081  0.6029  0.4021  0.4794
 1442SOL    HW1 5225   4.105   6.807   2.047  1.0058  0.0435 -0.2948
 1442SOL    HW2 5226   4.154   6.692   2.152 -0.4400  1.2760  1.8138
 1443SOL     OW 5227   6.123   5.232   2.642 -0.1079  0.4361 -0.2744
 1443SOL    HW1 5228   6.044   5.227   2.582  0.9408 -1.4427 -1.6335
 1443SOL    HW2 5229   6.199   5.181   2.600  1.1392  0.3460  1.9646
 1444SOL     OW 5230   1.583   5.328   2.630 -0.2314 -0.2534 -0.3054
 1444SOL    HW1 5231   1.592   5.346   2.532  1.1035  0.6622 -0.0363
 1444SOL    HW2 5232   1.642   5.251   2.655  1.0006  0.7905  0.1059
 1445SOL     OW 5233   1.575   1.303   6.260  0.0168 -0.3205 -0.3293
 1445SOL    HW1 5234   1.481   1.328   6.237  0.2133  1.2891  0.4841
 1445SOL    HW2 5235   1.634   1.382   6.249  0.9738 -0.8420  0.8478
 1446SOL     OW 5236   1.540   6.286   6.420  0.1280  0.2772 -0.5542
 1446SOL    HW1 5237   1.603   6.259   6.347  1.4456  0.9068  0.3031
 1446SOL    HW2 5238   1.465   6.221   6.426  1.1834 -1.0131 -1.0173
 1447SOL     OW 5239   6.371   1.631   0.929  0.2952 -0.1404  0.7543
 1447SOL    HW1 5240   6.465   1.661   0.913 -0.3811  1.3020 -0.8092
 1447SOL    HW2 5241   6.344   1.565   0.859 -0.9427  2.1738 -1.1335
 1448SOL     OW 5242   3.737   0.505   3.862 -0.0304 -0.0638  0.3540
 1448SOL    HW1 5243   3.777   0.494   3.953 -1.4983  0.3820  1.0828
 1448SOL    HW2 5244   3.687   0.591   3.858  3.1998  1.9071 -2.1558
 1449SOL     OW 5245   3.782   4.713   6.498  0.2624 -0.0548  0.2404
 1449SOL    HW1 5246   3.703   4.770   6.522  0.6649  0.4923  0.2804
 1449SOL    HW2 5247   3.862   4.742   6.551  0.9181  0.5301 -1.0237
 1450SOL     OW 5248   6.831   0.094   3.038 -0.1897  0.2341 -0.0888
 1450SOL    HW1 5249   6.822   0.005   2.994 -3.0063  0.6525 -0.5028
 1450SOL    HW2 5250   6.797   0.166   2.977 -3.6484  0.9165  2.3503
 1451SOL     OW 5251   3.091   0.942   4.794  0.3793 -0.8833 -0.4889
 1451SOL    HW1 5252   2.996   0.933   4.823  0.0571 -0.2346 -1.3105
 1451SOL    HW2 5253   3.151   0.948   4.874 -0.2169 -1.7185  0.0376
 1452SOL     OW 5254   6.384   5.838   1.244 -0.3015 -0.0119 -0.1896
 1452SOL    HW1 5255   6.323   5.760   1.260  0.0556 -0.4689 -0.9781
 1452SOL    HW2 5256   6.470   5.806   1.206 -0.0621  0.7507 -0.3169
 1453SOL     OW 5257   2.259   2.593   2.182 -0.0110 -0.5003 -0.0533
 1453SOL    HW1 5258   2.331   2.531   2.213  0.4432  0.1998  0.3144
 1453SOL    HW2 5259   2.170   2.547   2.187  0.3161 -1.1080  0.2271
 1454SOL     OW 5260   5.841   5.483   3.572  0.5596 -0.6206 -0.1593
 1454SOL    HW1 5261   5.795   5.568   3.597  1.3120 -0.5388  0.9955
 1454SOL    HW2 5262   5.776   5.408   3.575  0.3924 -0.4391  1.0342
 1455SOL     OW 5263   3.433   3.405   5.096 -0.1628  0.2330  0.9297
 1455SOL    HW1 5264   3.517   3.396   5.042 -0.0975  0.3419  1.0139
 1455SOL    HW2 5265   3.441   3.484   5.156 -0.9992  1.2667 -0.2670
 1456SOL     OW 5266   4.733   2.999   1.657 -0.3772 -0.4633  0.7467
 1456SOL    HW1 5267   4.803   3.069   1.669  0.4604 -1.0050 -0.7254
 1456SOL    HW2 5268   4.681   2.989   1.742 -0.0505  1.4092  1.2233
 1457SOL     OW 5269   1.470   1.672   1.353  0.7468  0.1976  0.0184
 1457SOL    HW1 5270   1.433   1.582   1.329 -1.6411  1.2127 -0.3816
 1457SOL    HW2 5271   1.485   1.725   1.270  0.3892  0.8158  0.3427
 1458SOL     OW 5272   2.214   4.013   3.874 -0.0683  0.4356  0.0549
 1458SOL    HW1 5273   2.212   3.927   3.924  0.1753  0.7896  0.6878
 1458SOL    HW2 5274   2.208   3.995   3.776  0.3384 -0.3164  0.1619
 1459SOL     OW 5275   0.711   0.996   4.888 -0.6745  0.0095 -0.0589
 1459SOL    HW1 5276   0.623   1.011   4.933 -1.4427 -0.8172 -1.2417
 1459SOL    HW2 5277   0.701   1.010   4.790  0.7711  0.9010 -0.1079
 1460SOL     OW 5278   2.838   5.904   1.071  0.6091 -0.0091  0.4173
 1460SOL    HW1 5279   2.800   5.853   0.995 -1.8677  1.6469  0.4105
 1460SOL    HW2 5280   2.806   5.865   1.157  2.0086 -0.8314  0.6041
 1461SOL     OW 5281   5.091   3.550   1.679 -0.2872 -0.5584 -0.0425
 1461SOL    HW1 5282   5.119   3.486   1.751  1.4619 -0.3464 -0.4975
 1461SOL    HW2 5283   4.997   3.529   1.651 -0.3334 -1.8560  0.9717
 1462SOL     OW 5284   1.985   3.023   1.403  0.5630 -0.4327 -0.2748
 1462SOL    HW1 5285   2.021   3.116   1.406  2.3370 -1.1148  1.0759
 1462SOL    HW2 5286   1.965   2.992   1.496 -0.4783 -1.2535 -0.7485
 1463SOL     OW 5287   3.602   0.883   1.123 -0.3272  0.4401 -0.1844
 1463SOL    HW1 5288   3.531   0.929   1.177 -0.7587 -1.6411  1.1723
 1463SOL    HW2 5289   3.688   0.883   1.175 -0.7564 -1.6214  0.6143
 1464SOL     OW 5290   4.783   0.921   4.535 -0.2851  0.1539 -0.6035
 1464SOL    HW1 5291   4.772   0.998   4.598 -1.3631 -1.2047  0.9707
 1464SOL    HW2 5292   4.694   0.894   4.499 -0.3329 -1.8506  0.8315
 1465SOL     OW 5293   3.432   4.837   1.036  0.2540  0.2500 -0.2059
 1465SOL    HW1 5294   3.465   4.817   1.129 -0.3741  0.5435  0.0909
 1465SOL    HW2 5295   3.350   4.782   1.018  0.0994  0.5409 -0.4047
 1466SOL     OW 5296   1.237   4.925   1.322 -0.0818  0.7672 -0.4745
 1466SOL    HW1 5297   1.170   4.866   1.366 -0.2231  0.6870 -0.7933
 1466SOL    HW2 5298   1.287   4.976   1.392  0.6488 -0.3692 -0.1351
 1467SOL     OW 5299   0.863   6.750   0.039 -0.7608  0.1024 -0.1954
 1467SOL    HW1 5300   0.772   6.777   0.073 -0.4873 -0.4559  1.0389
 1467SOL    HW2 5301   0.923   6.829   0.039  0.1169 -0.3744  3.6547
 1468SOL     OW 5302   6.609   4.457   1.821 -0.1502  0.0732  0.3109
 1468SOL    HW1 5303   6.576   4.422   1.909  1.3854 -1.7781  0.2150
 1468SOL    HW2 5304   6.578   4.398   1.747 -1.1477  1.4282 -0.3986
 1469SOL     OW 5305   3.307   1.288   2.566 -0.2845  0.0471 -0.0777
 1469SOL    HW1 5306   3.278   1.361   2.505 -0.8249 -0.9099 -0.9977
 1469SOL    HW2 5307   3.237   1.217   2.570  1.3613 -1.8001 -1.5030
 1470SOL     OW 5308   2.682   2.321   2.764  0.2541  0.0422  0.2312
 1470SOL    HW1 5309   2.693   2.344   2.667 -0.2019 -1.6384 -0.2482
 1470SOL    HW2 5310   2.629   2.392   2.810 -1.6371 -0.3243 -1.3016
 1471SOL     OW 5311   0.778   5.581   3.785 -0.2436  0.2567 -0.4577
 1471SOL    HW1 5312   0.839   5.505   3.764 -1.7755 -0.8325 -1.1998
 1471SOL    HW2 5313   0.714   5.555   3.858 -1.3178  0.4974 -1.2736
 1472SOL     OW 5314   4.478   0.036   1.386  0.3703 -0.1843  0.1729
 1472SOL    HW1 5315   4.577   0.041   1.392  0.3019  2.2639  0.2037
 1472SOL    HW2 5316   4.448   0.054   1.292 -0.0539 -0.5345  0.2359
 1473SOL     OW 5317   2.690   2.654   6.901 -0.1833  0.3457  0.4837
 1473SOL    HW1 5318   2.744   2.570   6.912  1.5877  1.5086  1.1877
 1473SOL    HW2 5319   2.700   2.688   6.807  0.5066  0.6708  0.6707
 1474SOL     OW 5320   1.640   3.221   4.944 -0.0266  0.5490 -0.1300
 1474SOL    HW1 5321   1.677   3.282   4.874  2.0339 -1.4577 -0.9001
 1474SOL    HW2 5322   1.680   3.130   4.934 -0.9906 -0.2744  2.6102
 1475SOL     OW 5323   4.816   4.446   4.048  0.3168  0.2671 -0.2873
 1475SOL    HW1 5324   4.826   4.542   4.024  2.4798 -0.3669 -2.2635
 1475SOL    HW2 5325   4.806   4.392   3.964  1.1084 -1.3931  0.6460
 1476SOL     OW 5326   6.736   5.257   4.614  0.1585  0.5633 -0.5231
 1476SOL    HW1 5327   6.645   5.290   4.590  0.2104 -0.3338 -2.1246
 1476SOL    HW2 5328   6.745   5.250   4.713 -1.9663 -0.5046 -0.3618
 1477SOL     OW 5329   5.263   3.319   0.059  0.5498  0.2198 -0.0368
 1477SOL    HW1 5330   5.166   3.316   0.036  0.5620 -1.0201  0.0372
 1477SOL    HW2 5331   5.309   3.238   0.023  1.3955  0.3661  0.6728
 1478SOL     OW 5332   6.240   0.694   6.301  0.1704 -0.2794  0.5734
 1478SOL    HW1 5333   6.169   0.624   6.308  1.2470 -1.4415  0.1575
 1478SOL    HW2 5334   6.330   0.650   6.293  0.8296  1.1396 -0.1736
 1479SOL     OW 5335   3.355   5.796   4.766 -0.0398  0.3619 -0.1352
 1479SOL    HW1 5336   3.394   5.806   4.858  1.8690 -1.0050 -0.7458
 1479SOL    HW2 5337   3.428   5.792   4.699 -1.3990  3.6241 -2.0647
 1480SOL     OW 5338   2.266   4.079   2.296  0.2972  0.3167 -0.1951
 1480SOL    HW1 5339   2.272   3.980   2.298 -0.1272  0.3009  0.3881
 1480SOL    HW2 5340   2.225   4.108   2.209 -1.3509 -0.1299  0.3975
 1481SOL     OW 5341   4.866   0.404   1.670  0.2337 -0.0450  0.0180
 1481SOL    HW1 5342   4.823   0.315   1.685  0.4762 -0.2956 -0.7213
 1481SOL    HW2 5343   4.917   0.430   1.752 -0.5850 -0.1563  0.5744
 1482SOL     OW 5344   2.070   4.571   3.272 -0.2557 -0.5968 -0.0165
 1482SOL    HW1 5345   2.163   4.597   3.298 -0.3034  1.3667 -1.5973
 1482SOL    HW2 5346   2.036   4.503   3.337  2.2707 -1.4212  0.5770
 1483SOL     OW 5347   4.908   5.746   2.046  0.2381 -0.3855  0.5980
 1483SOL    HW1 5348   4.909   5.831   1.993  0.4133 -0.5164  0.3857
 1483SOL    HW2 5349   4.814   5.712   2.052 -0.0184  0.5009  1.8008
 1484SOL     OW 5350   5.970   5.159   5.868  0.4501  0.4867 -0.4167
 1484SOL    HW1 5351   5.998   5.063   5.860 -1.8344 -0.5130  1.8678
 1484SOL    HW2 5352   5.983   5.190   5.962  0.1946  2.0906 -0.8794
 1485SOL     OW 5353   1.169   2.647   1.301 -0.2954  0.4296 -0.7531
 1485SOL    HW1 5354   1.232   2.722   1.322 -1.4711  1.6413 -1.4201
 1485SOL    HW2 5355   1.103   2.677   1.233 -0.4697 -1.4101 -1.4541
 1486SOL     OW 5356   1.924   1.362   2.856  0.0385 -0.2319  0.0489
 1486SOL    HW1 5357   2.023   1.358   2.866 -0.0334 -1.4019  0.5119
 1486SOL    HW2 5358   1.898   1.339   2.763  0.2606  1.7266 -0.5440
 1487SOL     OW 5359   0.072   6.596   6.925  0.0642 -0.5894  0.3031
 1487SOL    HW1 5360   0.122   6.585   7.010  0.5503 -0.4156  0.0456
 1487SOL    HW2 5361   0.085   6.515   6.867  0.7708 -0.1826 -0.1264
 1488SOL     OW 5362   5.847   3.678   7.013  0.6316 -0.3166 -0.0642
 1488SOL    HW1 5363   5.811   3.682   7.106  2.4551 -0.6712  0.7093
 1488SOL    HW2 5364   5.842   3.769   6.972  0.8733  0.1174  0.8275
 1489SOL     OW 5365   1.333   1.329   3.724  0.2096  0.9100  0.1495
 1489SOL    HW1 5366   1.382   1.411   3.753  0.6097  0.8284 -0.2863
 1489SOL    HW2 5367   1.392   1.273   3.666 -0.1673  0.4690  0.1811
 1490SOL     OW 5368   3.699   3.597   5.144  0.3876  0.5126 -0.0253
 1490SOL    HW1 5369   3.662   3.685   5.173  0.2335  0.1620  0.8874
 1490SOL    HW2 5370   3.670   3.577   5.050 -1.5723  0.3651  0.5691
 1491SOL     OW 5371   2.839   0.132   4.230 -0.0840 -0.4289  0.0319
 1491SOL    HW1 5372   2.876   0.138   4.138 -1.0271  1.3919 -0.2734
 1491SOL    HW2 5373   2.909   0.097   4.292  1.8898  1.9374 -0.7010
 1492SOL     OW 5374   0.543   1.872   1.216 -0.2024 -0.1984  0.5869
 1492SOL    HW1 5375   0.517   1.817   1.295 -0.9884 -0.1039  0.3967
 1492SOL    HW2 5376   0.532   1.817   1.133  0.9615 -0.4175  0.5565
 1493SOL     OW 5377   1.561   6.089   1.589 -0.0256 -0.2929 -0.2065
 1493SOL    HW1 5378   1.499   6.111   1.664  0.5057 -2.7997  1.0650
 1493SOL    HW2 5379   1.517   6.023   1.528  0.2236  0.3679 -1.1184
 1494SOL     OW 5380   6.050   2.565   6.012  0.4004  0.3913  0.3876
 1494SOL    HW1 5381   6.040   2.664   6.008  1.0305  0.4395 -0.2063
 1494SOL    HW2 5382   6.100   2.533   5.932  1.0924 -0.2995  1.0781
 1495SOL     OW 5383   1.086   6.921   4.769  0.0624 -0.1264  0.3362
 1495SOL    HW1 5384   1.044   6.923   4.678 -0.7383 -1.9277  0.6223
 1495SOL    HW2 5385   1.182   6.947   4.762 -0.8232  3.5386 -0.4188
 1496SOL     OW 5386   5.518   6.879   1.068 -0.2058 -0.1852  0.3482
 1496SOL    HW1 5387   5.497   6.815   1.142 -1.3076  0.0783  0.2899
 1496SOL    HW2 5388   5.515   6.831   0.981  0.1570 -0.3029  0.4008
 1497SOL     OW 5389   0.135   0.950   0.808  0.0673  0.1903 -0.0335
 1497SOL    HW1 5390   0.071   0.882   0.773 -0.0129  0.5630 -0.6155
 1497SOL    HW2 5391   0.112   1.040   0.770 -0.0307  0.6078  0.9731
 1498SOL     OW 5392   3.404   1.688   3.825 -0.0348 -0.7035 -0.1059
 1498SOL    HW1 5393   3.388   1.648   3.915  2.0855  2.5595  1.9512
 1498SOL    HW2 5394   3.492   1.657   3.789 -0.5765 -1.4942 -0.7778
 1499SOL     OW 5395   0.949   4.627   3.602 -0.5746 -0.4109  0.5588
 1499SOL    HW1 5396   1.034   4.645   3.553 -1.5404 -2.0487 -1.8738
 1499SOL    HW2 5397   0.952   4.535   3.641 -2.3481 -1.7640 -2.2700
 1500SOL     OW 5398   2.401   6.072   4.318 -0.3654 -0.2325 -0.3820
 1500SOL    HW1 5399   2.337   6.128   4.371 -1.5149  0.4976 -2.4564
 1500SOL    HW2 5400   2.405   6.104   4.224  2.2127 -1.0113 -0.6312
 1501SOL     OW 5401   2.774   1.658   3.368  0.3683 -0.7702  0.0906
 1501SOL    HW1 5402   2.681   1.693   3.374  0.5992 -0.0979 -0.1916
 1501SOL    HW2 5403   2.828   1.715   3.306  0.2274 -2.7680 -1.9722
 1502SOL     OW 5404   5.103   4.544   5.288 -0.3998  1.1210 -0.1947
 1502SOL    HW1 5405   5.013   4.545   5.246 -0.6892 -0.1747  0.3256
 1502SOL    HW2 5406   5.142   4.451   5.281 -0.4038  0.8812  2.1907
 1503SOL     OW 5407   6.707   4.110   6.599  0.2174 -0.1825  0.1540
 1503SOL    HW1 5408   6.739   4.159   6.518 -1.2026  0.4413 -0.0623
 1503SOL    HW2 5409   6.728   4.164   6.680 -0.2673  0.2124  0.0179
 1504SOL     OW 5410   3.867   4.913   6.671  0.4306  0.0897  0.0694
 1504SOL    HW1 5411   3.870   4.965   6.757 -2.0199  0.8506 -0.2373
 1504SOL    HW2 5412   3.910   4.967   6.598 -0.3417  0.8584  0.1694
 1505SOL     OW 5413   6.299   2.387   6.914 -0.0804 -0.5542  0.1952
 1505SOL    HW1 5414   6.244   2.470   6.922  0.3124 -0.3670  1.0348
 1505SOL    HW2 5415   6.347   2.388   6.826  0.2073  0.2892  0.3524
 1506SOL     OW 5416   6.776   0.946   2.349  0.1334 -0.0797  0.2101
 1506SOL    HW1 5417   6.870   0.963   2.319  0.2082 -1.0304 -0.1297
 1506SOL    HW2 5418   6.762   0.986   2.440  0.4556  1.2384 -0.3106
 1507SOL     OW 5419   0.187   6.078   5.459  0.5373  0.0240  0.3241
 1507SOL    HW1 5420   0.211   6.147   5.392 -0.0878  0.6859  0.7729
 1507SOL    HW2 5421   0.088   6.063   5.459  0.6072 -0.4757  0.6067
 1508SOL     OW 5422   4.065   1.045   2.700  0.1278  0.4122 -0.3374
 1508SOL    HW1 5423   4.054   1.097   2.615  0.0076  1.3299  0.2420
 1508SOL    HW2 5424   4.042   0.949   2.682 -1.0699  0.8105 -1.0570
 1509SOL     OW 5425   6.050   4.392   1.753  0.6179  0.1371 -0.3587
 1509SOL    HW1 5426   6.111   4.467   1.727 -0.5503  0.9279 -0.9207
 1509SOL    HW2 5427   6.008   4.414   1.841  2.5066 -1.2765  0.9808
 1510SOL     OW 5428   0.557   4.396   3.693  0.3983 -0.3562  0.3001
 1510SOL    HW1 5429   0.541   4.488   3.657  3.0366 -0.2176 -0.7535
 1510SOL    HW2 5430   0.504   4.383   3.777 -2.0767  1.1242 -0.9148
 1511SOL     OW 5431   5.228   6.006   1.966 -0.2154 -0.0188  0.0598
 1511SOL    HW1 5432   5.235   5.916   2.008 -3.7659 -0.6524 -0.3829
 1511SOL    HW2 5433   5.230   6.076   2.037  1.5591 -0.4577  0.4900
 1512SOL     OW 5434   4.758   6.949   5.708 -0.2387 -0.3643 -0.1703
 1512SOL    HW1 5435   4.775   7.010   5.785 -1.7333  1.0776 -0.9456
 1512SOL    HW2 5436   4.799   6.859   5.728 -1.2663 -0.3070  2.6576
 1513SOL     OW 5437   1.971   0.881   0.146  0.0408 -0.4598  0.3334
 1513SOL    HW1 5438   1.983   0.800   0.088 -0.4239  0.2626 -0.8249
 1513SOL    HW2 5439   1.939   0.957   0.089 -0.5758  0.2424  1.5871
 1514SOL     OW 5440   3.888   1.579   2.014  0.6569 -0.0272 -0.0246
 1514SOL    HW1 5441   3.888   1.618   1.922 -0.2367 -0.5924 -0.2813
 1514SOL    HW2 5442   3.974   1.601   2.060  0.2808  2.0700 -0.2223
 1515SOL     OW 5443   4.369   3.516   6.285 -0.7465  0.2523  0.0532
 1515SOL    HW1 5444   4.398   3.443   6.346  0.1677 -0.2020 -0.8788
 1515SOL    HW2 5445   4.435   3.591   6.289 -1.1644  0.6108  0.2932
 1516SOL     OW 5446   5.472   4.865   1.872 -0.1758 -0.4087  0.6554
 1516SOL    HW1 5447   5.434   4.777   1.844 -2.1764  0.3293  0.9345
 1516SOL    HW2 5448   5.487   4.922   1.791 -2.7956  0.4754  0.6980
 1517SOL     OW 5449   5.857   5.371   6.739 -0.0298  0.1844 -0.3755
 1517SOL    HW1 5450   5.785   5.323   6.789 -0.6315  1.6014  0.1662
 1517SOL    HW2 5451   5.910   5.428   6.802  2.2579 -1.5524 -0.5729
 1518SOL     OW 5452   6.543   0.478   0.538 -0.6035  0.1804  0.6861
 1518SOL    HW1 5453   6.546   0.458   0.440 -2.9983 -0.2748  0.6382
 1518SOL    HW2 5454   6.512   0.571   0.552  0.1028  0.3723  1.0316
 1519SOL     OW 5455   2.277   5.700   6.603 -0.0474  0.6610  0.1193
 1519SOL    HW1 5456   2.178   5.696   6.586 -0.0293 -0.2033  0.2079
 1519SOL    HW2 5457   2.322   5.746   6.526 -0.3674 -0.1119 -0.5401
 1520SOL     OW 5458   1.067   1.691   4.979  0.0451  0.1005  0.3884
 1520SOL    HW1 5459   1.044   1.742   4.895  0.7550  1.8394  1.2003
 1520SOL    HW2 5460   0.982   1.663   5.024 -0.3583  0.1347 -0.3253
 1521SOL     OW 5461   5.906   2.034   5.299 -0.4129  0.3372  0.3339
 1521SOL    HW1 5462   5.963   2.032   5.381 -0.3482  0.6665  0.2967
 1521SOL    HW2 5463   5.962   2.064   5.221 -0.5119  0.1710  0.1960
 1522SOL     OW 5464   0.634   5.791   1.258  0.0910  0.0291 -0.2847
 1522SOL    HW1 5465   0.605   5.788   1.354 -0.0297 -1.3524 -0.3531
 1522SOL    HW2 5466   0.724   5.748   1.249 -0.3436 -0.7664 -0.9377
 1523SOL     OW 5467   6.337   3.417   6.217 -0.2691 -0.0492 -0.0168
 1523SOL    HW1 5468   6.405   3.357   6.174  0.7720 -0.2916  1.8914
 1523SOL    HW2 5469   6.383   3.493   6.262 -1.0963 -0.9833  2.5510
 1524SOL     OW 5470   4.991   6.368   5.721  0.3670  0.1412 -0.2658
 1524SOL    HW1 5471   4.974   6.341   5.626 -1.6541  0.0064  0.0703
 1524SOL    HW2 5472   4.911   6.418   5.756  1.3912  0.8660  1.1327
 1525SOL     OW 5473   3.640   2.426   0.517  0.3000 -0.0626  0.2400
 1525SOL    HW1 5474   3.591   2.341   0.539  1.7669 -0.3628  2.7959
 1525SOL    HW2 5475   3.586   2.504   0.548  0.1086 -0.2182  0.3034
 1526SOL     OW 5476   1.692   1.041   6.791  0.0835  0.3861 -0.5578
 1526SOL    HW1 5477   1.605   1.035   6.839  0.1693 -0.5719 -0.5105
 1526SOL    HW2 5478   1.690   1.119   6.727 -0.4626  0.9273  0.1045
 1527SOL     OW 5479   6.181   5.647   0.398 -0.5574  0.2957  0.6242
 1527SOL    HW1 5480   6.260   5.686   0.351  0.0572 -0.0133  1.3675
 1527SOL    HW2 5481   6.134   5.718   0.449 -1.5657  0.7506 -0.8712
 1528SOL     OW 5482   0.031   2.449   3.153 -0.2246  0.2676 -0.1665
 1528SOL    HW1 5483  -0.053   2.395   3.163  0.3248 -0.9822 -1.7792
 1528SOL    HW2 5484   0.044   2.507   3.234 -2.0812 -0.2764  0.5668
 1529SOL     OW 5485   5.659   6.956   0.350  0.0221  0.7127  0.8445
 1529SOL    HW1 5486   5.562   6.971   0.332 -0.0598  2.4262  2.3733
 1529SOL    HW2 5487   5.669   6.876   0.408 -0.7579  1.8025  2.5884
 1530SOL     OW 5488   6.572   1.769   6.933  0.1115 -0.2425  0.0706
 1530SOL    HW1 5489   6.649   1.833   6.926 -0.0050  0.0907  1.5907
 1530SOL    HW2 5490   6.594   1.686   6.881  0.8868  0.4178 -0.6973
 1531SOL     OW 5491   6.084   3.347   5.402  0.2690  0.3030 -0.2718
 1531SOL    HW1 5492   5.986   3.337   5.390 -0.1290  1.6618  1.3728
 1531SOL    HW2 5493   6.133   3.287   5.338 -1.6215 -2.1910  0.4882
 1532SOL     OW 5494   4.795   5.601   6.368 -0.2209  0.5163  0.4402
 1532SOL    HW1 5495   4.742   5.530   6.322  2.3888 -0.8993 -0.6336
 1532SOL    HW2 5496   4.791   5.587   6.467 -0.1974 -0.8229  0.2660
 1533SOL     OW 5497   0.720   1.746   6.662  0.0412 -0.7693 -0.2961
 1533SOL    HW1 5498   0.751   1.789   6.747 -0.9019 -0.4345 -0.1084
 1533SOL    HW2 5499   0.663   1.667   6.684 -0.0119 -0.8229 -0.6229
 1534SOL     OW 5500   2.043   1.605   1.822 -0.0321  0.0990  0.3934
 1534SOL    HW1 5501   2.119   1.541   1.811  0.4592  0.8462 -0.7164
 1534SOL    HW2 5502   1.957   1.554   1.828  0.5124 -0.7470  1.4764
 1535SOL     OW 5503   4.387   2.387   3.834  0.7438 -0.3260 -0.4818
 1535SOL    HW1 5504   4.460   2.452   3.855  0.2382  0.4087 -0.9410
 1535SOL    HW2 5505   4.360   2.339   3.917  1.5374 -0.3881 -0.2496
 1536SOL     OW 5506   1.536   3.232   1.130  0.7206  0.3066  0.2682
 1536SOL    HW1 5507   1.558   3.135   1.123 -0.0697  0.1428 -0.0007
 1536SOL    HW2 5508   1.591   3.283   1.064  2.1963  0.2328  1.3813
 1537SOL     OW 5509   0.369   0.832   1.792  0.1599  0.9814 -0.0580
 1537SOL    HW1 5510   0.434   0.755   1.787 -1.4886 -0.5918  1.1601
 1537SOL    HW2 5511   0.316   0.836   1.708  0.4517  0.9742 -0.2454
 1538SOL     OW 5512   0.122   0.466   1.904 -0.2588  0.0505 -0.2365
 1538SOL    HW1 5513   0.130   0.437   1.808 -1.0686 -0.3411 -0.1912
 1538SOL    HW2 5514   0.091   0.561   1.907 -3.8821 -0.9930 -0.4017
 1539SOL     OW 5515   1.431   4.639   4.416 -0.1385  0.2518  0.5520
 1539SOL    HW1 5516   1.347   4.688   4.439 -1.4621 -0.7360 -1.7548
 1539SOL    HW2 5517   1.447   4.567   4.483  0.1487  1.8554  2.2638
 1540SOL     OW 5518   4.609   0.786   3.968 -0.1604 -0.1793 -0.0604
 1540SOL    HW1 5519   4.552   0.864   3.943 -0.2917 -0.1903  0.2033
 1540SOL    HW2 5520   4.663   0.756   3.889  1.1990  1.2731  0.2674
 1541SOL     OW 5521   5.324   2.096   6.640  0.9523  0.4624  0.1270
 1541SOL    HW1 5522   5.252   2.028   6.622 -0.4002  2.1123 -0.9920
 1541SOL    HW2 5523   5.414   2.055   6.621  0.3186 -1.4469  0.9337
 1542SOL     OW 5524   4.166   5.047   2.335  0.3171  0.1907 -0.6208
 1542SOL    HW1 5525   4.158   4.950   2.310  0.7743  0.5189 -2.2194
 1542SOL    HW2 5526   4.075   5.088   2.342  0.0346 -0.7154  1.8086
 1543SOL     OW 5527   4.030   3.469   1.735  0.4470  0.1549 -0.4700
 1543SOL    HW1 5528   4.048   3.374   1.760  2.8299  0.0802 -2.1488
 1543SOL    HW2 5529   3.990   3.518   1.813  2.2511 -1.4091  1.5208
 1544SOL     OW 5530   6.946   2.658   1.718  0.1240 -0.5529 -0.4106
 1544SOL    HW1 5531   6.994   2.712   1.787 -0.9626 -0.8814  0.6499
 1544SOL    HW2 5532   6.978   2.564   1.721  1.2092 -0.2321 -1.4738
 1545SOL     OW 5533   0.652   5.956   3.117  0.2641  0.0298 -0.2744
 1545SOL    HW1 5534   0.618   5.862   3.113  1.2900 -0.4191  0.6781
 1545SOL    HW2 5535   0.603   6.006   3.188  0.9499 -0.3631  0.5049
 1546SOL     OW 5536   1.323   1.481   3.255 -0.5583 -0.3593  0.3167
 1546SOL    HW1 5537   1.318   1.383   3.269  2.6287 -0.6336  0.3357
 1546SOL    HW2 5538   1.318   1.528   3.343  2.0973 -0.8790  0.8270
 1547SOL     OW 5539   1.722   1.132   0.751 -0.0966 -0.0867  0.2613
 1547SOL    HW1 5540   1.680   1.110   0.839 -1.4907  1.0057 -0.0941
 1547SOL    HW2 5541   1.666   1.201   0.704 -0.3782 -1.9264 -2.2822
 1548SOL     OW 5542   1.394   1.490   2.478  0.1414  0.1437 -0.4225
 1548SOL    HW1 5543   1.441   1.578   2.470  0.4826 -0.1311 -1.5895
 1548SOL    HW2 5544   1.319   1.499   2.544  2.0506  0.4631  1.8745
 1549SOL     OW 5545   0.025   1.006   2.690 -0.0428 -0.2350  0.3526
 1549SOL    HW1 5546   0.016   0.992   2.592  0.2089  2.0887 -0.0531
 1549SOL    HW2 5547   0.115   0.977   2.721  0.0323 -0.5599 -0.1682
 1550SOL     OW 5548   4.654   4.868   0.896  0.3871  0.1028 -0.6789
 1550SOL    HW1 5549   4.657   4.961   0.932 -1.1463 -0.0424 -0.1075
 1550SOL    HW2 5550   4.746   4.828   0.898  0.7671  0.9909  0.7130
 1551SOL     OW 5551   4.423   2.938   5.907 -0.3638  0.4493  0.4714
 1551SOL    HW1 5552   4.459   3.032   5.904  1.3922 -0.1350 -3.7821
 1551SOL    HW2 5553   4.332   2.936   5.866 -0.9261  0.4219  1.6880
 1552SOL     OW 5554   0.318   1.925   5.500  0.3552  0.4925 -0.1793
 1552SOL    HW1 5555   0.398   1.917   5.559 -0.8809  0.8911  1.6432
 1552SOL    HW2 5556   0.285   1.834   5.475  2.2366  0.3037 -2.2746
 1553SOL     OW 5557   5.526   0.257   5.430  0.5666 -0.2221 -0.5076
 1553SOL    HW1 5558   5.610   0.266   5.377  2.7175  1.3032  2.8225
 1553SOL    HW2 5559   5.500   0.346   5.468 -1.3295 -1.0631  0.3265
 1554SOL     OW 5560   1.564   5.556   5.588 -0.7193 -0.2136 -0.3192
 1554SOL    HW1 5561   1.507   5.610   5.526 -0.9828 -0.4150 -0.2505
 1554SOL    HW2 5562   1.544   5.581   5.683 -0.0465  0.3676 -0.3227
 1555SOL     OW 5563   5.226   6.614   5.206 -0.3968  0.2321 -0.1502
 1555SOL    HW1 5564   5.272   6.635   5.291  0.8285 -1.3745 -0.3594
 1555SOL    HW2 5565   5.178   6.695   5.172 -1.5720  0.7000  2.4272
 1556SOL     OW 5566   1.072   2.346   0.755 -0.4965  0.2898 -0.6784
 1556SOL    HW1 5567   1.117   2.351   0.845  0.0297 -3.2533 -0.5903
 1556SOL    HW2 5568   1.131   2.387   0.686  0.5827  0.2165  0.1708
 1557SOL     OW 5569   2.031   6.171   4.141  0.4369 -0.1368  0.2988
 1557SOL    HW1 5570   2.041   6.268   4.164  0.2397  0.0573 -0.4341
 1557SOL    HW2 5571   2.088   6.149   4.062  0.0591 -0.4980  0.1281
 1558SOL     OW 5572   5.327   4.365   2.152  0.9304  0.7418 -0.5550
 1558SOL    HW1 5573   5.270   4.385   2.232  1.1800 -1.7573  0.3396
 1558SOL    HW2 5574   5.422   4.353   2.182  1.1734  0.6601 -1.3565
 1559SOL     OW 5575   2.636   6.279   6.702 -0.2571 -0.0283 -0.6757
 1559SOL    HW1 5576   2.594   6.196   6.665 -0.4230 -0.1768 -0.1525
 1559SOL    HW2 5577   2.579   6.317   6.774  0.9875 -0.8356  0.8206
 1560SOL     OW 5578   6.524   4.881   5.108  0.4062 -0.1921 -0.0621
 1560SOL    HW1 5579   6.562   4.790   5.093  0.7125 -0.0703 -0.0565
 1560SOL    HW2 5580   6.588   4.934   5.164  0.1409 -0.0364  0.0959
 1561SOL     OW 5581   5.947   6.178   0.544  0.0941  0.2460 -0.0500
 1561SOL    HW1 5582   5.985   6.229   0.621 -0.5289 -1.0593  1.1686
 1561SOL    HW2 5583   5.995   6.092   0.534 -0.2447  0.1307 -0.7297
 1562SOL     OW 5584   1.853   6.964   1.430  0.0456 -0.4728  0.0570
 1562SOL    HW1 5585   1.832   6.912   1.513  1.7628 -0.8619  0.2912
 1562SOL    HW2 5586   1.789   6.938   1.358 -0.7961 -0.9338  0.9363
 1563SOL     OW 5587   3.083   3.069   4.660  0.1775  0.5668  0.5209
 1563SOL    HW1 5588   3.014   3.082   4.589 -0.4256  0.8664  1.1538
 1563SOL    HW2 5589   3.126   2.979   4.649 -1.1405 -0.1247  0.8300
 1564SOL     OW 5590   5.681   3.695   0.880  0.4389 -0.6851 -0.4300
 1564SOL    HW1 5591   5.693   3.727   0.786 -2.7564 -2.1864 -1.4933
 1564SOL    HW2 5592   5.723   3.605   0.891  1.0889 -0.3721 -0.2925
 1565SOL     OW 5593   6.721   0.652   2.304  0.0029 -0.0042  0.2337
 1565SOL    HW1 5594   6.718   0.742   2.348 -1.7771 -0.5271  1.2688
 1565SOL    HW2 5595   6.765   0.587   2.366  1.4758  0.1395 -0.5951
 1566SOL     OW 5596   0.783   5.790   3.601 -0.2010  0.1893  0.3728
 1566SOL    HW1 5597   0.804   5.725   3.674  2.7201  0.2702 -0.2701
 1566SOL    HW2 5598   0.782   5.742   3.513 -2.2667  0.3533  0.2401
 1567SOL     OW 5599   6.259   5.025   2.888 -0.2965  0.5594 -0.1262
 1567SOL    HW1 5600   6.319   4.984   2.819 -0.7701 -1.1513  0.4062
 1567SOL    HW2 5601   6.219   5.109   2.852 -0.8499 -0.4875 -2.1195
 1568SOL     OW 5602   5.154   1.376   4.435  0.3230 -0.7039 -0.0541
 1568SOL    HW1 5603   5.193   1.298   4.386  0.6169 -0.8038  0.3368
 1568SOL    HW2 5604   5.213   1.456   4.423  0.9287 -0.9825  0.9504
 1569SOL     OW 5605   0.296   2.950   6.528 -0.2246 -0.4371 -0.6960
 1569SOL    HW1 5606   0.204   2.955   6.489 -1.3090  2.0104  1.7911
 1569SOL    HW2 5607   0.314   2.857   6.560 -2.9733 -0.4443  1.1308
 1570SOL     OW 5608   5.795   2.674   6.022 -0.0031  0.1596 -0.0287
 1570SOL    HW1 5609   5.886   2.634   6.016  0.3464  0.8920  0.2105
 1570SOL    HW2 5610   5.728   2.603   6.039  0.2913 -0.6245 -1.9604
 1571SOL     OW 5611   4.320   0.880   6.583 -0.2928 -0.2397  0.3624
 1571SOL    HW1 5612   4.415   0.908   6.595 -0.3650  1.5043 -2.2332
 1571SOL    HW2 5613   4.287   0.838   6.667  3.1972 -2.3299  0.8929
 1572SOL     OW 5614   2.012   6.888   3.055 -0.0110 -0.1865  0.0543
 1572SOL    HW1 5615   2.045   6.895   2.961 -1.1374 -0.3813 -0.3619
 1572SOL    HW2 5616   1.998   6.980   3.092 -0.0268 -0.1134 -0.1345
 1573SOL     OW 5617   6.271   1.521   6.301  0.3672 -0.2746 -0.0916
 1573SOL    HW1 5618   6.259   1.426   6.270  0.0524 -0.1951 -0.2201
 1573SOL    HW2 5619   6.361   1.554   6.273  0.7232 -0.7376  0.4795
 1574SOL     OW 5620   2.530   4.606   6.325 -0.2153 -0.3722 -0.3897
 1574SOL    HW1 5621   2.554   4.536   6.258  0.3565 -0.3669 -0.1961
 1574SOL    HW2 5622   2.431   4.610   6.336 -0.3993  0.3296 -2.0051
 1575SOL     OW 5623   4.928   3.139   0.685 -0.2034  0.0732  0.0333
 1575SOL    HW1 5624   4.829   3.156   0.682 -0.0169  1.5654  1.1020
 1575SOL    HW2 5625   4.962   3.123   0.593 -1.3505  0.1423 -0.4169
 1576SOL     OW 5626   1.915   5.228   3.013  0.4370 -0.0373  0.3675
 1576SOL    HW1 5627   1.907   5.327   3.017 -0.3443  0.0346 -1.7987
 1576SOL    HW2 5628   2.011   5.202   3.022  0.6289  0.8817  1.1236
 1577SOL     OW 5629   6.225   5.791   6.911  0.2246 -0.6945 -0.0730
 1577SOL    HW1 5630   6.249   5.870   6.856  0.5478 -0.2396  0.7047
 1577SOL    HW2 5631   6.304   5.730   6.920  0.5829 -0.1060  0.9678
 1578SOL     OW 5632   3.378   6.862   1.463  0.0809 -0.1966  0.6507
 1578SOL    HW1 5633   3.282   6.886   1.481 -0.5583 -0.8848 -1.4715
 1578SOL    HW2 5634   3.397   6.771   1.501 -0.5884 -0.7040 -0.1757
 1579SOL     OW 5635   0.731   6.289   1.726 -0.1244  0.2142 -0.2768
 1579SOL    HW1 5636   0.686   6.354   1.788  1.0556  1.1134 -0.3096
 1579SOL    HW2 5637   0.779   6.220   1.779 -0.4614  0.0263 -0.2176
 1580SOL     OW 5638   3.203   3.455   1.618  0.2370 -0.2251  0.4774
 1580SOL    HW1 5639   3.167   3.482   1.528  0.0353 -0.7299  0.4032
 1580SOL    HW2 5640   3.236   3.536   1.666  0.4261  0.0397 -0.0882
 1581SOL     OW 5641   0.124   0.997   1.680  0.2443 -0.2099  0.1581
 1581SOL    HW1 5642   0.187   1.019   1.606 -1.4270  1.1975 -0.9487
 1581SOL    HW2 5643   0.108   1.079   1.735  0.2824 -0.8539  1.1496
 1582SOL     OW 5644   6.621   6.222   2.750 -0.3846  0.3169 -0.1894
 1582SOL    HW1 5645   6.684   6.219   2.673  0.6537  0.1326  0.6391
 1582SOL    HW2 5646   6.603   6.317   2.775 -0.2250  0.3710 -0.2778
 1583SOL     OW 5647   4.219   3.064   0.786  0.4679  0.2323 -0.3405
 1583SOL    HW1 5648   4.238   3.151   0.833 -0.7150 -0.9204  2.5465
 1583SOL    HW2 5649   4.130   3.069   0.742  0.2585  0.4023  0.0913
 1584SOL     OW 5650   5.798   5.981   2.614 -0.1892  0.2636  0.1239
 1584SOL    HW1 5651   5.748   5.896   2.593  1.1464 -0.9702  1.6997
 1584SOL    HW2 5652   5.734   6.050   2.646 -1.0616 -0.8741  0.9166
 1585SOL     OW 5653   1.342   0.537   3.913 -0.0655  0.5148  0.2277
 1585SOL    HW1 5654   1.353   0.501   3.820 -0.8552 -0.2034  0.4065
 1585SOL    HW2 5655   1.247   0.561   3.929  0.2904  1.8974  0.4156
 1586SOL     OW 5656   3.028   2.137   3.729 -0.2284  0.3025 -0.3377
 1586SOL    HW1 5657   3.032   2.193   3.646  0.2730 -1.1010 -1.2940
 1586SOL    HW2 5658   3.027   2.197   3.809 -1.6086  1.7282 -1.3454
 1587SOL     OW 5659   3.704   2.100   3.431  0.4950  0.1362 -0.0451
 1587SOL    HW1 5660   3.787   2.155   3.435  0.5029  0.1178  0.0692
 1587SOL    HW2 5661   3.656   2.107   3.519  0.5549 -0.1265  0.0092
 1588SOL     OW 5662   4.965   5.252   6.068  0.1684 -0.1491 -0.0149
 1588SOL    HW1 5663   4.933   5.194   6.143 -1.7995 -0.6792 -1.1931
 1588SOL    HW2 5664   5.052   5.217   6.034  0.7188 -0.3358  1.5114
 1589SOL     OW 5665   2.198   6.214   3.594  0.5250  0.3764 -0.4251
 1589SOL    HW1 5666   2.249   6.266   3.663  1.3808  1.0666 -1.5322
 1589SOL    HW2 5667   2.220   6.117   3.602  0.7158  0.4654  0.1813
 1590SOL     OW 5668   6.509   4.428   6.945 -0.4648 -0.8780  0.3610
 1590SOL    HW1 5669   6.550   4.407   6.856 -0.3289 -1.6464  0.5951
 1590SOL    HW2 5670   6.535   4.521   6.973 -0.1532 -0.7921 -0.1985
 1591SOL     OW 5671   1.718   5.668   2.439  0.1302 -0.2288  0.3515
 1591SOL    HW1 5672   1.700   5.737   2.508  1.4832 -0.5786  1.0981
 1591SOL    HW2 5673   1.761   5.588   2.482  0.7567 -0.5628 -0.8399
 1592SOL     OW 5674   6.277   5.198   3.797 -0.2700  0.5662  0.1464
 1592SOL    HW1 5675   6.350   5.231   3.857  1.8838  1.1695 -2.6013
 1592SOL    HW2 5676   6.236   5.276   3.748 -0.5121 -0.0832 -0.7102
 1593SOL     OW 5677   1.343   6.144   4.638  0.4084 -0.0829 -0.1028
 1593SOL    HW1 5678   1.281   6.067   4.631 -0.8368  0.7030  1.5223
 1593SOL    HW2 5679   1.430   6.114   4.678  0.1488 -0.7427 -0.0303
 1594SOL     OW 5680   1.858   5.255   0.940  0.3167 -0.0987 -0.2168
 1594SOL    HW1 5681   1.766   5.287   0.917  0.6712  0.5379 -0.7968
 1594SOL    HW2 5682   1.867   5.159   0.917 -0.0160 -0.0090 -0.7357
 1595SOL     OW 5683   1.008   6.823   1.359  0.1083 -0.2397  0.1933
 1595SOL    HW1 5684   1.014   6.890   1.433 -0.6920 -0.9066  0.8808
 1595SOL    HW2 5685   0.923   6.836   1.308 -0.5893 -1.3902  1.0103
 1596SOL     OW 5686   0.301   2.353   3.525 -0.6864  0.3246 -0.7014
 1596SOL    HW1 5687   0.257   2.322   3.608 -0.2566 -1.7579 -1.2034
 1596SOL    HW2 5688   0.308   2.453   3.526 -3.0153  0.5291  0.5428
 1597SOL     OW 5689   1.416   3.878   1.299 -0.1806 -0.2314  0.0001
 1597SOL    HW1 5690   1.512   3.874   1.328 -0.0292 -0.8935 -0.5721
 1597SOL    HW2 5691   1.383   3.972   1.306 -0.1864 -0.3545  2.4247
 1598SOL     OW 5692   1.840   2.652   2.015  0.3571  0.5167 -0.3168
 1598SOL    HW1 5693   1.876   2.738   2.050  2.5770 -0.1664 -0.7661
 1598SOL    HW2 5694   1.908   2.580   2.028 -0.9334 -0.9022 -1.1285
 1599SOL     OW 5695   4.246   1.185   0.796  0.3739  0.5555 -0.1962
 1599SOL    HW1 5696   4.189   1.260   0.830 -0.5553 -0.2218  0.0111
 1599SOL    HW2 5697   4.313   1.160   0.867  0.5825  1.0754 -0.2057
 1600SOL     OW 5698   5.396   0.206   0.675 -0.1508  0.1310  0.3173
 1600SOL    HW1 5699   5.381   0.121   0.625 -1.8098  0.6948 -0.2393
 1600SOL    HW2 5700   5.470   0.258   0.633 -0.6750  0.0040 -0.8013
 1601SOL     OW 5701   0.040   3.161   3.557 -0.0756  0.4100  0.0999
 1601SOL    HW1 5702  -0.054   3.157   3.523  0.0861 -0.4607 -0.2691
 1601SOL    HW2 5703   0.040   3.145   3.655 -0.1993 -1.1134 -0.1222
 1602SOL     OW 5704   3.994   1.252   0.615 -0.3652  0.7682  0.4265
 1602SOL    HW1 5705   3.987   1.204   0.528 -2.1230 -0.8975  1.3944
 1602SOL    HW2 5706   3.923   1.323   0.620  0.2968  1.4554  0.1736
 1603SOL     OW 5707   2.715   1.403   6.597  0.3663  0.3678  0.7560
 1603SOL    HW1 5708   2.647   1.339   6.561  1.2924  0.0819 -0.5259
 1603SOL    HW2 5709   2.780   1.354   6.654  1.2462  0.0861 -0.4611
 1604SOL     OW 5710   5.408   4.171   0.033 -0.3777  0.0518 -0.5391
 1604SOL    HW1 5711   5.412   4.200   0.128  3.1860 -1.1995 -0.1771
 1604SOL    HW2 5712   5.344   4.095   0.023 -0.1124 -0.3966  1.0383
 1605SOL     OW 5713   5.476   3.798   5.042  0.0835 -0.4110  0.0420
 1605SOL    HW1 5714   5.422   3.774   5.122  0.5837 -2.4913 -0.1954
 1605SOL    HW2 5715   5.542   3.869   5.066 -0.8808  0.1904  1.0114
 1606SOL     OW 5716   3.996   5.828   5.696  0.3941 -0.3758 -0.0709
 1606SOL    HW1 5717   4.028   5.740   5.730 -0.4737 -0.2571  1.1237
 1606SOL    HW2 5718   3.953   5.878   5.770  0.9160  1.0916 -0.7144
 1607SOL     OW 5719   3.233   4.874   3.551 -0.0234 -0.1317 -0.1508
 1607SOL    HW1 5720   3.171   4.949   3.573 -1.8958 -0.9176 -2.3090
 1607SOL    HW2 5721   3.184   4.787   3.553  0.8053 -0.7351 -2.4096
 1608SOL     OW 5722   0.066   0.224   2.835  0.4809  0.2708  0.3914
 1608SOL    HW1 5723   0.131   0.291   2.870  0.4021  1.4115 -1.4763
 1608SOL    HW2 5724  -0.024   0.267   2.824  0.5476  0.0638 -1.2908
 1609SOL     OW 5725   1.009   4.900   3.632 -0.9387  0.7765 -0.0620
 1609SOL    HW1 5726   0.944   4.946   3.571 -1.2005  2.1116  1.1659
 1609SOL    HW2 5727   0.992   4.802   3.631 -0.0021  0.5260 -3.2041
 1610SOL     OW 5728   3.944   2.164   4.727  0.3071  0.2340 -0.1669
 1610SOL    HW1 5729   3.981   2.182   4.818  0.7145  0.3334 -0.3491
 1610SOL    HW2 5730   3.846   2.145   4.734  0.3076  0.3760  0.2751
 1611SOL     OW 5731   6.809   3.270   6.699  0.1154  0.5003 -0.3961
 1611SOL    HW1 5732   6.832   3.275   6.796 -0.9839 -0.9721 -0.0102
 1611SOL    HW2 5733   6.749   3.346   6.675 -2.5441 -0.9629  1.0349
 1612SOL     OW 5734   3.682   4.390   6.519  0.1984  0.5344  0.9774
 1612SOL    HW1 5735   3.726   4.450   6.454 -1.5323  0.9171  0.1107
 1612SOL    HW2 5736   3.595   4.430   6.549 -0.5551 -1.0752  1.0817
 1613SOL     OW 5737   5.876   5.063   6.930  0.0051  0.6083  0.2850
 1613SOL    HW1 5738   5.929   5.144   6.957  1.6599 -0.2769 -0.1255
 1613SOL    HW2 5739   5.857   5.007   7.010 -1.3518  1.4817  0.6074
 1614SOL     OW 5740   1.939   4.847   5.000 -0.8088 -0.5949  0.3333
 1614SOL    HW1 5741   2.002   4.924   4.994 -2.8814  1.1586 -0.3553
 1614SOL    HW2 5742   1.972   4.772   4.942  1.1075 -0.1477  0.7804
 1615SOL     OW 5743   5.733   0.238   4.054 -0.0471 -0.4431  0.2214
 1615SOL    HW1 5744   5.669   0.164   4.074  0.2634 -1.0625 -0.9836
 1615SOL    HW2 5745   5.737   0.301   4.132  0.3421 -2.1637  1.6566
 1616SOL     OW 5746   2.557   0.527   6.730 -0.3468 -0.3322  0.0486
 1616SOL    HW1 5747   2.634   0.590   6.737 -0.5467  0.0546 -1.0652
 1616SOL    HW2 5748   2.566   0.473   6.646 -1.1661 -0.4428  0.0242
 1617SOL     OW 5749   4.272   3.780   1.627 -0.3222 -0.4347  0.5386
 1617SOL    HW1 5750   4.332   3.859   1.637 -0.7478  0.0221 -0.3577
 1617SOL    HW2 5751   4.184   3.799   1.670 -1.5115  0.8267 -2.1875
 1618SOL     OW 5752   3.511   3.359   1.883  0.3796  0.5531  0.0721
 1618SOL    HW1 5753   3.467   3.335   1.969  0.8684  1.1948  0.5150
 1618SOL    HW2 5754   3.466   3.312   1.807 -1.5138  1.7166  0.4172
 1619SOL     OW 5755   5.439   2.921   3.037  0.5716 -0.0702 -0.0423
 1619SOL    HW1 5756   5.378   2.850   3.002  1.0085  0.1131 -1.2229
 1619SOL    HW2 5757   5.534   2.897   3.015  0.9577 -0.3817  1.8142
 1620SOL     OW 5758   3.160   1.711   5.453  0.5437 -0.5261  0.0044
 1620SOL    HW1 5759   3.205   1.698   5.365  0.6377  2.2277 -0.4503
 1620SOL    HW2 5760   3.228   1.715   5.526  0.3913 -4.0236  0.4741
 1621SOL     OW 5761   2.494   3.409   1.091  0.5477  0.5644  0.0022
 1621SOL    HW1 5762   2.559   3.457   1.151 -0.8462  1.2670  1.0107
 1621SOL    HW2 5763   2.468   3.322   1.133 -1.2974  1.5643  1.0452
 1622SOL     OW 5764   6.076   2.469   4.410 -0.5468  0.6012 -0.2593
 1622SOL    HW1 5765   6.100   2.402   4.480  0.2420  0.6675 -0.4519
 1622SOL    HW2 5766   6.145   2.542   4.409  0.3554 -0.1906 -2.1191
 1623SOL     OW 5767   0.032   2.252   1.723 -0.8486 -0.1552  0.3373
 1623SOL    HW1 5768   0.121   2.294   1.740 -0.9481  0.0377  0.3910
 1623SOL    HW2 5769  -0.029   2.270   1.800 -0.4785 -1.5515  0.9779
 1624SOL     OW 5770   6.958   6.709   0.876 -0.0498  0.2361 -0.6271
 1624SOL    HW1 5771   7.044   6.722   0.827  0.3569  1.4789  0.3690
 1624SOL    HW2 5772   6.973   6.647   0.953 -0.3223 -0.4319 -1.0974
 1625SOL     OW 5773   4.650   6.151   3.371  0.3627 -0.4498 -0.1138
 1625SOL    HW1 5774   4.641   6.110   3.280 -1.3765  0.7147 -0.5278
 1625SOL    HW2 5775   4.646   6.079   3.440  0.6998 -1.2676 -0.9216
 1626SOL     OW 5776   5.470   2.985   0.824 -0.1587 -0.2797 -0.0143
 1626SOL    HW1 5777   5.437   2.891   0.832 -0.5677 -0.3833 -2.2893
 1626SOL    HW2 5778   5.521   3.010   0.907 -0.0577 -2.4766  0.6441
 1627SOL     OW 5779   6.988   3.084   5.580  0.2694  0.0735  0.3171
 1627SOL    HW1 5780   7.065   3.062   5.641  0.9013 -2.3401 -1.2163
 1627SOL    HW2 5781   7.021   3.088   5.486 -1.2957  0.1957 -0.2441
 1628SOL     OW 5782   6.867   3.908   0.770  0.0849  0.4191 -0.1101
 1628SOL    HW1 5783   6.931   3.857   0.712  1.2171  0.4353  1.0759
 1628SOL    HW2 5784   6.826   3.846   0.836  2.0981  1.0959  1.8932
 1629SOL     OW 5785   4.135   5.814   1.043 -0.0491  0.3797 -0.0107
 1629SOL    HW1 5786   4.151   5.903   1.087  0.9281  0.3083 -0.2111
 1629SOL    HW2 5787   4.104   5.828   0.949 -3.0424  0.5597  0.8933
 1630SOL     OW 5788   0.893   5.982   0.751 -0.1556 -0.6327  0.9601
 1630SOL    HW1 5789   0.947   5.921   0.693  1.0962  0.1476  1.2700
 1630SOL    HW2 5790   0.880   5.939   0.840 -2.5743 -2.0874 -0.0101
 1631SOL     OW 5791   5.919   5.044   2.844 -0.0310  0.0934 -0.0790
 1631SOL    HW1 5792   5.951   5.138   2.854 -1.3647  0.5578 -0.0535
 1631SOL    HW2 5793   5.988   4.990   2.796  1.0820  0.8840  0.5900
 1632SOL     OW 5794   6.078   5.490   4.623 -0.4022 -0.2381  0.6457
 1632SOL    HW1 5795   6.092   5.579   4.667 -0.7690 -0.6530  1.6291
 1632SOL    HW2 5796   6.028   5.503   4.538 -0.4247  0.5071  0.7646
 1633SOL     OW 5797   0.678   4.960   5.445 -0.2427  0.1734  0.0877
 1633SOL    HW1 5798   0.657   5.038   5.387  1.4137 -0.0947 -0.9647
 1633SOL    HW2 5799   0.745   4.987   5.515 -0.5219 -0.0480  0.4464
 1634SOL     OW 5800   1.283   0.440   6.931 -0.3803 -0.2283  0.0495
 1634SOL    HW1 5801   1.318   0.350   6.905  1.3063  0.7048 -1.0868
 1634SOL    HW2 5802   1.354   0.491   6.979 -0.1100  1.6688 -2.1873
 1635SOL     OW 5803   5.925   1.894   0.834  0.0091 -0.3298 -0.5769
 1635SOL    HW1 5804   5.912   1.992   0.851  0.1695 -0.4219  0.1202
 1635SOL    HW2 5805   5.842   1.844   0.862  1.0193 -0.7087  2.0261
 1636SOL     OW 5806   3.565   7.002   2.565  0.2173 -0.4555  0.2401
 1636SOL    HW1 5807   3.586   6.928   2.629  0.7674 -0.2113  0.3506
 1636SOL    HW2 5808   3.489   7.057   2.600 -0.3178 -1.0706  0.0683
 1637SOL     OW 5809   7.007   5.160   4.991 -0.2241  0.1253  0.4211
 1637SOL    HW1 5810   7.063   5.217   4.930 -1.0583  1.6225  1.0125
 1637SOL    HW2 5811   7.067   5.101   5.045  0.9375  2.4090  1.7910
 1638SOL     OW 5812   4.328   3.299   0.899  0.5981  0.1398  0.2568
 1638SOL    HW1 5813   4.371   3.290   0.989  0.8303  0.7799  0.2145
 1638SOL    HW2 5814   4.381   3.363   0.843  0.4448 -0.2405 -0.3288
 1639SOL     OW 5815   6.089   0.873   6.462 -0.6233 -0.2916  0.0053
 1639SOL    HW1 5816   6.124   0.816   6.388 -2.3748 -1.0398 -0.2824
 1639SOL    HW2 5817   6.092   0.969   6.434 -0.8164 -0.5289 -0.8540
 1640SOL     OW 5818   2.814   1.107   6.600 -0.4532 -0.3962  0.4478
 1640SOL    HW1 5819   2.788   1.117   6.504 -0.6056 -0.0183  0.5295
 1640SOL    HW2 5820   2.746   1.051   6.647 -0.8131  0.0943  0.5220
 1641SOL     OW 5821   4.912   5.028   0.763 -0.1148 -0.7715 -0.8773
 1641SOL    HW1 5822   5.000   4.982   0.748  0.6582  0.5330 -0.4795
 1641SOL    HW2 5823   4.897   5.095   0.691 -0.0839  0.0267 -0.1493
 1642SOL     OW 5824   1.619   5.146   3.003  0.0988  0.1407 -0.2381
 1642SOL    HW1 5825   1.595   5.053   3.032 -2.1657  1.4268  2.5910
 1642SOL    HW2 5826   1.710   5.170   3.037 -0.1257 -0.4071  0.7969
 1643SOL     OW 5827   6.471   2.201   4.991  0.4516 -0.0516  0.8040
 1643SOL    HW1 5828   6.494   2.195   5.089  0.6124  1.9260  0.9253
 1643SOL    HW2 5829   6.373   2.218   4.981  0.5189  0.2369  0.6361
 1644SOL     OW 5830   4.684   5.947   2.876 -0.1780  0.1113 -0.4705
 1644SOL    HW1 5831   4.666   6.045   2.883 -0.3081  0.1125 -0.7968
 1644SOL    HW2 5832   4.618   5.905   2.814 -0.4717 -0.2795  0.0897
 1645SOL     OW 5833   1.078   1.008   6.023 -0.2209  0.6358  0.5219
 1645SOL    HW1 5834   1.162   1.047   5.983  0.2070  0.8881  1.6327
 1645SOL    HW2 5835   1.006   1.008   5.954  1.0677 -0.9000 -0.8982
 1646SOL     OW 5836   1.370   4.541   2.190  0.2008 -0.1604 -0.2215
 1646SOL    HW1 5837   1.350   4.453   2.147  1.9650 -0.7354  0.0312
 1646SOL    HW2 5838   1.455   4.533   2.243 -0.2019  1.4040  0.7152
 1647SOL     OW 5839   1.501   6.342   0.410 -0.3429  0.3999  0.2565
 1647SOL    HW1 5840   1.465   6.424   0.366  1.4017  1.3939  0.5632
 1647SOL    HW2 5841   1.486   6.262   0.351 -0.2825  1.2765 -0.9818
 1648SOL     OW 5842   3.346   6.651   2.940  0.1312 -0.3811 -0.3921
 1648SOL    HW1 5843   3.349   6.751   2.938 -0.7014 -0.3426 -0.1196
 1648SOL    HW2 5844   3.367   6.615   2.849 -1.4978  0.1194 -1.0132
 1649SOL     OW 5845   2.366   0.278   3.769 -0.2809 -0.4342 -0.1122
 1649SOL    HW1 5846   2.308   0.344   3.722  0.3623 -1.3418 -2.3052
 1649SOL    HW2 5847   2.456   0.277   3.727  0.2441 -1.5548  0.9584
 1650SOL     OW 5848   6.171   2.539   3.628  0.2409  0.1135  0.1309
 1650SOL    HW1 5849   6.088   2.590   3.650  1.3742  1.0019  2.7619
 1650SOL    HW2 5850   6.146   2.449   3.591 -1.8693  0.3663  0.8180
 1651SOL     OW 5851   0.118   2.856   1.277 -0.4401 -0.1486  0.4355
 1651SOL    HW1 5852   0.154   2.876   1.187  0.7525  1.4510  1.2232
 1651SOL    HW2 5853   0.034   2.802   1.268  0.9438 -2.1199 -1.5044
 1652SOL     OW 5854   2.133   2.368   3.678  0.9707 -0.0001  0.0222
 1652SOL    HW1 5855   2.200   2.411   3.739  0.1593  0.1317  0.8413
 1652SOL    HW2 5856   2.054   2.339   3.731  0.9505 -1.3766 -0.7263
 1653SOL     OW 5857   2.853   4.532   0.008 -0.2838  0.2582  0.2549
 1653SOL    HW1 5858   2.832   4.596  -0.066  0.3007  0.2664  0.0973
 1653SOL    HW2 5859   2.769   4.512   0.059 -0.6571  0.3712 -0.3105
 1654SOL     OW 5860   1.760   3.414   0.690 -0.4475 -0.0173 -0.2091
 1654SOL    HW1 5861   1.686   3.481   0.681 -0.0416  0.5342  0.4472
 1654SOL    HW2 5862   1.812   3.411   0.605  0.8905  2.1637  0.4628
 1655SOL     OW 5863   5.813   3.056   0.821  0.1663 -0.8188  0.3045
 1655SOL    HW1 5864   5.822   2.957   0.819 -0.5724 -0.8851 -0.5507
 1655SOL    HW2 5865   5.763   3.087   0.739 -2.6830 -0.0648  2.1945
 1656SOL     OW 5866   5.878   3.319   0.188  0.4362  0.5900  0.2356
 1656SOL    HW1 5867   5.794   3.282   0.148  0.5140  0.8319 -0.1512
 1656SOL    HW2 5868   5.934   3.360   0.117  1.2335 -0.2210  0.3702
 1657SOL     OW 5869   3.190   5.570   4.754 -0.3224  0.1203 -0.2249
 1657SOL    HW1 5870   3.263   5.637   4.768 -2.0533  2.1739 -0.5217
 1657SOL    HW2 5871   3.163   5.532   4.842  1.4035 -1.0395 -0.1635
 1658SOL     OW 5872   4.390   6.973   2.597  0.0934  0.8389 -0.1724
 1658SOL    HW1 5873   4.321   7.030   2.642  0.1908  0.7956  0.0299
 1658SOL    HW2 5874   4.439   7.027   2.529 -3.1200 -0.1221 -3.5882
 1659SOL     OW 5875   2.940   5.147   5.376 -0.4369 -0.1115  0.2318
 1659SOL    HW1 5876   3.030   5.161   5.416 -0.5632 -1.0028  0.8487
 1659SOL    HW2 5877   2.945   5.162   5.277  0.6841 -1.3711  0.0648
 1660SOL     OW 5878   1.206   3.672   4.339  0.4864  0.0170  0.6214
 1660SOL    HW1 5879   1.139   3.603   4.366  0.2188  0.1732  0.3666
 1660SOL    HW2 5880   1.290   3.627   4.309  0.6225 -0.1697  1.2693
 1661SOL     OW 5881   1.683   4.520   4.925  0.0822  0.8790 -0.0798
 1661SOL    HW1 5882   1.754   4.575   4.882 -0.0332  1.1645  0.0897
 1661SOL    HW2 5883   1.600   4.521   4.869  0.5390 -0.3322 -0.8289
 1662SOL     OW 5884   5.052   6.854   2.507 -0.3906  0.0985  0.1198
 1662SOL    HW1 5885   4.971   6.809   2.546 -1.1704  1.2436 -0.1151
 1662SOL    HW2 5886   5.058   6.834   2.410 -1.0734  0.9305 -0.1106
 1663SOL     OW 5887   5.711   1.799   0.051 -0.4579  0.0581  0.1677
 1663SOL    HW1 5888   5.798   1.821   0.095 -0.3206 -1.5915  0.8238
 1663SOL    HW2 5889   5.719   1.711   0.004 -1.6359  0.1018 -0.1557
 1664SOL     OW 5890   6.480   2.296   2.059 -0.3124  0.6702 -0.4498
 1664SOL    HW1 5891   6.482   2.309   1.960 -0.1642  0.2712 -0.5003
 1664SOL    HW2 5892   6.473   2.385   2.104  0.9603  0.9580 -0.7825
 1665SOL     OW 5893   5.528   5.285   0.586  0.0948  0.6330  0.2733
 1665SOL    HW1 5894   5.575   5.325   0.507  1.4373  0.3673  0.9130
 1665SOL    HW2 5895   5.480   5.202   0.558  0.7445  0.4212 -0.2207
 1666SOL     OW 5896   2.118   2.182   0.722 -0.2428 -0.1304  0.2440
 1666SOL    HW1 5897   2.032   2.130   0.712  0.0014 -1.2297  3.0447
 1666SOL    HW2 5898   2.183   2.128   0.775  2.4300  0.5014 -2.1571
 1667SOL     OW 5899   6.080   6.381   5.209 -0.1879 -0.7854  0.0637
 1667SOL    HW1 5900   6.039   6.308   5.264 -1.7449  0.5504  0.7878
 1667SOL    HW2 5901   6.066   6.469   5.255  1.1695  0.0458 -1.0283
 1668SOL     OW 5902   2.990   1.083   2.012 -0.7912  0.3866 -0.0373
 1668SOL    HW1 5903   3.066   1.086   2.076 -0.9122 -2.9092  0.4262
 1668SOL    HW2 5904   3.025   1.086   1.918  0.1254 -2.0319  0.1528
 1669SOL     OW 5905   3.996   5.982   4.653  0.1348 -0.0078  0.3187
 1669SOL    HW1 5906   4.091   5.986   4.682  0.2453  0.1340 -0.0583
 1669SOL    HW2 5907   3.991   5.954   4.557 -0.3021 -2.1912  0.9333
 1670SOL     OW 5908   6.562   1.388   6.041 -0.5266  0.0385  0.5565
 1670SOL    HW1 5909   6.633   1.341   6.093  0.9793  1.8895  0.2952
 1670SOL    HW2 5910   6.551   1.344   5.952  1.6571  0.7664 -0.1301
 1671SOL     OW 5911   5.996   6.149   6.948  0.4065  0.4094  0.2101
 1671SOL    HW1 5912   5.999   6.238   6.993  1.5271  1.5066 -1.8723
 1671SOL    HW2 5913   5.990   6.077   7.017  3.2341  1.9001  2.2322
 1672SOL     OW 5914   6.005   4.169   4.234 -0.7366 -0.4262 -0.2704
 1672SOL    HW1 5915   5.986   4.143   4.329  1.6011 -0.0723  0.3765
 1672SOL    HW2 5916   5.969   4.260   4.216 -1.2020 -0.4980  0.2871
 1673SOL     OW 5917   0.820   5.448   1.767  0.3101 -0.3508 -0.2423
 1673SOL    HW1 5918   0.721   5.445   1.754  0.4833 -1.2042 -1.5225
 1673SOL    HW2 5919   0.840   5.468   1.862 -1.0855  1.3480 -0.2607
 1674SOL     OW 5920   6.041   5.023   3.126 -0.0799 -0.3262  0.3082
 1674SOL    HW1 5921   6.134   4.995   3.099  0.3496  0.0080  1.3941
 1674SOL    HW2 5922   6.014   5.103   3.072  0.7734  0.3547  0.8596
 1675SOL     OW 5923   3.298   5.977   3.727 -0.5554  0.9235 -0.2757
 1675SOL    HW1 5924   3.240   6.058   3.741 -1.6630  0.2444 -0.7907
 1675SOL    HW2 5925   3.352   5.961   3.809 -1.5538  1.2256  0.4621
 1676SOL     OW 5926   3.056   2.084   2.855 -0.0748  0.5254  0.5184
 1676SOL    HW1 5927   3.094   2.107   2.945 -0.0051 -0.6548  0.8133
 1676SOL    HW2 5928   3.067   1.986   2.840  0.9293  0.8721 -1.2552
 1677SOL     OW 5929   5.555   2.116   2.217 -0.0524 -0.2464  0.1989
 1677SOL    HW1 5930   5.492   2.164   2.155  1.1691  0.5034 -0.4943
 1677SOL    HW2 5931   5.529   2.020   2.223 -1.6482  0.1680  0.4367
 1678SOL     OW 5932   4.842   5.449   2.793  0.3630 -0.5103 -0.2769
 1678SOL    HW1 5933   4.750   5.457   2.830 -0.1917 -0.3136 -1.6212
 1678SOL    HW2 5934   4.837   5.415   2.699  1.2279  3.7648 -2.1244
 1679SOL     OW 5935   1.223   3.503   1.497 -0.3474 -0.5170 -0.9799
 1679SOL    HW1 5936   1.195   3.599   1.491  0.5477 -0.0636  1.1990
 1679SOL    HW2 5937   1.242   3.468   1.405 -0.8650  1.3225 -1.8333
 1680SOL     OW 5938   3.459   1.492   1.121 -0.2549 -0.6624 -0.0628
 1680SOL    HW1 5939   3.395   1.447   1.060 -0.5599 -1.0913  0.5596
 1680SOL    HW2 5940   3.546   1.442   1.122  0.7766  0.9329 -2.3091
 1681SOL     OW 5941   5.063   2.366   3.911  0.1357 -0.1710 -0.1990
 1681SOL    HW1 5942   4.973   2.382   3.952  0.2155 -1.2192  0.4403
 1681SOL    HW2 5943   5.094   2.448   3.863 -0.9548  0.3504 -0.0344
 1682SOL     OW 5944   3.864   2.173   0.339  0.3350 -0.9389 -0.6427
 1682SOL    HW1 5945   3.794   2.102   0.352  0.3595 -0.5608  1.9675
 1682SOL    HW2 5946   3.954   2.130   0.335  0.2550 -1.1484 -0.2420
 1683SOL     OW 5947   4.467   3.816   0.771  0.0873 -0.2925  0.2431
 1683SOL    HW1 5948   4.427   3.826   0.680 -0.7315  0.6103  0.6872
 1683SOL    HW2 5949   4.555   3.864   0.774  0.0864 -0.2710 -0.0592
 1684SOL     OW 5950   3.758   1.348   2.021  0.0287 -0.1066 -0.2855
 1684SOL    HW1 5951   3.786   1.443   2.007 -0.1799 -0.1732 -1.2204
 1684SOL    HW2 5952   3.832   1.299   2.068  0.9287  0.0708 -1.4490
 1685SOL     OW 5953   0.012   2.192   0.185  0.2793  0.1911  0.2342
 1685SOL    HW1 5954  -0.085   2.172   0.194  0.3229 -0.1008  0.1051
 1685SOL    HW2 5955   0.065   2.114   0.219  0.4491 -0.6045 -1.6965
 1686SOL     OW 5956   4.803   0.902   3.450  0.4795 -0.2643 -0.3641
 1686SOL    HW1 5957   4.735   0.911   3.378 -1.1349 -0.0391  1.1119
 1686SOL    HW2 5958   4.824   0.805   3.464  1.1029 -0.2895 -1.3596
 1687SOL     OW 5959   4.638   4.918   3.109 -0.1283  0.0101 -0.1167
 1687SOL    HW1 5960   4.701   4.992   3.084  0.3479 -0.3759 -0.0564
 1687SOL    HW2 5961   4.612   4.867   3.028  0.7431 -0.7052  0.0370
 1688SOL     OW 5962   0.614   0.691   4.550  0.6904 -0.3690 -0.3024
 1688SOL    HW1 5963   0.646   0.752   4.622  0.7671 -0.1547 -0.5165
 1688SOL    HW2 5964   0.678   0.616   4.539  1.1348  0.0647 -0.7391
 1689SOL     OW 5965   0.127   5.714   3.456  0.2886  0.3359 -0.2560
 1689SOL    HW1 5966   0.220   5.709   3.420  0.2729 -2.8871 -0.0666
 1689SOL    HW2 5967   0.063   5.737   3.383  1.1723  2.8305 -0.3403
 1690SOL     OW 5968   4.447   4.646   4.848  0.0877  0.3291  0.2215
 1690SOL    HW1 5969   4.462   4.576   4.918 -0.2747  0.2342  0.2029
 1690SOL    HW2 5970   4.361   4.693   4.866 -0.8590 -0.8382 -1.1192
 1691SOL     OW 5971   5.396   2.176   0.427 -0.2642 -0.1931 -0.1524
 1691SOL    HW1 5972   5.351   2.124   0.355  0.3402  1.2555 -1.6223
 1691SOL    HW2 5973   5.433   2.112   0.495 -1.0713 -1.5720 -0.9460
 1692SOL     OW 5974   6.124   6.814   4.022  0.1903 -0.5375 -0.3152
 1692SOL    HW1 5975   6.077   6.805   3.934 -1.3572 -0.5120  0.4605
 1692SOL    HW2 5976   6.147   6.724   4.057 -1.8095 -0.7711  0.5473
 1693SOL     OW 5977   0.619   6.686   2.207 -0.3671 -0.2733 -0.2675
 1693SOL    HW1 5978   0.524   6.674   2.237 -0.2977 -1.9645 -0.6208
 1693SOL    HW2 5979   0.677   6.705   2.287 -0.7172 -1.2107  0.2297
 1694SOL     OW 5980   2.004   0.829   1.817 -0.5283 -0.5396  0.1572
 1694SOL    HW1 5981   1.946   0.892   1.766  1.3120  1.0226 -0.1195
 1694SOL    HW2 5982   2.059   0.881   1.883 -0.2942 -2.1114  1.2636
 1695SOL     OW 5983   0.421   6.951   1.408 -0.5835  0.4360 -0.5094
 1695SOL    HW1 5984   0.457   6.860   1.427  0.4860  1.2110  1.4652
 1695SOL    HW2 5985   0.328   6.958   1.446 -0.9389 -0.0311 -1.2762
 1696SOL     OW 5986   5.812   1.824   1.496 -0.6073 -0.1556 -0.2792
 1696SOL    HW1 5987   5.732   1.832   1.437 -0.5554  2.0083 -0.1562
 1696SOL    HW2 5988   5.802   1.886   1.574  1.2215  0.2923 -0.3412
 1697SOL     OW 5989   1.155   2.408   3.798 -0.1038 -0.3653 -0.7791
 1697SOL    HW1 5990   1.203   2.491   3.826 -1.7759  0.1897  0.5668
 1697SOL    HW2 5991   1.077   2.432   3.741 -2.1312 -0.7002  1.6827
 1698SOL     OW 5992   3.535   5.015   3.981  0.1856 -0.0239  0.2092
 1698SOL    HW1 5993   3.544   5.114   3.989  1.5191 -0.1206  0.1063
 1698SOL    HW2 5994   3.469   4.993   3.909 -2.2831  0.7712  2.0806
 1699SOL     OW 5995   6.873   1.447   1.915 -0.2840 -0.5078 -0.0667
 1699SOL    HW1 5996   6.967   1.465   1.944 -0.8140  1.4896  0.5362
 1699SOL    HW2 5997   6.832   1.379   1.975  0.3836 -0.4847  0.4288
 1700SOL     OW 5998   0.791   6.759   5.049 -0.2516  0.5107 -0.2754
 1700SOL    HW1 5999   0.735   6.689   5.005  0.2279  0.6876 -1.1825
 1700SOL    HW2 6000   0.886   6.746   5.023  0.5967 -1.2517  3.0727
 1701SOL     OW 6001   5.093   4.956   5.881 -0.1457 -0.3950 -0.0227
 1701SOL    HW1 6002   5.143   4.877   5.915 -0.0859 -0.1207  0.5338
 1701SOL    HW2 6003   5.012   4.972   5.938 -0.9774 -0.9345 -1.0033
 1702SOL     OW 6004   6.814   0.228   6.445  0.0529  0.3178 -0.3781
 1702SOL    HW1 6005   6.911   0.211   6.464  0.6761  0.5847 -2.9148
 1702SOL    HW2 6006   6.789   0.319   6.478  0.4095 -0.0528  0.9949
 1703SOL     OW 6007   3.737   5.246   6.999  0.1677 -0.3729 -0.1038
 1703SOL    HW1 6008   3.718   5.343   6.984 -1.4073 -0.7411 -0.5850
 1703SOL    HW2 6009   3.656   5.201   7.036  1.3053 -1.2523  1.4450
 1704SOL     OW 6010   1.243   0.763   1.449  0.2932 -0.1371 -0.4526
 1704SOL    HW1 6011   1.228   0.711   1.365  2.2071  1.0949 -1.6179
 1704SOL    HW2 6012   1.333   0.741   1.487 -0.2661 -0.1706  0.9346
 1705SOL     OW 6013   1.705   1.084   5.672  0.2001  1.0183 -0.2588
 1705SOL    HW1 6014   1.700   1.183   5.685 -0.9411  1.0707 -0.9225
 1705SOL    HW2 6015   1.634   1.040   5.726  0.1630  0.6397 -0.6085
 1706SOL     OW 6016   5.895   3.710   2.824  0.4573  0.2473 -0.3226
 1706SOL    HW1 6017   5.834   3.758   2.887  1.0200  1.7039 -0.8518
 1706SOL    HW2 6018   5.841   3.652   2.763 -0.4902  1.9296 -1.1471
 1707SOL     OW 6019   3.269   1.721   5.182  0.3642  0.3091  0.2614
 1707SOL    HW1 6020   3.366   1.708   5.204  0.3426  0.5069  0.4718
 1707SOL    HW2 6021   3.259   1.794   5.115  0.1801  2.0534  2.0966
 1708SOL     OW 6022   0.742   0.786   2.302 -0.1578 -0.4769 -0.5162
 1708SOL    HW1 6023   0.789   0.827   2.223 -2.8114  1.1847 -1.3660
 1708SOL    HW2 6024   0.658   0.742   2.271 -0.0701 -1.9017  1.1374
 1709SOL     OW 6025   6.850   1.204   3.838  0.2203  0.3684 -0.0814
 1709SOL    HW1 6026   6.935   1.158   3.861  0.0589  0.1530  0.0909
 1709SOL    HW2 6027   6.808   1.241   3.921 -0.3188 -0.3340 -0.0261
 1710SOL     OW 6028   4.339   4.408   1.425 -0.0469 -0.3658 -0.3190
 1710SOL    HW1 6029   4.281   4.480   1.388  2.1313  0.8714 -1.5045
 1710SOL    HW2 6030   4.423   4.402   1.371  1.0962 -1.8640  1.5196
 1711SOL     OW 6031   3.526   4.027   1.626  0.8173 -0.0372  0.6602
 1711SOL    HW1 6032   3.509   4.087   1.548 -0.1002  1.3634  1.8827
 1711SOL    HW2 6033   3.481   3.939   1.611 -0.0799  0.5225 -0.0202
 1712SOL     OW 6034   2.546   0.302   5.143  0.0542  0.0028 -0.0074
 1712SOL    HW1 6035   2.545   0.401   5.130 -0.2234 -0.1677 -1.5069
 1712SOL    HW2 6036   2.464   0.274   5.193 -1.1926  0.3110 -1.7691
 1713SOL     OW 6037   1.343   5.768   4.526 -0.0793  0.5106 -0.3374
 1713SOL    HW1 6038   1.293   5.792   4.609  2.1932  1.9414  0.7079
 1713SOL    HW2 6039   1.279   5.763   4.449 -2.0822  0.2157  1.2577
 1714SOL     OW 6040   2.046   5.230   4.339 -0.2444  0.4187 -0.0920
 1714SOL    HW1 6041   2.101   5.178   4.274  1.3023  0.2517  1.3033
 1714SOL    HW2 6042   1.989   5.168   4.392  0.0841  0.3478  0.1773
 1715SOL     OW 6043   0.221   6.859   0.311 -0.0352 -0.3188  0.6405
 1715SOL    HW1 6044   0.167   6.777   0.296 -0.1464 -0.1714  0.2229
 1715SOL    HW2 6045   0.316   6.834   0.328  0.1829 -0.4922 -0.6891
 1716SOL     OW 6046   6.748   3.085   2.379  0.3493 -0.8087  0.0368
 1716SOL    HW1 6047   6.652   3.112   2.377  0.0977 -1.4204  1.8320
 1716SOL    HW2 6048   6.762   3.015   2.449  1.9398 -1.4560 -0.8517
 1717SOL     OW 6049   6.139   0.694   4.898 -0.5448 -0.4978 -0.0584
 1717SOL    HW1 6050   6.178   0.775   4.855  1.3182 -1.7838 -0.9640
 1717SOL    HW2 6051   6.157   0.697   4.996  1.5564 -0.8204 -0.3828
 1718SOL     OW 6052   3.183   2.166   3.107 -0.0599  0.3130  0.1967
 1718SOL    HW1 6053   3.173   2.214   3.194  1.3260  0.2700  0.4028
 1718SOL    HW2 6054   3.242   2.086   3.120  2.1701  1.6233 -1.2074
 1719SOL     OW 6055   6.541   0.285   1.203 -0.2743 -0.0681 -0.3057
 1719SOL    HW1 6056   6.513   0.276   1.298 -1.9107 -1.8100 -0.8926
 1719SOL    HW2 6057   6.618   0.349   1.197 -0.4994  0.5297  2.0828
 1720SOL     OW 6058   2.197   0.844   4.969 -0.7312 -0.3233 -0.1916
 1720SOL    HW1 6059   2.197   0.900   5.052  2.9293  0.0544 -0.2840
 1720SOL    HW2 6060   2.204   0.747   4.994 -1.8344 -0.3910 -0.0895
 1721SOL     OW 6061   6.567   1.599   2.539  0.6106  0.1851 -0.1232
 1721SOL    HW1 6062   6.567   1.574   2.636 -3.2455  1.1499  0.2901
 1721SOL    HW2 6063   6.632   1.542   2.490  3.4813  0.3685  3.1254
 1722SOL     OW 6064   5.360   4.184   3.722  0.3670  0.1365 -0.7927
 1722SOL    HW1 6065   5.408   4.126   3.788 -2.2742 -0.5289  0.7069
 1722SOL    HW2 6066   5.376   4.281   3.745 -0.1565 -0.0806  0.6249
 1723SOL     OW 6067   1.901   1.898   5.070 -0.7204 -0.0731 -0.4517
 1723SOL    HW1 6068   1.811   1.933   5.044 -1.8953 -2.9929 -0.7049
 1723SOL    HW2 6069   1.931   1.829   5.003  0.7205 -0.6802  0.7603
 1724SOL     OW 6070   1.686   0.431   3.272  0.0703 -0.4388  0.3298
 1724SOL    HW1 6071   1.764   0.392   3.222  0.7138  2.7429 -1.3802
 1724SOL    HW2 6072   1.604   0.378   3.252  1.3698 -2.6842  0.5904
 1725SOL     OW 6073   3.219   5.514   1.943 -0.2360 -0.1891  0.5212
 1725SOL    HW1 6074   3.214   5.426   1.990 -0.7958 -0.1819  0.4794
 1725SOL    HW2 6075   3.129   5.537   1.906 -0.4800  1.1377  1.8590
 1726SOL     OW 6076   1.546   3.572   2.007  0.1322 -0.0602 -0.0185
 1726SOL    HW1 6077   1.528   3.537   1.915 -0.4696 -0.2803  0.1797
 1726SOL    HW2 6078   1.481   3.644   2.029  1.3052  1.1423 -0.3836
 1727SOL     OW 6079   3.444   1.083   2.278  0.2418 -0.0041 -0.4588
 1727SOL    HW1 6080   3.421   1.050   2.369  2.4326  2.1445  0.9861
 1727SOL    HW2 6081   3.449   1.006   2.215 -1.3160 -1.5506  1.1971
 1728SOL     OW 6082   1.605   3.110   3.166 -0.6157 -0.0161  0.2059
 1728SOL    HW1 6083   1.552   3.027   3.148  0.7813 -0.8808  0.0140
 1728SOL    HW2 6084   1.640   3.107   3.260  1.0208 -0.5678 -0.3986
 1729SOL     OW 6085   4.499   0.882   2.094  0.3100  0.3234  0.5072
 1729SOL    HW1 6086   4.404   0.860   2.115 -0.7559  3.8904  0.0688
 1729SOL    HW2 6087   4.510   0.891   1.995  0.4267  2.2740  0.6620
 1730SOL     OW 6088   1.609   2.624   1.074  0.2921  0.6188  0.8154
 1730SOL    HW1 6089   1.643   2.712   1.040 -0.3914  0.4893 -0.2737
 1730SOL    HW2 6090   1.536   2.592   1.014 -0.2775 -0.1335  1.8823
 1731SOL     OW 6091   0.642   0.681   0.651 -0.2881  0.7537 -0.2996
 1731SOL    HW1 6092   0.634   0.628   0.567  2.2039 -2.0867  1.0780
 1731SOL    HW2 6093   0.574   0.651   0.717  0.1703  0.3044 -0.0275
 1732SOL     OW 6094   2.661   2.969   5.399 -0.1449  0.2572 -0.0934
 1732SOL    HW1 6095   2.595   2.985   5.325 -0.8350  0.2098  0.5012
 1732SOL    HW2 6096   2.698   2.877   5.392  2.4852  1.3349 -2.4667
 1733SOL     OW 6097   6.945   0.370   5.561  0.1267 -0.0993  0.0098
 1733SOL    HW1 6098   6.984   0.368   5.469 -0.2431  0.5109 -0.1701
 1733SOL    HW2 6099   6.954   0.280   5.603  1.8159  0.0236  0.0153
 1734SOL     OW 6100   3.624   5.297   4.047  0.0661 -0.0405 -0.5079
 1734SOL    HW1 6101   3.639   5.394   4.065  0.7951 -0.0701 -0.9113
 1734SOL    HW2 6102   3.607   5.249   4.133 -2.9950  0.8528 -0.4976
 1735SOL     OW 6103   0.670   6.641   3.590 -0.2707  0.3344 -0.3782
 1735SOL    HW1 6104   0.588   6.691   3.621 -1.1208 -1.6573  0.7648
 1735SOL    HW2 6105   0.647   6.587   3.509  0.1093  0.2870 -0.4539
 1736SOL     OW 6106   0.995   3.156   6.055 -0.3118  0.0551 -0.1468
 1736SOL    HW1 6107   0.936   3.226   6.015 -2.2531 -1.5541 -0.2632
 1736SOL    HW2 6108   1.009   3.083   5.989 -0.0381 -0.6242  0.6472
 1737SOL     OW 6109   1.589   3.171   4.612 -0.0655  0.2407 -0.0744
 1737SOL    HW1 6110   1.616   3.252   4.663  0.0208 -0.4703  1.0702
 1737SOL    HW2 6111   1.665   3.139   4.556  0.6221 -0.2479  1.1077
 1738SOL     OW 6112   6.583   0.865   6.674 -0.2105 -0.2251 -0.1747
 1738SOL    HW1 6113   6.597   0.830   6.766 -0.1498  2.8257  1.1025
 1738SOL    HW2 6114   6.552   0.791   6.614 -0.0602 -2.3406  2.2011
 1739SOL     OW 6115   4.036   0.465   0.790  0.6126 -0.2008  0.1107
 1739SOL    HW1 6116   4.123   0.469   0.838  0.1956  1.6992  0.7756
 1739SOL    HW2 6117   3.961   0.473   0.856 -0.1252 -2.0983 -0.4117
 1740SOL     OW 6118   5.949   0.070   0.985  0.6879  0.3682  0.5853
 1740SOL    HW1 6119   5.923   0.161   0.953  1.0103 -0.3997 -2.1432
 1740SOL    HW2 6120   5.890   0.044   1.061 -1.3667  1.7306 -0.4391
 1741SOL     OW 6121   5.049   5.109   6.520 -0.0383  0.2039 -0.7677
 1741SOL    HW1 6122   5.039   5.088   6.617  0.8352 -0.6631 -0.8471
 1741SOL    HW2 6123   5.032   5.206   6.504  2.1662  0.8824  0.6289
 1742SOL     OW 6124   5.911   4.049   4.457 -0.1255 -0.3126 -0.6252
 1742SOL    HW1 6125   5.930   4.092   4.545  3.3459 -2.3895 -0.1969
 1742SOL    HW2 6126   5.819   4.009   4.459 -0.4745  0.4593  1.6934
 1743SOL     OW 6127   5.539   4.903   0.189 -0.9482  0.1560  0.3400
 1743SOL    HW1 6128   5.494   4.816   0.172  2.2777 -1.8772  1.3159
 1743SOL    HW2 6129   5.566   4.944   0.102 -2.6179  0.3505 -0.1308
 1744SOL     OW 6130   6.554   4.052   0.483 -0.5783 -0.7248  0.1787
 1744SOL    HW1 6131   6.581   3.957   0.467 -1.5017 -0.9752  0.0709
 1744SOL    HW2 6132   6.552   4.070   0.582  1.3615 -0.2790  0.1791
 1745SOL     OW 6133   6.822   0.649   2.920 -0.2288 -0.5509  0.3712
 1745SOL    HW1 6134   6.882   0.582   2.876  0.9998  0.3671  0.6022
 1745SOL    HW2 6135   6.849   0.741   2.892 -2.0884 -0.1284 -0.1843
 1746SOL     OW 6136   6.413   4.362   3.789 -0.1741 -0.4528  0.5496
 1746SOL    HW1 6137   6.407   4.304   3.871  1.2041 -0.3836  0.7206
 1746SOL    HW2 6138   6.492   4.422   3.796 -1.3625  1.2279  0.1962
 1747SOL     OW 6139   1.250   6.451   1.919  0.0160  0.0728 -0.5030
 1747SOL    HW1 6140   1.163   6.456   1.871 -0.4496  2.6727  0.4153
 1747SOL    HW2 6141   1.325   6.469   1.856 -0.2125 -0.7388 -1.0177
 1748SOL     OW 6142   6.911   5.743   5.557  0.7700 -0.5142  0.1623
 1748SOL    HW1 6143   6.983   5.725   5.623  0.2988 -0.0622  0.8096
 1748SOL    HW2 6144   6.943   5.719   5.465  1.4335 -1.1279  0.5459
 1749SOL     OW 6145   2.200   0.552   4.905 -0.1347 -0.0600  0.5292
 1749SOL    HW1 6146   2.224   0.491   4.981  0.9430 -2.4991 -1.6240
 1749SOL    HW2 6147   2.108   0.531   4.873  0.3374 -0.7967 -0.3852
 1750SOL     OW 6148   3.257   5.472   3.109  0.4869 -0.2145  0.1874
 1750SOL    HW1 6149   3.251   5.478   3.009  0.6657 -0.2921  0.1729
 1750SOL    HW2 6150   3.171   5.436   3.145  1.2107 -2.4178 -0.1124
 1751SOL     OW 6151   5.668   3.195   5.554 -0.1950 -0.4561 -0.4110
 1751SOL    HW1 6152   5.600   3.140   5.603 -2.3514  0.4375 -2.2157
 1751SOL    HW2 6153   5.622   3.254   5.488  2.2079  1.7913 -0.2618
 1752SOL     OW 6154   6.048   5.963   2.500  0.0459 -0.0119  0.3355
 1752SOL    HW1 6155   6.079   6.056   2.518 -1.4630  0.7664 -0.8578
 1752SOL    HW2 6156   5.953   5.953   2.529 -0.7482 -0.2894 -2.1441
 1753SOL     OW 6157   2.889   3.327   1.418  0.0914  0.4169 -0.0378
 1753SOL    HW1 6158   2.935   3.241   1.400 -0.5238  0.2984 -1.1342
 1753SOL    HW2 6159   2.890   3.346   1.516 -0.0786 -1.0162  0.2578
 1754SOL     OW 6160   4.972   3.316   1.139  0.2423  0.2379  0.6914
 1754SOL    HW1 6161   5.032   3.267   1.203  0.8579  0.7414  0.4962
 1754SOL    HW2 6162   4.934   3.396   1.185 -0.0286  0.1015  0.7082
 1755SOL     OW 6163   4.800   1.096   1.010 -0.4065  0.2528  0.2655
 1755SOL    HW1 6164   4.795   1.018   1.072  0.5997 -0.3021 -0.3340
 1755SOL    HW2 6165   4.894   1.110   0.981 -0.8792  0.3966 -1.2956
 1756SOL     OW 6166   5.377   3.611   2.573  0.8035 -0.7811 -0.1394
 1756SOL    HW1 6167   5.365   3.698   2.526  0.7830 -1.5356 -1.6079
 1756SOL    HW2 6168   5.306   3.600   2.643  0.5106  0.1485 -0.2768
 1757SOL     OW 6169   1.082   3.936   3.668 -0.4793 -0.9166  0.5442
 1757SOL    HW1 6170   0.991   3.926   3.627 -0.3414  0.4438 -0.1530
 1757SOL    HW2 6171   1.142   3.864   3.634 -0.3771  0.1390 -1.6830
 1758SOL     OW 6172   2.399   5.327   3.404 -0.0985  0.0221 -0.0304
 1758SOL    HW1 6173   2.300   5.317   3.411  0.0954 -1.6556  0.6986
 1758SOL    HW2 6174   2.441   5.238   3.388  1.3444  0.6222  0.2598
 1759SOL     OW 6175   6.170   1.715   0.242  0.5284  0.5451 -0.1796
 1759SOL    HW1 6176   6.240   1.701   0.172  1.3442  0.1875  0.6774
 1759SOL    HW2 6177   6.101   1.642   0.235  1.5124 -0.4760  0.4321
 1760SOL     OW 6178   6.140   5.822   3.084 -0.6195  0.1370 -0.1333
 1760SOL    HW1 6179   6.238   5.828   3.070 -0.7185  1.1740 -0.4126
 1760SOL    HW2 6180   6.105   5.739   3.039 -0.1217  0.6140 -1.4335
 1761SOL     OW 6181   0.379   1.198   6.637 -0.1265  0.3073  0.0270
 1761SOL    HW1 6182   0.296   1.185   6.583 -0.4235  0.4900  0.4310
 1761SOL    HW2 6183   0.446   1.248   6.583  0.0982 -0.7057 -0.6572
 1762SOL     OW 6184   6.439   6.578   6.036 -0.6116 -0.6389 -0.4086
 1762SOL    HW1 6185   6.356   6.622   6.003 -0.4110 -0.2325 -0.3809
 1762SOL    HW2 6186   6.419   6.523   6.117 -0.9319 -0.8988 -0.6577
 1763SOL     OW 6187   5.212   6.260   5.798 -0.3502 -0.2665 -0.2901
 1763SOL    HW1 6188   5.126   6.298   5.761 -0.9028 -0.4696  0.7424
 1763SOL    HW2 6189   5.287   6.322   5.776 -1.0428  0.8353  0.2841
 1764SOL     OW 6190   3.296   0.618   5.056 -0.6726  0.1587 -0.0083
 1764SOL    HW1 6191   3.301   0.564   5.140  2.0054  0.1324 -0.1018
 1764SOL    HW2 6192   3.292   0.557   4.977 -2.6640  0.1840  0.0272
 1765SOL     OW 6193   1.941   5.803   6.960 -0.6537  0.1981  0.1897
 1765SOL    HW1 6194   2.022   5.762   7.002 -1.8472 -1.1175  1.2947
 1765SOL    HW2 6195   1.962   5.828   6.865  0.2643 -2.7100 -0.4766
 1766SOL     OW 6196   2.045   3.285   1.414 -0.4895 -0.0025 -0.1219
 1766SOL    HW1 6197   1.982   3.334   1.353  0.7277  1.9975  0.1588
 1766SOL    HW2 6198   2.090   3.350   1.475  0.7058 -1.5820  0.7429
 1767SOL     OW 6199   5.414   6.553   6.981 -0.5162 -0.8588  0.1883
 1767SOL    HW1 6200   5.372   6.468   6.946 -0.8737 -0.7220  0.2779
 1767SOL    HW2 6201   5.391   6.628   6.920 -1.1092 -0.6264  0.6831
 1768SOL     OW 6202   6.877   6.228   6.397 -0.5145 -0.0601 -0.5256
 1768SOL    HW1 6203   6.822   6.259   6.474 -0.4541 -0.6450 -0.2435
 1768SOL    HW2 6204   6.957   6.179   6.430 -0.2354  0.0965 -0.9523
 1769SOL     OW 6205   5.719   6.414   6.057  0.6491  0.0718 -0.7473
 1769SOL    HW1 6206   5.776   6.493   6.032  1.7603 -0.6290 -0.5039
 1769SOL    HW2 6207   5.776   6.345   6.102 -0.8410  0.3149  1.6754
 1770SOL     OW 6208   4.354   4.677   0.143  0.3759 -0.0955 -0.6094
 1770SOL    HW1 6209   4.385   4.683   0.238  0.6498  1.7947 -0.7876
 1770SOL    HW2 6210   4.429   4.642   0.086  0.8034  0.4671 -0.4005
 1771SOL     OW 6211   0.101   3.063   3.095  0.1963 -0.3482  0.5464
 1771SOL    HW1 6212   0.130   2.990   3.158 -0.1490  0.7327  1.9967
 1771SOL    HW2 6213   0.003   3.057   3.082  0.2996 -0.7172 -0.1080
 1772SOL     OW 6214   3.377   5.915   6.724 -0.5825 -0.0012  0.0243
 1772SOL    HW1 6215   3.362   5.858   6.806  1.6312  1.9278  1.9060
 1772SOL    HW2 6216   3.307   5.986   6.720 -1.7579 -1.1488 -0.8441
 1773SOL     OW 6217   4.117   0.803   0.390 -0.2384  0.0465  0.8563
 1773SOL    HW1 6218   4.162   0.771   0.473  0.1305 -0.3793  0.4927
 1773SOL    HW2 6219   4.176   0.870   0.344 -1.2402  1.7277  1.9115
 1774SOL     OW 6220   6.451   6.188   6.184  0.6862  0.5345  0.6867
 1774SOL    HW1 6221   6.492   6.153   6.269  0.4931  0.7316  0.8640
 1774SOL    HW2 6222   6.351   6.178   6.189  0.7525 -0.4675  0.0184
 1775SOL     OW 6223   6.787   5.919   6.925 -0.6291  0.3214 -0.4445
 1775SOL    HW1 6224   6.863   5.872   6.971 -1.2398 -0.7251 -0.4966
 1775SOL    HW2 6225   6.736   5.973   6.993  0.7234  1.8405 -0.5725
 1776SOL     OW 6226   4.644   1.285   3.675  0.0914  0.3015 -0.6143
 1776SOL    HW1 6227   4.625   1.188   3.665 -0.0457  0.2051  0.5075
 1776SOL    HW2 6228   4.723   1.310   3.619 -0.5053 -0.2380 -1.7154
 1777SOL     OW 6229   1.801   3.535   6.612  0.1280  0.7710 -0.4166
 1777SOL    HW1 6230   1.799   3.471   6.535  2.2630 -0.6600  0.6148
 1777SOL    HW2 6231   1.815   3.484   6.697 -1.6886  2.3431  0.9114
 1778SOL     OW 6232   0.109   2.247   2.321 -0.2091  0.0243  0.3394
 1778SOL    HW1 6233   0.033   2.197   2.279  0.2831 -1.8650  1.6131
 1778SOL    HW2 6234   0.072   2.321   2.378 -0.9688  0.5969 -0.8431
 1779SOL     OW 6235   3.661   5.705   1.006  0.1420  1.0610 -0.3129
 1779SOL    HW1 6236   3.600   5.783   1.020 -1.4240  0.1721 -1.8236
 1779SOL    HW2 6237   3.606   5.622   0.994  1.7576 -0.3737  1.5602
 1780SOL     OW 6238   3.876   2.405   0.210  0.4974 -0.7843 -0.6987
 1780SOL    HW1 6239   3.855   2.315   0.249 -2.2628 -0.1105 -0.4396
 1780SOL    HW2 6240   3.889   2.471   0.284  1.6394 -0.7518 -0.9069
 1781SOL     OW 6241   6.110   1.179   6.650  0.2445 -0.4512  0.5144
 1781SOL    HW1 6242   6.141   1.168   6.555  0.7047  1.5095  0.4080
 1781SOL    HW2 6243   6.012   1.199   6.650  0.4277  0.4962  0.3664
 1782SOL     OW 6244   5.508   1.761   1.061 -0.1046 -0.9511 -0.1277
 1782SOL    HW1 6245   5.485   1.841   1.005  1.0574 -1.5458 -1.4991
 1782SOL    HW2 6246   5.424   1.710   1.080 -0.7259  0.0571 -0.0423
 1783SOL     OW 6247   0.557   2.584   1.314  0.3797  0.5394 -0.2791
 1783SOL    HW1 6248   0.573   2.677   1.347  0.8656  0.0694  0.8741
 1783SOL    HW2 6249   0.631   2.558   1.253  0.0528  1.0263 -0.8988
 1784SOL     OW 6250   3.871   0.717   2.205  0.1574 -0.0903 -0.3439
 1784SOL    HW1 6251   3.943   0.774   2.245  2.3497 -3.3340  0.8723
 1784SOL    HW2 6252   3.841   0.756   2.119  1.4977  2.7732  0.3585
 1785SOL     OW 6253   0.440   5.208   4.927 -0.1333  0.5594  0.0781
 1785SOL    HW1 6254   0.341   5.203   4.914 -0.0263 -0.2722 -0.4919
 1785SOL    HW2 6255   0.473   5.122   4.964  0.3894  0.8156  0.2158
 1786SOL     OW 6256   6.659   3.162   3.350 -0.3591  0.2681  0.3213
 1786SOL    HW1 6257   6.628   3.094   3.284  0.0827 -0.6487  1.0323
 1786SOL    HW2 6258   6.634   3.254   3.318  1.2884  0.0139 -1.9465
 1787SOL     OW 6259   0.293   2.092   4.160  0.0284  0.7817 -0.0241
 1787SOL    HW1 6260   0.278   2.014   4.099 -0.1858 -0.4164  1.5027
 1787SOL    HW2 6261   0.331   2.168   4.107  0.0742 -0.2705 -1.5952
 1788SOL     OW 6262   4.682   3.444   5.616 -0.3637 -0.2482  0.3762
 1788SOL    HW1 6263   4.672   3.536   5.653  0.3196 -0.1736  0.3848
 1788SOL    HW2 6264   4.639   3.440   5.526  0.6807  0.4282 -0.1701
 1789SOL     OW 6265   4.631   0.301   5.417  0.0753 -0.1786 -0.1329
 1789SOL    HW1 6266   4.553   0.267   5.365  1.3355  1.0603 -3.0579
 1789SOL    HW2 6267   4.610   0.392   5.454 -0.7856 -1.0199  1.5747
 1790SOL     OW 6268   5.281   2.626   5.306 -0.4474  0.5437 -0.8683
 1790SOL    HW1 6269   5.338   2.662   5.233 -2.5467  2.5804 -1.5959
 1790SOL    HW2 6270   5.218   2.696   5.338 -2.7779 -1.6636 -0.2971
 1791SOL     OW 6271   0.245   4.425   1.300 -0.4078 -0.0170  0.6413
 1791SOL    HW1 6272   0.179   4.351   1.294 -0.6796  0.2531  0.2581
 1791SOL    HW2 6273   0.211   4.505   1.250  1.1189 -0.5472 -1.3842
 1792SOL     OW 6274   2.260   2.140   6.630 -0.0432  0.2592  0.1237
 1792SOL    HW1 6275   2.345   2.179   6.595  0.4457 -1.8053 -1.1488
 1792SOL    HW2 6276   2.281   2.066   6.694 -0.9103  0.5407  0.7486
 1793SOL     OW 6277   2.951   1.748   0.710 -0.0859  0.0993 -0.5660
 1793SOL    HW1 6278   2.919   1.839   0.734 -2.2174 -1.3970  3.0610
 1793SOL    HW2 6279   3.050   1.742   0.725  0.2803  1.9687 -1.8186
 1794SOL     OW 6280   4.385   5.136   2.705 -0.4165  0.1551  0.4255
 1794SOL    HW1 6281   4.381   5.140   2.805  2.4168  0.2609  0.6292
 1794SOL    HW2 6282   4.449   5.064   2.678 -0.2362  0.9120 -1.2788
 1795SOL     OW 6283   0.013   1.834   1.140 -0.5110  0.4175  0.2407
 1795SOL    HW1 6284   0.108   1.868   1.139 -0.5248  0.4820  1.0652
 1795SOL    HW2 6285   0.003   1.765   1.211 -1.3490  1.1606  0.8591
 1796SOL     OW 6286   6.728   5.531   2.899  0.0022 -0.0214 -0.6008
 1796SOL    HW1 6287   6.823   5.527   2.929  1.1449  0.7859 -3.6915
 1796SOL    HW2 6288   6.695   5.625   2.906 -1.0079 -0.4668  1.4296
 1797SOL     OW 6289   3.972   6.633   2.454  0.0880 -0.1761  0.2951
 1797SOL    HW1 6290   4.027   6.713   2.473  0.4171 -1.0664  3.8393
 1797SOL    HW2 6291   4.019   6.551   2.487 -1.3754 -1.5453 -0.8133
 1798SOL     OW 6292   3.187   6.745   6.701 -0.1681  0.0142  1.1522
 1798SOL    HW1 6293   3.144   6.821   6.748 -0.5648  1.2577 -1.0719
 1798SOL    HW2 6294   3.285   6.762   6.692 -0.1167 -0.1513  1.3944
 1799SOL     OW 6295   2.816   1.251   5.276  0.0008  0.1442 -0.0770
 1799SOL    HW1 6296   2.723   1.227   5.247 -0.7393  1.0423  1.4202
 1799SOL    HW2 6297   2.839   1.342   5.241 -0.0731  0.3378  0.3746
 1800SOL     OW 6298   6.053   5.060   5.347  0.4205  0.5479 -0.4147
 1800SOL    HW1 6299   6.150   5.045   5.367  0.7967  0.7231 -2.0067
 1800SOL    HW2 6300   6.019   4.986   5.290 -0.0468  1.1546 -0.9331
 1801SOL     OW 6301   5.356   3.877   2.464  0.1921  0.2808 -0.2041
 1801SOL    HW1 6302   5.385   3.942   2.534 -0.4246  2.3700 -1.7916
 1801SOL    HW2 6303   5.315   3.926   2.387 -0.3151 -2.0099 -1.5031
 1802SOL     OW 6304   5.415   2.334   5.759 -0.1140  0.0503 -0.8505
 1802SOL    HW1 6305   5.339   2.322   5.695  0.9389  1.5121 -2.4897
 1802SOL    HW2 6306   5.382   2.376   5.843 -1.6657 -2.5812 -0.0270
 1803SOL     OW 6307   5.905   3.190   2.081 -0.2745 -0.5297  0.3040
 1803SOL    HW1 6308   5.850   3.268   2.051 -1.9388 -0.3829  3.3253
 1803SOL    HW2 6309   5.887   3.111   2.022  0.0291  0.8020 -1.6680
 1804SOL     OW 6310   4.986   3.117   0.401 -0.2145 -0.2047 -0.1919
 1804SOL    HW1 6311   4.978   3.044   0.332  0.6857  0.6087 -1.1817
 1804SOL    HW2 6312   4.967   3.205   0.359 -1.3043  0.1699  1.0035
 1805SOL     OW 6313   5.944   2.017   2.827  0.1961  0.0529 -0.5486
 1805SOL    HW1 6314   5.877   1.942   2.837 -0.0348  0.4275  1.0583
 1805SOL    HW2 6315   6.021   1.986   2.772 -0.3941 -1.0321 -0.7883
 1806SOL     OW 6316   0.827   1.073   5.551 -0.0852  0.2857 -0.1560
 1806SOL    HW1 6317   0.895   1.124   5.498 -0.8671  0.8361 -0.6591
 1806SOL    HW2 6318   0.791   0.999   5.495 -0.5260  0.5357 -0.2040
 1807SOL     OW 6319   6.761   1.975   2.392  0.3901  0.7552  0.8091
 1807SOL    HW1 6320   6.833   1.907   2.400  0.3965  0.7359  0.5921
 1807SOL    HW2 6321   6.711   1.961   2.307 -0.7581 -0.1029  1.5834
 1808SOL     OW 6322   4.611   3.154   0.121 -0.2536  0.0805 -0.0364
 1808SOL    HW1 6323   4.530   3.110   0.083  1.4412 -1.4173 -2.1674
 1808SOL    HW2 6324   4.648   3.219   0.055 -0.2151  1.4870  1.3038
 1809SOL     OW 6325   1.526   3.780   4.363  0.0803  0.4807  0.4023
 1809SOL    HW1 6326   1.582   3.697   4.366  2.2461  1.8312 -0.3829
 1809SOL    HW2 6327   1.467   3.784   4.444  1.3443 -0.8645  1.4347
 1810SOL     OW 6328   0.406   6.331   5.102  0.4821 -0.3501  0.3411
 1810SOL    HW1 6329   0.330   6.285   5.148  1.2605  0.3429  2.4595
 1810SOL    HW2 6330   0.373   6.376   5.019 -1.4788  0.1847  1.3465
 1811SOL     OW 6331   1.225   3.331   1.953  0.1603  0.0380 -0.2898
 1811SOL    HW1 6332   1.151   3.318   2.018  0.9065 -1.0118  0.3989
 1811SOL    HW2 6333   1.311   3.301   1.994  0.7989  0.2141 -1.4390
 1812SOL     OW 6334   0.371   1.134   3.489  0.3533  0.4682 -0.4246
 1812SOL    HW1 6335   0.388   1.227   3.522  0.2494  0.6632 -0.9143
 1812SOL    HW2 6336   0.345   1.075   3.566 -0.7728  1.1230 -0.2876
 1813SOL     OW 6337   2.965   0.231   5.350 -0.3490  0.7431 -0.2524
 1813SOL    HW1 6338   2.939   0.135   5.337 -0.2062  0.5840  0.6250
 1813SOL    HW2 6339   2.882   0.287   5.355 -0.5187  0.4070  1.1659
 1814SOL     OW 6340   1.401   1.514   0.656 -0.8005  0.2087  0.5436
 1814SOL    HW1 6341   1.416   1.420   0.623  0.5779  1.1625 -1.7616
 1814SOL    HW2 6342   1.320   1.515   0.716 -1.1246 -2.3476  0.2907
 1815SOL     OW 6343   1.697   4.773   6.053  0.2811 -0.9925  0.3032
 1815SOL    HW1 6344   1.616   4.763   6.110 -0.3978 -2.3851 -0.8517
 1815SOL    HW2 6345   1.684   4.850   5.990  0.2164 -0.6804  0.6976
 1816SOL     OW 6346   4.802   0.958   5.586  0.0604 -0.3654  0.2232
 1816SOL    HW1 6347   4.768   0.888   5.525 -0.2989  0.7262 -0.8654
 1816SOL    HW2 6348   4.773   1.048   5.553 -0.0952  0.2627  1.9644
 1817SOL     OW 6349   0.255   5.975   4.926 -0.2386 -0.0070  0.5917
 1817SOL    HW1 6350   0.335   6.034   4.924 -0.4330  0.4180  2.8824
 1817SOL    HW2 6351   0.273   5.894   4.869  0.5539  1.5119 -1.4727
 1818SOL     OW 6352   0.997   7.012   0.424 -0.0668 -0.5805  0.6818
 1818SOL    HW1 6353   0.899   7.034   0.427 -0.1931 -1.0428  0.2219
 1818SOL    HW2 6354   1.034   7.038   0.334 -0.0127 -1.3711  0.4642
 1819SOL     OW 6355   1.893   0.239   2.090  0.1623  0.0450 -0.1479
 1819SOL    HW1 6356   1.827   0.224   2.017 -0.7293  1.4966  0.3307
 1819SOL    HW2 6357   1.936   0.329   2.080  1.2040 -0.3833  0.2320
 1820SOL     OW 6358   4.849   6.455   2.018 -0.0882 -0.0786  0.3878
 1820SOL    HW1 6359   4.839   6.554   2.005  0.9078  0.0934  0.8800
 1820SOL    HW2 6360   4.884   6.436   2.110 -1.1240 -0.9466  0.6213
 1821SOL     OW 6361   0.703   5.341   1.245  0.4187 -0.1803  0.2005
 1821SOL    HW1 6362   0.628   5.343   1.311 -0.3286 -3.4166 -0.3876
 1821SOL    HW2 6363   0.787   5.313   1.292  0.3733 -0.3374  0.1902
 1822SOL     OW 6364   1.520   5.975   4.006  0.8958  0.1248  0.3004
 1822SOL    HW1 6365   1.423   6.000   4.008  1.3835  2.9699 -3.0420
 1822SOL    HW2 6366   1.529   5.877   4.025 -2.6059 -0.2996  0.5181
 1823SOL     OW 6367   2.204   3.848   5.268  0.3025 -0.0406 -0.2623
 1823SOL    HW1 6368   2.189   3.880   5.362 -0.4213 -2.2081  0.4308
 1823SOL    HW2 6369   2.286   3.890   5.231 -0.3104  2.1565  0.7035
 1824SOL     OW 6370   5.290   6.907   3.877  0.6328  0.3662  0.4638
 1824SOL    HW1 6371   5.254   6.991   3.917  1.5536  1.0268 -0.0503
 1824SOL    HW2 6372   5.249   6.828   3.922  0.1461  1.0866  1.3113
 1825SOL     OW 6373   6.867   0.297   1.722 -0.1098 -0.6302 -0.1692
 1825SOL    HW1 6374   6.848   0.395   1.733 -0.6078 -0.5791 -1.3494
 1825SOL    HW2 6375   6.813   0.245   1.787  1.0567 -0.0699  1.3054
 1826SOL     OW 6376   1.397   3.753   1.042 -0.6810  0.1442 -0.0540
 1826SOL    HW1 6377   1.396   3.809   1.124 -0.3338  1.1308 -0.7175
 1826SOL    HW2 6378   1.364   3.806   0.964 -1.2991 -0.8689 -0.5108
 1827SOL     OW 6379   4.200   6.031   1.221 -0.0840  0.2498  0.5812
 1827SOL    HW1 6380   4.216   6.006   1.317  0.6971  0.5987  0.5460
 1827SOL    HW2 6381   4.246   6.118   1.201  2.2029 -1.2037 -0.8734
 1828SOL     OW 6382   6.106   5.489   3.293  0.1358 -0.2516 -0.0115
 1828SOL    HW1 6383   6.086   5.494   3.195 -0.8123  0.1389  0.1918
 1828SOL    HW2 6384   6.023   5.468   3.343  0.6880 -0.8301  0.6910
 1829SOL     OW 6385   3.327   2.886   2.818 -0.8356 -0.5136 -0.1302
 1829SOL    HW1 6386   3.399   2.949   2.790 -0.7436  0.0062  1.2080
 1829SOL    HW2 6387   3.316   2.890   2.917 -2.3292 -1.0029 -0.2516
 1830SOL     OW 6388   6.392   4.426   2.341 -0.1954 -0.3240 -0.1630
 1830SOL    HW1 6389   6.374   4.382   2.253  1.9014  0.3995 -1.0217
 1830SOL    HW2 6390   6.322   4.494   2.359 -1.4118 -1.4198 -0.5997
 1831SOL     OW 6391   2.199   3.366   6.201 -0.2109  0.0285  0.3745
 1831SOL    HW1 6392   2.121   3.353   6.262 -0.0212  1.7077  1.0151
 1831SOL    HW2 6393   2.214   3.463   6.186  1.4454 -0.2798 -0.1696
 1832SOL     OW 6394   4.516   5.156   0.646  0.0133  0.0986  0.2041
 1832SOL    HW1 6395   4.472   5.080   0.598  0.9405 -0.0986 -0.3567
 1832SOL    HW2 6396   4.476   5.165   0.737 -0.1071 -1.0695  0.2880
 1833SOL     OW 6397   3.717   5.084   1.532  0.4144  0.6167 -0.1248
 1833SOL    HW1 6398   3.677   5.120   1.447  2.1809 -0.2030 -1.3720
 1833SOL    HW2 6399   3.646   5.041   1.587 -0.5204 -0.4370 -2.0527
 1834SOL     OW 6400   1.008   1.970   2.679 -0.0062  0.2536 -0.1445
 1834SOL    HW1 6401   1.032   2.020   2.763  0.6552  1.2257 -0.8781
 1834SOL    HW2 6402   0.935   2.019   2.631 -1.2990 -0.9907  0.4779
 1835SOL     OW 6403   5.659   2.572   5.208  0.9829  0.2398  0.8833
 1835SOL    HW1 6404   5.599   2.522   5.145  0.3082  0.4941  1.3052
 1835SOL    HW2 6405   5.725   2.509   5.249  0.0506 -0.3622  1.5250
 1836SOL     OW 6406   6.959   6.858   2.465  0.5595  0.8423 -0.2246
 1836SOL    HW1 6407   7.057   6.863   2.481  0.2694  0.2939  2.1756
 1836SOL    HW2 6408   6.914   6.940   2.502 -0.0992 -0.1167  1.2198
 1837SOL     OW 6409   6.686   6.060   1.342 -0.3779  0.1143  0.2130
 1837SOL    HW1 6410   6.599   6.047   1.391 -0.6989  2.6927  0.4719
 1837SOL    HW2 6411   6.667   6.088   1.248  0.0964  1.7615  0.5747
 1838SOL     OW 6412   0.619   3.723   2.396  0.0998  0.0810  0.6322
 1838SOL    HW1 6413   0.545   3.656   2.400 -0.0297  0.2695  2.2716
 1838SOL    HW2 6414   0.694   3.693   2.454  1.1727  0.0745 -0.7305
 1839SOL     OW 6415   5.423   4.103   5.966  0.2835  0.2538 -0.6214
 1839SOL    HW1 6416   5.340   4.107   6.021  0.3662  1.7519 -0.5678
 1839SOL    HW2 6417   5.444   4.194   5.929  2.1342  0.0193 -0.2651
 1840SOL     OW 6418   4.828   1.682   6.892 -0.1185  0.4305  0.0211
 1840SOL    HW1 6419   4.865   1.772   6.869 -1.3434  0.4817 -1.9143
 1840SOL    HW2 6420   4.764   1.692   6.969 -1.1387  1.4555 -0.9084
 1841SOL     OW 6421   0.106   4.041   5.290 -0.4040  0.2337  0.4310
 1841SOL    HW1 6422   0.121   4.057   5.193  1.8079  1.3535  0.8970
 1841SOL    HW2 6423   0.008   4.032   5.308 -0.8951  0.7405 -1.7733
 1842SOL     OW 6424   1.324   5.165   1.890  0.3398  0.0211  0.3083
 1842SOL    HW1 6425   1.274   5.161   1.976  0.6291 -0.0682  0.4715
 1842SOL    HW2 6426   1.261   5.193   1.817  0.3124  1.1099  0.7250
 1843SOL     OW 6427   6.545   4.244   5.501 -0.9812  0.2711  0.1986
 1843SOL    HW1 6428   6.477   4.284   5.440 -0.4847  1.9533  0.6995
 1843SOL    HW2 6429   6.502   4.218   5.587 -1.3352 -0.4435 -0.1845
 1844SOL     OW 6430   1.546   6.401   3.396  0.2464  0.4116  0.5318
 1844SOL    HW1 6431   1.634   6.431   3.360  0.2668 -0.1283  0.1124
 1844SOL    HW2 6432   1.561   6.349   3.480  0.5175 -1.3069 -0.5283
 1845SOL     OW 6433   4.457   3.287   6.399 -0.2433  0.0232  0.6498
 1845SOL    HW1 6434   4.438   3.204   6.346  0.3276  0.4164 -0.1970
 1845SOL    HW2 6435   4.485   3.262   6.491  0.2224 -0.7423  0.3100
 1846SOL     OW 6436   5.679   0.694   4.218  0.2773 -0.2067  0.2833
 1846SOL    HW1 6437   5.712   0.714   4.310 -1.3263 -0.6332  0.9814
 1846SOL    HW2 6438   5.684   0.777   4.162  2.4567 -0.2467  0.3326
 1847SOL     OW 6439   0.317   2.974   5.372  0.1798 -0.1980 -0.2545
 1847SOL    HW1 6440   0.232   2.926   5.396  0.9793 -1.8723 -0.6433
 1847SOL    HW2 6441   0.323   2.984   5.273  0.9156 -1.0383 -0.3046
 1848SOL     OW 6442   1.277   7.016   0.207  0.0756 -0.6196 -0.1501
 1848SOL    HW1 6443   1.333   7.079   0.260 -0.9035  0.5246 -0.4263
 1848SOL    HW2 6444   1.335   6.967   0.142  0.6631  1.3318 -1.1992
 1849SOL     OW 6445   6.517   5.409   4.534 -0.3164 -1.0245 -0.2655
 1849SOL    HW1 6446   6.502   5.392   4.437 -1.0645 -0.8976 -0.1783
 1849SOL    HW2 6447   6.432   5.441   4.576 -0.1313 -1.5389  0.5313
 1850SOL     OW 6448   6.095   5.403   1.245 -0.1297  0.6214 -0.1853
 1850SOL    HW1 6449   6.022   5.470   1.256 -1.0281 -0.0445 -1.8303
 1850SOL    HW2 6450   6.117   5.364   1.335  0.5657  3.1939  0.8574
 1851SOL     OW 6451   0.245   6.462   3.842  1.0953  0.3061  0.1198
 1851SOL    HW1 6452   0.279   6.403   3.915  3.1810  1.7099  0.3673
 1851SOL    HW2 6453   0.237   6.556   3.877 -0.2013  0.5798 -0.8240
 1852SOL     OW 6454   4.919   2.623   5.367  0.3179 -0.1827 -0.5638
 1852SOL    HW1 6455   4.911   2.593   5.272  0.9845  1.3031 -1.1197
 1852SOL    HW2 6456   4.990   2.693   5.374 -0.4693  0.5199  0.8371
 1853SOL     OW 6457   3.181   0.197   0.779 -0.3682 -0.1457  0.5766
 1853SOL    HW1 6458   3.147   0.104   0.790  0.9298 -0.6520  0.4358
 1853SOL    HW2 6459   3.272   0.205   0.818 -0.8145  1.3188  1.4053
 1854SOL     OW 6460   1.916   2.730   0.828  0.6464 -0.0802 -0.4384
 1854SOL    HW1 6461   1.934   2.764   0.736  0.1659 -0.5808 -0.7263
 1854SOL    HW2 6462   1.963   2.643   0.841  1.5164  0.4602  0.1416
 1855SOL     OW 6463   5.910   6.998   3.656 -0.3974  0.2959 -0.1549
 1855SOL    HW1 6464   6.002   6.959   3.649 -0.0639  0.7314  1.5544
 1855SOL    HW2 6465   5.843   6.927   3.633  0.3462  0.0181 -1.5746
 1856SOL     OW 6466   6.101   5.460   2.448  0.2669  0.0252  0.1150
 1856SOL    HW1 6467   6.190   5.480   2.406  1.0896 -1.7491  0.8573
 1856SOL    HW2 6468   6.093   5.511   2.533  0.2303  0.7949 -0.3478
 1857SOL     OW 6469   4.757   2.316   3.317 -0.1213  0.8286  0.0864
 1857SOL    HW1 6470   4.724   2.221   3.320 -0.2691  0.8157 -1.5014
 1857SOL    HW2 6471   4.682   2.377   3.291  0.4128  1.1595 -0.6857
 1858SOL     OW 6472   3.209   3.743   3.185  0.0863  0.8900 -0.0928
 1858SOL    HW1 6473   3.129   3.790   3.223  1.9067  2.2935  2.3083
 1858SOL    HW2 6474   3.180   3.657   3.143 -2.9750  2.5150 -1.6755
 1859SOL     OW 6475   1.330   3.265   2.811 -0.1157  0.2835 -0.6227
 1859SOL    HW1 6476   1.382   3.184   2.838  1.1614  0.8414 -1.3153
 1859SOL    HW2 6477   1.384   3.319   2.746 -1.6425  0.8200 -1.4879
 1860SOL     OW 6478   2.029   0.167   1.636  0.2090 -0.1296 -0.5243
 1860SOL    HW1 6479   2.015   0.087   1.579  2.3064  0.0816 -1.4228
 1860SOL    HW2 6480   2.069   0.139   1.724  1.0718 -0.1037 -0.8911
 1861SOL     OW 6481   2.476   1.834   6.757 -0.0471 -0.8247  0.4121
 1861SOL    HW1 6482   2.395   1.892   6.768 -1.1070 -2.0963 -0.3410
 1861SOL    HW2 6483   2.496   1.825   6.659  0.0129 -1.8297  0.5141
 1862SOL     OW 6484   5.862   5.236   6.479 -0.2423  0.2052 -0.3118
 1862SOL    HW1 6485   5.861   5.279   6.569 -0.2408 -0.9707  0.2755
 1862SOL    HW2 6486   5.936   5.275   6.424  0.0521  0.6127  0.3603
 1863SOL     OW 6487   1.653   6.319   3.017 -0.3588  0.0241 -0.0586
 1863SOL    HW1 6488   1.553   6.316   3.016 -0.3818  0.6223 -0.7624
 1863SOL    HW2 6489   1.684   6.375   3.094 -0.6011  0.6295 -0.3953
 1864SOL     OW 6490   6.589   1.924   3.384  0.3721  0.0659 -0.1185
 1864SOL    HW1 6491   6.539   1.994   3.435  1.1450  1.6098 -1.3697
 1864SOL    HW2 6492   6.610   1.959   3.292  1.9306 -1.3064 -0.3333
 1865SOL     OW 6493   4.396   5.568   3.576  0.1459  0.4523  0.0599
 1865SOL    HW1 6494   4.310   5.527   3.606  0.0320 -1.1162 -2.2090
 1865SOL    HW2 6495   4.450   5.501   3.526  2.4968  1.5518  0.9349
 1866SOL     OW 6496   3.008   3.136   6.507  0.0411 -0.1827  0.0057
 1866SOL    HW1 6497   2.985   3.085   6.424 -0.6709 -0.9493  0.6653
 1866SOL    HW2 6498   2.942   3.115   6.579  0.7467  0.3484  0.8277
 1867SOL     OW 6499   2.091   5.590   5.930 -0.5673  0.1099 -0.1527
 1867SOL    HW1 6500   2.023   5.661   5.910 -1.0810 -0.6002 -1.0004
 1867SOL    HW2 6501   2.180   5.619   5.896 -0.7985  0.3047 -0.6032
 1868SOL     OW 6502   3.771   5.915   4.811 -0.4940 -0.3243  0.2271
 1868SOL    HW1 6503   3.847   5.950   4.755 -0.8782 -1.8029 -1.3190
 1868SOL    HW2 6504   3.703   5.987   4.824  0.0945  0.3555 -0.3604
 1869SOL     OW 6505   3.463   6.878   1.185  0.8339 -0.0340 -0.2761
 1869SOL    HW1 6506   3.400   6.824   1.129  1.4370 -0.2802 -0.7339
 1869SOL    HW2 6507   3.430   6.882   1.279  0.0672 -0.0407 -0.5410
 1870SOL     OW 6508   1.324   3.019   1.867 -0.2097 -0.0353  0.0664
 1870SOL    HW1 6509   1.407   3.071   1.848 -0.4224  1.2703  2.2833
 1870SOL    HW2 6510   1.341   2.922   1.852  1.6866  0.2190  0.3342
 1871SOL     OW 6511   2.033   3.945   2.759  0.0248 -0.1757  0.2033
 1871SOL    HW1 6512   1.967   4.011   2.723  0.4862 -0.1644 -0.6617
 1871SOL    HW2 6513   2.040   3.868   2.695  1.6579  0.3452 -0.2923
 1872SOL     OW 6514   2.121   3.543   2.231 -0.4060  0.2561  0.3919
 1872SOL    HW1 6515   2.138   3.491   2.147  1.2610  1.2013  0.1232
 1872SOL    HW2 6516   2.190   3.520   2.299 -0.3837  1.2096  0.7034
 1873SOL     OW 6517   4.765   6.423   4.732 -0.2629  0.3845 -0.2713
 1873SOL    HW1 6518   4.672   6.411   4.698 -0.3472  2.3578 -0.8715
 1873SOL    HW2 6519   4.830   6.392   4.663 -0.4034 -2.2990  0.6804
 1874SOL     OW 6520   1.956   6.778   4.819  0.0493  0.0174 -0.4367
 1874SOL    HW1 6521   1.911   6.819   4.740 -1.1531  0.2891  0.3577
 1874SOL    HW2 6522   1.915   6.688   4.838 -0.6505  0.5402  0.6734
 1875SOL     OW 6523   6.760   0.784   5.952  0.8904 -0.0132 -0.0011
 1875SOL    HW1 6524   6.780   0.871   5.906 -2.1578  0.9216  0.2263
 1875SOL    HW2 6525   6.706   0.726   5.891 -2.5356  0.9269  1.8732
 1876SOL     OW 6526   0.184   0.481   4.491  0.1063  0.0350 -0.1647
 1876SOL    HW1 6527   0.217   0.432   4.411  0.7771  0.1385  0.0381
 1876SOL    HW2 6528   0.205   0.579   4.481 -1.0434  0.2648 -0.4787
 1877SOL     OW 6529   1.144   3.372   5.797 -0.2175  0.4499  0.6424
 1877SOL    HW1 6530   1.185   3.432   5.728  0.6030 -0.0459  0.6865
 1877SOL    HW2 6531   1.187   3.281   5.792  1.3091  0.9364  3.1197
 1878SOL     OW 6532   6.227   6.770   2.917  0.0283 -0.4172 -0.0609
 1878SOL    HW1 6533   6.309   6.771   2.860 -1.4803 -0.3256 -2.3876
 1878SOL    HW2 6534   6.224   6.853   2.973  1.0528  0.0147 -0.6235
 1879SOL     OW 6535   0.932   5.260   1.363 -0.1661 -0.2955  0.0568
 1879SOL    HW1 6536   1.026   5.295   1.363  0.0355 -0.8050  1.3570
 1879SOL    HW2 6537   0.929   5.172   1.409 -1.0990 -0.8499 -1.0232
 1880SOL     OW 6538   6.937   6.311   2.720 -0.7259  0.1942  0.0823
 1880SOL    HW1 6539   6.938   6.289   2.622 -0.8011  1.0221 -0.1136
 1880SOL    HW2 6540   6.945   6.226   2.773 -1.1895 -0.3123 -0.6291
 1881SOL     OW 6541   5.243   0.461   3.923 -0.1433  0.0001  0.2812
 1881SOL    HW1 6542   5.205   0.550   3.898  0.6624  0.6370  1.2405
 1881SOL    HW2 6543   5.180   0.413   3.984 -1.5664 -1.0527 -1.8729
 1882SOL     OW 6544   4.856   0.333   5.236  0.2214  0.2653  0.4886
 1882SOL    HW1 6545   4.769   0.311   5.280 -0.5459  2.3076  0.1084
 1882SOL    HW2 6546   4.931   0.291   5.287 -0.7798  0.7495  2.4614
 1883SOL     OW 6547   0.567   2.886   2.800 -0.0259 -0.1896 -0.3091
 1883SOL    HW1 6548   0.594   2.796   2.765 -0.8680 -0.6536  0.1898
 1883SOL    HW2 6549   0.611   2.957   2.746 -0.3002 -0.8922 -1.4971
 1884SOL     OW 6550   5.685   5.448   6.013 -0.3545  0.2556  0.2440
 1884SOL    HW1 6551   5.632   5.449   5.928 -0.5424 -1.9830  0.2823
 1884SOL    HW2 6552   5.781   5.466   5.993 -0.6009  1.0970 -0.2409
 1885SOL     OW 6553   3.051   0.746   6.390  0.6303  0.1081  0.3590
 1885SOL    HW1 6554   3.121   0.712   6.328  0.6073 -0.3144  0.5608
 1885SOL    HW2 6555   3.090   0.816   6.451  1.0763 -0.6821  0.9931
 1886SOL     OW 6556   4.344   6.416   5.697  0.9318  0.2547  0.7085
 1886SOL    HW1 6557   4.325   6.474   5.777 -2.1569 -2.0247  1.8076
 1886SOL    HW2 6558   4.342   6.320   5.724  1.9651 -0.5265 -1.7543
 1887SOL     OW 6559   5.923   1.319   4.752 -0.0765 -0.2471 -0.1693
 1887SOL    HW1 6560   5.942   1.258   4.675  0.5182 -0.7572  0.3672
 1887SOL    HW2 6561   5.844   1.378   4.730  0.5709  0.1671 -1.4644
 1888SOL     OW 6562   4.390   5.505   3.136 -0.3771  0.2578  0.7247
 1888SOL    HW1 6563   4.340   5.426   3.101  0.4800 -0.5857  1.3653
 1888SOL    HW2 6564   4.354   5.589   3.093 -2.5331 -0.2699  1.4042
 1889SOL     OW 6565   6.536   3.314   6.084 -0.2306 -0.3649  0.4159
 1889SOL    HW1 6566   6.602   3.240   6.094 -0.4651 -0.8633 -1.3043
 1889SOL    HW2 6567   6.584   3.401   6.077  0.1642 -0.5636  0.6475
 1890SOL     OW 6568   2.889   6.005   3.909  0.2097 -0.2580  0.0107
 1890SOL    HW1 6569   2.952   6.001   3.986  1.0872  0.1869 -0.6707
 1890SOL    HW2 6570   2.900   5.925   3.851 -0.8647 -0.8902  0.6408
 1891SOL     OW 6571   3.161   0.873   5.071 -0.5109  0.1346 -0.3532
 1891SOL    HW1 6572   3.117   0.858   5.159 -0.4357  0.8966 -0.1788
 1891SOL    HW2 6573   3.187   0.785   5.031 -3.3347 -0.4830 -1.0682
 1892SOL     OW 6574   4.542   4.200   6.030  0.6606  0.1116 -0.6745
 1892SOL    HW1 6575   4.468   4.167   5.972  1.7402 -1.2227 -1.3563
 1892SOL    HW2 6576   4.528   4.167   6.123  0.6598 -0.5635 -0.9106
 1893SOL     OW 6577   4.947   5.984   1.910  0.2114  0.2598  0.3252
 1893SOL    HW1 6578   4.895   6.045   1.850 -0.7038 -2.6292 -2.0383
 1893SOL    HW2 6579   5.045   6.003   1.900  0.0473  0.3096 -1.6516
 1894SOL     OW 6580   5.556   4.951   6.642  0.4692  0.0776 -0.0186
 1894SOL    HW1 6581   5.571   4.927   6.738  0.3289 -1.5553 -0.3796
 1894SOL    HW2 6582   5.533   5.048   6.636  2.3152  0.6647  1.3964
 1895SOL     OW 6583   5.169   1.208   2.634 -0.1872 -0.0681  0.3169
 1895SOL    HW1 6584   5.243   1.147   2.606  0.1313  0.4778 -0.0574
 1895SOL    HW2 6585   5.153   1.198   2.733  1.1641  0.6087  0.6367
 1896SOL     OW 6586   5.183   4.850   2.818 -0.2619 -0.0164 -0.3801
 1896SOL    HW1 6587   5.281   4.868   2.805  0.3490  0.7487  3.7467
 1896SOL    HW2 6588   5.169   4.754   2.842 -0.4510  0.0214 -0.3356
 1897SOL     OW 6589   2.140   1.100   4.319 -0.7934  0.2636  0.2330
 1897SOL    HW1 6590   2.146   1.014   4.268 -3.4440 -1.1315  2.0710
 1897SOL    HW2 6591   2.047   1.137   4.312  0.8715  4.7553 -2.9691
 1898SOL     OW 6592   4.052   4.951   5.538 -0.2710 -0.5368 -0.2281
 1898SOL    HW1 6593   4.012   4.885   5.475  1.7688 -0.7631 -1.3769
 1898SOL    HW2 6594   3.999   4.952   5.623 -1.7581 -1.8724 -1.0831
 1899SOL     OW 6595   5.626   1.749   4.072 -0.0995 -0.9057 -0.3145
 1899SOL    HW1 6596   5.535   1.745   4.030  0.6368  1.4172 -2.3605
 1899SOL    HW2 6597   5.621   1.803   4.156 -0.4683  0.1888 -1.0143
 1900SOL     OW 6598   6.878   5.833   3.059  0.2919  0.2950  0.1712
 1900SOL    HW1 6599   6.974   5.823   3.031  0.5552  1.7708  0.4379
 1900SOL    HW2 6600   6.872   5.831   3.159 -0.0954 -0.7475  0.1378
 1901SOL     OW 6601   0.296   6.146   3.702 -0.6143 -0.0672  0.0526
 1901SOL    HW1 6602   0.200   6.131   3.678 -1.1398 -0.1135  1.9691
 1901SOL    HW2 6603   0.334   6.219   3.645 -1.6894 -0.2468 -0.9278
 1902SOL     OW 6604   6.849   2.965   0.295  0.1461  0.4610  0.4954
 1902SOL    HW1 6605   6.846   3.014   0.381  0.0594  0.3818  0.5375
 1902SOL    HW2 6606   6.762   2.975   0.247  0.6174  1.5442 -0.1633
 1903SOL     OW 6607   1.443   5.558   4.371 -0.3508 -0.3867  0.1066
 1903SOL    HW1 6608   1.397   5.641   4.402  1.2609  1.3434 -1.7902
 1903SOL    HW2 6609   1.489   5.514   4.448 -1.6447  0.1593  1.2347
 1904SOL     OW 6610   2.916   6.825   1.635  0.4601  0.1981  0.6259
 1904SOL    HW1 6611   2.994   6.813   1.697 -0.0401  0.6211  1.3580
 1904SOL    HW2 6612   2.907   6.922   1.612  0.2371  0.1298  0.4167
 1905SOL     OW 6613   3.051   0.606   3.373 -0.4622  0.0258 -0.0812
 1905SOL    HW1 6614   3.058   0.655   3.286 -2.0478 -0.6815 -0.6543
 1905SOL    HW2 6615   3.018   0.669   3.444  1.0054  0.6503  0.0831
 1906SOL     OW 6616   5.510   1.352   0.585 -0.2679  0.3004  0.1763
 1906SOL    HW1 6617   5.422   1.304   0.583 -0.9372  1.4621  0.8021
 1906SOL    HW2 6618   5.563   1.321   0.665 -1.2481  1.4998  1.3305
 1907SOL     OW 6619   0.596   1.454   2.828  0.1384 -0.0084  0.4517
 1907SOL    HW1 6620   0.620   1.388   2.899 -0.7188 -0.6876  0.1236
 1907SOL    HW2 6621   0.663   1.447   2.753  0.4244 -0.0461  0.7093
 1908SOL     OW 6622   6.984   3.300   0.378  0.3144 -0.3312  0.5977
 1908SOL    HW1 6623   7.012   3.225   0.318 -2.5039 -0.5213 -0.6198
 1908SOL    HW2 6624   6.930   3.264   0.453 -0.2043  0.3666  0.5670
 1909SOL     OW 6625   0.254   3.354   2.400 -0.1942  0.1276 -0.0541
 1909SOL    HW1 6626   0.245   3.435   2.341 -1.3026 -0.4839 -0.7505
 1909SOL    HW2 6627   0.194   3.364   2.479 -1.8075 -0.8352 -1.1150
 1910SOL     OW 6628   2.547   5.419   3.638  0.6368  0.2873  0.0271
 1910SOL    HW1 6629   2.581   5.331   3.671 -1.9423 -0.2076  1.5931
 1910SOL    HW2 6630   2.522   5.411   3.541  2.4393 -0.0141 -0.4587
 1911SOL     OW 6631   3.525   3.607   5.482  0.4534 -0.4751  0.2084
 1911SOL    HW1 6632   3.584   3.666   5.539 -0.8822 -0.2902  1.4573
 1911SOL    HW2 6633   3.525   3.514   5.520 -2.0592  0.0971  1.8861
 1912SOL     OW 6634   6.416   1.949   2.326 -0.7281  0.2747  0.0530
 1912SOL    HW1 6635   6.470   1.964   2.242 -0.4269  0.8791  0.3450
 1912SOL    HW2 6636   6.430   1.855   2.358  2.6879  1.2068  1.8428
 1913SOL     OW 6637   1.848   3.696   6.096 -0.0174 -0.0140  0.1197
 1913SOL    HW1 6638   1.877   3.784   6.058 -0.5026 -0.1095 -0.4964
 1913SOL    HW2 6639   1.804   3.711   6.185  1.9785  0.1161  1.1495
 1914SOL     OW 6640   1.511   1.153   0.951 -0.1741 -0.3119 -0.0310
 1914SOL    HW1 6641   1.434   1.109   0.904 -0.0836 -0.1071 -0.3742
 1914SOL    HW2 6642   1.508   1.130   1.048  1.3175 -3.1909 -0.5697
 1915SOL     OW 6643   4.943   5.017   3.670  0.3475  1.0935  0.0568
 1915SOL    HW1 6644   4.866   5.072   3.703  0.1149  1.5959 -1.2509
 1915SOL    HW2 6645   4.962   5.041   3.574 -0.4652 -1.8819 -0.9491
 1916SOL     OW 6646   2.480   6.871   3.156  0.1709  0.5201 -0.3848
 1916SOL    HW1 6647   2.544   6.925   3.211  0.2081  1.1362 -1.0129
 1916SOL    HW2 6648   2.456   6.787   3.205 -0.4745  1.4540  0.9527
 1917SOL     OW 6649   2.881   3.601   3.200 -0.2305  0.2467 -0.3426
 1917SOL    HW1 6650   2.863   3.599   3.101 -0.5961  1.8542 -0.3386
 1917SOL    HW2 6651   2.879   3.696   3.232 -0.5153 -0.2810  1.2853
 1918SOL     OW 6652   6.483   6.476   4.175 -0.2420 -0.1778 -0.0379
 1918SOL    HW1 6653   6.503   6.436   4.085  1.5042 -0.4397  0.4210
 1918SOL    HW2 6654   6.407   6.427   4.217  1.6428 -2.9292  0.3868
 1919SOL     OW 6655   2.308   6.212   6.049  0.1258  0.5224 -0.5632
 1919SOL    HW1 6656   2.363   6.210   5.965 -0.6465 -1.4971 -1.0898
 1919SOL    HW2 6657   2.285   6.118   6.075 -0.3997  1.1705  1.4333
 1920SOL     OW 6658   4.556   2.194   1.934 -0.4334  0.3747 -0.2621
 1920SOL    HW1 6659   4.547   2.208   2.033 -0.1101 -0.5343 -0.0985
 1920SOL    HW2 6660   4.558   2.283   1.888 -3.4597  0.8206  0.2655
 1921SOL     OW 6661   6.937   4.579   4.521  0.2085 -0.6220 -0.0714
 1921SOL    HW1 6662   6.922   4.638   4.441 -0.3374 -0.1826  0.3477
 1921SOL    HW2 6663   6.979   4.493   4.491  2.3114  0.4894 -0.5303
 1922SOL     OW 6664   4.476   5.909   4.469 -0.2214 -0.4688 -0.1583
 1922SOL    HW1 6665   4.515   5.992   4.508 -3.0463 -0.0692  2.1383
 1922SOL    HW2 6666   4.496   5.906   4.371  1.3763  2.0227 -0.0024
 1923SOL     OW 6667   6.891   0.220   2.281 -0.3535 -0.2840 -0.0073
 1923SOL    HW1 6668   6.956   0.203   2.355 -0.2864  1.3080  0.3348
 1923SOL    HW2 6669   6.941   0.238   2.196 -0.2629  1.6483  0.4065
 1924SOL     OW 6670   2.772   1.527   3.916  0.6857  0.2230 -0.3909
 1924SOL    HW1 6671   2.862   1.559   3.944  0.4204  0.9189 -0.3291
 1924SOL    HW2 6672   2.701   1.589   3.950 -0.0059 -1.4324  1.3690
 1925SOL     OW 6673   3.124   2.218   5.350 -0.2296  0.1335 -0.1102
 1925SOL    HW1 6674   3.172   2.291   5.302 -0.0125  0.9615  1.3207
 1925SOL    HW2 6675   3.038   2.198   5.303  0.0931  0.7304 -0.9801
 1926SOL     OW 6676   5.662   4.375   6.100  0.1585 -0.1808  0.5901
 1926SOL    HW1 6677   5.620   4.337   6.183 -1.1797  1.4923  0.7394
 1926SOL    HW2 6678   5.591   4.391   6.031  1.1235 -0.7166 -0.5742
 1927SOL     OW 6679   5.502   0.778   6.640 -0.0493  0.5591 -0.2043
 1927SOL    HW1 6680   5.489   0.742   6.548  1.1089 -1.6179  0.3939
 1927SOL    HW2 6681   5.595   0.814   6.650 -0.7754  2.5919 -0.3947
 1928SOL     OW 6682   1.081   5.174   6.573 -0.2485 -0.3452 -0.0130
 1928SOL    HW1 6683   1.110   5.104   6.507 -0.1766 -1.2222  0.9254
 1928SOL    HW2 6684   1.086   5.264   6.530 -1.0752 -0.9700 -1.4999
 1929SOL     OW 6685   5.413   5.323   7.006  0.4751  0.4637 -0.7396
 1929SOL    HW1 6686   5.482   5.285   7.069  1.5995  0.8605 -1.6969
 1929SOL    HW2 6687   5.382   5.252   6.944  1.3160  0.6878 -1.4271
 1930SOL     OW 6688   3.903   6.272   4.670  0.3005 -0.0565  0.3894
 1930SOL    HW1 6689   3.899   6.197   4.736 -2.5384  0.6705  1.1956
 1930SOL    HW2 6690   3.951   6.349   4.711  0.3627 -0.3235  0.8337
 1931SOL     OW 6691   5.143   3.060   2.173  0.2743 -0.4678 -0.4452
 1931SOL    HW1 6692   5.062   3.117   2.191  1.3368  1.6857 -2.1336
 1931SOL    HW2 6693   5.116   2.964   2.176 -2.8220  0.1577 -2.7683
 1932SOL     OW 6694   3.534   5.823   4.969 -1.0029  0.1208  0.3337
 1932SOL    HW1 6695   3.508   5.764   5.045 -0.1196 -2.1794 -1.0641
 1932SOL    HW2 6696   3.634   5.830   4.965 -1.0417  0.2086 -0.6363
 1933SOL     OW 6697   2.110   6.613   3.412 -0.1138  0.7086  0.2238
 1933SOL    HW1 6698   2.083   6.534   3.466  1.4425  0.3895  0.5897
 1933SOL    HW2 6699   2.210   6.617   3.407 -0.1975  1.7125 -1.1830
 1934SOL     OW 6700   1.619   3.744   3.850 -0.1555  0.2045  0.5623
 1934SOL    HW1 6701   1.520   3.748   3.860 -0.0185  0.1767  2.1240
 1934SOL    HW2 6702   1.655   3.666   3.901  0.4817 -1.1953 -1.8477
 1935SOL     OW 6703   6.500   4.001   1.661  0.3747  0.2163  0.0825
 1935SOL    HW1 6704   6.526   3.963   1.750 -0.3275 -0.5437 -0.0289
 1935SOL    HW2 6705   6.401   3.992   1.649  0.3132  1.2952 -0.3241
 1936SOL     OW 6706   1.588   2.153   3.490 -0.3023  0.1693 -0.5693
 1936SOL    HW1 6707   1.515   2.166   3.557 -2.7055  0.7685 -3.0727
 1936SOL    HW2 6708   1.575   2.066   3.443  0.1808  0.5855 -1.5052
 1937SOL     OW 6709   3.808   1.837   4.225 -0.3251  0.3998 -0.4288
 1937SOL    HW1 6710   3.838   1.823   4.131  1.1915 -0.2717  0.1271
 1937SOL    HW2 6711   3.753   1.759   4.255 -1.3688  0.9198 -0.9546
 1938SOL     OW 6712   1.767   5.824   1.874 -0.5297  0.3384 -0.0846
 1938SOL    HW1 6713   1.830   5.879   1.820  0.5073  0.3858  1.1287
 1938SOL    HW2 6714   1.788   5.835   1.971 -2.6299  0.6310  0.3993
 1939SOL     OW 6715   1.128   5.361   2.043  0.1536 -0.4597  0.1404
 1939SOL    HW1 6716   1.072   5.300   1.987  1.0127 -0.3319 -0.8896
 1939SOL    HW2 6717   1.216   5.376   1.998  0.3183  0.8068  0.8420
 1940SOL     OW 6718   4.457   0.827   0.105 -0.1835 -0.6808  0.0174
 1940SOL    HW1 6719   4.446   0.728   0.110  1.2880 -0.8089  1.5659
 1940SOL    HW2 6720   4.533   0.855   0.163 -0.8002  1.4083 -0.1027
 1941SOL     OW 6721   5.579   0.370   1.110  0.1239 -0.1042 -0.1594
 1941SOL    HW1 6722   5.586   0.291   1.050 -1.9039  0.3226 -1.0633
 1941SOL    HW2 6723   5.670   0.409   1.125  1.0208 -1.9167 -0.5804
 1942SOL     OW 6724   6.859   4.764   6.250 -0.3078 -0.1907 -0.3150
 1942SOL    HW1 6725   6.835   4.705   6.173 -1.3134 -0.7641  0.4196
 1942SOL    HW2 6726   6.958   4.773   6.255 -0.2445  0.5359 -2.1664
 1943SOL     OW 6727   0.953   5.466   4.959  0.1151 -0.0762 -0.2305
 1943SOL    HW1 6728   0.951   5.448   4.861 -0.7804  0.3647 -0.2963
 1943SOL    HW2 6729   0.974   5.562   4.976 -0.0839 -0.0727  0.0041
 1944SOL     OW 6730   0.766   5.671   3.348  0.4796 -0.0611  0.2971
 1944SOL    HW1 6731   0.738   5.583   3.385  1.3324  0.1073  1.3755
 1944SOL    HW2 6732   0.834   5.657   3.276 -1.2110 -0.3881 -1.3331
 1945SOL     OW 6733   2.574   5.119   3.328  0.1723 -0.6992 -0.1790
 1945SOL    HW1 6734   2.536   5.060   3.257  0.5747 -2.0223  0.6491
 1945SOL    HW2 6735   2.674   5.111   3.327  0.1423 -1.6080  1.2009
 1946SOL     OW 6736   1.460   1.706   3.106  0.3320  0.3284 -1.0128
 1946SOL    HW1 6737   1.557   1.685   3.094  1.3016  1.1555  3.4431
 1946SOL    HW2 6738   1.409   1.622   3.124  0.9786  0.1607  0.1538
 1947SOL     OW 6739   1.738   6.528   3.670 -0.2208  0.3790  0.1174
 1947SOL    HW1 6740   1.734   6.589   3.749  0.0212  1.9101 -1.0037
 1947SOL    HW2 6741   1.833   6.504   3.652 -0.1253  1.2107 -0.5488
 1948SOL     OW 6742   6.212   3.493   5.602 -0.1094  0.2498  0.4995
 1948SOL    HW1 6743   6.268   3.427   5.653 -0.5585  0.0343  0.7247
 1948SOL    HW2 6744   6.175   3.448   5.521  0.3312  0.4959  0.1611
 1949SOL     OW 6745   1.433   2.222   1.469  0.3012 -0.3381  0.2100
 1949SOL    HW1 6746   1.459   2.207   1.565  1.0746  1.9109  0.4203
 1949SOL    HW2 6747   1.405   2.317   1.458  0.4478 -0.5025 -1.8683
 1950SOL     OW 6748   4.460   5.220   6.120 -0.1778  0.2992  0.0277
 1950SOL    HW1 6749   4.515   5.203   6.038  0.6919 -2.2943  1.0482
 1950SOL    HW2 6750   4.519   5.219   6.200 -1.2629  0.9534  0.8585
 1951SOL     OW 6751   5.396   2.562   3.114 -0.0541 -0.5024 -0.1737
 1951SOL    HW1 6752   5.367   2.507   3.192  2.1223  1.6203  2.3059
 1951SOL    HW2 6753   5.420   2.501   3.038 -4.7234 -2.5637 -0.3535
 1952SOL     OW 6754   6.543   3.347   2.095  0.3973 -0.0294 -0.2023
 1952SOL    HW1 6755   6.460   3.402   2.082  1.2754  1.0471 -1.4994
 1952SOL    HW2 6756   6.528   3.283   2.170 -0.8914  1.5609  0.9988
 1953SOL     OW 6757   0.760   4.961   0.857  0.7996  0.0312  0.2265
 1953SOL    HW1 6758   0.727   5.005   0.940 -1.5469 -1.4101  0.1464
 1953SOL    HW2 6759   0.777   4.864   0.875  2.9625  0.2541 -0.3401
 1954SOL     OW 6760   5.961   5.182   1.662 -0.4490 -0.8863  0.4342
 1954SOL    HW1 6761   5.920   5.264   1.704 -0.4932 -2.2815  3.4167
 1954SOL    HW2 6762   5.892   5.109   1.658 -0.1008 -1.1650 -1.1078
 1955SOL     OW 6763   6.456   3.383   1.078  0.0613 -0.3711  0.3713
 1955SOL    HW1 6764   6.390   3.346   1.144  0.8830 -2.0184  0.3284
 1955SOL    HW2 6765   6.548   3.373   1.116  0.4417 -0.1189 -0.4757
 1956SOL     OW 6766   6.046   1.030   6.137  0.0697  0.0695 -0.0655
 1956SOL    HW1 6767   5.956   1.042   6.094  0.5244  1.7327 -0.6266
 1956SOL    HW2 6768   6.091   0.951   6.097 -0.7951 -0.2581 -0.4186
 1957SOL     OW 6769   1.122   2.760   0.480 -0.0508  0.4475 -0.2172
 1957SOL    HW1 6770   1.213   2.775   0.518 -0.8681  2.8257  0.9894
 1957SOL    HW2 6771   1.054   2.763   0.552 -1.1952 -0.4105 -1.2126
 1958SOL     OW 6772   2.480   3.379   6.189 -0.1411  0.1783 -0.1965
 1958SOL    HW1 6773   2.520   3.469   6.177  0.1220 -0.1010 -1.6082
 1958SOL    HW2 6774   2.382   3.387   6.206  0.0723  0.7583  0.8605
 1959SOL     OW 6775   0.327   4.863   0.623  0.0032  0.0180 -0.3135
 1959SOL    HW1 6776   0.281   4.814   0.697  3.6996 -2.0586  0.8883
 1959SOL    HW2 6777   0.355   4.798   0.552  0.2424  1.2964 -1.4308
 1960SOL     OW 6778   3.048   0.237   0.486 -0.2503  0.1520 -0.0026
 1960SOL    HW1 6779   3.042   0.225   0.585 -0.6216  0.8503  0.0645
 1960SOL    HW2 6780   3.141   0.265   0.462 -0.1297 -0.1230  0.1299
 1961SOL     OW 6781   5.573   0.385   0.598 -0.3965 -0.2463  0.6164
 1961SOL    HW1 6782   5.650   0.405   0.538  0.1829  0.9054  1.6831
 1961SOL    HW2 6783   5.540   0.470   0.640  0.0229 -1.0948  2.8435
 1962SOL     OW 6784   2.104   3.566   1.268  0.2289  0.0940  0.2317
 1962SOL    HW1 6785   2.155   3.592   1.350  0.9525  0.3666 -0.3005
 1962SOL    HW2 6786   2.161   3.508   1.210 -0.7304 -1.1827  0.5276
 1963SOL     OW 6787   0.979   2.039   6.801  0.2670 -0.0902  0.6955
 1963SOL    HW1 6788   1.050   1.971   6.825  0.2144 -0.4618 -0.1583
 1963SOL    HW2 6789   0.998   2.075   6.710 -0.8828 -0.5133  0.2748
 1964SOL     OW 6790   4.382   3.574   0.101  0.1069  0.0719 -0.6094
 1964SOL    HW1 6791   4.443   3.603   0.027  1.6059 -1.0725  0.1227
 1964SOL    HW2 6792   4.366   3.650   0.163  0.4653  0.5003 -1.0323
 1965SOL     OW 6793   6.949   5.104   4.007  0.2586  0.5624  0.0594
 1965SOL    HW1 6794   6.964   5.118   3.909  0.4150  1.8138  0.2362
 1965SOL    HW2 6795   6.852   5.117   4.028 -0.0988 -1.5071 -0.1824
 1966SOL     OW 6796   1.013   6.075   6.994 -0.3431 -0.5087  0.2212
 1966SOL    HW1 6797   0.942   6.016   6.956 -0.6184 -0.2995  0.4156
 1966SOL    HW2 6798   1.089   6.019   7.026 -0.6229 -0.7616  0.4437
 1967SOL     OW 6799   4.141   1.067   1.512 -0.0757  0.0393  0.2169
 1967SOL    HW1 6800   4.113   0.993   1.573  1.3349 -1.0448 -0.3793
 1967SOL    HW2 6801   4.153   1.151   1.564 -2.4559  0.0940  0.7877
 1968SOL     OW 6802   0.036   6.107   3.649  0.1967 -0.5231 -0.2455
 1968SOL    HW1 6803  -0.033   6.044   3.685 -0.4748 -1.0225 -2.2295
 1968SOL    HW2 6804   0.009   6.136   3.557  1.6021  0.9557 -0.2339
 1969SOL     OW 6805   2.278   6.670   0.054  0.4984 -0.7417  0.2412
 1969SOL    HW1 6806   2.248   6.655  -0.040  0.1454 -1.1879  0.4171
 1969SOL    HW2 6807   2.360   6.615   0.072  1.1518  0.1003 -0.0928
 1970SOL     OW 6808   5.121   1.490   6.841 -0.5638  0.0425  0.3625
 1970SOL    HW1 6809   5.064   1.409   6.846  0.6907 -0.7991  3.0777
 1970SOL    HW2 6810   5.155   1.502   6.747  2.3930 -4.9740  0.4634
 1971SOL     OW 6811   1.406   2.930   3.910  0.2996  0.5251  0.3824
 1971SOL    HW1 6812   1.438   2.836   3.898  2.5083  1.4269 -1.8425
 1971SOL    HW2 6813   1.485   2.992   3.915 -1.0775  2.4895 -0.7216
 1972SOL     OW 6814   6.732   6.866   3.287  0.5768 -0.1383 -0.4667
 1972SOL    HW1 6815   6.707   6.793   3.223 -0.2867  0.8249 -1.2725
 1972SOL    HW2 6816   6.785   6.936   3.238 -0.2453  0.6957 -0.1826
 1973SOL     OW 6817   2.484   4.949   6.628 -0.2609 -0.1382  0.0944
 1973SOL    HW1 6818   2.474   4.850   6.625  2.2874 -0.4455 -0.8547
 1973SOL    HW2 6819   2.484   4.986   6.535 -1.2142  0.7712  0.4402
 1974SOL     OW 6820   4.661   3.800   1.400 -0.5045 -0.3948 -0.0715
 1974SOL    HW1 6821   4.602   3.805   1.319 -0.6950 -1.4136 -0.0114
 1974SOL    HW2 6822   4.742   3.856   1.386  0.6280 -2.3542 -1.9794
 1975SOL     OW 6823   4.016   1.037   6.374 -0.2713  0.0175 -0.2163
 1975SOL    HW1 6824   3.937   1.068   6.321 -0.5457  2.5529  1.5426
 1975SOL    HW2 6825   4.009   0.938   6.388 -1.2490 -0.4114 -3.0379
 1976SOL     OW 6826   2.126   6.136   0.821 -0.6422  0.4749  0.0646
 1976SOL    HW1 6827   2.213   6.087   0.828 -0.6523  0.3605 -0.5910
 1976SOL    HW2 6828   2.078   6.109   0.738 -1.5374  0.1838  0.6665
 1977SOL     OW 6829   3.984   5.567   1.379 -0.0022 -0.5082  0.1492
 1977SOL    HW1 6830   3.940   5.620   1.307  1.4542 -0.6449 -0.8780
 1977SOL    HW2 6831   3.916   5.509   1.424 -1.4621  1.5513  0.7364
 1978SOL     OW 6832   4.064   6.451   4.826  0.6975 -0.6843  0.1068
 1978SOL    HW1 6833   4.163   6.447   4.822  0.7842  1.2773 -0.3359
 1978SOL    HW2 6834   4.032   6.404   4.909  1.9114 -1.9073 -0.0886
 1979SOL     OW 6835   5.949   6.818   3.037  0.1479 -0.4702 -0.6379
 1979SOL    HW1 6836   5.980   6.763   2.960 -0.0238 -0.4966 -0.6891
 1979SOL    HW2 6837   5.851   6.801   3.053 -0.2950  0.9756 -1.6238
 1980SOL     OW 6838   4.796   6.438   3.776 -0.0550  0.2039 -0.1206
 1980SOL    HW1 6839   4.789   6.364   3.709  1.5975 -0.6574  0.6039
 1980SOL    HW2 6840   4.879   6.491   3.758 -0.3311  0.8310  0.4064
 1981SOL     OW 6841   5.038   2.186   0.951  0.2986 -0.0185  0.3575
 1981SOL    HW1 6842   5.075   2.095   0.931  2.4189  0.8878 -0.0969
 1981SOL    HW2 6843   4.984   2.218   0.872  2.2710  0.4079 -0.8883
 1982SOL     OW 6844   4.356   0.192   1.629  0.1037 -0.2449  0.6903
 1982SOL    HW1 6845   4.401   0.132   1.563 -1.7448 -1.2562  0.2711
 1982SOL    HW2 6846   4.279   0.238   1.585 -0.0280  0.5075  1.6759
 1983SOL     OW 6847   6.835   6.586   0.607  0.0035 -0.2330 -0.0505
 1983SOL    HW1 6848   6.886   6.618   0.687 -0.3872  0.7657 -0.1821
 1983SOL    HW2 6849   6.810   6.664   0.550  1.6517 -1.0473 -2.0091
 1984SOL     OW 6850   3.520   5.456   4.855 -0.1521 -0.4622  0.3405
 1984SOL    HW1 6851   3.548   5.490   4.766 -0.8360 -0.2756  0.1884
 1984SOL    HW2 6852   3.600   5.424   4.906  0.4751  0.9892  0.3228
 1985SOL     OW 6853   6.405   5.820   3.219 -0.2718 -0.0729 -0.0904
 1985SOL    HW1 6854   6.397   5.854   3.125  1.3387  1.5142  0.2894
 1985SOL    HW2 6855   6.465   5.740   3.221 -1.3759 -0.9306 -0.5626
 1986SOL     OW 6856   1.943   2.969   1.650  0.3186  0.1486 -0.2576
 1986SOL    HW1 6857   1.940   3.017   1.737 -0.7113  0.2831 -0.3483
 1986SOL    HW2 6858   1.983   2.878   1.663  0.0504  0.1171  0.3888
 1987SOL     OW 6859   5.701   3.634   5.007 -0.1618 -0.6581  0.2108
 1987SOL    HW1 6860   5.613   3.673   5.034 -0.4340 -1.2214  0.1578
 1987SOL    HW2 6861   5.719   3.656   4.911  0.2539  0.3449  0.5104
 1988SOL     OW 6862   3.510   2.883   4.427 -0.0026 -0.0664 -0.0001
 1988SOL    HW1 6863   3.484   2.874   4.331  1.1040 -0.3165 -0.2827
 1988SOL    HW2 6864   3.460   2.959   4.468  0.1009  0.5342 -0.9749
 1989SOL     OW 6865   1.153   6.607   4.466  0.0321  0.0378 -0.1433
 1989SOL    HW1 6866   1.075   6.669   4.477  1.0090  1.5330 -1.1729
 1989SOL    HW2 6867   1.224   6.653   4.413  2.5148 -0.4106  2.5221
 1990SOL     OW 6868   3.814   5.534   3.385 -0.2458 -0.7473  0.4933
 1990SOL    HW1 6869   3.899   5.564   3.341 -0.4055 -1.8586 -0.6297
 1990SOL    HW2 6870   3.833   5.456   3.445 -0.0545  0.6716  2.3571
 1991SOL     OW 6871   0.343   0.423   0.916  0.2676  0.2015 -0.4215
 1991SOL    HW1 6872   0.384   0.335   0.940  0.1096  0.8162  2.4241
 1991SOL    HW2 6873   0.415   0.488   0.892  0.5312 -0.1106 -0.4848
 1992SOL     OW 6874   2.352   2.502   6.339 -0.0919 -0.7040  0.0960
 1992SOL    HW1 6875   2.428   2.446   6.306 -1.0146 -2.5386  0.8815
 1992SOL    HW2 6876   2.386   2.571   6.403  0.8474 -2.0091  1.0516
 1993SOL     OW 6877   5.884   4.865   3.326 -0.7329  0.1215  0.2693
 1993SOL    HW1 6878   5.981   4.890   3.332 -0.7994  0.3820  0.2585
 1993SOL    HW2 6879   5.828   4.938   3.365 -0.9645  0.2604 -0.3093
 1994SOL     OW 6880   1.758   1.675   3.149  0.9654  0.3606  0.3186
 1994SOL    HW1 6881   1.795   1.758   3.191 -0.8882 -0.4285  3.9450
 1994SOL    HW2 6882   1.778   1.596   3.207 -3.5286 -0.5469  1.0454
 1995SOL     OW 6883   3.126   2.788   1.512  0.8783  0.2106  0.3166
 1995SOL    HW1 6884   3.197   2.847   1.474  2.1416 -1.5842 -0.2218
 1995SOL    HW2 6885   3.134   2.784   1.611  2.3449 -0.9134  0.1813
 1996SOL     OW 6886   4.488   3.454   6.739 -0.3240  0.3716 -0.3771
 1996SOL    HW1 6887   4.486   3.485   6.644  0.4681 -0.5484 -0.7092
 1996SOL    HW2 6888   4.417   3.385   6.753 -0.8310  0.9363 -0.1397
 1997SOL     OW 6889   6.557   1.032   5.222 -0.6728  0.2761 -0.2265
 1997SOL    HW1 6890   6.510   0.994   5.142 -1.0395 -1.3666  0.7160
 1997SOL    HW2 6891   6.656   1.023   5.209 -0.7125  0.4379 -0.6785
 1998SOL     OW 6892   6.901   0.044   4.064 -0.3389 -0.1691 -0.1454
 1998SOL    HW1 6893   6.848   0.008   3.988  0.5039 -0.5625 -0.5556
 1998SOL    HW2 6894   6.889   0.143   4.069 -0.5777 -0.1710 -0.6433
 1999SOL     OW 6895   4.529   1.955   3.848 -0.2072  0.2965 -0.1950
 1999SOL    HW1 6896   4.434   1.962   3.877 -0.4666 -0.8553 -0.7474
 1999SOL    HW2 6897   4.547   2.021   3.774 -0.9238 -0.3854 -0.9859
 2000SOL     OW 6898   6.102   6.016   5.186 -0.6520  0.1262 -0.0369
 2000SOL    HW1 6899   6.122   5.921   5.209 -1.4034  0.1887  0.9659
 2000SOL    HW2 6900   6.100   6.027   5.086 -0.4522 -0.8807 -0.1592
 2001SOL     OW 6901   1.524   3.963   1.625  0.7253  0.5746  0.7529
 2001SOL    HW1 6902   1.604   3.904   1.613 -2.2007 -3.4972 -1.2124
 2001SOL    HW2 6903   1.488   3.952   1.717 -0.1781 -1.4815  0.2127
 2002SOL     OW 6904   6.301   0.453   6.541  0.4591  0.3327 -0.3341
 2002SOL    HW1 6905   6.315   0.371   6.596  0.9416 -0.4267 -1.5371
 2002SOL    HW2 6906   6.212   0.493   6.562  0.1733 -0.5527  0.2042
 2003SOL     OW 6907   3.483   4.603   0.803 -0.0897 -0.8503 -0.4016
 2003SOL    HW1 6908   3.561   4.597   0.741  0.3882  0.0918  0.0826
 2003SOL    HW2 6909   3.515   4.614   0.897 -0.8046 -1.2904 -0.0969
 2004SOL     OW 6910   6.094   4.368   3.606 -0.6658  0.2406 -0.2603
 2004SOL    HW1 6911   6.133   4.289   3.653 -1.0076  0.2346  0.0162
 2004SOL    HW2 6912   6.010   4.396   3.652  0.5488  2.1082  0.9700
 2005SOL     OW 6913   2.727   0.350   5.378 -0.0796 -0.0429 -0.0951
 2005SOL    HW1 6914   2.645   0.335   5.322 -0.6412  1.2009  0.3398
 2005SOL    HW2 6915   2.719   0.298   5.463 -0.1679 -0.3570 -0.2953
 2006SOL     OW 6916   0.790   5.556   4.302  0.5026 -0.0124  0.2909
 2006SOL    HW1 6917   0.877   5.507   4.299 -0.3448 -1.5942  0.2661
 2006SOL    HW2 6918   0.716   5.490   4.317 -0.7938  1.1748 -0.7122
 2007SOL     OW 6919   3.632   3.584   3.785  0.2577 -0.2268 -0.5472
 2007SOL    HW1 6920   3.627   3.491   3.748 -0.6984 -1.2910  2.0550
 2007SOL    HW2 6921   3.539   3.621   3.794  0.5840  0.6883 -0.7881
 2008SOL     OW 6922   1.008   2.419   3.067 -0.3033 -0.5263  0.3578
 2008SOL    HW1 6923   1.104   2.405   3.047 -0.4807 -1.1853 -0.0457
 2008SOL    HW2 6924   0.964   2.331   3.087 -1.1097 -0.4013 -0.7588
 2009SOL     OW 6925   0.629   3.459   3.894 -0.1480 -0.0241  0.0644
 2009SOL    HW1 6926   0.581   3.546   3.907  1.3393  1.1352 -1.6834
 2009SOL    HW2 6927   0.611   3.399   3.972 -4.6688  0.1333 -0.5514
 2010SOL     OW 6928   3.928   2.504   6.931 -0.2001 -0.1472 -0.1039
 2010SOL    HW1 6929   3.918   2.467   7.024  0.0581  0.6737  0.2640
 2010SOL    HW2 6930   3.980   2.440   6.875 -0.1455 -0.5422  0.3903
 2011SOL     OW 6931   3.692   2.809   6.308  0.0860 -0.0711 -0.2715
 2011SOL    HW1 6932   3.681   2.711   6.292 -0.1020 -0.1358  0.2408
 2011SOL    HW2 6933   3.612   2.844   6.356 -0.7640  0.7329 -2.1657
 2012SOL     OW 6934   1.457   5.201   6.728  0.3358  0.6696 -0.0537
 2012SOL    HW1 6935   1.376   5.149   6.754 -0.1889  0.9565 -1.0645
 2012SOL    HW2 6936   1.509   5.149   6.660  1.4244  0.1477  1.1331
 2013SOL     OW 6937   1.936   6.109   1.857  0.1247  0.7586 -0.8969
 2013SOL    HW1 6938   1.932   6.066   1.767  0.2045 -0.3851 -0.3750
 2013SOL    HW2 6939   1.848   6.153   1.877  0.0010  0.7440 -1.4038
 2014SOL     OW 6940   5.829   1.615   5.536  0.1103  0.3697 -0.1881
 2014SOL    HW1 6941   5.780   1.565   5.464 -0.7693  1.4662 -0.3867
 2014SOL    HW2 6942   5.847   1.708   5.505 -0.1084  0.7978  0.9316
 2015SOL     OW 6943   0.980   1.026   0.291  0.7201  0.4888  0.2223
 2015SOL    HW1 6944   1.042   0.996   0.218 -0.9403  1.5883 -1.7387
 2015SOL    HW2 6945   0.965   0.950   0.355  0.6800 -1.2028 -1.6879
 2016SOL     OW 6946   6.323   4.640   2.100  0.7259  0.5296  0.2191
 2016SOL    HW1 6947   6.308   4.738   2.088  0.0818  0.2069 -2.4205
 2016SOL    HW2 6948   6.250   4.602   2.157 -1.3715  1.0387 -1.9545
 2017SOL     OW 6949   3.479   0.727   6.638  0.1761 -0.5241  0.0449
 2017SOL    HW1 6950   3.468   0.759   6.732 -1.5828  1.6433 -0.8036
 2017SOL    HW2 6951   3.420   0.647   6.623 -0.8119  0.1266  0.3679
 2018SOL     OW 6952   6.789   6.159   0.705  0.0872 -0.1865  0.1981
 2018SOL    HW1 6953   6.743   6.192   0.622 -0.7423  0.2653  0.8207
 2018SOL    HW2 6954   6.789   6.232   0.774  0.9019 -0.5086  0.5418
 2019SOL     OW 6955   1.518   3.655   6.681  0.6618 -0.6272  0.0661
 2019SOL    HW1 6956   1.516   3.712   6.599  0.4499 -1.3720 -0.4595
 2019SOL    HW2 6957   1.607   3.610   6.689  1.2937  0.7201  1.1667
 2020SOL     OW 6958   6.319   4.374   3.082 -0.4518  0.2066  0.4330
 2020SOL    HW1 6959   6.391   4.310   3.111 -1.4890 -1.0326  0.3852
 2020SOL    HW2 6960   6.353   4.468   3.089  1.3120 -0.3562 -0.0193
 2021SOL     OW 6961   1.703   4.392   1.029  0.2959  0.2492  0.0172
 2021SOL    HW1 6962   1.715   4.293   1.031  1.5998  0.3942  1.9367
 2021SOL    HW2 6963   1.627   4.417   1.088  2.3131  0.5759  2.6654
 2022SOL     OW 6964   6.700   5.118   5.979 -0.0848 -0.0669 -1.0059
 2022SOL    HW1 6965   6.658   5.168   5.904  1.4787 -0.5578 -2.2736
 2022SOL    HW2 6966   6.706   5.021   5.955  1.2884 -0.0877 -0.6870
 2023SOL     OW 6967   5.136   1.889   2.876  0.0192  0.5240  0.3730
 2023SOL    HW1 6968   5.216   1.860   2.823  0.9394  1.5084  1.1902
 2023SOL    HW2 6969   5.165   1.923   2.965 -1.4548 -0.5105  1.2898
 2024SOL     OW 6970   4.769   6.750   3.108  0.4564 -0.2481  0.3777
 2024SOL    HW1 6971   4.749   6.839   3.066  0.4630 -0.1558  0.5677
 2024SOL    HW2 6972   4.732   6.748   3.201  0.0767 -0.6036  0.2217
 2025SOL     OW 6973   6.783   5.774   5.857 -0.0083  0.3280  0.1330
 2025SOL    HW1 6974   6.879   5.760   5.832 -0.3038 -2.1530  0.1274
 2025SOL    HW2 6975   6.754   5.864   5.826  2.1730  0.9578 -0.2879
 2026SOL     OW 6976   1.053   2.211   1.192 -0.2712 -0.3797 -0.2847
 2026SOL    HW1 6977   1.086   2.131   1.242  0.2156  0.6202  1.0613
 2026SOL    HW2 6978   0.964   2.238   1.227  0.0779  0.3331  0.0872
 2027SOL     OW 6979   3.259   3.887   0.986 -0.2768 -0.0286 -0.6950
 2027SOL    HW1 6980   3.326   3.931   0.925  0.1234  2.9223  1.6335
 2027SOL    HW2 6981   3.166   3.912   0.956 -0.1612 -0.1502 -1.1624
 2028SOL     OW 6982   6.358   3.720   5.668 -0.3060 -0.0939  0.2187
 2028SOL    HW1 6983   6.403   3.684   5.750 -2.0827 -0.2379  1.1877
 2028SOL    HW2 6984   6.290   3.655   5.636 -0.2350  0.3502 -0.8758
 2029SOL     OW 6985   3.300   1.346   4.827 -0.1907 -0.4588  0.6390
 2029SOL    HW1 6986   3.339   1.264   4.786 -1.0337 -0.6015  0.1053
 2029SOL    HW2 6987   3.337   1.358   4.919  0.7203 -0.8619  0.3334
 2030SOL     OW 6988   1.101   2.618   5.309  0.2863  0.4562  0.0999
 2030SOL    HW1 6989   1.163   2.622   5.231 -1.0382  2.1271 -0.9373
 2030SOL    HW2 6990   1.021   2.563   5.287  0.2505  0.3159  0.5588
 2031SOL     OW 6991   3.104   1.133   1.736  0.2709 -0.1263  0.2722
 2031SOL    HW1 6992   3.053   1.218   1.747  1.9747  0.8909  0.6915
 2031SOL    HW2 6993   3.063   1.078   1.663 -1.7128  0.3666  0.9422
 2032SOL     OW 6994   0.427   4.328   2.192 -0.0348  0.6316 -0.5370
 2032SOL    HW1 6995   0.408   4.322   2.093 -0.8926  1.8358 -0.4745
 2032SOL    HW2 6996   0.478   4.412   2.210 -0.2564  0.6319  0.0908
 2033SOL     OW 6997   4.184   4.154   0.373  0.5400 -0.3300  0.0987
 2033SOL    HW1 6998   4.169   4.184   0.279  1.4238 -0.0743  0.0228
 2033SOL    HW2 6999   4.098   4.157   0.424  0.5217  2.3290  0.0739
 2034SOL     OW 7000   3.704   3.829   3.212 -0.1234 -0.3308  0.1497
 2034SOL    HW1 7001   3.613   3.812   3.174 -0.1471 -1.7034  0.7889
 2034SOL    HW2 7002   3.724   3.762   3.283  0.9619  0.6203  0.7735
 2035SOL     OW 7003   6.099   5.445   1.924  0.0638  0.1379 -0.0280
 2035SOL    HW1 7004   6.010   5.477   1.958 -0.0726 -1.1627  0.8943
 2035SOL    HW2 7005   6.167   5.449   1.997 -0.1157 -2.2140  0.3299
 2036SOL     OW 7006   0.573   2.069   2.458  0.2433  0.0439  0.1295
 2036SOL    HW1 7007   0.485   2.028   2.485  0.3065  0.6357  1.2841
 2036SOL    HW2 7008   0.572   2.086   2.360 -2.3023  3.0632  0.4900
 2037SOL     OW 7009   3.224   3.461   4.112 -0.2571 -0.4956 -0.3104
 2037SOL    HW1 7010   3.148   3.501   4.163 -1.0394 -0.6762 -1.3018
 2037SOL    HW2 7011   3.201   3.459   4.014  1.5591  0.6340 -0.7886
 2038SOL     OW 7012   5.570   1.022   1.180 -0.2305 -0.1995 -0.1190
 2038SOL    HW1 7013   5.568   0.985   1.273  0.2726  0.1777  0.0493
 2038SOL    HW2 7014   5.527   0.957   1.117 -0.2447 -0.6210  0.3196
 2039SOL     OW 7015   5.590   3.139   2.540  0.0633  0.2575  0.0693
 2039SOL    HW1 7016   5.655   3.156   2.466  0.4583  0.1461  0.3914
 2039SOL    HW2 7017   5.504   3.188   2.520 -0.3002 -0.7963 -1.0912
 2040SOL     OW 7018   2.366   3.014   0.205 -0.1044 -0.0501  0.1932
 2040SOL    HW1 7019   2.343   2.961   0.124  0.7635 -0.9988  0.5477
 2040SOL    HW2 7020   2.465   3.022   0.213 -0.2099  1.6110  0.1803
 2041SOL     OW 7021   3.544   1.711   2.526 -0.3028  0.0122  0.1478
 2041SOL    HW1 7022   3.471   1.762   2.480 -0.8624 -1.5063 -0.7208
 2041SOL    HW2 7023   3.614   1.686   2.459  2.5291  3.7501  1.3839
 2042SOL     OW 7024   0.758   0.199   6.527 -0.2374  0.0003  1.1947
 2042SOL    HW1 7025   0.672   0.173   6.572 -0.9955 -0.6889 -0.5854
 2042SOL    HW2 7026   0.789   0.287   6.564 -1.3300 -0.0810  2.3674
 2043SOL     OW 7027   5.448   2.495   4.039 -0.1371 -0.0529 -0.0401
 2043SOL    HW1 7028   5.422   2.455   3.951 -0.9942  1.7952 -0.6944
 2043SOL    HW2 7029   5.367   2.503   4.097 -0.1254  1.2551 -0.1760
 2044SOL     OW 7030   6.712   3.794   0.986 -0.1599 -0.6666  0.2907
 2044SOL    HW1 7031   6.664   3.882   0.982  0.3399 -0.2685  2.0513
 2044SOL    HW2 7032   6.660   3.726   0.934 -0.6360  0.6138 -0.9839
 2045SOL     OW 7033   0.930   0.865   2.102  0.1728  0.3941  0.3656
 2045SOL    HW1 7034   0.871   0.872   2.021 -0.0138 -1.5686  0.2925
 2045SOL    HW2 7035   0.993   0.943   2.104  1.2757 -0.2898 -2.5559
 2046SOL     OW 7036   4.166   1.599   1.563  0.4275 -0.2592 -0.1259
 2046SOL    HW1 7037   4.253   1.577   1.519  0.2280 -0.4692 -0.4196
 2046SOL    HW2 7038   4.102   1.634   1.494  0.7411  1.2754  0.3181
 2047SOL     OW 7039   3.184   5.677   5.595  0.4251 -0.8775  0.4694
 2047SOL    HW1 7040   3.106   5.615   5.597 -0.2584 -0.0520  0.0590
 2047SOL    HW2 7041   3.221   5.682   5.502  0.8429 -1.1032  0.6190
 2048SOL     OW 7042   3.498   5.543   1.359  0.0642 -0.0676  0.2017
 2048SOL    HW1 7043   3.435   5.530   1.436  0.2885  1.1022  0.5977
 2048SOL    HW2 7044   3.454   5.597   1.288  0.3840  0.1527  0.1706
 2049SOL     OW 7045   2.601   0.629   1.380 -0.1138 -0.3052 -0.5536
 2049SOL    HW1 7046   2.609   0.542   1.429 -0.3051 -0.5734 -1.0017
 2049SOL    HW2 7047   2.693   0.666   1.365 -0.0961  0.4837  1.2514
 2050SOL     OW 7048   2.026   5.972   6.320  0.0017  0.2789  0.9961
 2050SOL    HW1 7049   1.982   5.885   6.344 -0.6595  0.0683 -0.8410
 2050SOL    HW2 7050   2.000   6.042   6.386 -0.9036 -0.4999  1.4800
 2051SOL     OW 7051   3.503   2.009   1.938 -0.5716  0.1845  0.0051
 2051SOL    HW1 7052   3.540   2.101   1.943 -1.4797  0.5044  1.1532
 2051SOL    HW2 7053   3.509   1.976   1.844  1.3421  0.7321 -0.1132
 2052SOL     OW 7054   1.243   2.293   2.966 -0.0700  0.1242 -0.3734
 2052SOL    HW1 7055   1.310   2.353   2.923 -0.1877  0.2352 -0.4004
 2052SOL    HW2 7056   1.288   2.238   3.037 -0.3856  1.8349  1.2150
 2053SOL     OW 7057   6.115   2.618   5.391 -0.1386 -0.6178  0.1668
 2053SOL    HW1 7058   6.124   2.714   5.368  0.5741 -0.6969  0.1043
 2053SOL    HW2 7059   6.026   2.602   5.435  0.2128  0.2793  1.2503
 2054SOL     OW 7060   5.268   5.073   5.704 -0.4061  0.3097  0.1533
 2054SOL    HW1 7061   5.208   5.018   5.761  0.7737 -1.7562 -0.4888
 2054SOL    HW2 7062   5.213   5.138   5.651 -1.9579 -0.7908  0.3430
 2055SOL     OW 7063   2.955   4.826   1.225  0.4847 -0.4016  0.2846
 2055SOL    HW1 7064   2.980   4.781   1.310 -1.5233 -0.8613  0.6721
 2055SOL    HW2 7065   2.902   4.764   1.168 -0.5054  0.7607 -0.1103
 2056SOL     OW 7066   3.818   3.021   5.158  0.3257 -0.0676 -0.6231
 2056SOL    HW1 7067   3.725   3.058   5.156 -0.1156 -0.9925  1.3151
 2056SOL    HW2 7068   3.884   3.096   5.143 -0.6592  0.8594 -0.4099
 2057SOL     OW 7069   6.540   5.513   1.394 -0.1040  0.0029 -0.6007
 2057SOL    HW1 7070   6.565   5.418   1.415 -0.3700 -0.2437 -1.3516
 2057SOL    HW2 7071   6.500   5.517   1.302  0.2377  0.8989 -0.7246
 2058SOL     OW 7072   6.855   1.341   2.193 -0.0186  0.2211 -0.2741
 2058SOL    HW1 7073   6.767   1.332   2.146 -0.5113  1.5604  0.3369
 2058SOL    HW2 7074   6.840   1.383   2.283  1.0848 -0.8315  0.4301
 2059SOL     OW 7075   0.783   4.681   0.663 -0.1218  0.1016 -0.0798
 2059SOL    HW1 7076   0.875   4.643   0.655 -0.1580 -0.1112  0.5150
 2059SOL    HW2 7077   0.752   4.712   0.572  0.3346 -0.2808 -0.3702
 2060SOL     OW 7078   0.467   4.791   3.386  0.9282  0.3052  0.1329
 2060SOL    HW1 7079   0.407   4.754   3.457  0.5696  1.9524  0.7334
 2060SOL    HW2 7080   0.511   4.716   3.337  2.0649 -0.9212  2.8416
 2061SOL     OW 7081   4.073   3.287   3.642  0.4371 -0.1303 -0.1681
 2061SOL    HW1 7082   4.089   3.343   3.723  0.7109  0.3086 -0.5200
 2061SOL    HW2 7083   4.001   3.220   3.661  2.5986 -2.1493  1.4548
 2062SOL     OW 7084   0.004   3.037   6.455  0.3464  0.0062  0.5139
 2062SOL    HW1 7085  -0.011   3.053   6.358  0.3685  0.8962  0.6431
 2062SOL    HW2 7086  -0.060   2.967   6.488 -1.0949  1.1502  0.2781
 2063SOL     OW 7087   6.712   6.269   6.046 -0.1980  0.1463 -0.1540
 2063SOL    HW1 7088   6.621   6.236   6.070  0.7719 -2.7559 -0.0254
 2063SOL    HW2 7089   6.706   6.363   6.012 -3.3648 -0.3911 -1.4049
 2064SOL     OW 7090   5.555   1.704   3.616 -0.4217 -0.2988  0.5196
 2064SOL    HW1 7091   5.458   1.722   3.631  0.2328  3.2162  1.4617
 2064SOL    HW2 7092   5.599   1.683   3.703 -0.2199 -1.4178  0.1646
 2065SOL     OW 7093   0.263   2.066   1.842 -0.9228  0.1746 -0.0562
 2065SOL    HW1 7094   0.169   2.034   1.835 -1.0228  0.6184 -0.8253
 2065SOL    HW2 7095   0.273   2.153   1.793  0.1450 -0.4543 -1.0216
 2066SOL     OW 7096   2.261   6.219   6.987  0.2050 -0.4249  0.1870
 2066SOL    HW1 7097   2.274   6.200   7.084  1.2155  0.8276  0.3145
 2066SOL    HW2 7098   2.165   6.245   6.971  0.0833 -0.4292  0.8805
 2067SOL     OW 7099   1.634   6.374   6.670 -0.6446  0.1354 -0.0655
 2067SOL    HW1 7100   1.611   6.330   6.757 -0.3150  1.2609  0.6249
 2067SOL    HW2 7101   1.602   6.318   6.594 -0.1763 -1.3101  0.7600
 2068SOL     OW 7102   3.657   3.186   6.545  0.4026 -0.1553 -0.4201
 2068SOL    HW1 7103   3.644   3.285   6.548  3.2900  0.2823  1.4859
 2068SOL    HW2 7104   3.704   3.161   6.460 -4.3102 -0.6692 -3.1886
 2069SOL     OW 7105   4.488   0.458   3.776 -0.1201  1.0283 -0.2443
 2069SOL    HW1 7106   4.519   0.485   3.685 -1.8426  0.9767 -0.8888
 2069SOL    HW2 7107   4.433   0.531   3.816 -0.4189  0.5535  0.2265
 2070SOL     OW 7108   0.853   0.562   6.054 -0.3792  0.1283 -0.6422
 2070SOL    HW1 7109   0.755   0.546   6.070 -0.4098  0.4829 -0.4592
 2070SOL    HW2 7110   0.906   0.515   6.124 -0.3903 -0.4742 -1.0248
 2071SOL     OW 7111   2.389   5.875   5.847 -0.0641  0.4345  0.5869
 2071SOL    HW1 7112   2.297   5.887   5.885 -0.8459  0.0506 -1.1053
 2071SOL    HW2 7113   2.388   5.894   5.749  1.6766  0.4257  0.5305
 2072SOL     OW 7114   3.749   6.882   1.967 -0.0536 -0.1148  0.3434
 2072SOL    HW1 7115   3.710   6.813   2.028  0.7967  2.1656  3.7279
 2072SOL    HW2 7116   3.682   6.954   1.952  0.8735  1.0600  1.5875
 2073SOL     OW 7117   1.815   4.035   2.587 -0.6792  0.1390 -0.3202
 2073SOL    HW1 7118   1.869   4.087   2.521 -0.0701 -0.6107 -0.4316
 2073SOL    HW2 7119   1.758   3.969   2.538  0.8755 -1.4621 -0.0794
 2074SOL     OW 7120   6.755   6.972   5.992 -0.3473  0.0971  0.2508
 2074SOL    HW1 7121   6.802   7.046   5.944  0.6677  0.2857  1.4722
 2074SOL    HW2 7122   6.787   6.968   6.087 -0.7645 -1.5784  0.3570
 2075SOL     OW 7123   3.488   5.840   1.328  0.0297 -0.5697  0.8711
 2075SOL    HW1 7124   3.516   5.931   1.298 -0.8111 -0.9135 -1.1298
 2075SOL    HW2 7125   3.558   5.801   1.387  1.8495  0.1736 -0.7008
 2076SOL     OW 7126   1.246   0.241   5.621  0.0218  0.5602 -0.6755
 2076SOL    HW1 7127   1.310   0.317   5.612 -0.5602  1.1333 -0.0322
 2076SOL    HW2 7128   1.196   0.229   5.535 -1.5032  2.3862 -0.0994
 2077SOL     OW 7129   5.378   4.649   4.654  0.0242 -0.0164  0.3726
 2077SOL    HW1 7130   5.311   4.679   4.722  0.3015  0.1818  0.5629
 2077SOL    HW2 7131   5.331   4.622   4.570 -0.1651  3.8864 -0.9914
 2078SOL     OW 7132   2.373   6.548   6.711 -0.1962  0.0279 -0.1883
 2078SOL    HW1 7133   2.405   6.531   6.618 -0.3602 -0.1312 -0.2157
 2078SOL    HW2 7134   2.413   6.480   6.773  0.1997  0.3534 -0.0830
 2079SOL     OW 7135   5.802   6.676   3.597  0.7578  0.7101  0.0146
 2079SOL    HW1 7136   5.707   6.667   3.630  0.5646 -2.2586 -1.0198
 2079SOL    HW2 7137   5.865   6.663   3.674  0.2797 -3.3418 -0.0725
 2080SOL     OW 7138   2.296   0.430   2.500  0.5710 -0.5472 -0.2601
 2080SOL    HW1 7139   2.208   0.461   2.534  0.5948 -0.3675 -0.3619
 2080SOL    HW2 7140   2.347   0.507   2.463  1.5052 -0.3367  1.3727
 2081SOL     OW 7141   2.536   6.641   0.494 -0.3880 -0.4154  0.4081
 2081SOL    HW1 7142   2.442   6.609   0.508 -1.3893  1.9609 -0.3345
 2081SOL    HW2 7143   2.534   6.725   0.440  2.2947 -1.0672 -0.8573
 2082SOL     OW 7144   1.195   0.507   5.113 -0.0682  0.2490 -0.5676
 2082SOL    HW1 7145   1.191   0.508   5.013 -0.4624  0.4918 -0.5475
 2082SOL    HW2 7146   1.132   0.438   5.149  0.7506 -0.4954 -0.5174
 2083SOL     OW 7147   3.596   5.524   4.591  0.4800  0.0317 -0.1738
 2083SOL    HW1 7148   3.666   5.491   4.529  0.7576 -1.9267  1.1138
 2083SOL    HW2 7149   3.595   5.624   4.589  2.0814  0.0671 -1.5210
 2084SOL     OW 7150   2.507   6.377   3.432 -0.2626  0.2234 -0.7124
 2084SOL    HW1 7151   2.547   6.344   3.517  0.0406  0.0643 -0.9188
 2084SOL    HW2 7152   2.441   6.310   3.398 -1.4152  0.8889  0.1129
 2085SOL     OW 7153   0.945   4.863   2.514  0.2704 -0.0741 -0.0213
 2085SOL    HW1 7154   1.041   4.871   2.541  0.1015  1.7574  0.1717
 2085SOL    HW2 7155   0.890   4.834   2.592  0.7308 -1.8528 -0.3158
 2086SOL     OW 7156   3.777   4.544   6.313  0.2066 -0.3467 -0.1140
 2086SOL    HW1 7157   3.864   4.539   6.265 -0.2051  2.2712 -1.3440
 2086SOL    HW2 7158   3.782   4.615   6.384 -1.1128  0.4715 -0.7875
 2087SOL     OW 7159   4.492   6.478   6.354 -0.1977 -0.4279 -0.1362
 2087SOL    HW1 7160   4.582   6.507   6.387 -0.4058 -0.6364  0.6303
 2087SOL    HW2 7161   4.421   6.533   6.398 -0.6048 -2.1561  1.4569
 2088SOL     OW 7162   1.634   2.377   3.309 -0.0773  0.3051  0.4086
 2088SOL    HW1 7163   1.716   2.346   3.261 -1.3741  0.4860 -2.1038
 2088SOL    HW2 7164   1.609   2.311   3.379  0.6897 -1.1309 -0.6321
 2089SOL     OW 7165   4.528   2.041   6.072  0.0536  0.1200 -0.0521
 2089SOL    HW1 7166   4.449   2.084   6.030 -1.1210 -1.0970  0.8029
 2089SOL    HW2 7167   4.541   1.950   6.034 -0.0363 -0.3608  1.0198
 2090SOL     OW 7168   3.094   1.965   1.637 -0.0082 -0.5408  0.5550
 2090SOL    HW1 7169   3.151   1.884   1.654 -0.3454 -0.6359  1.2694
 2090SOL    HW2 7170   3.136   2.044   1.681  0.5754 -0.2175 -0.5507
 2091SOL     OW 7171   5.154   4.588   2.904  0.7069 -0.1532 -0.5306
 2091SOL    HW1 7172   5.135   4.499   2.864 -0.3887 -0.6530  0.9949
 2091SOL    HW2 7173   5.240   4.584   2.955 -0.3156 -0.9807  1.2178
 2092SOL     OW 7174   2.594   2.107   4.957 -0.5160 -0.6664  0.2254
 2092SOL    HW1 7175   2.642   2.056   5.029 -0.7651 -0.0827  0.8160
 2092SOL    HW2 7176   2.660   2.162   4.906 -0.3058 -1.2555 -0.1495
 2093SOL     OW 7177   5.271   2.281   2.730  0.0663 -0.5727  0.1651
 2093SOL    HW1 7178   5.173   2.261   2.733  0.2427 -1.3846  0.6867
 2093SOL    HW2 7179   5.314   2.226   2.658  0.0173  0.3629 -0.5958
 2094SOL     OW 7180   1.113   4.068   3.392 -0.4490  0.1650 -0.1737
 2094SOL    HW1 7181   1.054   4.103   3.464 -0.2713  0.1140 -0.0019
 2094SOL    HW2 7182   1.062   4.062   3.307 -0.2958  1.4702 -0.3680
 2095SOL     OW 7183   0.324   0.874   6.068  0.2662 -0.2315  0.3223
 2095SOL    HW1 7184   0.331   0.961   6.019  0.6543  0.5921  1.7796
 2095SOL    HW2 7185   0.236   0.831   6.048  1.2318 -1.0382 -2.7885
 2096SOL     OW 7186   2.477   0.035   5.652  0.0962 -0.1573  0.3013
 2096SOL    HW1 7187   2.416   0.001   5.581 -1.4361  3.2454 -0.2038
 2096SOL    HW2 7188   2.459  -0.013   5.738 -0.4413 -1.9560 -0.7779
 2097SOL     OW 7189   3.388   4.675   1.434 -0.5860 -0.0661 -0.1179
 2097SOL    HW1 7190   3.334   4.724   1.365 -1.8441 -2.2264 -0.7927
 2097SOL    HW2 7191   3.333   4.662   1.516  0.3117  1.0088  0.6826
 2098SOL     OW 7192   1.660   2.350   1.913  0.2577 -0.3752  0.0908
 2098SOL    HW1 7193   1.727   2.388   1.850  0.4117 -0.6399  0.0928
 2098SOL    HW2 7194   1.672   2.251   1.918 -0.3681 -0.4701 -0.1854
 2099SOL     OW 7195   2.504   5.114   2.036  0.2192 -0.5389 -0.4211
 2099SOL    HW1 7196   2.404   5.113   2.038  0.1292  0.7533 -2.0767
 2099SOL    HW2 7197   2.537   5.047   1.970  0.5969 -2.3642  1.4922
 2100SOL     OW 7198   3.252   0.862   1.202 -0.1397 -0.1926 -0.0271
 2100SOL    HW1 7199   3.226   0.905   1.116 -1.7615  0.5043  0.7666
 2100SOL    HW2 7200   3.310   0.925   1.254 -2.5159  1.1995  1.1366
 2101SOL     OW 7201   0.608   6.092   3.995 -0.2957  0.0114 -0.0266
 2101SOL    HW1 7202   0.705   6.114   3.987 -0.7643  2.3659  0.2635
 2101SOL    HW2 7203   0.556   6.175   4.013 -2.4185 -1.1599 -0.4454
 2102SOL     OW 7204   5.678   6.465   5.754 -0.5146  0.0418 -0.4854
 2102SOL    HW1 7205   5.586   6.446   5.721 -0.1134 -1.8206 -0.6099
 2102SOL    HW2 7206   5.682   6.450   5.853  0.1626 -2.1961 -0.7964
 2103SOL     OW 7207   6.157   0.922   0.155  0.0102  0.3138 -0.4058
 2103SOL    HW1 7208   6.184   0.929   0.251  0.5508  0.8205 -0.5895
 2103SOL    HW2 7209   6.194   0.999   0.104 -0.1457 -0.0324 -1.0572
 2104SOL     OW 7210   0.485   6.896   6.992 -0.0367 -0.4628 -0.0566
 2104SOL    HW1 7211   0.484   6.842   7.075  0.0442 -0.5708 -0.1260
 2104SOL    HW2 7212   0.394   6.935   6.977  0.0306 -0.1809  0.2514
 2105SOL     OW 7213   6.386   1.169   2.395  0.0406 -0.6171  0.1657
 2105SOL    HW1 7214   6.465   1.163   2.334 -0.9492  1.9382 -1.5425
 2105SOL    HW2 7215   6.414   1.145   2.488  3.0419  0.8530 -0.2349
 2106SOL     OW 7216   1.878   4.783   4.410 -0.7535 -0.1386 -0.5266
 2106SOL    HW1 7217   1.874   4.766   4.312  0.7402 -2.3944 -0.2565
 2106SOL    HW2 7218   1.959   4.740   4.449  0.6287  3.6126  1.2292
 2107SOL     OW 7219   4.264   4.239   5.403 -0.5779 -0.0562  0.4653
 2107SOL    HW1 7220   4.287   4.156   5.352  0.4871  0.9221 -0.7171
 2107SOL    HW2 7221   4.258   4.316   5.339  0.0890  1.0783  1.7356
 2108SOL     OW 7222   5.579   0.944   4.604 -0.1703  0.0550  0.7144
 2108SOL    HW1 7223   5.499   0.906   4.558 -0.2666 -1.0368  1.7427
 2108SOL    HW2 7224   5.552   0.983   4.692  0.2255  0.8739  0.4812
 2109SOL     OW 7225   1.723   3.311   5.834  0.2104 -0.1731  0.8101
 2109SOL    HW1 7226   1.669   3.383   5.791 -1.4902  0.0712  3.1606
 2109SOL    HW2 7227   1.678   3.223   5.822  0.3917 -0.2971  1.0197
 2110SOL     OW 7228   2.530   1.141   0.133  0.1561 -0.0172 -0.4733
 2110SOL    HW1 7229   2.556   1.052   0.169 -0.0451  0.1988  0.2263
 2110SOL    HW2 7230   2.468   1.129   0.055 -0.8242 -0.4868  0.3498
 2111SOL     OW 7231   2.602   2.367   1.238  0.3196  0.4997 -0.0316
 2111SOL    HW1 7232   2.674   2.419   1.283  0.6863 -0.4395  0.4859
 2111SOL    HW2 7233   2.598   2.392   1.141  0.7245  1.2160  0.1348
 2112SOL     OW 7234   2.587   5.476   5.987 -0.3395  0.1844  0.7551
 2112SOL    HW1 7235   2.622   5.556   5.939 -0.5977  0.0520  0.3408
 2112SOL    HW2 7236   2.528   5.424   5.926 -0.9455  0.1955  1.3142
 2113SOL     OW 7237   1.814   0.885   1.026  0.3913  0.2146 -0.3996
 2113SOL    HW1 7238   1.904   0.898   0.986  0.4915  1.0005  0.0546
 2113SOL    HW2 7239   1.786   0.969   1.073 -0.1114 -0.3764  0.3920
 2114SOL     OW 7240   6.786   0.926   4.912  0.2650 -0.0046 -0.4215
 2114SOL    HW1 7241   6.833   0.933   5.000  0.2402 -2.0748 -0.1764
 2114SOL    HW2 7242   6.773   1.017   4.873  1.3763  0.8638  1.1262
 2115SOL     OW 7243   4.339   2.139   1.016  0.6536  0.2163  0.5932
 2115SOL    HW1 7244   4.279   2.181   1.084 -0.9315 -0.9688 -0.0070
 2115SOL    HW2 7245   4.310   2.045   1.000  2.2055 -0.1329 -0.3253
 2116SOL     OW 7246   3.962   3.095   1.660 -0.4001 -0.1237  0.0333
 2116SOL    HW1 7247   3.990   3.094   1.564  0.9065  1.1759  0.3600
 2116SOL    HW2 7248   4.003   3.174   1.706 -0.1362 -1.2856  1.9136
 2117SOL     OW 7249   6.469   1.938   6.282 -0.0706 -0.4585 -0.0330
 2117SOL    HW1 7250   6.506   2.022   6.322  1.2311 -0.9776 -0.0848
 2117SOL    HW2 7251   6.396   1.902   6.340 -0.3933  0.5187  0.1716
 2118SOL     OW 7252   0.403   0.585   3.664 -0.4671  0.0883  0.2146
 2118SOL    HW1 7253   0.470   0.655   3.641  0.7684 -0.7371  1.1469
 2118SOL    HW2 7254   0.382   0.590   3.762 -2.7494  1.1231 -0.2663
 2119SOL     OW 7255   0.762   0.728   4.816 -0.3204  0.6346 -0.1311
 2119SOL    HW1 7256   0.761   0.635   4.853 -0.8355  0.3913 -0.7342
 2119SOL    HW2 7257   0.754   0.794   4.891 -0.5883  0.1753  0.2509
 2120SOL     OW 7258   6.575   1.330   6.476  0.0396 -0.2519 -0.1066
 2120SOL    HW1 7259   6.483   1.291   6.483 -0.1760  0.3384  0.4442
 2120SOL    HW2 7260   6.632   1.295   6.550 -0.3939  1.0827  0.8930
 2121SOL     OW 7261   5.665   1.241   0.372  0.2973  0.0080 -0.4871
 2121SOL    HW1 7262   5.637   1.282   0.285 -0.5286  0.1484 -0.1678
 2121SOL    HW2 7263   5.625   1.293   0.448  1.5067  0.2658  0.0051
 2122SOL     OW 7264   4.242   1.697   6.401  0.0370 -0.2435  0.4050
 2122SOL    HW1 7265   4.308   1.739   6.463  0.7367 -1.7189  0.7039
 2122SOL    HW2 7266   4.252   1.597   6.404 -0.1052 -0.3827 -1.8394
 2123SOL     OW 7267   6.309   4.959   5.278 -0.4190  0.3818  0.0977
 2123SOL    HW1 7268   6.312   5.028   5.206  0.9583 -0.1840 -0.4309
 2123SOL    HW2 7269   6.341   4.871   5.241  1.2319  0.2866  1.6011
 2124SOL     OW 7270   5.761   2.045   6.770 -0.0606  0.2884 -1.4476
 2124SOL    HW1 7271   5.811   2.130   6.754 -0.8203  1.1105  0.2387
 2124SOL    HW2 7272   5.719   2.048   6.861  1.0192 -2.4494 -0.7428
 2125SOL     OW 7273   1.634   6.352   1.226  0.4910  0.1196 -0.1141
 2125SOL    HW1 7274   1.569   6.280   1.204  0.3059  0.6642 -1.4768
 2125SOL    HW2 7275   1.704   6.317   1.289  0.1394 -1.0989 -0.3874
 2126SOL     OW 7276   6.069   2.820   0.411 -0.5447 -0.5378 -0.3855
 2126SOL    HW1 7277   6.166   2.843   0.409 -0.9257  1.1393 -1.8025
 2126SOL    HW2 7278   6.052   2.746   0.346 -0.3459 -0.2174 -0.8075
 2127SOL     OW 7279   1.180   0.387   3.133  0.0107 -0.0610 -0.0050
 2127SOL    HW1 7280   1.109   0.334   3.180  0.2876  0.7413  1.3541
 2127SOL    HW2 7281   1.245   0.324   3.089 -1.2840 -0.8100 -0.9338
 2128SOL     OW 7282   1.654   5.532   2.776  0.3373  0.4488  0.5506
 2128SOL    HW1 7283   1.596   5.536   2.857  2.2683 -0.1742  2.0568
 2128SOL    HW2 7284   1.624   5.457   2.717  0.2864 -0.6450  1.8989
 2129SOL     OW 7285   6.439   1.729   0.164  0.2999 -0.3057 -0.1787
 2129SOL    HW1 7286   6.454   1.636   0.195  1.4960  0.1144  0.5668
 2129SOL    HW2 7287   6.483   1.742   0.075  0.1831 -0.4350 -0.2555
 2130SOL     OW 7288   4.775   4.921   1.261  0.3125 -0.0385  0.1621
 2130SOL    HW1 7289   4.738   4.883   1.346  1.9132 -0.0204  0.8981
 2130SOL    HW2 7290   4.767   5.020   1.262 -0.5296 -0.0988 -0.1364
 2131SOL     OW 7291   6.207   3.177   1.133 -0.6126 -0.0814  0.0606
 2131SOL    HW1 7292   6.251   3.115   1.197 -0.3332  0.7119  0.6561
 2131SOL    HW2 7293   6.194   3.266   1.177  1.2659  1.0621 -1.5291
 2132SOL     OW 7294   1.209   3.196   3.263  0.5891 -0.5184  0.7956
 2132SOL    HW1 7295   1.242   3.244   3.182 -1.9858  1.0127  0.5334
 2132SOL    HW2 7296   1.208   3.258   3.341 -1.5083 -0.4623  0.7811
 2133SOL     OW 7297   1.314   5.266   3.971  0.5558 -0.1375 -0.2602
 2133SOL    HW1 7298   1.284   5.270   3.876 -0.5658 -1.5061 -0.0010
 2133SOL    HW2 7299   1.294   5.175   4.008  1.2343  0.2825  1.1996
 2134SOL     OW 7300   1.929   3.980   1.048  0.6023  0.0554 -0.1235
 2134SOL    HW1 7301   1.871   4.053   1.012  2.3062  1.0478 -1.0052
 2134SOL    HW2 7302   1.925   3.901   0.987  0.2564  0.1645 -0.2416
 2135SOL     OW 7303   1.739   4.708   3.739  0.5752 -0.2596 -0.0752
 2135SOL    HW1 7304   1.781   4.664   3.818 -1.3763 -0.1021  1.1160
 2135SOL    HW2 7305   1.806   4.716   3.665  1.5661 -3.3380  0.3758
 2136SOL     OW 7306   1.168   0.462   1.597 -0.3020 -0.1841 -0.1120
 2136SOL    HW1 7307   1.263   0.468   1.565 -0.5898  0.4853 -0.8863
 2136SOL    HW2 7308   1.107   0.460   1.517 -0.9877  0.3944  0.3923
 2137SOL     OW 7309   1.496   2.210   5.589  0.0302  0.0592  0.1530
 2137SOL    HW1 7310   1.468   2.144   5.520 -0.9261  1.7662 -1.1511
 2137SOL    HW2 7311   1.432   2.286   5.592  2.2701  2.0896 -0.0028
 2138SOL     OW 7312   3.500   3.860   1.967  0.2654 -0.0640  0.2153
 2138SOL    HW1 7313   3.401   3.846   1.967  0.3507 -0.7366 -0.4073
 2138SOL    HW2 7314   3.520   3.956   1.987 -0.4954 -0.0070  0.7256
 2139SOL     OW 7315   3.256   3.589   5.690 -0.4346 -0.5676 -0.1725
 2139SOL    HW1 7316   3.304   3.527   5.752 -0.6680 -1.0905 -0.5051
 2139SOL    HW2 7317   3.322   3.648   5.644 -0.2075 -0.5827  0.1333
 2140SOL     OW 7318   1.566   0.069   1.381  0.2769  0.2047 -0.3798
 2140SOL    HW1 7319   1.487   0.013   1.354  0.9117 -1.5101  1.0911
 2140SOL    HW2 7320   1.642   0.052   1.318  0.6367 -1.0736  0.3616
 2141SOL     OW 7321   4.544   4.233   1.116  0.7837  1.0861  0.7117
 2141SOL    HW1 7322   4.489   4.165   1.164  0.5823  1.2610  0.7320
 2141SOL    HW2 7323   4.578   4.301   1.181 -0.0818  1.7235  0.5095
 2142SOL     OW 7324   4.745   6.136   3.724 -0.1195 -0.2679  0.6109
 2142SOL    HW1 7325   4.708   6.067   3.662 -0.3780 -1.1380  1.7075
 2142SOL    HW2 7326   4.838   6.159   3.697 -0.6375  0.2570 -0.8058
 2143SOL     OW 7327   4.465   2.889   1.564  0.3789 -0.2367  0.4741
 2143SOL    HW1 7328   4.554   2.935   1.560 -0.4339  1.3173 -1.8500
 2143SOL    HW2 7329   4.397   2.951   1.603 -0.2325 -0.3184 -0.4154
 2144SOL     OW 7330   0.659   2.949   4.991  0.1956  0.1878 -0.4264
 2144SOL    HW1 7331   0.744   2.933   5.042 -0.0527  0.6197  0.1348
 2144SOL    HW2 7332   0.678   2.946   4.893  0.7048 -0.5259 -0.3181
 2145SOL     OW 7333   5.369   1.923   4.522 -0.0950  0.4505 -0.9780
 2145SOL    HW1 7334   5.306   1.976   4.465 -0.2088  0.8958 -0.4550
 2145SOL    HW2 7335   5.378   1.831   4.486 -2.5417 -0.2411 -0.0313
 2146SOL     OW 7336   0.296   3.684   1.397 -0.3646  0.1055 -0.0445
 2146SOL    HW1 7337   0.281   3.639   1.485 -0.7920  1.8632  0.8202
 2146SOL    HW2 7338   0.395   3.692   1.380 -0.2472 -2.2548 -0.8538
 2147SOL     OW 7339   3.805   5.734   6.272  0.0917 -0.1771 -0.0736
 2147SOL    HW1 7340   3.810   5.656   6.334  1.3230  1.4053  1.9931
 2147SOL    HW2 7341   3.868   5.721   6.196 -1.2027 -2.0309 -0.8762
 2148SOL     OW 7342   1.182   6.950   2.002 -0.2765 -0.3007  0.4171
 2148SOL    HW1 7343   1.256   6.912   2.057  1.0222  2.5516  0.8073
 2148SOL    HW2 7344   1.192   7.049   1.996 -3.0890  0.0039 -1.0405
 2149SOL     OW 7345   1.460   1.513   6.468  0.1074 -0.1477 -0.0633
 2149SOL    HW1 7346   1.400   1.563   6.531  1.2530  0.0385  0.9046
 2149SOL    HW2 7347   1.459   1.416   6.491  2.4593  0.2135  1.9635
 2150SOL     OW 7348   5.172   3.100   1.828 -0.1070  0.0883 -0.1936
 2150SOL    HW1 7349   5.152   3.065   1.736 -0.4938  1.2955 -0.5987
 2150SOL    HW2 7350   5.204   3.026   1.886  0.1850 -0.6961 -1.3182
 2151SOL     OW 7351   5.670   3.602   2.716 -0.1004 -0.0223 -0.0414
 2151SOL    HW1 7352   5.634   3.647   2.634  0.5172 -1.4978 -1.1605
 2151SOL    HW2 7353   5.681   3.504   2.699  2.1233 -0.0341  1.0410
 2152SOL     OW 7354   1.951   0.094   6.514 -0.4387  0.0043 -0.0735
 2152SOL    HW1 7355   2.051   0.092   6.513 -0.2900  2.4832  0.6528
 2152SOL    HW2 7356   1.916   0.026   6.579  0.8440 -0.1358  0.4918
 2153SOL     OW 7357   6.905   1.011   4.463  0.3955  0.3227  0.1623
 2153SOL    HW1 7358   6.870   1.070   4.390  2.4393 -0.3412 -1.4761
 2153SOL    HW2 7359   6.958   1.065   4.528  2.3949  0.3933 -1.4168
 2154SOL     OW 7360   2.648   3.965   1.193 -0.5615 -0.0667  0.0199
 2154SOL    HW1 7361   2.660   3.891   1.127 -1.7504  0.4050 -0.7569
 2154SOL    HW2 7362   2.577   3.940   1.259 -0.1837 -0.0710  0.4244
 2155SOL     OW 7363   3.330   3.250   2.929  0.4807  0.1205  0.1397
 2155SOL    HW1 7364   3.302   3.210   3.016  0.1312  0.1504  0.0435
 2155SOL    HW2 7365   3.290   3.341   2.920 -1.6612 -0.8620 -1.1740
 2156SOL     OW 7366   1.845   0.743   1.325 -0.3492 -0.4255 -0.2032
 2156SOL    HW1 7367   1.913   0.816   1.326 -0.3785 -0.3988 -0.1146
 2156SOL    HW2 7368   1.859   0.684   1.246 -1.0856  0.3986 -0.9726
 2157SOL     OW 7369   6.214   1.185   3.964  0.6648 -0.0850  0.1209
 2157SOL    HW1 7370   6.184   1.216   4.054  0.4832 -0.5266  0.2151
 2157SOL    HW2 7371   6.280   1.111   3.974 -0.2106 -0.9153 -0.1155
 2158SOL     OW 7372   1.511   1.621   6.219 -0.3163  0.1681 -0.0451
 2158SOL    HW1 7373   1.449   1.699   6.228 -0.5422  0.0963 -0.8662
 2158SOL    HW2 7374   1.513   1.571   6.305  0.2723  1.3917  0.6863
 2159SOL     OW 7375   1.315   5.456   4.942  0.0269  0.3761  0.4848
 2159SOL    HW1 7376   1.276   5.397   4.871 -2.1025  2.5978 -0.3437
 2159SOL    HW2 7377   1.336   5.401   5.023  0.8170 -1.9330 -1.1861
 2160SOL     OW 7378   5.403   3.326   2.487  0.4424 -0.7787 -0.1637
 2160SOL    HW1 7379   5.456   3.351   2.407  0.0238  0.4967 -0.0635
 2160SOL    HW2 7380   5.377   3.408   2.538 -1.2710 -1.3732  0.0054
 2161SOL     OW 7381   4.932   1.401   4.553 -0.7192 -0.4052  0.0938
 2161SOL    HW1 7382   5.022   1.390   4.511 -0.9085  0.8159 -0.6971
 2161SOL    HW2 7383   4.865   1.346   4.502 -0.6895 -0.0618 -0.3276
 2162SOL     OW 7384   1.803   1.543   5.078  0.3653 -0.0079  0.4127
 2162SOL    HW1 7385   1.761   1.622   5.122  0.5103  0.0700  0.4108
 2162SOL    HW2 7386   1.858   1.573   5.000 -1.0094 -0.2533 -0.6920
 2163SOL     OW 7387   5.950   4.280   1.530  0.1120  0.0377  0.2879
 2163SOL    HW1 7388   6.017   4.210   1.504  0.5799 -0.2342  2.0839
 2163SOL    HW2 7389   5.974   4.318   1.619 -2.0766 -0.0175  0.9699
 2164SOL     OW 7390   0.032   6.883   4.967 -0.1643 -0.1778  0.3038
 2164SOL    HW1 7391   0.046   6.802   5.025 -1.1431  0.6970  1.8345
 2164SOL    HW2 7392   0.121   6.924   4.946  0.2792 -1.0916  0.3247
 2165SOL     OW 7393   3.747   0.669   5.188  0.2509  0.9058 -0.3112
 2165SOL    HW1 7394   3.828   0.693   5.241  0.7167  1.9898 -1.4735
 2165SOL    HW2 7395   3.774   0.634   5.099 -0.5569  0.9355 -0.5786
 2166SOL     OW 7396   3.865   4.639   1.723  0.2724  0.1326 -0.5360
 2166SOL    HW1 7397   3.766   4.621   1.719  0.2626 -0.0422  0.2472
 2166SOL    HW2 7398   3.885   4.696   1.803  0.9071 -0.5668 -0.1800
 2167SOL     OW 7399   6.678   3.275   4.788  0.1630 -0.6789  0.2419
 2167SOL    HW1 7400   6.686   3.373   4.769 -2.0693 -0.4206  0.4726
 2167SOL    HW2 7401   6.631   3.260   4.874 -0.4748 -1.9596 -0.2925
 2168SOL     OW 7402   4.160   6.342   1.487 -0.4715 -0.1872  0.3955
 2168SOL    HW1 7403   4.229   6.293   1.540 -0.4747  0.1090  0.6774
 2168SOL    HW2 7404   4.172   6.441   1.499 -0.4728 -0.1169 -0.1568
 2169SOL     OW 7405   3.946   5.846   5.151  0.4177 -0.8651 -0.5138
 2169SOL    HW1 7406   4.006   5.833   5.072  2.6917  3.4007  0.2079
 2169SOL    HW2 7407   3.982   5.792   5.228  0.5251 -1.9609 -1.3030
 2170SOL     OW 7408   1.116   3.734   6.673 -0.5724 -0.0003  0.4284
 2170SOL    HW1 7409   1.044   3.772   6.613  0.8477 -0.4655 -1.6809
 2170SOL    HW2 7410   1.198   3.790   6.666  0.1477 -0.9992  0.6708
 2171SOL     OW 7411   1.775   3.013   5.212  0.0814 -0.4881 -0.1014
 2171SOL    HW1 7412   1.820   3.102   5.225 -0.5183 -0.2688  0.5801
 2171SOL    HW2 7413   1.818   2.946   5.272 -0.7678 -0.1681  0.9069
 2172SOL     OW 7414   1.933   4.733   6.367 -0.0884  0.4974 -0.5652
 2172SOL    HW1 7415   1.946   4.649   6.313 -1.4532 -0.1708  0.1069
 2172SOL    HW2 7416   2.020   4.782   6.373  0.0842  0.7578 -3.5811
 2173SOL     OW 7417   4.993   5.966   1.481  0.1217 -0.2099 -0.0577
 2173SOL    HW1 7418   5.069   5.979   1.545  0.8369  0.3630 -0.9925
 2173SOL    HW2 7419   4.918   5.919   1.528  1.6936 -2.4214  0.4259
 2174SOL     OW 7420   4.736   1.176   5.121 -0.4740 -0.8947 -0.1604
 2174SOL    HW1 7421   4.657   1.154   5.178  0.4401  1.8657  2.4252
 2174SOL    HW2 7422   4.715   1.256   5.065 -0.0621 -1.2213 -0.7933
 2175SOL     OW 7423   2.428   6.782   2.233 -0.2796  0.1089 -0.8147
 2175SOL    HW1 7424   2.372   6.774   2.315 -0.1373 -2.4229 -0.9076
 2175SOL    HW2 7425   2.370   6.799   2.153 -0.7564 -0.9003 -0.6833
 2176SOL     OW 7426   6.060   5.522   6.899  0.8953 -0.1799  0.4200
 2176SOL    HW1 7427   6.145   5.501   6.948 -0.9467 -1.5339  3.3612
 2176SOL    HW2 7428   6.040   5.619   6.908  2.4524  0.3300 -1.0211
 2177SOL     OW 7429   3.937   5.394   2.856 -0.8098 -1.0904  0.5333
 2177SOL    HW1 7430   3.901   5.363   2.768 -0.0231 -1.0226  0.1829
 2177SOL    HW2 7431   3.863   5.437   2.908 -0.5334  2.3535 -1.6409
 2178SOL     OW 7432   2.786   6.583   2.537  0.9181 -0.6474  0.2235
 2178SOL    HW1 7433   2.867   6.641   2.537  1.3053 -1.0146 -3.0703
 2178SOL    HW2 7434   2.802   6.503   2.479 -1.9107 -0.4711 -0.9765
 2179SOL     OW 7435   0.868   5.543   0.396  0.1684  0.1845 -0.1605
 2179SOL    HW1 7436   0.945   5.599   0.366 -1.2945  0.6612 -3.5601
 2179SOL    HW2 7437   0.783   5.592   0.376 -1.1143 -2.2522 -1.0808
 2180SOL     OW 7438   5.755   4.791   1.502 -0.2016  0.6815  0.0410
 2180SOL    HW1 7439   5.757   4.691   1.509 -1.9146  0.5407 -0.9001
 2180SOL    HW2 7440   5.848   4.825   1.488  0.3456 -0.8348 -0.2142
 2181SOL     OW 7441   3.387   4.050   0.763 -0.0175  0.0786 -0.0056
 2181SOL    HW1 7442   3.322   4.122   0.735 -0.0534  0.0694  0.0553
 2181SOL    HW2 7443   3.462   4.091   0.814 -1.9652 -0.3342  3.4771
 2182SOL     OW 7444   6.748   1.985   0.957  0.2306 -0.0011  0.1705
 2182SOL    HW1 7445   6.664   1.976   1.010 -0.5106 -0.0838 -0.9900
 2182SOL    HW2 7446   6.793   1.896   0.951 -0.3777 -0.2756 -0.4498
 2183SOL     OW 7447   5.435   2.549   1.623  0.2053  0.0948  0.2627
 2183SOL    HW1 7448   5.357   2.566   1.684 -0.2234 -1.6153  0.2501
 2183SOL    HW2 7449   5.439   2.621   1.554 -1.5974  0.0402  0.0456
 2184SOL     OW 7450   6.172   5.549   1.686 -0.0239  0.3249 -0.4456
 2184SOL    HW1 7451   6.138   5.643   1.687 -0.9542 -0.0064 -0.3524
 2184SOL    HW2 7452   6.166   5.510   1.778 -2.2972 -0.7383 -0.9841
 2185SOL     OW 7453   6.718   1.734   5.023 -0.2083  0.3032  0.4128
 2185SOL    HW1 7454   6.698   1.819   5.072  2.4334  1.0063  0.4620
 2185SOL    HW2 7455   6.806   1.743   4.976  0.7057 -2.7846  1.3125
 2186SOL     OW 7456   0.236   3.786   0.185 -0.7222  0.0708  0.0333
 2186SOL    HW1 7457   0.142   3.777   0.217 -0.8769 -0.4912 -0.5504
 2186SOL    HW2 7458   0.257   3.711   0.122  0.5569 -0.6124  1.2136
 2187SOL     OW 7459   5.679   0.144   2.127  0.1256 -0.3686  0.2479
 2187SOL    HW1 7460   5.735   0.082   2.182 -1.1302 -0.0392  1.9665
 2187SOL    HW2 7461   5.583   0.116   2.132 -0.0953  0.0234 -1.3278
 2188SOL     OW 7462   4.709   1.246   4.445 -0.0712  0.4226 -0.0849
 2188SOL    HW1 7463   4.696   1.156   4.401 -1.3429 -0.8020  2.5785
 2188SOL    HW2 7464   4.689   1.238   4.542  1.6785  3.2248  0.5998
 2189SOL     OW 7465   3.590   3.582   1.382 -0.6522  0.1586 -0.1137
 2189SOL    HW1 7466   3.539   3.655   1.428 -1.2029  1.7779 -3.0875
 2189SOL    HW2 7467   3.527   3.508   1.358 -1.3213  1.2919 -2.0595
 2190SOL     OW 7468   5.007   6.498   1.695 -0.5149 -0.1022  0.4150
 2190SOL    HW1 7469   4.938   6.550   1.747 -0.3383  0.3191  0.2375
 2190SOL    HW2 7470   4.994   6.516   1.597 -0.2341 -0.1206  0.3753
 2191SOL     OW 7471   6.296   1.234   0.880 -0.2334 -0.4619  0.3192
 2191SOL    HW1 7472   6.394   1.253   0.890  0.1548 -0.7766 -2.3421
 2191SOL    HW2 7473   6.256   1.220   0.971  2.4008 -1.4435  1.4303
 2192SOL     OW 7474   4.821   5.344   6.533  0.0929 -0.2480  0.0107
 2192SOL    HW1 7475   4.806   5.294   6.618  0.9676 -1.2256 -0.3982
 2192SOL    HW2 7476   4.915   5.378   6.529  0.5223 -1.4827 -1.1933
 2193SOL     OW 7477   0.162   5.255   5.653  0.1548 -0.5890 -0.4880
 2193SOL    HW1 7478   0.108   5.308   5.587  0.5065 -0.4863 -0.6940
 2193SOL    HW2 7479   0.104   5.184   5.694 -0.2508 -0.2092 -0.3952
 2194SOL     OW 7480   6.393   0.710   4.099 -0.0469 -0.4866 -0.4675
 2194SOL    HW1 7481   6.321   0.667   4.155 -2.4101  1.6292 -1.6841
 2194SOL    HW2 7482   6.431   0.642   4.037 -2.2822 -1.3585 -0.9986
 2195SOL     OW 7483   3.412   4.364   0.661 -0.0892 -0.1658 -0.7248
 2195SOL    HW1 7484   3.405   4.399   0.755 -1.5358 -1.1067 -0.4467
 2195SOL    HW2 7485   3.321   4.365   0.619  0.4378 -0.3723 -1.8896
 2196SOL     OW 7486   4.275   2.152   0.480  0.2115 -0.1433  0.0543
 2196SOL    HW1 7487   4.277   2.111   0.571 -0.5660 -1.1116 -0.3453
 2196SOL    HW2 7488   4.327   2.237   0.481  0.7750 -0.4772  1.2325
 2197SOL     OW 7489   3.936   2.787   6.181 -0.0802 -0.6396  0.2307
 2197SOL    HW1 7490   3.848   2.798   6.228  1.1386  1.7376  2.2021
 2197SOL    HW2 7491   3.999   2.737   6.240  1.0658  1.2110  0.6479
 2198SOL     OW 7492   2.586   5.991   4.490  0.5879  0.3930  0.6482
 2198SOL    HW1 7493   2.526   6.019   4.415  0.7391  0.1823  0.4434
 2198SOL    HW2 7494   2.633   5.907   4.464 -0.3900 -0.4482  1.5299
 2199SOL     OW 7495   5.378   1.033   2.650 -0.3277 -0.0757 -0.0593
 2199SOL    HW1 7496   5.337   0.943   2.632 -1.3953  0.4681 -0.4727
 2199SOL    HW2 7497   5.446   1.025   2.722 -2.6575 -0.6942  2.2052
 2200SOL     OW 7498   4.924   5.860   2.823 -0.0484 -0.1114 -0.0918
 2200SOL    HW1 7499   4.988   5.924   2.781  0.5670 -0.4140  0.3609
 2200SOL    HW2 7500   4.841   5.909   2.852  0.1872  0.3768 -0.2338
 2201SOL     OW 7501   2.067   6.045   5.206  0.3712 -0.5945 -0.0948
 2201SOL    HW1 7502   2.160   6.066   5.176  0.0805  0.1015 -0.5340
 2201SOL    HW2 7503   2.008   6.034   5.127  0.4568 -3.0089  0.1016
 2202SOL     OW 7504   3.240   6.207   3.988  0.0122 -0.0813  0.0711
 2202SOL    HW1 7505   3.154   6.175   4.028  0.3216 -0.3461  0.5298
 2202SOL    HW2 7506   3.222   6.290   3.935 -0.3268  0.6008  1.2120
 2203SOL     OW 7507   4.415   5.016   4.143  0.2241  0.0326 -0.7320
 2203SOL    HW1 7508   4.460   5.100   4.174 -0.2441 -0.9826  3.3152
 2203SOL    HW2 7509   4.484   4.953   4.108  0.7245  1.5693 -2.7010
 2204SOL     OW 7510   3.089   4.377   6.250  0.4704 -0.4989  0.1788
 2204SOL    HW1 7511   3.007   4.359   6.196  0.9926  0.0571 -0.8282
 2204SOL    HW2 7512   3.164   4.320   6.215  0.4196 -1.3472  1.3843
 2205SOL     OW 7513   3.763   3.002   3.319 -0.3109  0.1817  0.1627
 2205SOL    HW1 7514   3.842   3.033   3.265 -1.9500  0.5544 -2.1792
 2205SOL    HW2 7515   3.714   2.932   3.267 -1.1640 -0.5564  1.8892
 2206SOL     OW 7516   3.574   5.800   2.621 -0.6115  0.2417  0.1176
 2206SOL    HW1 7517   3.655   5.844   2.660 -0.3539  0.4198 -0.6099
 2206SOL    HW2 7518   3.518   5.869   2.575 -1.2415  0.1395  0.7237
 2207SOL     OW 7519   3.551   3.992   2.548  0.0360  0.4590  0.3601
 2207SOL    HW1 7520   3.539   4.045   2.632 -1.6966  0.5799  0.0820
 2207SOL    HW2 7521   3.573   3.897   2.572  1.2390  0.8584  0.8939
 2208SOL     OW 7522   1.258   3.754   1.987 -0.1462 -0.4742 -0.1018
 2208SOL    HW1 7523   1.163   3.726   1.973  0.0977 -2.1610  1.3095
 2208SOL    HW2 7524   1.305   3.758   1.899 -1.6531  1.0658 -0.9038
 2209SOL     OW 7525   1.329   4.313   1.821  0.6764  0.6587 -0.1892
 2209SOL    HW1 7526   1.240   4.359   1.818  0.1382 -0.2957  0.6215
 2209SOL    HW2 7527   1.399   4.376   1.790 -0.5359  0.7069 -3.1122
 2210SOL     OW 7528   2.505   4.582   3.900  0.2032  0.2854  0.0262
 2210SOL    HW1 7529   2.460   4.551   3.816 -0.0423  0.4233  0.1071
 2210SOL    HW2 7530   2.516   4.505   3.962 -0.0706  0.2861  0.0743
 2211SOL     OW 7531   3.717   5.982   3.963 -0.5717 -0.7154 -0.0599
 2211SOL    HW1 7532   3.767   6.017   3.884 -1.1208  1.4769  0.4880
 2211SOL    HW2 7533   3.770   5.908   4.005  1.8824  0.9055 -0.0156
 2212SOL     OW 7534   4.296   6.209   4.037 -0.0921  0.1344  0.6070
 2212SOL    HW1 7535   4.365   6.189   4.107 -0.6897 -1.5778  0.7587
 2212SOL    HW2 7536   4.221   6.261   4.077  0.4063  0.7144  0.7999
 2213SOL     OW 7537   2.417   1.015   4.819 -0.4502 -0.3275  0.1642
 2213SOL    HW1 7538   2.363   1.047   4.740 -1.9398 -0.1778  1.2117
 2213SOL    HW2 7539   2.358   1.006   4.898  0.7439 -1.9177  0.9170
 2214SOL     OW 7540   2.868   2.267   5.946  0.4925 -0.5384  0.0003
 2214SOL    HW1 7541   2.891   2.281   5.850 -0.6499 -0.1977 -0.2397
 2214SOL    HW2 7542   2.916   2.187   5.981  0.4700 -1.0056 -1.0186
 2215SOL     OW 7543   3.134   5.379   1.589  0.0588 -0.0022  0.8231
 2215SOL    HW1 7544   3.127   5.302   1.526  0.1184  0.8559 -0.2838
 2215SOL    HW2 7545   3.190   5.353   1.667 -1.7298 -1.7561  1.6009
 2216SOL     OW 7546   2.215   1.445   3.674  0.3486 -0.5183 -0.3465
 2216SOL    HW1 7547   2.147   1.440   3.747  0.4003 -1.9669 -0.3604
 2216SOL    HW2 7548   2.304   1.415   3.710  0.8916  0.8894 -0.4533
 2217SOL     OW 7549   5.527   5.659   0.483 -0.0275 -0.0227 -0.4387
 2217SOL    HW1 7550   5.481   5.747   0.492 -0.6230 -0.2449 -1.1943
 2217SOL    HW2 7551   5.597   5.666   0.411 -1.2645 -0.6157 -1.7546
 2218SOL     OW 7552   5.919   6.305   0.917  0.2798 -0.1993  0.1598
 2218SOL    HW1 7553   5.879   6.395   0.906 -0.8952 -0.7539 -0.2414
 2218SOL    HW2 7554   6.013   6.306   0.883 -0.0976  0.5909 -0.9111
 2219SOL     OW 7555   0.909   5.687   1.239  0.1783 -0.2057  0.1548
 2219SOL    HW1 7556   0.970   5.635   1.179  1.5818 -0.0459  1.3926
 2219SOL    HW2 7557   0.956   5.707   1.325 -1.7279 -0.3177  1.2823
 2220SOL     OW 7558   1.542   5.823   5.305 -0.0490  0.5410  1.0065
 2220SOL    HW1 7559   1.578   5.876   5.382  1.4943  1.3215 -0.1793
 2220SOL    HW2 7560   1.618   5.793   5.247 -0.9438 -2.3241  1.1650
 2221SOL     OW 7561   6.067   6.302   1.651  0.1576 -0.4225  0.1030
 2221SOL    HW1 7562   6.071   6.400   1.633 -0.6828 -0.4461 -0.2501
 2221SOL    HW2 7563   6.133   6.254   1.593 -2.6114 -0.5192 -3.2546
 2222SOL     OW 7564   1.642   2.981   0.334  0.5847  0.2166 -0.1686
 2222SOL    HW1 7565   1.551   3.020   0.344  1.0361  0.9871  1.1832
 2222SOL    HW2 7566   1.651   2.901   0.393 -0.3923 -2.2191 -3.0421
 2223SOL     OW 7567   5.621   5.215   3.079 -0.3818  0.3415  0.5819
 2223SOL    HW1 7568   5.696   5.218   3.145 -0.5995  1.7904  0.7932
 2223SOL    HW2 7569   5.544   5.267   3.114 -0.2700  1.7129 -1.0727
 2224SOL     OW 7570   2.740   5.571   3.335  0.2420  0.7452  0.5772
 2224SOL    HW1 7571   2.738   5.575   3.435 -1.3309 -0.9785  0.6613
 2224SOL    HW2 7572   2.663   5.623   3.298 -0.6412 -0.6360  0.3999
 2225SOL     OW 7573   4.474   3.614   0.474 -0.6027  0.3757 -0.1614
 2225SOL    HW1 7574   4.501   3.518   0.463 -0.9786  0.2726 -0.1818
 2225SOL    HW2 7575   4.555   3.672   0.465 -0.7431  0.2920 -2.9945
 2226SOL     OW 7576   3.120   5.526   3.533 -0.5379 -0.2148  0.2913
 2226SOL    HW1 7577   3.213   5.501   3.508 -0.0923 -0.1084  1.7524
 2226SOL    HW2 7578   3.119   5.614   3.580 -1.4968  0.2284 -0.5231
 2227SOL     OW 7579   2.750   2.208   0.149 -0.0846  0.1892 -0.0498
 2227SOL    HW1 7580   2.668   2.194   0.094  1.1692  1.0492 -2.2663
 2227SOL    HW2 7581   2.723   2.236   0.242 -2.2768 -1.9393  0.0564
 2228SOL     OW 7582   1.864   1.447   3.275  0.0240  0.8658 -0.1403
 2228SOL    HW1 7583   1.957   1.482   3.260  0.1997  0.2529 -0.5001
 2228SOL    HW2 7584   1.841   1.383   3.203 -0.0730 -0.2099  0.8234
 2229SOL     OW 7585   4.470   6.327   6.736  1.0024 -0.5916  0.1959
 2229SOL    HW1 7586   4.482   6.228   6.731  0.0123 -0.7470  0.6944
 2229SOL    HW2 7587   4.375   6.349   6.760  1.4522  0.4442  1.1619
 2230SOL     OW 7588   5.819   3.435   1.927  0.6176 -0.4192 -0.1996
 2230SOL    HW1 7589   5.794   3.491   1.848  1.1171 -1.2498 -0.9609
 2230SOL    HW2 7590   5.859   3.494   1.998 -1.3726  0.6049  0.1663
 2231SOL     OW 7591   6.280   4.261   4.258  0.3712 -0.6207  0.1772
 2231SOL    HW1 7592   6.255   4.303   4.345 -1.6444 -1.0517 -0.1483
 2231SOL    HW2 7593   6.198   4.227   4.212  1.4002 -0.5709 -1.8234
 2232SOL     OW 7594   2.242   1.581   5.950 -0.1925  0.4000  0.2367
 2232SOL    HW1 7595   2.287   1.637   5.880 -4.3050  3.1172 -0.6066
 2232SOL    HW2 7596   2.224   1.637   6.031  0.0032 -1.2381  1.4474
 2233SOL     OW 7597   4.434   1.781   6.950  0.6017 -0.0825 -0.3666
 2233SOL    HW1 7598   4.379   1.700   6.970  2.2133 -0.6331  2.1843
 2233SOL    HW2 7599   4.503   1.758   6.882  0.2713 -0.4940 -0.5711
 2234SOL     OW 7600   5.911   4.423   4.176  0.2899 -0.0305 -0.1418
 2234SOL    HW1 7601   5.836   4.485   4.153 -0.0119  0.0304  0.9665
 2234SOL    HW2 7602   5.955   4.452   4.261 -1.3056 -2.5626  1.6882
 2235SOL     OW 7603   6.216   6.267   6.488 -0.0653 -0.1697  0.2435
 2235SOL    HW1 7604   6.172   6.189   6.532  0.4150 -0.2353  0.6181
 2235SOL    HW2 7605   6.254   6.327   6.558  1.0957 -0.5020 -0.0750
 2236SOL     OW 7606   0.141   3.512   0.586 -0.2124 -0.3129  0.1778
 2236SOL    HW1 7607   0.145   3.464   0.499 -2.5287 -1.2948  0.5434
 2236SOL    HW2 7608   0.221   3.487   0.641  0.9679 -0.1466 -1.3836
 2237SOL     OW 7609   0.601   6.337   2.148  0.0645 -0.0347 -0.1808
 2237SOL    HW1 7610   0.648   6.260   2.191 -0.4382 -1.8110 -2.6040
 2237SOL    HW2 7611   0.585   6.409   2.216 -0.2202 -2.3819  2.4025
 2238SOL     OW 7612   4.287   3.037   0.383 -0.2745  0.6137  0.9486
 2238SOL    HW1 7613   4.246   2.948   0.360 -0.8484  0.9336  0.7254
 2238SOL    HW2 7614   4.230   3.110   0.346 -0.9956  1.1439  2.9733
 2239SOL     OW 7615   6.557   5.344   2.239 -0.2934  0.1919  0.3478
 2239SOL    HW1 7616   6.518   5.380   2.154 -1.2891 -0.6248  0.4411
 2239SOL    HW2 7617   6.643   5.296   2.219 -0.3203  0.3409 -0.1338
 2240SOL     OW 7618   6.317   1.754   0.477 -0.6640  0.0900  0.0900
 2240SOL    HW1 7619   6.289   1.698   0.555  0.0950  0.2448  0.4813
 2240SOL    HW2 7620   6.257   1.735   0.399  0.6219 -2.5732 -0.3694
 2241SOL     OW 7621   1.820   1.335   4.452  0.2349  0.5852  0.0764
 2241SOL    HW1 7622   1.803   1.400   4.378  0.2379  1.2838  0.6848
 2241SOL    HW2 7623   1.828   1.242   4.414  0.0998  0.9195 -0.7762
 2242SOL     OW 7624   5.927   2.411   4.888  0.2801 -0.1312  0.2898
 2242SOL    HW1 7625   5.868   2.486   4.918  0.3745 -0.1805  0.6063
 2242SOL    HW2 7626   5.873   2.342   4.841  0.3126  0.5151 -0.7195
 2243SOL     OW 7627   4.673   6.772   3.785 -0.1161  0.2940 -0.2949
 2243SOL    HW1 7628   4.649   6.675   3.793 -0.6540  0.4846  0.5894
 2243SOL    HW2 7629   4.684   6.796   3.689 -0.6664 -0.4808 -0.5623
 2244SOL     OW 7630   2.664   0.966   3.568  0.2261  0.1584 -0.0889
 2244SOL    HW1 7631   2.726   1.015   3.630  2.4405 -2.7134  0.1787
 2244SOL    HW2 7632   2.620   0.891   3.617 -0.5095 -0.1936 -1.2393
 2245SOL     OW 7633   2.605   6.070   1.663 -0.1712  0.2520 -0.1270
 2245SOL    HW1 7634   2.610   6.121   1.578  0.6674  0.9359  0.3192
 2245SOL    HW2 7635   2.509   6.048   1.683 -0.4402  0.6963 -0.8773
 2246SOL     OW 7636   6.278   2.400   1.612  0.1333 -0.3709 -0.2753
 2246SOL    HW1 7637   6.327   2.441   1.689  1.5716  0.1682 -1.4306
 2246SOL    HW2 7638   6.233   2.471   1.559 -0.8634 -0.7431  0.0546
 2247SOL     OW 7639   5.741   1.593   6.912  0.0868  0.3519  0.3241
 2247SOL    HW1 7640   5.815   1.527   6.923  0.5772  0.8763  0.1745
 2247SOL    HW2 7641   5.768   1.664   6.847 -1.2401 -0.4756 -1.2087
 2248SOL     OW 7642   5.894   5.583   1.987 -0.2083 -0.5801  0.5496
 2248SOL    HW1 7643   5.868   5.555   1.895  0.6396  3.1775 -1.0084
 2248SOL    HW2 7644   5.833   5.656   2.018  0.9109 -0.2450  2.0506
 2249SOL     OW 7645   3.169   0.324   3.708  0.0853  0.1554 -0.0935
 2249SOL    HW1 7646   3.217   0.371   3.633 -0.9841  1.6300  0.0947
 2249SOL    HW2 7647   3.080   0.293   3.676  0.4357 -1.0063  0.0356
 2250SOL     OW 7648   0.385   5.243   2.148  0.3286  0.6859 -0.3185
 2250SOL    HW1 7649   0.308   5.237   2.085  1.0781  0.9085 -1.2920
 2250SOL    HW2 7650   0.420   5.151   2.167  1.1115  0.7020 -1.5528
 2251SOL     OW 7651   0.731   0.281   1.387  0.6404 -0.0803 -0.3119
 2251SOL    HW1 7652   0.709   0.187   1.413 -0.7921  0.5920  1.1150
 2251SOL    HW2 7653   0.777   0.327   1.464  0.2589  0.7116 -0.5507
 2252SOL     OW 7654   4.480   1.423   3.857  0.3253 -0.5001  0.4828
 2252SOL    HW1 7655   4.529   1.370   3.788  0.2757 -0.0347  0.0791
 2252SOL    HW2 7656   4.534   1.505   3.880 -0.7666  0.6336 -0.8325
 2253SOL     OW 7657   4.198   5.019   1.798  0.5670 -0.1970  0.2173
 2253SOL    HW1 7658   4.171   5.092   1.735  0.1686 -0.5873 -0.0672
 2253SOL    HW2 7659   4.274   4.968   1.758  0.2598 -0.4964  0.0142
 2254SOL     OW 7660   1.276   0.763   3.310  0.3538  0.2008  0.9555
 2254SOL    HW1 7661   1.256   0.823   3.232  2.1678 -0.8245 -0.3723
 2254SOL    HW2 7662   1.329   0.813   3.378 -0.3369  0.7967  1.0776
 2255SOL     OW 7663   6.666   0.826   1.818  0.4305 -0.3002 -0.3690
 2255SOL    HW1 7664   6.589   0.846   1.757 -0.0913  2.5751  1.0166
 2255SOL    HW2 7665   6.635   0.765   1.891 -0.2809 -0.0166 -0.4183
 2256SOL     OW 7666   3.259   6.983   0.246 -0.5285  0.4982  0.1000
 2256SOL    HW1 7667   3.181   6.922   0.263  0.6153 -0.7824  0.9814
 2256SOL    HW2 7668   3.289   7.025   0.332  0.6720 -0.2250  0.0691
 2257SOL     OW 7669   5.793   3.428   3.380 -0.5297  0.0820  0.1822
 2257SOL    HW1 7670   5.731   3.506   3.370 -0.6355  0.1563  1.3252
 2257SOL    HW2 7671   5.867   3.451   3.444  1.4891  0.4611 -2.1418
 2258SOL     OW 7672   6.568   6.346   1.232 -0.5013 -0.6007 -0.3492
 2258SOL    HW1 7673   6.643   6.284   1.208  0.0853 -0.4238  0.9525
 2258SOL    HW2 7674   6.482   6.310   1.196  0.3334 -0.1502 -3.0395
 2259SOL     OW 7675   0.816   1.059   1.427 -0.3211 -0.1660  0.3014
 2259SOL    HW1 7676   0.830   0.976   1.482 -0.6603 -1.2812 -1.2348
 2259SOL    HW2 7677   0.729   1.053   1.379 -0.5578  1.3077  0.4854
 2260SOL     OW 7678   6.007   0.549   0.315 -0.0522  0.3089  0.5455
 2260SOL    HW1 7679   6.049   0.468   0.274 -2.5667 -0.6555 -0.3196
 2260SOL    HW2 7680   6.043   0.561   0.407  3.1800  0.5022 -0.5997
 2261SOL     OW 7681   0.172   6.271   2.163  0.3057 -0.0620  0.5766
 2261SOL    HW1 7682   0.215   6.318   2.086  0.4959 -0.9145  0.1567
 2261SOL    HW2 7683   0.181   6.172   2.152  0.1851 -0.2029  1.6084
 2262SOL     OW 7684   5.491   0.243   6.031 -0.2411 -0.0155 -0.4159
 2262SOL    HW1 7685   5.439   0.281   6.108  0.8801 -1.0033  0.8931
 2262SOL    HW2 7686   5.456   0.153   6.008  0.3248 -0.3234 -0.0981
 2263SOL     OW 7687   0.585   3.927   3.991 -0.6904  0.0443  0.0167
 2263SOL    HW1 7688   0.665   3.867   3.984 -0.8000  0.0020 -1.1302
 2263SOL    HW2 7689   0.588   3.977   4.077  1.9506  1.9566 -1.0397
 2264SOL     OW 7690   5.994   5.990   6.028  0.0888  0.5952 -0.5107
 2264SOL    HW1 7691   6.018   5.902   6.067 -0.4608 -0.2273 -1.9516
 2264SOL    HW2 7692   6.013   5.990   5.930 -1.3936  1.5195 -0.8314
 2265SOL     OW 7693   4.947   2.898   3.623  0.5471  0.2038  0.3399
 2265SOL    HW1 7694   4.986   2.957   3.553 -0.7027  1.0804  0.3576
 2265SOL    HW2 7695   4.906   2.954   3.695 -3.0240 -0.5547 -0.9075
 2266SOL     OW 7696   0.933   0.715   2.994 -0.0444 -0.5375 -0.0177
 2266SOL    HW1 7697   0.993   0.696   3.072  0.7130  1.1565 -0.1400
 2266SOL    HW2 7698   0.867   0.786   3.019  0.6187  0.4892 -1.0760
 2267SOL     OW 7699   6.709   6.449   2.302 -0.1925  0.1963  0.2091
 2267SOL    HW1 7700   6.650   6.399   2.366  0.8982  0.6544  1.6159
 2267SOL    HW2 7701   6.752   6.525   2.350  0.9057  0.3565 -1.0038
 2268SOL     OW 7702   3.425   2.720   6.629  0.0074  0.1115 -0.0115
 2268SOL    HW1 7703   3.450   2.814   6.607  0.4449 -0.0235 -0.1009
 2268SOL    HW2 7704   3.409   2.712   6.728  0.8330  0.0875  0.1254
 2269SOL     OW 7705   6.252   5.985   0.476  0.1174 -0.0405 -0.0500
 2269SOL    HW1 7706   6.190   5.932   0.534  0.2501  1.1223  1.2014
 2269SOL    HW2 7707   6.226   5.972   0.380  0.4423 -2.7224  0.1283
 2270SOL     OW 7708   0.087   2.810   4.180  0.7437  0.3456 -0.4755
 2270SOL    HW1 7709   0.067   2.801   4.083  0.7858 -0.4835 -0.4195
 2270SOL    HW2 7710   0.006   2.783   4.233  0.1691  2.3277 -0.2722
 2271SOL     OW 7711   0.691   6.767   5.650 -0.0639  0.5625 -0.1822
 2271SOL    HW1 7712   0.610   6.787   5.595  1.4252  1.8758 -2.0318
 2271SOL    HW2 7713   0.698   6.832   5.725 -0.3041  0.9335 -0.4796
 2272SOL     OW 7714   2.738   2.308   3.478 -0.6153  0.0095  0.9391
 2272SOL    HW1 7715   2.684   2.335   3.399 -0.2544  3.3720  1.7039
 2272SOL    HW2 7716   2.817   2.255   3.448 -1.3290 -0.1584 -0.7514
 2273SOL     OW 7717   5.296   0.640   4.591 -0.0643 -0.7894  0.2724
 2273SOL    HW1 7718   5.349   0.714   4.552  1.9869 -1.7971  1.0125
 2273SOL    HW2 7719   5.268   0.576   4.519  0.0306 -0.4339 -0.0783
 2274SOL     OW 7720   2.568   5.633   0.282 -0.0037 -0.0547  0.1379
 2274SOL    HW1 7721   2.623   5.641   0.365 -0.6742  0.8874  0.5131
 2274SOL    HW2 7722   2.563   5.537   0.254 -0.0833 -0.4367  1.4150
 2275SOL     OW 7723   2.545   6.892   5.345  0.3247  0.3224 -0.0779
 2275SOL    HW1 7724   2.586   6.855   5.262 -0.4819  1.4032 -1.0064
 2275SOL    HW2 7725   2.487   6.971   5.321  0.4121  0.9317  1.5626
 2276SOL     OW 7726   5.273   2.566   2.130  0.2157 -0.1494 -0.9351
 2276SOL    HW1 7727   5.329   2.564   2.213  0.1842 -0.5067 -0.9179
 2276SOL    HW2 7728   5.225   2.653   2.123 -1.0815 -0.7157  0.2976
 2277SOL     OW 7729   2.462   4.993   0.947  0.4424  0.3716 -0.2023
 2277SOL    HW1 7730   2.524   5.071   0.947  2.9955 -1.5191  0.6645
 2277SOL    HW2 7731   2.435   4.973   0.853  3.4118 -0.3304 -1.0304
 2278SOL     OW 7732   4.819   4.403   1.881 -0.1430  0.3633 -0.3041
 2278SOL    HW1 7733   4.800   4.379   1.976  2.2528  0.6570  0.3029
 2278SOL    HW2 7734   4.746   4.368   1.823 -1.2071 -0.6086  1.5312
 2279SOL     OW 7735   1.158   1.815   3.474 -0.1469 -0.3540  0.1491
 2279SOL    HW1 7736   1.219   1.738   3.491 -0.5486 -1.1102 -1.5613
 2279SOL    HW2 7737   1.171   1.884   3.545 -1.1304 -2.7703  2.9062
 2280SOL     OW 7738   2.848   1.457   5.759 -0.2833 -0.0719 -0.4083
 2280SOL    HW1 7739   2.919   1.528   5.758 -0.2138 -0.0504  1.9373
 2280SOL    HW2 7740   2.867   1.390   5.687  2.8748 -0.7529  0.9077
 2281SOL     OW 7741   1.048   1.197   6.785  0.1041  0.1845  0.1375
 2281SOL    HW1 7742   1.129   1.249   6.812 -0.7418  1.1716  0.8269
 2281SOL    HW2 7743   1.037   1.118   6.845  0.8474 -0.2588 -0.2990
 2282SOL     OW 7744   3.997   6.449   0.267  0.3233  0.4906 -0.1502
 2282SOL    HW1 7745   3.924   6.397   0.311  1.4540 -0.3724  0.7820
 2282SOL    HW2 7746   3.979   6.547   0.278  0.0800  0.3023  1.4283
 2283SOL     OW 7747   2.849   0.753   1.324 -0.0414  0.6873 -1.2712
 2283SOL    HW1 7748   2.827   0.787   1.233  0.6235  0.5136 -1.5029
 2283SOL    HW2 7749   2.949   0.749   1.335 -0.0963  1.8172 -0.1223
 2284SOL     OW 7750   3.569   6.535   6.351 -0.1673 -0.1747  0.2455
 2284SOL    HW1 7751   3.543   6.609   6.290  0.7174  0.7195  0.9302
 2284SOL    HW2 7752   3.667   6.517   6.343 -0.2242 -0.7071  0.6835
 2285SOL     OW 7753   3.165   6.756   4.484  0.1579 -0.4023 -0.1770
 2285SOL    HW1 7754   3.129   6.770   4.392  0.9315 -0.5769 -0.5089
 2285SOL    HW2 7755   3.264   6.742   4.480  0.6858  2.3793  0.8994
 2286SOL     OW 7756   4.858   4.894   6.086  0.2436 -0.0124  0.1299
 2286SOL    HW1 7757   4.776   4.875   6.031  1.0088 -1.1891 -0.6521
 2286SOL    HW2 7758   4.832   4.947   6.166 -1.0552  0.8941 -0.8499
 2287SOL     OW 7759   1.487   6.580   1.308 -0.2887  0.1533  0.1209
 2287SOL    HW1 7760   1.532   6.502   1.263 -1.7886 -1.2820  1.0216
 2287SOL    HW2 7761   1.460   6.647   1.238 -1.4902 -1.4519 -1.0324
 2288SOL     OW 7762   5.421   1.316   1.101  0.6811 -0.2384  0.0462
 2288SOL    HW1 7763   5.428   1.270   1.189  1.6473  0.6203  0.4390
 2288SOL    HW2 7764   5.389   1.410   1.114 -0.5015 -0.5177 -0.6643
 2289SOL     OW 7765   6.272   1.417   0.450 -0.0336  0.0804 -0.7252
 2289SOL    HW1 7766   6.176   1.391   0.461  0.3652 -0.9421  0.5043
 2289SOL    HW2 7767   6.299   1.404   0.355 -0.5350 -1.7006 -0.6500
 2290SOL     OW 7768   3.561   3.379   5.596 -0.6421 -0.3269 -0.2539
 2290SOL    HW1 7769   3.650   3.342   5.623  0.3467  0.1781 -2.6495
 2290SOL    HW2 7770   3.497   3.303   5.581  0.6540 -1.0461 -2.6805
 2291SOL     OW 7771   4.865   6.074   0.773  0.5698  0.4070 -0.5432
 2291SOL    HW1 7772   4.891   5.992   0.723 -0.4629  0.0824 -0.5590
 2291SOL    HW2 7773   4.911   6.075   0.862  0.6046 -0.1726 -0.5564
 2292SOL     OW 7774   6.232   2.238   5.737 -0.3511 -0.1589  0.0687
 2292SOL    HW1 7775   6.231   2.223   5.835  1.3598  1.7042  0.4337
 2292SOL    HW2 7776   6.152   2.292   5.710 -0.5288 -0.1978  0.5248
 2293SOL     OW 7777   4.320   4.905   3.457  0.2344  0.4282 -0.2157
 2293SOL    HW1 7778   4.393   4.848   3.495  0.3219 -0.4669 -1.6441
 2293SOL    HW2 7779   4.261   4.849   3.398 -0.5771  1.5059 -0.4653
 2294SOL     OW 7780   4.252   3.722   0.595  0.1449 -0.4817 -0.0441
 2294SOL    HW1 7781   4.290   3.701   0.685  1.2368 -0.5271 -0.4958
 2294SOL    HW2 7782   4.313   3.686   0.524 -0.3445  0.1531 -0.8066
 2295SOL     OW 7783   1.092   1.727   2.378 -0.5935  0.4628  0.2512
 2295SOL    HW1 7784   1.088   1.639   2.425  0.0064 -0.1261 -0.7845
 2295SOL    HW2 7785   1.126   1.715   2.285 -0.2396  1.8277  0.1739
 2296SOL     OW 7786   2.651   6.303   2.098  0.0540  0.2690  0.4273
 2296SOL    HW1 7787   2.694   6.384   2.059 -2.0012  0.4567 -1.6465
 2296SOL    HW2 7788   2.589   6.330   2.173 -1.9008  0.9205 -1.3315
 2297SOL     OW 7789   3.698   1.180   4.903 -0.0850  0.7468  0.0380
 2297SOL    HW1 7790   3.606   1.141   4.904  0.5979 -1.0208 -1.3157
 2297SOL    HW2 7791   3.751   1.141   4.978  0.9220 -1.9837 -1.9265
 2298SOL     OW 7792   3.789   2.822   0.572 -0.0560 -0.3474  0.4628
 2298SOL    HW1 7793   3.855   2.801   0.644  1.6061  1.0459 -0.5726
 2298SOL    HW2 7794   3.807   2.764   0.492 -0.1418 -0.0187  0.2044
 2299SOL     OW 7795   0.889   5.967   3.248 -0.2678 -0.0531  0.5008
 2299SOL    HW1 7796   0.821   6.010   3.189  0.5870  0.3997 -0.1728
 2299SOL    HW2 7797   0.858   5.876   3.274 -1.0826  0.1080  0.1186
 2300SOL     OW 7798   0.077   3.586   5.499  0.4644  0.3479 -0.1912
 2300SOL    HW1 7799   0.084   3.680   5.466 -1.6176  0.7901  0.4764
 2300SOL    HW2 7800   0.102   3.523   5.426 -0.1058  1.3729 -1.3094
 2301SOL     OW 7801   6.163   3.296   1.555  0.1220 -0.3312 -0.4368
 2301SOL    HW1 7802   6.097   3.232   1.515 -1.0116  1.2314 -1.1749
 2301SOL    HW2 7803   6.124   3.336   1.638  0.1568  0.5511 -0.8404
 2302SOL     OW 7804   2.190   4.907   3.809  0.3844  0.3393 -0.0027
 2302SOL    HW1 7805   2.209   4.997   3.770 -0.4929  0.6990  0.3788
 2302SOL    HW2 7806   2.269   4.876   3.862  0.3162  1.3580  0.7266
 2303SOL     OW 7807   5.555   4.590   4.862 -0.6393  0.2232  0.8927
 2303SOL    HW1 7808   5.511   4.527   4.926  0.1603 -2.6788 -1.2170
 2303SOL    HW2 7809   5.489   4.616   4.791 -0.4475  0.2257  0.7147
 2304SOL     OW 7810   1.938   6.263   0.964 -0.3568  0.3633  0.5374
 2304SOL    HW1 7811   1.992   6.205   0.903  0.1066  1.5295 -0.1704
 2304SOL    HW2 7812   1.905   6.343   0.915 -0.4680  1.0309  1.6712
 2305SOL     OW 7813   3.641   5.010   5.408 -0.1985  0.5421 -0.2466
 2305SOL    HW1 7814   3.653   5.029   5.505 -1.9491  1.4721 -0.1842
 2305SOL    HW2 7815   3.649   5.095   5.356  2.0164 -0.1137 -1.1201
 2306SOL     OW 7816   0.854   2.149   1.871  0.5114 -0.3823  0.3472
 2306SOL    HW1 7817   0.876   2.114   1.780 -1.1166 -2.9758  0.8575
 2306SOL    HW2 7818   0.882   2.245   1.877 -0.1944  0.1812 -3.1895
 2307SOL     OW 7819   0.174   2.995   5.731  0.4947 -0.1962 -0.8231
 2307SOL    HW1 7820   0.175   2.897   5.713  1.9381 -0.5078  0.7054
 2307SOL    HW2 7821   0.174   3.010   5.830  0.4900  1.3533 -1.0424
 2308SOL     OW 7822   0.318   0.158   6.316  0.2907 -0.3420  0.2312
 2308SOL    HW1 7823   0.242   0.181   6.377  0.8425  0.1157  0.7634
 2308SOL    HW2 7824   0.329   0.059   6.314 -0.1269 -0.3967  0.3831
 2309SOL     OW 7825   4.371   1.108   5.019  0.0601 -0.3083  0.6365
 2309SOL    HW1 7826   4.399   1.034   5.080  0.3426  0.4395  1.4372
 2309SOL    HW2 7827   4.285   1.083   4.973  0.0627 -1.0515  1.0257
 2310SOL     OW 7828   6.122   6.491   4.598  0.4797 -0.1725  0.1378
 2310SOL    HW1 7829   6.110   6.531   4.507 -1.9650 -1.5230 -0.2127
 2310SOL    HW2 7830   6.172   6.405   4.590  0.6257 -0.0876  0.1302
 2311SOL     OW 7831   5.017   4.304   2.990  0.2833 -0.2892 -0.0910
 2311SOL    HW1 7832   4.937   4.251   3.018  1.3460 -2.3334 -0.6473
 2311SOL    HW2 7833   5.063   4.341   3.070 -0.8864  0.4138  0.2699
 2312SOL     OW 7834   1.938   3.432   1.970 -0.5738 -0.1709  0.0843
 2312SOL    HW1 7835   1.897   3.464   2.055 -1.5008 -2.1345  0.4373
 2312SOL    HW2 7836   2.035   3.414   1.985 -0.5555  0.2465  0.4920
 2313SOL     OW 7837   2.951   3.294   2.809 -0.1642 -0.0958 -0.0135
 2313SOL    HW1 7838   2.961   3.347   2.725  1.1064  0.5255  0.5072
 2313SOL    HW2 7839   3.004   3.210   2.801 -1.9993 -1.2421 -0.7508
 2314SOL     OW 7840   6.191   0.942   2.319 -0.6407 -0.0407  0.1361
 2314SOL    HW1 7841   6.242   1.027   2.329  0.3710 -0.7271  0.9708
 2314SOL    HW2 7842   6.129   0.930   2.397 -1.1413  0.1574 -0.2239
 2315SOL     OW 7843   3.414   6.090   1.653 -0.6281  0.5722 -0.3570
 2315SOL    HW1 7844   3.507   6.054   1.644 -1.2449 -2.7130  3.4593
 2315SOL    HW2 7845   3.416   6.179   1.698  0.6496  1.0258 -1.2743
 2316SOL     OW 7846   0.669   2.095   1.079  0.3234 -0.0498  0.2091
 2316SOL    HW1 7847   0.731   2.053   1.013  2.5604  0.2388  2.0365
 2316SOL    HW2 7848   0.625   2.023   1.133 -1.3181 -0.2724 -1.3172
 2317SOL     OW 7849   6.667   2.704   1.790 -0.5503  0.2537  0.1478
 2317SOL    HW1 7850   6.679   2.800   1.815  0.3431 -0.0644  0.9834
 2317SOL    HW2 7851   6.747   2.671   1.740 -2.0614  0.7191 -2.8212
 2318SOL     OW 7852   3.564   0.557   6.073  0.5295 -0.3705  0.3350
 2318SOL    HW1 7853   3.472   0.549   6.034  0.1799 -1.2040  1.2927
 2318SOL    HW2 7854   3.573   0.495   6.151  1.4856  0.6469  1.0675
 2319SOL     OW 7855   2.253   6.852   2.032 -0.1900  0.1053 -0.2570
 2319SOL    HW1 7856   2.220   6.931   2.083 -0.2782 -0.2856  0.3029
 2319SOL    HW2 7857   2.181   6.820   1.970 -0.1207  0.5159 -0.5554
 2320SOL     OW 7858   2.325   3.648   6.417 -0.1066 -0.0011  0.2583
 2320SOL    HW1 7859   2.374   3.578   6.365  0.8585 -0.8919  2.2615
 2320SOL    HW2 7860   2.241   3.672   6.369  2.0207  1.3291 -3.1524
 2321SOL     OW 7861   5.859   0.755   5.625  1.0896  0.0985 -0.1218
 2321SOL    HW1 7862   5.906   0.838   5.596 -0.2679  0.8917 -0.1373
 2321SOL    HW2 7863   5.808   0.773   5.709 -0.2823 -0.3345 -0.8399
 2322SOL     OW 7864   5.907   0.942   5.224  0.5157  0.2219  0.1796
 2322SOL    HW1 7865   5.879   0.943   5.320 -1.1031 -1.6510 -0.2009
 2322SOL    HW2 7866   5.996   0.898   5.215 -0.0201 -1.0103  0.7016
 2323SOL     OW 7867   6.299   5.873   2.088  0.3286 -0.2982  0.4114
 2323SOL    HW1 7868   6.330   5.967   2.078  0.5709 -0.0095  3.1078
 2323SOL    HW2 7869   6.200   5.871   2.096  0.1436 -0.5215 -1.3753
 2324SOL     OW 7870   1.674   3.469   1.540  0.5389 -0.3477  0.5572
 2324SOL    HW1 7871   1.626   3.538   1.486 -0.7511 -0.3376  1.6688
 2324SOL    HW2 7872   1.664   3.380   1.496 -0.9369 -0.4240  0.9912
 2325SOL     OW 7873   0.191   5.399   0.695  0.1667  0.5088  0.0514
 2325SOL    HW1 7874   0.108   5.432   0.652  0.0716  0.6431  0.3373
 2325SOL    HW2 7875   0.193   5.299   0.691  0.8733  0.5693 -1.5891
 2326SOL     OW 7876   0.958   4.348   5.719  0.8607 -0.0148  0.2691
 2326SOL    HW1 7877   0.903   4.429   5.699  0.2257 -0.4650  0.1234
 2326SOL    HW2 7878   1.053   4.366   5.696  0.8349  0.8973  0.8397
 2327SOL     OW 7879   1.914   4.437   0.199  0.1930  0.4595 -0.2598
 2327SOL    HW1 7880   1.908   4.463   0.295 -0.2294  0.1501 -0.1999
 2327SOL    HW2 7881   1.981   4.496   0.152  3.0561 -1.5772  0.9595
 2328SOL     OW 7882   5.439   4.732   3.893  0.4901 -0.4273 -0.2369
 2328SOL    HW1 7883   5.429   4.832   3.890  1.1427 -0.3152  0.7975
 2328SOL    HW2 7884   5.361   4.692   3.941  0.6961 -0.3319  0.1761
 2329SOL     OW 7885   4.405   3.719   5.298 -0.2877  0.4482 -0.3530
 2329SOL    HW1 7886   4.343   3.662   5.244 -0.8165  1.8694 -1.3107
 2329SOL    HW2 7887   4.496   3.679   5.299 -1.0955 -1.4577  0.7118
 2330SOL     OW 7888   4.966   2.971   6.790 -0.2759  0.1818  0.0483
 2330SOL    HW1 7889   4.888   2.953   6.729  0.3842 -2.6755 -0.0928
 2330SOL    HW2 7890   5.047   2.993   6.735 -0.2811  0.1620  0.0321
 2331SOL     OW 7891   3.206   4.681   5.574 -0.4762  0.0024  0.0554
 2331SOL    HW1 7892   3.117   4.643   5.548 -0.7987 -0.5317  1.7941
 2331SOL    HW2 7893   3.201   4.780   5.579 -1.1707 -0.0564  0.7286
 2332SOL     OW 7894   1.054   3.271   4.088  0.9518  0.0311 -0.0149
 2332SOL    HW1 7895   1.005   3.185   4.101 -1.5076  1.4826  0.9536
 2332SOL    HW2 7896   1.032   3.335   4.162  0.7898  2.3255 -1.9111
 2333SOL     OW 7897   1.191   1.975   2.366  0.4527 -0.4803  0.0617
 2333SOL    HW1 7898   1.154   1.885   2.387  1.5835 -0.8273  0.6738
 2333SOL    HW2 7899   1.118   2.034   2.332 -0.2327 -1.7274 -0.7072
 2334SOL     OW 7900   0.519   6.692   0.445  0.0076  0.1073  0.2343
 2334SOL    HW1 7901   0.606   6.727   0.481 -0.6056  0.2566  1.6053
 2334SOL    HW2 7902   0.469   6.645   0.517 -0.4680 -1.1633 -0.8824
 2335SOL     OW 7903   3.174   4.366   0.530 -1.0093 -0.4898  0.6336
 2335SOL    HW1 7904   3.115   4.335   0.455 -0.7920 -1.8747  1.0144
 2335SOL    HW2 7905   3.147   4.320   0.614  0.0954 -0.5243  0.9834
 2336SOL     OW 7906   1.543   6.971   4.477 -0.0487 -0.3631  0.3130
 2336SOL    HW1 7907   1.540   7.016   4.388  2.9003  0.8832  0.7132
 2336SOL    HW2 7908   1.602   6.890   4.471 -2.3838 -2.1808  0.4773
 2337SOL     OW 7909   5.422   0.033   0.279 -0.5895 -0.8117 -0.2091
 2337SOL    HW1 7910   5.454   0.127   0.277 -0.8644 -0.7039  0.1965
 2337SOL    HW2 7911   5.461  -0.018   0.203  0.2717 -0.5995  0.0805
 2338SOL     OW 7912   3.064   6.418   3.900  0.0939  0.3831 -0.4412
 2338SOL    HW1 7913   3.109   6.505   3.918  1.3282 -0.5875  1.5249
 2338SOL    HW2 7914   2.965   6.429   3.904  0.2481  1.6014  0.2009
 2339SOL     OW 7915   4.174   6.957   1.957 -0.6865  0.1520  0.1744
 2339SOL    HW1 7916   4.213   6.971   2.048  0.9200  1.3241 -0.6272
 2339SOL    HW2 7917   4.177   7.043   1.906  2.5065 -1.2705 -2.4396
 2340SOL     OW 7918   4.573   2.777   0.454 -0.1682 -0.1838 -0.1565
 2340SOL    HW1 7919   4.582   2.861   0.401  0.7669  0.5085  1.0356
 2340SOL    HW2 7920   4.572   2.698   0.392 -2.5108  0.7260 -1.3995
 2341SOL     OW 7921   4.210   2.667   5.620  0.1418  0.0776 -0.0982
 2341SOL    HW1 7922   4.291   2.608   5.615  0.0361 -0.3535  2.2042
 2341SOL    HW2 7923   4.238   2.759   5.647  0.0014  0.3252 -0.7800
 2342SOL     OW 7924   5.992   3.993   3.982  0.2176  0.2531 -0.0099
 2342SOL    HW1 7925   5.973   4.063   4.051 -1.2502  0.9352 -1.0653
 2342SOL    HW2 7926   6.069   3.937   4.013  0.8441  1.7361  1.2889
 2343SOL     OW 7927   1.382   4.157   3.457 -0.1290  0.4735  0.2724
 2343SOL    HW1 7928   1.352   4.252   3.446  0.1748  0.5751  0.3112
 2343SOL    HW2 7929   1.308   4.095   3.429  0.3144  0.7177 -1.5731
 2344SOL     OW 7930   1.261   5.827   0.731  0.5176 -0.1748  0.3564
 2344SOL    HW1 7931   1.348   5.858   0.693 -0.0237  0.5234 -0.3548
 2344SOL    HW2 7932   1.251   5.861   0.825  1.8835 -1.9480  1.1986
 2345SOL     OW 7933   2.114   5.866   3.069  0.2452  0.4317  0.4299
 2345SOL    HW1 7934   2.028   5.817   3.052  0.6571  0.0450 -0.6859
 2345SOL    HW2 7935   2.191   5.808   3.042  0.7294  1.8913 -1.6360
 2346SOL     OW 7936   2.399   2.323   0.678 -0.4769 -0.2015 -0.1971
 2346SOL    HW1 7937   2.430   2.229   0.666  0.2020  0.0707 -0.6501
 2346SOL    HW2 7938   2.307   2.324   0.718 -0.4594 -1.0498 -0.1340
 2347SOL     OW 7939   5.627   1.774   0.510  0.0335  0.1864  0.3652
 2347SOL    HW1 7940   5.662   1.857   0.554 -1.4793  1.1091 -0.0851
 2347SOL    HW2 7941   5.601   1.707   0.580 -0.5893  0.8931  0.8284
 2348SOL     OW 7942   4.374   5.678   1.504  0.1562 -0.5421 -1.0783
 2348SOL    HW1 7943   4.402   5.583   1.521 -0.4788 -0.3861  1.0895
 2348SOL    HW2 7944   4.445   5.740   1.534 -0.7262 -0.2783  0.6099
 2349SOL     OW 7945   5.810   4.853   3.017 -0.0118  0.8075  0.1239
 2349SOL    HW1 7946   5.856   4.916   2.954  0.0314 -0.1942 -0.8767
 2349SOL    HW2 7947   5.844   4.868   3.110  2.5554 -0.0027 -0.5980
 2350SOL     OW 7948   2.827   6.337   1.818 -0.4067  0.0093  0.0196
 2350SOL    HW1 7949   2.747   6.370   1.767 -1.6692 -2.0756  0.5792
 2350SOL    HW2 7950   2.818   6.240   1.836  1.9429 -0.1336  0.7617
 2351SOL     OW 7951   1.510   5.184   6.112 -0.1263 -0.1910  0.3394
 2351SOL    HW1 7952   1.605   5.163   6.137  0.2618 -1.5913 -2.0202
 2351SOL    HW2 7953   1.503   5.281   6.088  2.0439 -0.8337 -4.0896
 2352SOL     OW 7954   0.374   1.013   6.289 -0.5166  0.5734  0.1141
 2352SOL    HW1 7955   0.381   0.961   6.204  1.4499 -0.3688  0.7853
 2352SOL    HW2 7956   0.335   0.955   6.361  0.3848  0.4475  0.5173
 2353SOL     OW 7957   0.781   6.271   3.535  0.6288 -0.2757  0.2909
 2353SOL    HW1 7958   0.766   6.339   3.606 -1.5457  1.0433 -1.2898
 2353SOL    HW2 7959   0.695   6.251   3.490  1.3122 -3.7168  0.2883
 2354SOL     OW 7960   1.541   5.163   5.523 -0.5202 -0.0477 -0.1591
 2354SOL    HW1 7961   1.475   5.104   5.570 -0.2343 -1.2524 -1.1943
 2354SOL    HW2 7962   1.584   5.224   5.589  0.0558 -1.8432  1.2255
 2355SOL     OW 7963   6.343   6.349   3.422  0.2642 -0.5687  0.0386
 2355SOL    HW1 7964   6.320   6.320   3.515  0.8434 -1.0213  0.0438
 2355SOL    HW2 7965   6.436   6.386   3.420 -0.5880  1.7192  0.1133
 2356SOL     OW 7966   2.158   6.130   3.014 -0.2468  0.4501  0.3179
 2356SOL    HW1 7967   2.217   6.157   2.938 -2.0289  1.2584 -0.8641
 2356SOL    HW2 7968   2.158   6.031   3.023 -0.4336  0.2934 -1.1424
 2357SOL     OW 7969   0.388   5.836   6.665  0.1264  0.2329 -0.1215
 2357SOL    HW1 7970   0.312   5.865   6.723 -0.3335 -1.8898  0.3975
 2357SOL    HW2 7971   0.354   5.778   6.591  1.1705 -0.2519 -0.2382
 2358SOL     OW 7972   0.403   6.597   0.736 -0.7280 -0.1432  0.0458
 2358SOL    HW1 7973   0.335   6.540   0.690 -0.0695 -0.4689 -0.5408
 2358SOL    HW2 7974   0.416   6.564   0.830  1.3746 -2.5496 -0.9709
 2359SOL     OW 7975   5.318   3.470   4.747 -0.8297  0.4411 -0.1198
 2359SOL    HW1 7976   5.268   3.412   4.812  0.7697 -0.9256 -0.0211
 2359SOL    HW2 7977   5.305   3.435   4.655  0.7058 -0.5840  0.0120
 2360SOL     OW 7978   6.973   3.142   4.131  0.1722  0.1158 -0.2608
 2360SOL    HW1 7979   6.915   3.106   4.204 -0.0056  1.4971  0.3177
 2360SOL    HW2 7980   7.069   3.125   4.153  0.0475 -1.5392 -0.8723
 2361SOL     OW 7981   6.096   1.552   6.607  0.3988 -0.0450  0.3470
 2361SOL    HW1 7982   6.166   1.580   6.673 -0.3424 -1.0563  1.6115
 2361SOL    HW2 7983   6.135   1.554   6.515  2.0444 -0.4299  0.9872
 2362SOL     OW 7984   1.348   2.714   5.126 -0.0367 -0.5914 -0.3514
 2362SOL    HW1 7985   1.395   2.798   5.150 -0.6386 -0.2818 -0.2364
 2362SOL    HW2 7986   1.377   2.684   5.035 -1.3589  0.8911 -1.3194
 2363SOL     OW 7987   5.539   5.005   0.449  0.4857  0.3291  0.0891
 2363SOL    HW1 7988   5.520   4.961   0.361 -0.8915  1.5708 -0.2790
 2363SOL    HW2 7989   5.507   4.947   0.523 -1.2038  0.6323 -0.3786
 2364SOL     OW 7990   5.746   5.598   6.982 -0.1784  0.0117  0.0441
 2364SOL    HW1 7991   5.666   5.658   6.979  0.2601  0.6820  1.0808
 2364SOL    HW2 7992   5.810   5.624   6.910 -0.5624 -0.0320 -0.3109
 2365SOL     OW 7993   6.402   5.985   6.695  0.0508 -0.8002 -0.1245
 2365SOL    HW1 7994   6.474   5.925   6.733 -0.1309 -0.6296  0.5005
 2365SOL    HW2 7995   6.330   5.928   6.656 -0.7272 -1.0490  1.5798
 2366SOL     OW 7996   4.600   6.029   5.026  0.0637  0.2522  0.4693
 2366SOL    HW1 7997   4.548   6.008   5.109  2.2524  0.1289  1.8711
 2366SOL    HW2 7998   4.697   6.011   5.041  0.3111 -2.4581 -3.0078
 2367SOL     OW 7999   5.587   4.731   2.925 -0.4094 -0.4198  0.3227
 2367SOL    HW1 8000   5.665   4.781   2.961  0.2108 -0.7943 -0.4814
 2367SOL    HW2 8001   5.618   4.656   2.867 -1.3608 -0.6631  0.1013
 2368SOL     OW 8002   2.372   2.261   1.365 -0.0072 -0.4108  0.0786
 2368SOL    HW1 8003   2.464   2.290   1.341 -0.0743  1.1135  1.5115
 2368SOL    HW2 8004   2.320   2.339   1.401 -1.8815 -1.2207 -0.7401
 2369SOL     OW 8005   4.965   0.739   3.240 -0.2102  0.6010 -0.1169
 2369SOL    HW1 8006   4.908   0.770   3.164  1.3340  0.2746 -1.4516
 2369SOL    HW2 8007   5.034   0.808   3.261 -0.1671  0.3750  0.5085
 2370SOL     OW 8008   4.766   6.973   0.355  0.0510  0.2515  0.5146
 2370SOL    HW1 8009   4.812   6.884   0.351  0.7042  0.5289  1.4747
 2370SOL    HW2 8010   4.805   7.027   0.430  0.3392  1.7284 -0.6565
 2371SOL     OW 8011   5.989   5.991   3.803  0.0067 -0.3108 -0.1852
 2371SOL    HW1 8012   5.991   6.053   3.725 -1.6819  0.1053  0.0512
 2371SOL    HW2 8013   6.076   5.942   3.809  1.1581  1.5626 -0.7336
 2372SOL     OW 8014   5.161   0.829   0.282 -0.4300  0.5984  0.0216
 2372SOL    HW1 8015   5.217   0.909   0.304  0.0286  0.0526  0.9130
 2372SOL    HW2 8016   5.142   0.779   0.366  0.4637 -0.9888 -0.6846
 2373SOL     OW 8017   2.751   0.835   0.552  0.3029 -0.0336 -0.7579
 2373SOL    HW1 8018   2.735   0.810   0.457  2.2771  1.6835 -1.6096
 2373SOL    HW2 8019   2.750   0.753   0.609 -2.5608 -0.9225 -1.9341
 2374SOL     OW 8020   2.393   6.297   1.726  0.0488  0.2312 -0.4595
 2374SOL    HW1 8021   2.359   6.215   1.680 -1.4224 -0.0861  1.0827
 2374SOL    HW2 8022   2.486   6.317   1.696 -0.0330 -1.2694 -1.7918
 2375SOL     OW 8023   6.330   0.946   3.770 -0.0533  0.2159  0.1088
 2375SOL    HW1 8024   6.425   0.978   3.779  1.2771 -2.9031 -1.3072
 2375SOL    HW2 8025   6.282   1.004   3.705  1.3320  1.0301 -0.2424
 2376SOL     OW 8026   0.655   1.689   3.177  0.0087  0.6825  0.0856
 2376SOL    HW1 8027   0.730   1.735   3.129 -0.4325  0.2947 -0.9926
 2376SOL    HW2 8028   0.676   1.592   3.188  0.1134  0.7666  0.7204
 2377SOL     OW 8029   5.981   0.563   6.641  0.5610 -0.1060 -0.4210
 2377SOL    HW1 8030   6.008   0.599   6.730  0.0156  0.1148 -0.3374
 2377SOL    HW2 8031   5.881   0.568   6.632  0.6203  0.0143 -1.1021
 2378SOL     OW 8032   2.683   2.760   1.331  0.8062  0.9534 -0.2165
 2378SOL    HW1 8033   2.622   2.682   1.346 -0.0518  1.4558 -0.9652
 2378SOL    HW2 8034   2.640   2.843   1.368 -0.0875  1.7308 -2.7994
 2379SOL     OW 8035   5.653   1.258   0.818  0.1925 -0.3381  0.0534
 2379SOL    HW1 8036   5.747   1.257   0.852  0.2087  1.4633  0.1478
 2379SOL    HW2 8037   5.590   1.269   0.894 -0.2043 -2.3779  0.0879
 2380SOL     OW 8038   3.779   0.888   1.692 -0.4515 -0.1243  0.3345
 2380SOL    HW1 8039   3.808   0.983   1.695 -0.8038  0.0248 -0.6322
 2380SOL    HW2 8040   3.682   0.883   1.667 -0.4950 -0.7276  0.5980
 2381SOL     OW 8041   0.631   5.833   4.657  0.4535  0.2356 -0.5236
 2381SOL    HW1 8042   0.545   5.822   4.608  1.2581 -1.8417 -1.5862
 2381SOL    HW2 8043   0.618   5.807   4.753 -0.0555 -0.2611 -0.7225
 2382SOL     OW 8044   6.734   2.717   6.022 -0.1142  0.4638 -0.1660
 2382SOL    HW1 8045   6.666   2.701   6.093  1.7969 -0.4827  1.5087
 2382SOL    HW2 8046   6.707   2.668   5.939 -2.1007  1.1724 -0.0171
 2383SOL     OW 8047   0.635   0.188   4.722 -0.5707  0.1094  0.1824
 2383SOL    HW1 8048   0.734   0.185   4.726 -0.5491 -0.4059 -0.5867
 2383SOL    HW2 8049   0.599   0.230   4.805  0.1818 -1.7363  1.5098
 2384SOL     OW 8050   4.126   0.106   1.375 -0.0526  0.5165  0.1718
 2384SOL    HW1 8051   4.036   0.104   1.333  0.7743 -1.9080 -1.7237
 2384SOL    HW2 8052   4.124   0.055   1.461 -0.8184  1.9546  1.0447
 2385SOL     OW 8053   1.722   2.404   4.311 -0.0288  0.0004 -0.3146
 2385SOL    HW1 8054   1.737   2.337   4.239  2.0423 -1.9470  1.7681
 2385SOL    HW2 8055   1.727   2.360   4.401 -1.2750  2.5119  1.1364
 2386SOL     OW 8056   1.118   1.992   6.113 -0.3612  0.2441  0.1912
 2386SOL    HW1 8057   1.130   1.900   6.074 -1.9478  0.0979 -0.0432
 2386SOL    HW2 8058   1.123   1.987   6.213  1.9576  0.3319  0.1354
 2387SOL     OW 8059   5.433   4.879   5.127  0.2124  0.4178  0.0363
 2387SOL    HW1 8060   5.349   4.830   5.105 -0.3335  1.8067 -1.0803
 2387SOL    HW2 8061   5.455   4.943   5.053  0.1445  2.8457  1.9958
 2388SOL     OW 8062   1.834   2.317   3.123  0.3172 -0.9200 -0.2253
 2388SOL    HW1 8063   1.908   2.383   3.109  0.5309 -1.1061  0.0258
 2388SOL    HW2 8064   1.825   2.259   3.042 -1.0678  0.5843 -1.2123
 2389SOL     OW 8065   4.327   0.460   6.729 -0.2620 -0.5324  0.2238
 2389SOL    HW1 8066   4.400   0.487   6.792  0.7894 -0.2722 -1.0388
 2389SOL    HW2 8067   4.344   0.366   6.699 -0.4800 -0.4955 -0.0153
 2390SOL     OW 8068   3.205   5.312   4.373  0.0585  0.6575  0.1460
 2390SOL    HW1 8069   3.237   5.307   4.468 -0.7430 -0.1579  0.3868
 2390SOL    HW2 8070   3.114   5.270   4.366  0.6157 -0.3926 -1.1970
 2391SOL     OW 8071   1.960   0.517   2.097  0.0114 -0.3539 -0.3419
 2391SOL    HW1 8072   1.886   0.579   2.071  0.6780  1.4441  1.6576
 2391SOL    HW2 8073   2.047   0.566   2.093  0.3530 -0.3567  3.3087
 2392SOL     OW 8074   4.420   0.018   1.840  0.5533 -0.3410  0.0676
 2392SOL    HW1 8075   4.347  -0.045   1.866  0.4742  0.0301  0.7740
 2392SOL    HW2 8076   4.384   0.088   1.779  0.1730  0.1768  0.8676
 2393SOL     OW 8077   3.248   1.947   1.930  0.0630  0.3457  0.7105
 2393SOL    HW1 8078   3.248   1.848   1.940  0.3524  0.3635  0.8621
 2393SOL    HW2 8079   3.336   1.984   1.958  0.3115  0.5456 -0.2995
 2394SOL     OW 8080   3.083   0.479   1.807  0.2023 -0.0098  0.2597
 2394SOL    HW1 8081   3.169   0.428   1.811  0.4273  0.2745 -0.6552
 2394SOL    HW2 8082   3.090   0.559   1.867  0.5100 -0.0843  0.3265
 2395SOL     OW 8083   5.698   0.089   6.986  0.1830  0.3849  0.8238
 2395SOL    HW1 8084   5.793   0.109   7.012  0.7626  0.3720 -1.1032
 2395SOL    HW2 8085   5.658   0.171   6.945 -0.0836 -0.0905  0.1291
 2396SOL     OW 8086   0.309   1.596   6.056 -0.4703 -0.7835 -0.2347
 2396SOL    HW1 8087   0.261   1.565   6.138 -0.3509  1.8031  0.8861
 2396SOL    HW2 8088   0.395   1.638   6.082  1.1575 -2.7782 -2.0127
 2397SOL     OW 8089   4.277   5.623   6.643  0.2724 -0.3038  0.0175
 2397SOL    HW1 8090   4.228   5.548   6.686  0.2818 -0.7885 -0.8044
 2397SOL    HW2 8091   4.289   5.697   6.710 -1.5512 -0.1622  0.2495
 2398SOL     OW 8092   3.057   1.968   4.517 -0.6020  0.0542  0.0104
 2398SOL    HW1 8093   3.098   2.049   4.557 -0.2486  0.6054 -1.4208
 2398SOL    HW2 8094   3.127   1.914   4.470 -1.3394  0.6060 -1.7912
 2399SOL     OW 8095   5.797   4.049   6.141 -1.0422 -0.4734 -0.3680
 2399SOL    HW1 8096   5.854   4.082   6.217 -1.0330  1.0369 -1.0004
 2399SOL    HW2 8097   5.710   4.016   6.177 -0.8977 -0.1136  0.3356
 2400SOL     OW 8098   4.748   6.235   6.961  0.4757  0.6528  0.4376
 2400SOL    HW1 8099   4.705   6.305   7.018  0.7637  0.3476  1.0366
 2400SOL    HW2 8100   4.845   6.229   6.982  0.7529  1.0910 -0.6658
 2401SOL     OW 8101   6.919   6.066   4.027  0.7921  0.2068 -0.2199
 2401SOL    HW1 8102   6.833   6.021   4.003  0.2249  0.7481  0.7355
 2401SOL    HW2 8103   6.987   5.996   4.051  0.5308 -0.2122 -0.6817
 2402SOL     OW 8104   5.652   1.274   5.749  0.8295  0.9604  0.7261
 2402SOL    HW1 8105   5.630   1.214   5.825 -0.3965  0.9119  0.3522
 2402SOL    HW2 8106   5.657   1.221   5.664 -1.0301  1.4339  0.2640
 2403SOL     OW 8107   4.562   2.601   3.900 -0.7653  0.6264 -0.4946
 2403SOL    HW1 8108   4.566   2.685   3.845  4.0208  0.5769 -0.5749
 2403SOL    HW2 8109   4.594   2.620   3.992  0.2951 -1.0614 -0.4766
 2404SOL     OW 8110   6.357   2.828   0.157 -0.0965  0.0944  0.8914
 2404SOL    HW1 8111   6.398   2.738   0.149 -3.8243 -1.6791 -0.6415
 2404SOL    HW2 8112   6.361   2.875   0.069 -2.6377 -0.8616  0.1790
 2405SOL     OW 8113   1.205   1.639   0.007 -0.1698  0.0779  1.1106
 2405SOL    HW1 8114   1.123   1.694   0.022  0.4968  0.8839  1.8266
 2405SOL    HW2 8115   1.270   1.652   0.082  0.6106 -0.5843  0.5799
 2406SOL     OW 8116   6.424   0.451   4.527 -0.2858 -0.0647  0.6049
 2406SOL    HW1 8117   6.490   0.377   4.542 -1.4764 -0.8392  2.2493
 2406SOL    HW2 8118   6.474   0.535   4.502  1.3095 -0.6722  1.5993
 2407SOL     OW 8119   6.991   5.549   3.020 -0.5221  0.1426 -0.1756
 2407SOL    HW1 8120   7.045   5.599   2.952 -0.7937 -0.1504 -0.6098
 2407SOL    HW2 8121   7.019   5.453   3.021 -0.6349  0.1115  0.0112
 2408SOL     OW 8122   0.666   0.091   2.863  0.2758  0.1930 -0.1070
 2408SOL    HW1 8123   0.614   0.099   2.778  0.9191  1.1739 -0.4170
 2408SOL    HW2 8124   0.604   0.062   2.937 -0.6057  0.8156 -0.5775
 2409SOL     OW 8125   6.379   1.136   6.421 -0.0285 -0.0389 -0.2199
 2409SOL    HW1 8126   6.398   1.096   6.510 -2.8463 -0.0094  0.4911
 2409SOL    HW2 8127   6.450   1.108   6.356  1.4385 -1.0441  1.7158
 2410SOL     OW 8128   4.840   4.160   5.193 -0.1214  0.3313 -1.2155
 2410SOL    HW1 8129   4.760   4.207   5.230 -1.4839 -0.7070 -2.7658
 2410SOL    HW2 8130   4.815   4.070   5.161  1.8040 -0.2322 -1.2843
 2411SOL     OW 8131   6.031   4.872   5.733 -0.1818 -0.2156 -0.1545
 2411SOL    HW1 8132   6.090   4.833   5.663 -0.0806 -0.2478 -0.0512
 2411SOL    HW2 8133   5.943   4.898   5.692  0.0505  0.2111 -0.3906
 2412SOL     OW 8134   0.022   0.906   1.062 -0.6985 -0.6665  0.2925
 2412SOL    HW1 8135   0.046   0.972   1.134 -0.1269  0.0083 -0.5019
 2412SOL    HW2 8136   0.069   0.930   0.977 -3.0543 -0.0967 -0.9661
 2413SOL     OW 8137   3.202   1.731   1.694  0.6725 -0.0411  0.7379
 2413SOL    HW1 8138   3.116   1.681   1.680  1.1867 -0.5418 -0.8647
 2413SOL    HW2 8139   3.277   1.666   1.708  1.0394  0.3500  0.6144
 2414SOL     OW 8140   6.180   5.885   1.076  0.5231  0.6727 -0.6001
 2414SOL    HW1 8141   6.251   5.848   1.136 -0.9920 -0.2665  0.6898
 2414SOL    HW2 8142   6.175   5.830   0.992  0.6901  0.1515 -0.2754
 2415SOL     OW 8143   2.450   4.557   2.672 -0.4939 -0.2964 -0.1973
 2415SOL    HW1 8144   2.441   4.582   2.576 -1.5090  1.8650  0.3947
 2415SOL    HW2 8145   2.421   4.462   2.684  0.7663 -0.9931 -2.1532
 2416SOL     OW 8146   0.430   1.007   6.846 -0.3917  0.1197  0.4675
 2416SOL    HW1 8147   0.338   0.969   6.855 -0.7737  1.1321  1.1122
 2416SOL    HW2 8148   0.426   1.089   6.789 -0.3591  1.5852  2.4698
 2417SOL     OW 8149   4.483   1.278   2.065 -0.0899 -0.8047 -0.7401
 2417SOL    HW1 8150   4.402   1.288   2.008 -0.7405  0.3998  0.3416
 2417SOL    HW2 8151   4.548   1.351   2.045 -0.5186 -0.1032  0.3299
 2418SOL     OW 8152   0.226   0.286   3.885  0.2060  0.3666 -0.1683
 2418SOL    HW1 8153   0.141   0.301   3.834  0.0658 -0.1062 -0.0782
 2418SOL    HW2 8154   0.238   0.189   3.901  0.6208  0.4566  0.0762
 2419SOL     OW 8155   6.555   5.581   6.051  0.6075 -0.3775 -0.6815
 2419SOL    HW1 8156   6.546   5.666   5.998 -1.9223  0.2120  0.5329
 2419SOL    HW2 8157   6.652   5.560   6.063  1.3182  1.9699 -1.5763
 2420SOL     OW 8158   3.042   0.470   4.403  0.6977 -0.4153 -0.3822
 2420SOL    HW1 8159   2.996   0.516   4.479 -1.0761 -2.5177 -0.0753
 2420SOL    HW2 8160   2.985   0.476   4.321  1.1877 -0.7166 -0.7550
 2421SOL     OW 8161   3.647   1.278   6.864 -0.4756  0.1782  0.3094
 2421SOL    HW1 8162   3.581   1.352   6.873 -2.3225 -1.3710  0.0912
 2421SOL    HW2 8163   3.656   1.253   6.768  1.1796  0.9495  0.2156
 2422SOL     OW 8164   5.652   5.253   6.881 -0.3512  0.1040  0.5301
 2422SOL    HW1 8165   5.715   5.178   6.897  2.6151  2.4082  0.5050
 2422SOL    HW2 8166   5.592   5.263   6.961  2.0125  0.2184  2.3980
 2423SOL     OW 8167   0.300   5.539   3.816 -0.4288  0.1454  0.1159
 2423SOL    HW1 8168   0.213   5.500   3.785  0.3547  0.3309 -2.6072
 2423SOL    HW2 8169   0.351   5.573   3.737  1.5349  1.3099  1.7817
 2424SOL     OW 8170   1.437   1.423   2.840  0.4145  0.0743 -0.5062
 2424SOL    HW1 8171   1.524   1.455   2.879  1.1015 -2.3122  0.1020
 2424SOL    HW2 8172   1.361   1.464   2.890  1.2221  0.6717  0.2641
 2425SOL     OW 8173   1.510   4.250   0.459 -0.0181 -0.0792 -0.9588
 2425SOL    HW1 8174   1.574   4.267   0.384 -0.8141 -1.8635 -2.1200
 2425SOL    HW2 8175   1.538   4.168   0.508 -1.1111 -0.5833 -1.1586
 2426SOL     OW 8176   1.506   3.421   2.620 -0.4635  0.4442 -0.2654
 2426SOL    HW1 8177   1.516   3.517   2.643 -0.4465  0.4450 -0.2762
 2426SOL    HW2 8178   1.492   3.411   2.521  0.4223  0.3810 -0.3976
 2427SOL     OW 8179   4.442   6.979   6.498  0.2140 -0.0045 -0.2221
 2427SOL    HW1 8180   4.486   7.056   6.544 -0.8363  0.5375 -0.1000
 2427SOL    HW2 8181   4.471   6.977   6.402 -1.0543  1.5992 -0.6803
 2428SOL     OW 8182   6.683   6.041   0.116 -0.1055  0.0954 -0.3280
 2428SOL    HW1 8183   6.645   5.974   0.181  1.7808 -1.6702 -0.9315
 2428SOL    HW2 8184   6.762   6.085   0.157  0.7900 -0.6558 -1.2086
 2429SOL     OW 8185   0.545   4.643   4.103  0.0058 -0.9012  0.7237
 2429SOL    HW1 8186   0.601   4.564   4.130  1.3207 -0.5998 -0.9740
 2429SOL    HW2 8187   0.597   4.701   4.040 -0.4916  1.9564  2.7485
 2430SOL     OW 8188   6.674   2.828   4.352  0.2489  0.3455  0.0962
 2430SOL    HW1 8189   6.640   2.786   4.436  0.8480 -0.7511 -0.1871
 2430SOL    HW2 8190   6.608   2.815   4.279 -0.0143  0.7875  0.2543
 2431SOL     OW 8191   3.111   5.156   1.444  0.1958 -0.4349  0.4411
 2431SOL    HW1 8192   3.028   5.120   1.401 -0.8245  1.8364  0.3405
 2431SOL    HW2 8193   3.131   5.105   1.527 -1.5743 -0.7503  0.7096
 2432SOL     OW 8194   3.780   2.709   6.721  0.0565 -0.1501  0.0064
 2432SOL    HW1 8195   3.874   2.674   6.710 -0.3412 -1.2403 -0.0826
 2432SOL    HW2 8196   3.716   2.646   6.676 -0.8290 -0.0482  1.0805
 2433SOL     OW 8197   0.427   1.332   4.904 -0.1108  0.0456 -0.1605
 2433SOL    HW1 8198   0.371   1.372   4.976  0.0221 -1.3612  0.7739
 2433SOL    HW2 8199   0.394   1.361   4.815  0.3833  2.7209  0.4448
 2434SOL     OW 8200   4.442   0.719   0.568 -0.6775  0.1746  0.3671
 2434SOL    HW1 8201   4.351   0.689   0.597 -0.1500 -1.2071  0.6452
 2434SOL    HW2 8202   4.446   0.819   0.570 -1.9184  0.2272  1.1643
 2435SOL     OW 8203   5.608   4.017   3.372 -0.0152 -0.4215  0.1032
 2435SOL    HW1 8204   5.558   4.053   3.293 -0.5661  1.0636  1.0912
 2435SOL    HW2 8205   5.549   3.957   3.425  0.3116 -1.3072 -0.5038
 2436SOL     OW 8206   3.087   3.961   4.070  0.2424 -0.2549 -0.3742
 2436SOL    HW1 8207   3.096   3.975   4.168  1.0074  0.9836 -0.5983
 2436SOL    HW2 8208   3.038   3.876   4.053  0.0503 -0.4615  1.0724
 2437SOL     OW 8209   5.513   0.949   1.426  0.0094  0.0710  0.2256
 2437SOL    HW1 8210   5.563   0.941   1.512 -0.9895  0.9182  0.9124
 2437SOL    HW2 8211   5.446   0.874   1.419 -0.4102  0.4149  0.5339
 2438SOL     OW 8212   6.878   1.479   6.836  0.3126 -0.4358  0.3022
 2438SOL    HW1 8213   6.944   1.462   6.764  0.1307 -0.5478  0.1603
 2438SOL    HW2 8214   6.925   1.512   6.918  0.5214 -0.3338  0.1408
 2439SOL     OW 8215   4.124   0.263   6.081  0.4272  0.4094  0.1046
 2439SOL    HW1 8216   4.219   0.288   6.063 -0.3314  2.7666 -1.1347
 2439SOL    HW2 8217   4.077   0.341   6.123 -0.5545 -1.3485  2.5685
 2440SOL     OW 8218   3.234   6.193   0.714 -0.1329  0.3841  0.6165
 2440SOL    HW1 8219   3.304   6.225   0.650 -0.7487 -0.9711 -0.8272
 2440SOL    HW2 8220   3.143   6.207   0.673 -0.5863  0.0478  1.4730
 2441SOL     OW 8221   4.551   6.918   4.325 -0.2042  0.0785 -0.1859
 2441SOL    HW1 8222   4.609   6.861   4.383  1.0633  1.2310 -0.2646
 2441SOL    HW2 8223   4.596   6.933   4.237 -1.2855 -0.1588 -0.7914
 2442SOL     OW 8224   3.225   0.534   3.107  1.0333  0.2137 -0.3294
 2442SOL    HW1 8225   3.242   0.539   3.206  2.6419  1.2007 -0.6130
 2442SOL    HW2 8226   3.225   0.626   3.069 -1.1885 -0.0414 -1.0409
 2443SOL     OW 8227   1.930   1.303   4.732 -0.4670  0.3925 -0.1672
 2443SOL    HW1 8228   1.887   1.299   4.642  1.8411 -1.5918 -1.3023
 2443SOL    HW2 8229   1.862   1.283   4.802 -2.1727  1.2857 -1.4916
 2444SOL     OW 8230   3.472   5.129   6.295 -0.1638  0.7145  0.0033
 2444SOL    HW1 8231   3.569   5.144   6.274  0.0843 -0.1749  0.4615
 2444SOL    HW2 8232   3.454   5.031   6.299 -0.4749  0.8032  2.5392
 2445SOL     OW 8233   1.439   6.750   1.567  0.4603  0.0971  0.5637
 2445SOL    HW1 8234   1.444   6.825   1.634  1.9791 -0.3811  1.0344
 2445SOL    HW2 8235   1.530   6.732   1.531  0.0771 -1.3401  0.2481
 2446SOL     OW 8236   0.888   5.010   6.996  0.4816  0.7466 -0.1970
 2446SOL    HW1 8237   0.846   5.088   6.950 -0.4809 -0.1656 -0.9195
 2446SOL    HW2 8238   0.918   5.038   7.087 -1.6036  1.5250  0.3222
 2447SOL     OW 8239   0.103   2.137   5.576 -0.0463  0.0694  0.1262
 2447SOL    HW1 8240   0.135   2.179   5.661  0.8708  1.8586 -1.0248
 2447SOL    HW2 8241   0.165   2.063   5.550  1.1114  1.1241 -0.2039
 2448SOL     OW 8242   1.244   2.517   4.662  0.1765  0.3485  0.6519
 2448SOL    HW1 8243   1.265   2.424   4.633 -1.1674  0.5181 -1.0575
 2448SOL    HW2 8244   1.144   2.530   4.662  0.3731  2.2192 -0.6976
 2449SOL     OW 8245   6.965   2.095   6.402  0.3188  0.3058  0.0172
 2449SOL    HW1 8246   6.894   2.156   6.437  0.7136  0.1204  1.1842
 2449SOL    HW2 8247   6.923   2.008   6.375  0.1670  0.0158  1.1694
 2450SOL     OW 8248   5.106   0.730   5.473  0.0272 -0.3203  0.1627
 2450SOL    HW1 8249   5.086   0.689   5.383 -0.9417 -0.8983  0.6263
 2450SOL    HW2 8250   5.132   0.658   5.537  1.2852  0.1598  0.2097
 2451SOL     OW 8251   6.597   2.012   1.724 -0.3308 -0.4391  0.1321
 2451SOL    HW1 8252   6.528   2.082   1.744  0.0575 -0.0944  0.2572
 2451SOL    HW2 8253   6.583   1.935   1.787 -0.1794 -0.0802  0.6169
 2452SOL     OW 8254   6.865   1.948   2.890 -0.2976 -0.1333  0.5238
 2452SOL    HW1 8255   6.874   2.028   2.832  0.5080 -0.0470  0.7546
 2452SOL    HW2 8256   6.836   1.869   2.835  1.0370 -0.2004 -0.1177
 2453SOL     OW 8257   0.404   3.868   4.339 -0.3887 -0.4953 -0.5676
 2453SOL    HW1 8258   0.444   3.836   4.425 -0.4709  0.6657 -0.0796
 2453SOL    HW2 8259   0.476   3.880   4.271 -0.1633 -0.2977 -0.2977
 2454SOL     OW 8260   4.113   2.336   5.590 -0.0000 -0.6339 -0.3515
 2454SOL    HW1 8261   4.053   2.393   5.647 -1.2410 -0.5713 -1.6549
 2454SOL    HW2 8262   4.207   2.342   5.624 -0.2783  1.2974  0.2168
 2455SOL     OW 8263   0.962   5.418   4.035  0.0359  0.0169 -0.3790
 2455SOL    HW1 8264   0.925   5.327   4.055  3.4153 -1.3311  0.3140
 2455SOL    HW2 8265   0.984   5.424   3.938 -0.2821  0.1361 -0.4440
 2456SOL     OW 8266   4.112   1.310   3.766 -0.8496  0.4880  1.0776
 2456SOL    HW1 8267   4.029   1.313   3.711 -0.7491  0.6624  0.9339
 2456SOL    HW2 8268   4.110   1.382   3.834  0.9534  3.2294 -1.4934
 2457SOL     OW 8269   2.654   1.132   1.857 -0.6413 -0.2460 -0.1354
 2457SOL    HW1 8270   2.630   1.188   1.936 -1.5323 -0.4420 -0.2501
 2457SOL    HW2 8271   2.724   1.178   1.803 -1.2933  0.7161 -0.1812
 2458SOL     OW 8272   3.809   0.639   3.587  0.2030 -0.0338  0.6371
 2458SOL    HW1 8273   3.887   0.678   3.538 -0.0272  1.2048  1.2226
 2458SOL    HW2 8274   3.793   0.546   3.555  0.7706  0.3373 -0.8197
 2459SOL     OW 8275   6.199   0.716   3.412  0.5706  0.2269  0.3746
 2459SOL    HW1 8276   6.224   0.701   3.317  0.9227  1.6195  0.2320
 2459SOL    HW2 8277   6.123   0.781   3.417  1.6156  1.4233  1.0948
 2460SOL     OW 8278   4.119   5.940   0.778  0.1179 -0.1475  0.2755
 2460SOL    HW1 8279   4.162   6.031   0.776  0.4157 -0.2867  0.1549
 2460SOL    HW2 8280   4.020   5.950   0.785  0.2619  0.1764  2.6765
 2461SOL     OW 8281   3.405   6.789   1.830 -0.8490 -0.1196 -0.0233
 2461SOL    HW1 8282   3.445   6.712   1.879 -0.4565  0.1376  0.0718
 2461SOL    HW2 8283   3.305   6.784   1.835 -0.8873  1.1054  2.7850
 2462SOL     OW 8284   4.125   6.444   1.076  0.6135 -0.2133  0.1763
 2462SOL    HW1 8285   4.079   6.403   0.997  0.1050  0.0038  0.3505
 2462SOL    HW2 8286   4.211   6.485   1.048  0.5553 -0.3625 -0.2184
 2463SOL     OW 8287   3.862   0.338   3.683 -0.5170 -0.1048 -0.1682
 2463SOL    HW1 8288   3.782   0.291   3.646  0.2348 -2.5593  1.1287
 2463SOL    HW2 8289   3.833   0.411   3.745 -1.7672 -1.4927  0.9199
 2464SOL     OW 8290   0.793   6.916   4.603  0.1568 -0.1489  0.5909
 2464SOL    HW1 8291   0.842   6.856   4.539  0.2789  1.3320 -0.7839
 2464SOL    HW2 8292   0.734   6.861   4.661 -0.7876 -1.5168 -1.5298
 2465SOL     OW 8293   4.959   2.629   4.221 -0.2465  0.1937 -0.2681
 2465SOL    HW1 8294   4.874   2.663   4.181 -0.6468 -0.2441  0.1882
 2465SOL    HW2 8295   5.029   2.700   4.217 -0.4244  0.3180 -1.2791
 2466SOL     OW 8296   2.440   0.693   3.212 -0.1505 -0.5026  0.3847
 2466SOL    HW1 8297   2.530   0.671   3.250 -0.7007 -2.8794  0.4434
 2466SOL    HW2 8298   2.423   0.791   3.222  1.8813 -0.2182  1.5607
 2467SOL     OW 8299   4.219   2.205   1.275  0.0657  0.8638  0.0375
 2467SOL    HW1 8300   4.275   2.153   1.339 -0.6915 -0.9595 -0.7114
 2467SOL    HW2 8301   4.154   2.262   1.326 -0.4856 -0.5174  0.9323
 2468SOL     OW 8302   5.538   0.642   5.945  0.6092  0.4298 -0.0868
 2468SOL    HW1 8303   5.565   0.569   5.882  1.4666  1.8785 -1.4829
 2468SOL    HW2 8304   5.501   0.602   6.029  0.7964 -1.5817 -0.9074
 2469SOL     OW 8305   6.434   2.627   4.808 -0.2022 -0.1381  0.8829
 2469SOL    HW1 8306   6.382   2.599   4.889 -0.1837 -0.8296  0.6596
 2469SOL    HW2 8307   6.514   2.569   4.798 -0.9732 -1.0311 -0.4371
 2470SOL     OW 8308   6.905   5.056   0.230 -0.0890  0.0407 -0.0916
 2470SOL    HW1 8309   6.834   5.020   0.290 -0.4825 -0.7653 -1.0077
 2470SOL    HW2 8310   6.994   5.050   0.275 -0.4138 -0.2851  0.5149
 2471SOL     OW 8311   0.057   4.929   5.543  0.0865 -0.1562 -0.2485
 2471SOL    HW1 8312   0.157   4.928   5.546  0.0821  0.9332  1.7547
 2471SOL    HW2 8313   0.020   4.856   5.600 -0.2125  1.2977  1.5035
 2472SOL     OW 8314   0.717   5.140   2.218 -0.0037  0.5181 -0.4972
 2472SOL    HW1 8315   0.790   5.125   2.286 -0.2658 -1.1054 -0.5473
 2472SOL    HW2 8316   0.643   5.075   2.234 -0.9714  1.4404 -1.1322
 2473SOL     OW 8317   5.559   1.940   6.631 -0.0204 -0.1824  0.2838
 2473SOL    HW1 8318   5.566   1.841   6.636 -2.6831 -0.4539  0.1656
 2473SOL    HW2 8319   5.640   1.982   6.671 -0.2333 -2.3738  3.2748
 2474SOL     OW 8320   2.171   0.615   1.346  0.4385  0.2128 -0.0032
 2474SOL    HW1 8321   2.140   0.551   1.416  2.4280  0.6160  1.3350
 2474SOL    HW2 8322   2.101   0.624   1.275 -1.1059 -1.1743  1.2739
 2475SOL     OW 8323   2.227   0.265   0.156  0.2242  0.1179  0.4206
 2475SOL    HW1 8324   2.159   0.210   0.107  0.8048  0.6467 -1.0302
 2475SOL    HW2 8325   2.195   0.360   0.162  0.5297  0.2292  0.3189
 2476SOL     OW 8326   1.593   0.253   5.114  0.0168  0.1397  0.0765
 2476SOL    HW1 8327   1.631   0.266   5.205 -0.1945 -0.3541  0.2328
 2476SOL    HW2 8328   1.571   0.342   5.074 -1.9896  0.2764  1.3807
 2477SOL     OW 8329   2.238   6.538   4.826 -0.1398  0.6360 -0.1637
 2477SOL    HW1 8330   2.206   6.613   4.884 -0.3682  0.9344 -0.6687
 2477SOL    HW2 8331   2.337   6.530   4.833 -0.1734  0.5849  0.3609
 2478SOL     OW 8332   3.467   5.954   2.434 -0.2611  0.1898  0.6309
 2478SOL    HW1 8333   3.464   5.859   2.404 -0.2636  0.5368 -0.5011
 2478SOL    HW2 8334   3.411   6.010   2.374 -1.1770  0.7489  1.9522
 2479SOL     OW 8335   3.241   5.262   2.055 -0.0937 -0.5629  0.1596
 2479SOL    HW1 8336   3.167   5.195   2.055 -0.3684 -0.3047 -1.2759
 2479SOL    HW2 8337   3.286   5.262   2.144 -3.1741  0.8084  1.9078
 2480SOL     OW 8338   0.337   1.213   0.774 -0.7605 -0.0704 -0.2399
 2480SOL    HW1 8339   0.394   1.136   0.746 -1.1227  0.0881 -1.4695
 2480SOL    HW2 8340   0.243   1.198   0.743 -0.7498  1.0490 -0.8615
 2481SOL     OW 8341   6.235   0.488   3.557  0.3283 -0.1216  0.3093
 2481SOL    HW1 8342   6.176   0.467   3.635  0.2070 -1.6662 -0.1643
 2481SOL    HW2 8343   6.213   0.580   3.523  0.4113  0.5938  2.0794
 2482SOL     OW 8344   1.986   3.723   1.549  0.1505  0.7931 -0.2907
 2482SOL    HW1 8345   2.077   3.719   1.507  0.5815 -0.0392  0.6592
 2482SOL    HW2 8346   1.985   3.664   1.630 -1.0788  1.2289  0.0280
 2483SOL     OW 8347   0.513   1.806   3.930  0.2362 -0.2403  0.1583
 2483SOL    HW1 8348   0.535   1.710   3.941  1.4080 -0.2523 -1.7820
 2483SOL    HW2 8349   0.583   1.862   3.975  0.4110 -0.2865 -0.0590
 2484SOL     OW 8350   2.054   2.788   6.611  0.4422  0.0162  0.1596
 2484SOL    HW1 8351   1.984   2.719   6.595 -0.1425  0.2463  1.5877
 2484SOL    HW2 8352   2.028   2.874   6.567  0.4922 -0.2675 -0.4347
 2485SOL     OW 8353   1.556   1.102   3.241 -0.5574 -0.6164 -0.8003
 2485SOL    HW1 8354   1.580   1.144   3.153 -1.8381  0.5182 -0.6404
 2485SOL    HW2 8355   1.637   1.057   3.279  0.9066  1.6043 -1.0634
 2486SOL     OW 8356   0.280   3.894   0.938  0.6932  0.6797  0.0083
 2486SOL    HW1 8357   0.261   3.806   0.893  3.2372  0.1162 -0.0924
 2486SOL    HW2 8358   0.199   3.922   0.991  0.0186 -2.0286  0.5702
 2487SOL     OW 8359   5.281   0.409   0.801  0.4088  0.4051  0.0875
 2487SOL    HW1 8360   5.318   0.423   0.893 -0.5230  1.8993  0.2576
 2487SOL    HW2 8361   5.339   0.344   0.752  0.4763 -1.0674  1.9844
 2488SOL     OW 8362   5.284   1.719   4.182 -0.4102 -0.1448  0.0254
 2488SOL    HW1 8363   5.200   1.766   4.209  0.0896  0.4175  0.6346
 2488SOL    HW2 8364   5.327   1.678   4.263  0.3451  0.3016 -0.1372
 2489SOL     OW 8365   0.635   5.389   2.117  0.6328 -0.2317  0.3441
 2489SOL    HW1 8366   0.641   5.295   2.152 -0.7935 -0.3181  0.4062
 2489SOL    HW2 8367   0.558   5.396   2.054  0.0577  1.1461  1.1550
 2490SOL     OW 8368   6.548   5.176   2.729 -0.0323 -0.5283  0.5725
 2490SOL    HW1 8369   6.592   5.209   2.646 -2.5310  0.6281 -0.3861
 2490SOL    HW2 8370   6.507   5.086   2.711  1.0605 -1.1800  1.1907
 2491SOL     OW 8371   4.905   2.180   3.519 -0.2649  0.5005  0.2699
 2491SOL    HW1 8372   4.999   2.187   3.551  1.0671  0.1937 -3.1266
 2491SOL    HW2 8373   4.874   2.270   3.486  0.3449 -0.0708 -2.0941
 2492SOL     OW 8374   3.664   2.909   2.720 -0.0196 -0.8159 -0.1279
 2492SOL    HW1 8375   3.735   2.920   2.789  1.3421  1.4045 -1.7569
 2492SOL    HW2 8376   3.594   2.979   2.732 -0.4860 -1.2590 -0.2065
 2493SOL     OW 8377   1.750   2.227   0.599 -0.6285  0.0691 -0.1873
 2493SOL    HW1 8378   1.798   2.185   0.675 -1.2423 -0.2023  0.0618
 2493SOL    HW2 8379   1.662   2.264   0.631 -0.9628 -0.1823 -0.7909
 2494SOL     OW 8380   6.433   2.355   0.180  0.0169 -0.1826  0.4142
 2494SOL    HW1 8381   6.528   2.336   0.204 -0.2756 -1.6072  0.5237
 2494SOL    HW2 8382   6.423   2.351   0.080 -0.2577 -1.8150  0.4828
 2495SOL     OW 8383   6.180   5.090   2.016  0.3344  0.0927  0.1952
 2495SOL    HW1 8384   6.197   5.084   1.918  0.3274  0.0282  0.1976
 2495SOL    HW2 8385   6.212   5.178   2.050 -0.2219  0.3611  0.0236
 2496SOL     OW 8386   2.799   1.001   3.351 -0.3969  0.9847  0.7718
 2496SOL    HW1 8387   2.734   1.014   3.276 -0.8063  0.2672  0.9889
 2496SOL    HW2 8388   2.748   0.987   3.436 -0.1025 -2.5785  0.4919
 2497SOL     OW 8389   4.089   0.414   2.767 -0.7354  0.6883  0.6090
 2497SOL    HW1 8390   4.033   0.432   2.848 -1.8006 -0.2279  0.1071
 2497SOL    HW2 8391   4.068   0.323   2.732 -1.7432  1.7441 -1.8206
 2498SOL     OW 8392   5.206   6.779   2.990  0.0244 -0.3271  0.0796
 2498SOL    HW1 8393   5.144   6.701   2.983 -0.5297  0.1172 -0.0112
 2498SOL    HW2 8394   5.189   6.842   2.914  1.0618 -0.5359 -0.3430
 2499SOL     OW 8395   0.869   4.621   6.350 -0.0076 -0.3278 -0.0943
 2499SOL    HW1 8396   0.858   4.531   6.392 -2.4796 -0.3899 -0.7154
 2499SOL    HW2 8397   0.811   4.627   6.269  0.0264  1.8574 -0.0154
 2500SOL     OW 8398   5.567   5.548   0.974  0.1770  0.3046  0.2629
 2500SOL    HW1 8399   5.541   5.543   0.878  0.3771 -0.3721  0.2377
 2500SOL    HW2 8400   5.625   5.628   0.990  0.2839  0.3181 -0.2085
 2501SOL     OW 8401   1.087   6.028   6.101 -0.0200  0.0134  0.5029
 2501SOL    HW1 8402   1.116   6.015   6.196 -1.8103 -0.8206  0.9635
 2501SOL    HW2 8403   1.060   5.941   6.061 -0.6259  0.5535 -0.3116
 2502SOL     OW 8404   5.554   2.389   6.819 -0.7517 -0.1205 -0.1781
 2502SOL    HW1 8405   5.645   2.431   6.820 -1.2541  1.0262 -0.1912
 2502SOL    HW2 8406   5.545   2.326   6.896  0.7085 -1.7745 -1.3014
 2503SOL     OW 8407   6.414   1.192   1.800 -0.6849  0.4176 -0.0868
 2503SOL    HW1 8408   6.396   1.287   1.774 -0.7533 -0.2580 -2.8368
 2503SOL    HW2 8409   6.502   1.186   1.846  0.3205  1.6127 -1.7299
 2504SOL     OW 8410   0.477   4.464   5.077  0.1895 -0.2595 -0.0236
 2504SOL    HW1 8411   0.424   4.454   5.161 -0.4071  0.8944 -0.2282
 2504SOL    HW2 8412   0.574   4.467   5.098 -0.0115  2.4085  0.9512
 2505SOL     OW 8413   1.184   4.558   5.444  0.6102 -0.2530  0.4139
 2505SOL    HW1 8414   1.151   4.651   5.430  1.1985 -0.1027  0.0033
 2505SOL    HW2 8415   1.144   4.497   5.376 -0.4343 -0.4657  1.2023
 2506SOL     OW 8416   1.271   1.947   6.688 -0.0725  0.0384  0.0665
 2506SOL    HW1 8417   1.319   1.918   6.606  0.4574 -1.2355  0.8044
 2506SOL    HW2 8418   1.256   2.046   6.684  2.6129  0.5032 -0.1960
 2507SOL     OW 8419   5.846   6.727   1.091  0.2439  0.3676  0.6678
 2507SOL    HW1 8420   5.894   6.640   1.097  0.7026  0.5625 -0.0639
 2507SOL    HW2 8421   5.789   6.739   1.172 -0.1765 -0.8151  0.5672
 2508SOL     OW 8422   6.143   2.941   3.853  0.1497 -0.6481  0.5705
 2508SOL    HW1 8423   6.220   2.877   3.842  0.0353 -0.5941 -0.6182
 2508SOL    HW2 8424   6.179   3.034   3.861  0.1941 -0.5581 -0.5714
 2509SOL     OW 8425   4.055   0.777   2.928 -0.4333  0.1240  0.1253
 2509SOL    HW1 8426   4.075   0.773   2.830 -1.4582  0.0487 -0.0958
 2509SOL    HW2 8427   3.991   0.703   2.951 -1.7526  1.3187  0.4572
 2510SOL     OW 8428   1.663   2.667   6.150 -0.5071 -0.1218 -0.2070
 2510SOL    HW1 8429   1.685   2.761   6.124 -0.2500 -0.2112 -0.3115
 2510SOL    HW2 8430   1.605   2.626   6.080 -3.7124  1.1353  1.5063
 2511SOL     OW 8431   2.131   1.618   6.716  0.1958 -0.2267 -0.2650
 2511SOL    HW1 8432   2.032   1.619   6.729 -0.1086 -0.3327 -2.2449
 2511SOL    HW2 8433   2.175   1.572   6.793 -1.0325  2.1141  1.9821
 2512SOL     OW 8434   0.039   2.597   2.229 -0.9359 -0.3102 -0.3826
 2512SOL    HW1 8435   0.077   2.619   2.140 -2.3776  1.4188 -0.6122
 2512SOL    HW2 8436  -0.060   2.585   2.222 -1.1174  0.1780  1.0348
 2513SOL     OW 8437   1.406   5.629   3.743 -0.1411  0.3654 -0.0668
 2513SOL    HW1 8438   1.361   5.694   3.805 -1.2249 -0.4962  0.0863
 2513SOL    HW2 8439   1.437   5.677   3.661 -2.3991  0.8305 -0.7107
 2514SOL     OW 8440   2.414   2.629   6.773 -0.0079  0.0962  0.2177
 2514SOL    HW1 8441   2.467   2.603   6.854 -0.5195  0.4957  0.6926
 2514SOL    HW2 8442   2.318   2.640   6.799  0.0664  1.7360 -0.1219
 2515SOL     OW 8443   1.944   4.296   4.266  0.5247  0.0862  0.4283
 2515SOL    HW1 8444   1.941   4.284   4.166  0.5155 -0.8217  0.5317
 2515SOL    HW2 8445   2.037   4.280   4.299  0.2992 -0.6938  0.6920
 2516SOL     OW 8446   0.354   5.621   2.055 -0.5739 -0.8056 -0.4563
 2516SOL    HW1 8447   0.399   5.598   1.969 -1.5524  0.5542 -1.3559
 2516SOL    HW2 8448   0.386   5.710   2.088 -2.4115  0.0909 -1.0100
 2517SOL     OW 8449   3.407   4.030   4.588  0.0632 -0.2629  0.3026
 2517SOL    HW1 8450   3.311   4.021   4.615 -0.4139  2.2905 -0.3527
 2517SOL    HW2 8451   3.414   4.033   4.488  0.5981  1.2598  0.3591
 2518SOL     OW 8452   0.393   6.527   6.037 -0.3987  0.3765  0.3723
 2518SOL    HW1 8453   0.417   6.430   6.042 -1.0871  0.2184  0.7237
 2518SOL    HW2 8454   0.392   6.557   5.942  0.4029  0.1941  0.2987
 2519SOL     OW 8455   5.450   6.104   3.086  0.3587 -0.0208  0.0151
 2519SOL    HW1 8456   5.548   6.091   3.096  0.2615 -0.3790  0.5914
 2519SOL    HW2 8457   5.432   6.194   3.045  0.9174  0.0865 -0.0055
 2520SOL     OW 8458   1.892   5.189   6.441  0.3248 -0.2563 -0.4684
 2520SOL    HW1 8459   1.870   5.200   6.538  0.5404  1.6087 -0.5854
 2520SOL    HW2 8460   1.984   5.224   6.424 -0.0080  0.1753 -1.4647
 2521SOL     OW 8461   2.845   0.434   3.958 -0.0885  0.2472 -0.0723
 2521SOL    HW1 8462   2.831   0.448   4.055  0.1528 -0.2827  0.0441
 2521SOL    HW2 8463   2.857   0.336   3.940  0.3800  0.3925 -0.5680
 2522SOL     OW 8464   3.342   6.422   3.328  0.6537 -0.1725 -0.8633
 2522SOL    HW1 8465   3.300   6.340   3.367  0.7800  0.7492  1.4034
 2522SOL    HW2 8466   3.279   6.464   3.263 -0.4891 -0.7199 -0.1465
 2523SOL     OW 8467   0.223   5.432   4.499 -0.5492 -0.3155 -0.0638
 2523SOL    HW1 8468   0.128   5.445   4.525 -0.7392 -2.2038  0.3783
 2523SOL    HW2 8469   0.273   5.518   4.509 -1.7452  0.2384  1.7145
 2524SOL     OW 8470   4.283   6.578   1.605 -0.2745  0.5799  0.0360
 2524SOL    HW1 8471   4.279   6.669   1.565  0.8849  0.6673  0.0586
 2524SOL    HW2 8472   4.346   6.579   1.683 -0.8250 -0.0729  0.4950
 2525SOL     OW 8473   5.037   5.482   1.329  0.4880  0.1452 -0.0071
 2525SOL    HW1 8474   4.949   5.444   1.359  1.1921 -0.6121  1.2234
 2525SOL    HW2 8475   5.025   5.578   1.305 -0.4208  0.4625  1.5413
 2526SOL     OW 8476   6.019   2.428   5.719 -1.1224 -0.2248  0.6377
 2526SOL    HW1 8477   6.010   2.460   5.625 -1.1186 -0.9187  0.3940
 2526SOL    HW2 8478   5.934   2.446   5.769 -0.7039  1.2748  0.8720
 2527SOL     OW 8479   6.783   0.436   4.957  0.0565  0.4439  1.3487
 2527SOL    HW1 8480   6.763   0.365   5.025 -3.8689 -2.6205 -2.4348
 2527SOL    HW2 8481   6.702   0.491   4.942  1.2683  1.9711  0.0960
 2528SOL     OW 8482   1.179   3.552   0.888 -0.1270  0.1045  0.3943
 2528SOL    HW1 8483   1.244   3.614   0.931  0.8638 -0.3617 -0.3636
 2528SOL    HW2 8484   1.215   3.523   0.799 -2.1144  1.0902 -0.8158
 2529SOL     OW 8485   4.531   6.659   5.903  0.0913  0.2149 -0.3219
 2529SOL    HW1 8486   4.587   6.578   5.886  0.9010  0.6106  0.4093
 2529SOL    HW2 8487   4.470   6.642   5.981  2.0344  1.1234  1.4954
 2530SOL     OW 8488   4.227   4.904   4.706 -0.1490  0.2656 -0.0211
 2530SOL    HW1 8489   4.312   4.890   4.653 -0.2888  0.7245 -0.3774
 2530SOL    HW2 8490   4.149   4.899   4.644 -0.3020  1.0136  0.0990
 2531SOL     OW 8491   0.319   0.724   3.425 -0.1645  0.0823  1.0442
 2531SOL    HW1 8492   0.226   0.708   3.394  0.4446 -1.1020 -0.2388
 2531SOL    HW2 8493   0.349   0.649   3.484  1.2112 -1.5490 -1.5432
 2532SOL     OW 8494   5.318   0.420   1.060 -0.3627  0.3458  0.0239
 2532SOL    HW1 8495   5.280   0.375   1.141 -0.2414  0.0628 -0.0753
 2532SOL    HW2 8496   5.416   0.435   1.072 -0.4809  0.9490  0.2218
 2533SOL     OW 8497   5.379   3.878   3.422 -0.0227  0.2091 -0.3014
 2533SOL    HW1 8498   5.345   3.972   3.424 -0.1907  0.1456 -0.1099
 2533SOL    HW2 8499   5.340   3.830   3.343 -1.6309 -0.3198  0.7467
 2534SOL     OW 8500   0.677   3.238   4.891  0.3469 -0.3342  0.3578
 2534SOL    HW1 8501   0.661   3.148   4.852  1.0035 -0.2276 -0.1696
 2534SOL    HW2 8502   0.740   3.232   4.967  0.8105 -0.2541 -0.0172
 2535SOL     OW 8503   1.665   5.600   5.018  0.5183  0.5898  0.3390
 2535SOL    HW1 8504   1.593   5.636   4.959  1.4467 -0.5948 -1.6574
 2535SOL    HW2 8505   1.703   5.674   5.074  0.4044  2.0937 -1.4580
 2536SOL     OW 8506   5.674   4.565   4.119 -0.1161  0.1367 -0.1935
 2536SOL    HW1 8507   5.623   4.514   4.050 -1.9959  0.7565  0.6660
 2536SOL    HW2 8508   5.621   4.570   4.204  1.7660  0.1047  1.0648
 2537SOL     OW 8509   0.309   5.067   0.029  0.0931  0.1409  0.0475
 2537SOL    HW1 8510   0.408   5.075   0.020 -0.1086  0.7173 -2.4158
 2537SOL    HW2 8511   0.270   5.039  -0.059 -1.9394 -0.1137  0.9806
 2538SOL     OW 8512   1.955   3.361   0.009  0.4747 -0.0323 -0.4041
 2538SOL    HW1 8513   1.947   3.312   0.095  0.5075 -2.5295 -1.7322
 2538SOL    HW2 8514   2.036   3.331  -0.040 -0.8961 -0.6620 -2.4372
 2539SOL     OW 8515   4.870   4.489   3.459 -0.1258 -0.0789 -0.2123
 2539SOL    HW1 8516   4.792   4.429   3.441  0.0632 -0.2796 -0.3797
 2539SOL    HW2 8517   4.902   4.476   3.553 -0.2757 -0.0177 -0.1529
 2540SOL     OW 8518   0.023   4.444   3.642  0.3827 -0.2533  0.6773
 2540SOL    HW1 8519   0.069   4.518   3.690  1.2448 -1.3004  1.5160
 2540SOL    HW2 8520   0.060   4.436   3.549  0.0726  0.5320  0.4727
 2541SOL     OW 8521   5.649   3.047   1.015 -0.3646 -0.4247 -0.4921
 2541SOL    HW1 8522   5.668   3.054   1.113 -2.1033  0.2388 -0.1569
 2541SOL    HW2 8523   5.733   3.063   0.963  0.3064  0.6885  0.8599
 2542SOL     OW 8524   6.849   1.245   3.140 -0.3516 -0.1227 -0.6916
 2542SOL    HW1 8525   6.901   1.213   3.061 -0.2943 -0.7326 -0.4116
 2542SOL    HW2 8526   6.910   1.258   3.218 -0.4527  0.2047 -0.6651
 2543SOL     OW 8527   6.742   4.140   1.353 -0.3159 -0.7054 -0.4498
 2543SOL    HW1 8528   6.771   4.074   1.422  3.3536  0.7779 -0.3145
 2543SOL    HW2 8529   6.783   4.116   1.265 -0.7879  0.1570 -0.9150
 2544SOL     OW 8530   6.740   0.905   3.367 -0.5313  0.5783  0.0031
 2544SOL    HW1 8531   6.725   0.986   3.310 -0.9334  1.1122  0.8341
 2544SOL    HW2 8532   6.651   0.871   3.399 -0.3222  0.1973  0.1730
 2545SOL     OW 8533   4.236   5.202   2.024  0.0513 -0.0739 -0.2743
 2545SOL    HW1 8534   4.150   5.152   2.015  0.4705 -1.2054  1.5135
 2545SOL    HW2 8535   4.239   5.249   2.112  0.4706  1.6122 -1.1353
 2546SOL     OW 8536   6.488   5.265   1.022  0.0420  0.0376  0.3396
 2546SOL    HW1 8537   6.438   5.329   1.080 -1.0761 -0.2319 -0.2958
 2546SOL    HW2 8538   6.435   5.180   1.013  0.2139  0.0463 -0.9955
 2547SOL     OW 8539   3.730   2.916   4.593 -0.1112  0.7155  0.1302
 2547SOL    HW1 8540   3.655   2.866   4.549  0.3520  0.0880  0.0464
 2547SOL    HW2 8541   3.732   2.894   4.691 -0.3081  1.0750  0.2166
 2548SOL     OW 8542   0.035   5.094   3.424 -0.1366 -0.0005 -0.8136
 2548SOL    HW1 8543   0.108   5.038   3.462 -1.9909 -1.0456  1.4524
 2548SOL    HW2 8544   0.045   5.188   3.456 -0.5190 -0.4394  0.6577
 2549SOL     OW 8545   6.245   3.176   3.995  0.3200 -0.3876 -0.0284
 2549SOL    HW1 8546   6.149   3.167   4.023 -0.1847 -1.8164 -2.0647
 2549SOL    HW2 8547   6.255   3.257   3.938 -0.0321 -1.1154 -1.1435
 2550SOL     OW 8548   1.976   2.514   4.336 -0.0671  0.1240 -0.4367
 2550SOL    HW1 8549   1.889   2.465   4.335 -0.9159  1.5705 -0.1762
 2550SOL    HW2 8550   2.040   2.471   4.273 -0.1076 -2.4353  1.1225
 2551SOL     OW 8551   3.075   6.177   3.035 -0.0832 -0.8129 -0.4074
 2551SOL    HW1 8552   3.163   6.201   2.992  1.4481 -3.5879  0.8881
 2551SOL    HW2 8553   3.036   6.098   2.987 -0.0995 -1.7411  1.0805
 2552SOL     OW 8554   1.911   6.182   6.449 -0.1255 -0.0252 -0.1115
 2552SOL    HW1 8555   1.910   6.251   6.521 -0.7048 -0.5336  0.3685
 2552SOL    HW2 8556   1.827   6.188   6.395 -1.0350 -1.5352  1.0726
 2553SOL     OW 8557   3.724   0.513   1.502 -0.1236  0.2288  0.1206
 2553SOL    HW1 8558   3.726   0.419   1.536  1.6735 -0.3121 -1.3204
 2553SOL    HW2 8559   3.654   0.522   1.432  1.0150 -0.6264 -1.1845
 2554SOL     OW 8560   0.430   5.360   2.761  0.3039 -0.2061  0.2241
 2554SOL    HW1 8561   0.501   5.424   2.790 -1.0495  1.0520  0.9471
 2554SOL    HW2 8562   0.400   5.384   2.668  0.1051 -0.0611  0.3245
 2555SOL     OW 8563   2.868   4.918   1.544 -0.6989  0.2607  0.0984
 2555SOL    HW1 8564   2.813   4.869   1.611 -0.1476  1.9536  1.8950
 2555SOL    HW2 8565   2.821   4.918   1.455 -2.3292 -0.5245  0.9228
 2556SOL     OW 8566   3.918   5.650   1.126  0.0100 -0.8576 -0.3677
 2556SOL    HW1 8567   3.983   5.711   1.079 -1.5917  1.2883  0.0567
 2556SOL    HW2 8568   3.826   5.667   1.092 -1.0429 -0.1305  2.5522
 2557SOL     OW 8569   4.819   5.320   0.758 -0.1351  0.0149  0.4688
 2557SOL    HW1 8570   4.767   5.381   0.699 -0.9730 -1.5195 -0.4325
 2557SOL    HW2 8571   4.769   5.235   0.771  1.7758 -1.1868  0.2696
 2558SOL     OW 8572   5.509   6.099   6.720  0.3900  0.4677 -0.2610
 2558SOL    HW1 8573   5.494   6.195   6.695 -1.6535 -0.0140 -1.0768
 2558SOL    HW2 8574   5.485   6.040   6.643  0.1861 -0.7699  0.7035
 2559SOL     OW 8575   0.905   5.547   0.704 -0.7064 -0.1893 -0.3192
 2559SOL    HW1 8576   0.906   5.516   0.609  0.9054  2.0342 -1.1334
 2559SOL    HW2 8577   0.914   5.468   0.765  0.1033 -1.5370 -2.0878
 2560SOL     OW 8578   6.437   4.885   2.733 -0.0947  0.1580 -0.4793
 2560SOL    HW1 8579   6.384   4.833   2.666 -0.1089  0.7261 -0.9162
 2560SOL    HW2 8580   6.467   4.824   2.806 -1.0495 -0.2416 -0.4027
 2561SOL     OW 8581   4.851   3.703   6.175  0.1199  0.1097 -0.3075
 2561SOL    HW1 8582   4.849   3.623   6.115  0.5404  1.1451 -1.7360
 2561SOL    HW2 8583   4.936   3.752   6.162 -0.4914  1.2583 -0.0731
 2562SOL     OW 8584   1.645   3.528   4.353  0.6714 -0.5549 -0.2510
 2562SOL    HW1 8585   1.734   3.485   4.366  0.2739 -0.6918  2.6848
 2562SOL    HW2 8586   1.581   3.495   4.422 -1.3246  0.4757 -1.4974
 2563SOL     OW 8587   2.336   5.125   6.174 -0.1764  0.5702  0.5544
 2563SOL    HW1 8588   2.416   5.170   6.135  1.6239 -1.4801  1.7117
 2563SOL    HW2 8589   2.260   5.191   6.178  1.4874  2.6666 -0.2750
 2564SOL     OW 8590   6.463   3.164   0.347 -0.4302  0.1040 -0.2036
 2564SOL    HW1 8591   6.506   3.181   0.435  1.0637  0.3825 -0.9516
 2564SOL    HW2 8592   6.528   3.117   0.286 -1.1233  0.6838 -1.4438
 2565SOL     OW 8593   1.719   0.865   4.398 -0.0089 -0.3867 -0.3241
 2565SOL    HW1 8594   1.764   0.840   4.484  3.5358  1.1368 -1.5585
 2565SOL    HW2 8595   1.728   0.789   4.333 -0.2803 -0.4915 -0.2452
 2566SOL     OW 8596   6.747   1.746   2.767  0.6431 -0.4605 -0.1130
 2566SOL    HW1 8597   6.690   1.811   2.718  1.0406 -0.8673 -1.1550
 2566SOL    HW2 8598   6.692   1.697   2.835  0.3060  0.8116  0.5706
 2567SOL     OW 8599   5.285   4.207   2.448 -0.3750  0.0203 -0.4569
 2567SOL    HW1 8600   5.325   4.155   2.523  0.4176 -0.4231 -1.1688
 2567SOL    HW2 8601   5.301   4.305   2.462  1.0785 -0.1502 -0.7727
 2568SOL     OW 8602   1.805   5.138   5.818  0.1884  0.5843 -0.5049
 2568SOL    HW1 8603   1.860   5.154   5.900 -1.3218 -1.4749  0.9948
 2568SOL    HW2 8604   1.723   5.086   5.842  0.5076 -1.5731 -3.5838
 2569SOL     OW 8605   5.629   4.884   4.222 -0.1901  0.0158 -0.1650
 2569SOL    HW1 8606   5.574   4.882   4.305 -1.3595 -2.3039 -0.9247
 2569SOL    HW2 8607   5.603   4.808   4.161  3.7084 -1.2201 -0.6343
 2570SOL     OW 8608   4.872   0.538   6.423 -0.0007 -0.1454  0.3676
 2570SOL    HW1 8609   4.959   0.587   6.408 -0.3573  0.4667  0.2537
 2570SOL    HW2 8610   4.887   0.462   6.486  0.4861  0.3565  0.8723
 2571SOL     OW 8611   3.994   1.012   1.282 -0.7189 -0.4578 -0.3747
 2571SOL    HW1 8612   4.060   1.020   1.207 -2.6097  0.9963 -2.0060
 2571SOL    HW2 8613   4.020   1.073   1.356 -1.2625  1.7554 -1.8954
 2572SOL     OW 8614   3.756   5.687   2.234  0.5357 -0.7655  0.2065
 2572SOL    HW1 8615   3.852   5.658   2.237  0.5542 -0.6500  0.7007
 2572SOL    HW2 8616   3.725   5.686   2.139  1.8075  1.7248 -0.3414
 2573SOL     OW 8617   1.839   2.104   0.393 -0.8284 -0.1811 -0.5517
 2573SOL    HW1 8618   1.815   2.158   0.474  2.5400  0.6866  0.0420
 2573SOL    HW2 8619   1.875   2.015   0.423 -2.4083 -1.1121 -1.3145
 2574SOL     OW 8620   5.911   3.207   1.673  0.5151 -0.3295  0.5926
 2574SOL    HW1 8621   5.919   3.133   1.739 -1.2821 -1.1933 -0.1034
 2574SOL    HW2 8622   5.830   3.262   1.693  1.5725  1.2272  0.8358
 2575SOL     OW 8623   4.062   2.189   4.970  0.5795 -0.0338 -0.1087
 2575SOL    HW1 8624   4.112   2.270   5.000  0.8597 -0.5552  0.8634
 2575SOL    HW2 8625   4.123   2.109   4.973 -0.4694 -0.8113  1.7810
 2576SOL     OW 8626   3.593   3.671   0.011  0.0202  0.1063 -0.8418
 2576SOL    HW1 8627   3.693   3.670   0.007  0.0662 -0.6799  0.1167
 2576SOL    HW2 8628   3.560   3.581   0.038 -0.8431  0.8196  0.6119
 2577SOL     OW 8629   3.162   4.905   6.209 -0.2820 -0.1247 -0.0141
 2577SOL    HW1 8630   3.249   4.924   6.254 -0.7680  1.5982  0.2578
 2577SOL    HW2 8631   3.145   4.807   6.209  1.4093 -0.4470  0.3798
 2578SOL     OW 8632   1.257   0.728   2.300 -0.2757  0.3435  0.2288
 2578SOL    HW1 8633   1.322   0.694   2.233  0.8656  0.6850  1.1419
 2578SOL    HW2 8634   1.179   0.665   2.304  0.7538 -0.9862  0.2900
 2579SOL     OW 8635   2.436   0.744   1.573  0.1942 -0.0228 -0.3370
 2579SOL    HW1 8636   2.501   0.708   1.505  0.1194  1.2037 -1.0930
 2579SOL    HW2 8637   2.425   0.678   1.647 -0.0291 -1.5933 -1.7092
 2580SOL     OW 8638   2.111   1.834   1.431  0.0733 -0.1808 -0.6788
 2580SOL    HW1 8639   2.134   1.859   1.525 -3.2892 -0.2493  0.3079
 2580SOL    HW2 8640   2.012   1.823   1.423  0.3355 -1.2794 -4.0110
 2581SOL     OW 8641   6.339   0.327   2.521  0.6354  0.2302  0.4913
 2581SOL    HW1 8642   6.263   0.338   2.457 -0.9520 -0.6190  2.1452
 2581SOL    HW2 8643   6.371   0.417   2.550 -2.0218  0.7027  2.2960
 2582SOL     OW 8644   4.559   4.986   6.812  0.4571  0.4362 -0.3846
 2582SOL    HW1 8645   4.548   4.960   6.908 -0.5868 -2.2356 -1.1549
 2582SOL    HW2 8646   4.600   4.911   6.761 -0.1931  1.3029 -2.2734
 2583SOL     OW 8647   4.169   0.032   4.721  0.2016 -0.1122 -0.1249
 2583SOL    HW1 8648   4.266   0.008   4.714  0.2421 -0.2539  0.7829
 2583SOL    HW2 8649   4.144   0.041   4.817 -0.9377 -1.1256 -0.3014
 2584SOL     OW 8650   0.997   2.059   2.941 -0.2590 -0.0329  0.0881
 2584SOL    HW1 8651   1.082   2.111   2.949  0.9917 -2.0907  1.2894
 2584SOL    HW2 8652   0.972   2.022   3.031 -1.3265 -1.0975 -0.6132
 2585SOL     OW 8653   6.627   2.667   6.927  0.4311  0.1418 -0.3171
 2585SOL    HW1 8654   6.579   2.720   6.857 -1.8998 -0.8297  0.4243
 2585SOL    HW2 8655   6.568   2.657   7.007  2.3048 -0.3414  1.0672
 2586SOL     OW 8656   5.110   5.066   5.054  0.0295 -0.3372 -0.2640
 2586SOL    HW1 8657   5.182   5.122   5.014 -0.2855  0.8489  0.7518
 2586SOL    HW2 8658   5.069   5.008   4.984  1.1663 -0.1688 -1.0944
 2587SOL     OW 8659   1.502   5.720   4.826 -0.7081 -0.3700 -0.2507
 2587SOL    HW1 8660   1.545   5.809   4.808  0.0677 -0.2708  1.8306
 2587SOL    HW2 8661   1.411   5.718   4.784 -0.8946  1.5575 -0.0412
 2588SOL     OW 8662   2.071   3.861   2.487  0.2321  0.0596 -0.3942
 2588SOL    HW1 8663   2.021   3.939   2.451  0.5421  0.4250 -0.0399
 2588SOL    HW2 8664   2.128   3.821   2.414 -0.5515 -0.3477 -0.7910
 2589SOL     OW 8665   3.965   7.008   3.677 -0.1792  0.4782  0.3187
 2589SOL    HW1 8666   3.912   6.924   3.670  0.4339  0.1199 -0.0973
 2589SOL    HW2 8667   3.974   7.049   3.587  0.1584  0.5929  0.4022
 2590SOL     OW 8668   6.325   0.542   1.881 -0.0169 -0.6222 -0.2398
 2590SOL    HW1 8669   6.336   0.455   1.833 -0.4365 -0.3531 -0.8396
 2590SOL    HW2 8670   6.356   0.616   1.822 -1.7363 -0.1675 -0.6331
 2591SOL     OW 8671   1.012   0.034   3.989  0.3147 -0.0526 -0.0497
 2591SOL    HW1 8672   0.989   0.121   3.946  1.3425 -0.1069 -0.7336
 2591SOL    HW2 8673   0.928  -0.017   4.007 -0.2389  0.6806 -0.5002
 2592SOL     OW 8674   4.931   1.844   5.126  0.0702 -0.1692  0.6069
 2592SOL    HW1 8675   4.933   1.744   5.118 -1.0970 -0.2589  1.2131
 2592SOL    HW2 8676   4.916   1.884   5.036 -0.7163 -0.6001  0.5408
 2593SOL     OW 8677   6.359   6.994   4.822 -0.4016  0.2688  0.1698
 2593SOL    HW1 8678   6.290   7.065   4.840 -1.9204 -1.1814  0.3091
 2593SOL    HW2 8679   6.439   7.010   4.879 -1.8309  0.3499  2.2925
 2594SOL     OW 8680   6.835   5.707   0.491  0.0912 -0.0258  0.6991
 2594SOL    HW1 8681   6.857   5.618   0.529 -2.2196 -1.0698 -0.1928
 2594SOL    HW2 8682   6.846   5.777   0.561  4.5681 -0.4844  0.7124
 2595SOL     OW 8683   2.577   0.253   3.622 -1.0100  0.2060  0.3281
 2595SOL    HW1 8684   2.646   0.187   3.651  0.7113  0.9469 -1.7994
 2595SOL    HW2 8685   2.551   0.235   3.528 -2.2849  1.1545  0.4726
 2596SOL     OW 8686   0.059   0.467   6.586 -0.4577  0.4441 -0.7587
 2596SOL    HW1 8687   0.083   0.557   6.622 -2.1129 -0.3408  2.6995
 2596SOL    HW2 8688  -0.039   0.464   6.566 -0.1484 -0.1884 -2.3293
 2597SOL     OW 8689   0.605   1.391   1.008  0.3440  0.3002  0.1770
 2597SOL    HW1 8690   0.616   1.443   0.923 -2.3744 -0.1144 -0.4928
 2597SOL    HW2 8691   0.511   1.359   1.016  0.5151  0.3165  3.3770
 2598SOL     OW 8692   4.365   5.959   2.540  0.1456 -0.1732 -0.0048
 2598SOL    HW1 8693   4.420   5.981   2.459 -0.7678  1.0399 -0.3279
 2598SOL    HW2 8694   4.304   5.883   2.520  0.3024 -0.2272 -0.2822
 2599SOL     OW 8695   4.879   6.707   5.756 -0.1721  0.1476 -0.5417
 2599SOL    HW1 8696   4.974   6.735   5.742 -0.4670  0.5363 -1.8897
 2599SOL    HW2 8697   4.853   6.643   5.684 -0.0008 -2.4678  1.5648
 2600SOL     OW 8698   4.352   0.234   0.550  0.2417  0.8524 -0.4187
 2600SOL    HW1 8699   4.269   0.215   0.499 -0.9406  3.2240  0.4421
 2600SOL    HW2 8700   4.432   0.206   0.497 -1.0599 -1.2358 -1.3800
 2601SOL     OW 8701   1.292   2.536   2.820  0.6972  0.6027  0.2341
 2601SOL    HW1 8702   1.335   2.618   2.783 -0.9784  0.7784 -1.5303
 2601SOL    HW2 8703   1.200   2.527   2.781  1.9793 -3.9014 -2.4892
 2602SOL     OW 8704   6.662   4.344   0.360  0.0331 -0.3169 -0.2203
 2602SOL    HW1 8705   6.569   4.373   0.340 -0.3191  0.0775  1.8075
 2602SOL    HW2 8706   6.661   4.268   0.425  1.1266 -0.4721 -0.3561
 2603SOL     OW 8707   6.969   4.215   1.559 -0.5905 -0.7740 -0.1301
 2603SOL    HW1 8708   6.950   4.299   1.609  0.0866 -0.8634  0.2924
 2603SOL    HW2 8709   6.908   4.142   1.592 -1.8949 -0.2124 -1.2145
 2604SOL     OW 8710   0.712   1.348   4.531  0.4902  0.2774 -0.7635
 2604SOL    HW1 8711   0.783   1.345   4.602  0.0916  1.5685 -0.2860
 2604SOL    HW2 8712   0.753   1.375   4.445  0.6651  0.5195 -0.6058
 2605SOL     OW 8713   3.688   5.807   1.546  0.0638 -0.1166 -0.0431
 2605SOL    HW1 8714   3.784   5.789   1.525  0.4142 -0.4238  1.6816
 2605SOL    HW2 8715   3.680   5.893   1.596 -0.6571  0.2491 -0.7564
 2606SOL     OW 8716   3.790   6.943   4.836 -0.1957 -0.5114  0.2681
 2606SOL    HW1 8717   3.836   6.857   4.815 -0.9490 -1.0235  0.6474
 2606SOL    HW2 8718   3.698   6.941   4.797  0.0338  0.4280 -0.3475
 2607SOL     OW 8719   5.999   3.804   0.920 -0.3588 -0.5800 -0.0512
 2607SOL    HW1 8720   6.013   3.792   0.822  2.4966  2.0352 -0.1326
 2607SOL    HW2 8721   5.946   3.887   0.936  0.5924 -0.0911  0.6185
 2608SOL     OW 8722   6.786   4.577   3.150  0.2767  0.3884  0.4713
 2608SOL    HW1 8723   6.705   4.635   3.146 -0.8296 -1.1339 -0.8536
 2608SOL    HW2 8724   6.765   4.493   3.200  1.6239  0.7568  1.7246
 2609SOL     OW 8725   1.411   4.967   6.279 -0.5214 -0.6612 -0.2625
 2609SOL    HW1 8726   1.494   4.959   6.334 -0.2642 -0.8939 -0.6855
 2609SOL    HW2 8727   1.424   5.037   6.209 -0.9891 -0.0846  0.2136
 2610SOL     OW 8728   1.195   0.953   0.153 -0.1917  0.3298 -0.2204
 2610SOL    HW1 8729   1.270   1.010   0.185 -1.6558  1.4800  1.3372
 2610SOL    HW2 8730   1.218   0.857   0.167  1.0627  0.6491  0.0189
 2611SOL     OW 8731   5.483   3.988   0.336 -0.3962 -0.2391  0.4299
 2611SOL    HW1 8732   5.399   3.968   0.386 -1.0471  1.0253 -0.1014
 2611SOL    HW2 8733   5.508   4.084   0.350  0.3342 -0.3028 -0.3316
 2612SOL     OW 8734   0.926   6.292   4.247 -0.0577 -0.1083 -0.5557
 2612SOL    HW1 8735   1.022   6.273   4.269  0.2437 -0.7255 -2.3079
 2612SOL    HW2 8736   0.869   6.215   4.277  0.0044  0.1459  0.2503
 2613SOL     OW 8737   2.465   2.270   0.281  0.4210  0.5548 -0.3285
 2613SOL    HW1 8738   2.490   2.353   0.231 -0.1165  1.3356  0.6708
 2613SOL    HW2 8739   2.519   2.264   0.364  1.5180 -0.8923 -1.1085
 2614SOL     OW 8740   1.638   0.695   0.718 -0.2815  0.4996  0.7152
 2614SOL    HW1 8741   1.631   0.714   0.816  1.2521  0.8030  0.7869
 2614SOL    HW2 8742   1.569   0.748   0.669 -0.6589  0.8165  1.5716
 2615SOL     OW 8743   3.793   4.032   2.379  0.2884 -0.7841 -0.8880
 2615SOL    HW1 8744   3.715   4.009   2.438  0.3924  1.9856  0.4786
 2615SOL    HW2 8745   3.878   4.008   2.427  0.3336 -0.1852 -0.6593
 2616SOL     OW 8746   0.816   6.046   4.299  0.4568  0.6074  0.3401
 2616SOL    HW1 8747   0.758   5.971   4.267  2.2010 -1.9619  2.6639
 2616SOL    HW2 8748   0.796   6.065   4.395  1.2377  1.9501  0.2590
 2617SOL     OW 8749   3.664   6.279   6.464 -0.1010  0.7136 -0.3057
 2617SOL    HW1 8750   3.740   6.315   6.410 -0.1150  0.9940 -0.1408
 2617SOL    HW2 8751   3.700   6.229   6.543 -0.0572 -0.5833 -1.1160
 2618SOL     OW 8752   6.643   6.438   5.358  0.3149 -0.4713 -0.5053
 2618SOL    HW1 8753   6.547   6.432   5.333  0.3392 -0.7914 -0.5165
 2618SOL    HW2 8754   6.700   6.416   5.279  0.4165  1.1505 -0.9217
 2619SOL     OW 8755   3.325   1.519   0.315  0.2266  0.0031 -0.5426
 2619SOL    HW1 8756   3.241   1.568   0.290  0.1875  0.5680  0.6368
 2619SOL    HW2 8757   3.389   1.521   0.239 -1.4605 -1.9334 -2.1501
 2620SOL     OW 8758   5.798   2.707   1.086  0.4808 -0.1702 -0.0954
 2620SOL    HW1 8759   5.855   2.633   1.122  1.0723  0.8531  1.1924
 2620SOL    HW2 8760   5.827   2.794   1.127 -0.9899  0.6078 -0.6230
 2621SOL     OW 8761   3.204   1.694   2.658 -0.5425  0.1483 -0.0234
 2621SOL    HW1 8762   3.170   1.639   2.734 -0.9203  0.0882 -0.2327
 2621SOL    HW2 8763   3.217   1.635   2.578  0.8901 -0.0045  0.2910
 2622SOL     OW 8764   1.131   6.410   0.668  0.4788  0.5992 -0.1032
 2622SOL    HW1 8765   1.113   6.345   0.594 -0.9730  0.2600  0.5005
 2622SOL    HW2 8766   1.102   6.370   0.755  0.1517  1.8075  0.3668
 2623SOL     OW 8767   6.557   6.739   4.871 -0.0604  0.0879  0.2248
 2623SOL    HW1 8768   6.539   6.833   4.898 -0.0237 -0.0733  0.8118
 2623SOL    HW2 8769   6.470   6.694   4.849  0.0550  0.8404 -2.0662
 2624SOL     OW 8770   6.015   2.899   2.651 -0.6792  0.2444  1.0134
 2624SOL    HW1 8771   6.063   2.953   2.720  0.3867  0.4944  0.1024
 2624SOL    HW2 8772   6.006   2.804   2.683  0.4328  0.1921  1.2151
 2625SOL     OW 8773   3.134   3.913   2.066  0.1444  0.3930  0.4494
 2625SOL    HW1 8774   3.123   3.967   2.149  1.5834  0.6081  0.5349
 2625SOL    HW2 8775   3.143   3.974   1.987 -0.3781  0.2159  0.2517
 2626SOL     OW 8776   3.296   2.593   0.843 -0.3660  0.0362 -0.5381
 2626SOL    HW1 8777   3.213   2.603   0.789 -2.5018 -1.7972  2.1372
 2626SOL    HW2 8778   3.314   2.496   0.859  1.4149  0.4546  0.2232
 2627SOL     OW 8779   5.212   5.124   4.153 -0.4973 -0.5499  0.3213
 2627SOL    HW1 8780   5.218   5.202   4.215  2.8689 -0.0834 -0.4235
 2627SOL    HW2 8781   5.153   5.148   4.076  1.4474  1.8714 -0.5684
 2628SOL     OW 8782   0.892   3.939   1.556 -0.3612  0.1874  0.1034
 2628SOL    HW1 8783   0.878   3.902   1.465  1.6796  0.8900 -0.5565
 2628SOL    HW2 8784   0.804   3.970   1.594 -1.4216 -1.2700 -1.0697
 2629SOL     OW 8785   4.951   3.006   3.353  0.4683 -0.3524 -0.4986
 2629SOL    HW1 8786   5.027   3.060   3.317  0.1320  0.3429 -0.1806
 2629SOL    HW2 8787   4.940   2.923   3.297  2.7740 -1.5584  0.6507
 2630SOL     OW 8788   5.531   4.623   2.382  0.4206 -0.1541 -0.1274
 2630SOL    HW1 8789   5.527   4.660   2.289  1.2441 -1.7716 -0.8511
 2630SOL    HW2 8790   5.621   4.583   2.398  1.3555  2.6497  2.4369
 2631SOL     OW 8791   4.853   3.292   3.981 -0.2260 -0.7013 -0.2405
 2631SOL    HW1 8792   4.952   3.301   3.968  0.1325 -0.2963  2.3254
 2631SOL    HW2 8793   4.809   3.378   3.954  0.1861 -0.6256 -0.6994
 2632SOL     OW 8794   3.238   6.964   4.955  0.0698 -0.3314  0.1693
 2632SOL    HW1 8795   3.160   6.956   5.018  0.0572 -0.9290  0.0787
 2632SOL    HW2 8796   3.225   6.902   4.878  1.9406 -2.5609  1.5327
 2633SOL     OW 8797   3.803   3.194   4.888  0.2679 -1.0616  0.3384
 2633SOL    HW1 8798   3.750   3.205   4.804  1.1252  1.0774  0.0072
 2633SOL    HW2 8799   3.876   3.127   4.872  0.0635 -1.1145 -0.4269
 2634SOL     OW 8800   2.776   2.056   6.366 -0.2832  0.3045 -0.1131
 2634SOL    HW1 8801   2.679   2.079   6.367 -0.3747 -0.0945  0.2613
 2634SOL    HW2 8802   2.788   1.962   6.337 -0.0543  0.1617  0.4239
 2635SOL     OW 8803   6.850   2.796   5.397  1.1342  0.0655 -0.2583
 2635SOL    HW1 8804   6.837   2.826   5.491 -1.1243 -2.4232  0.3492
 2635SOL    HW2 8805   6.791   2.850   5.336  0.3269 -0.2729  0.2093
 2636SOL     OW 8806   6.485   5.668   0.528 -0.2555  0.9071 -0.3848
 2636SOL    HW1 8807   6.532   5.722   0.458  2.4061  0.6955  1.1083
 2636SOL    HW2 8808   6.547   5.600   0.566 -2.5758 -1.1203  0.0238
 2637SOL     OW 8809   0.130   4.640   4.902  0.2707 -0.6756  0.1245
 2637SOL    HW1 8810   0.158   4.695   4.824 -1.2058 -0.5506 -0.3467
 2637SOL    HW2 8811   0.183   4.667   4.983 -0.1641  1.1967 -0.1703
 2638SOL     OW 8812   1.690   0.173   2.640 -0.4578 -0.4823 -0.5271
 2638SOL    HW1 8813   1.624   0.240   2.606 -0.9671 -1.4343 -1.4386
 2638SOL    HW2 8814   1.774   0.220   2.667 -1.6860  0.8450  1.2700
 2639SOL     OW 8815   6.924   2.024   0.656  0.5225  0.5675 -0.3291
 2639SOL    HW1 8816   7.009   2.063   0.691 -0.3326  2.6957 -0.4786
 2639SOL    HW2 8817   6.924   1.925   0.671  2.9854  0.5077 -0.3163
 2640SOL     OW 8818   0.904   2.804   0.639 -0.0475  0.4004 -0.1671
 2640SOL    HW1 8819   0.836   2.761   0.579 -0.7865 -2.7023  2.5879
 2640SOL    HW2 8820   0.858   2.854   0.711  0.8115  2.9227 -1.2589
 2641SOL     OW 8821   3.542   6.581   3.466 -0.2911  0.7104 -0.1519
 2641SOL    HW1 8822   3.535   6.653   3.397 -2.8829  2.5388  1.8352
 2641SOL    HW2 8823   3.468   6.515   3.451  0.0789  0.2634 -0.0165
 2642SOL     OW 8824   5.149   3.229   2.857 -0.3920 -0.1860  0.4338
 2642SOL    HW1 8825   5.233   3.227   2.911 -0.4339 -1.6303  0.5035
 2642SOL    HW2 8826   5.163   3.180   2.771 -0.9730  0.1483  0.1394
 2643SOL     OW 8827   5.800   3.414   5.708 -0.0265  0.0862  0.1624
 2643SOL    HW1 8828   5.760   3.376   5.625  0.7914 -0.6472  0.0823
 2643SOL    HW2 8829   5.732   3.467   5.757 -0.9158 -0.6359 -0.2646
 2644SOL     OW 8830   3.731   6.956   0.104 -0.0560 -0.8224 -0.3798
 2644SOL    HW1 8831   3.641   6.998   0.108  0.7108  0.9517 -0.8258
 2644SOL    HW2 8832   3.762   6.934   0.197 -0.3814 -0.1878 -0.1177
 2645SOL     OW 8833   0.025   5.496   4.761  0.2401  0.1887  0.2284
 2645SOL    HW1 8834  -0.050   5.497   4.827 -0.3455 -1.6514 -0.3777
 2645SOL    HW2 8835   0.010   5.567   4.693  0.0368  1.0525  1.1381
 2646SOL     OW 8836   2.976   0.231   1.076  0.3860  0.0522  0.4958
 2646SOL    HW1 8837   3.069   0.197   1.065  0.2605 -0.4619  0.9942
 2646SOL    HW2 8838   2.911   0.160   1.046  0.1403  0.1841  0.7183
 2647SOL     OW 8839   3.147   3.681   6.173 -0.5914  0.6261  0.1468
 2647SOL    HW1 8840   3.172   3.620   6.098 -1.4594  0.4062  0.0174
 2647SOL    HW2 8841   3.229   3.725   6.210  0.0348 -0.4982  0.1368
 2648SOL     OW 8842   4.781   6.750   6.004 -0.0361 -0.2803 -0.3648
 2648SOL    HW1 8843   4.692   6.708   5.992  0.4645 -1.2424 -0.8416
 2648SOL    HW2 8844   4.833   6.742   5.919  0.8537 -0.5805  0.1952
 2649SOL     OW 8845   2.220   0.620   4.584  0.1078 -0.3548 -0.0089
 2649SOL    HW1 8846   2.301   0.593   4.532  0.1443 -2.1861  0.9328
 2649SOL    HW2 8847   2.248   0.655   4.674 -0.1186 -0.2935  0.0403
 2650SOL     OW 8848   0.476   2.213   1.228  0.1902  0.1141 -0.1956
 2650SOL    HW1 8849   0.556   2.188   1.173  0.1351 -1.7219  0.4777
 2650SOL    HW2 8850   0.493   2.188   1.324 -0.4171  1.5931  0.3223
 2651SOL     OW 8851   1.285   3.552   4.943 -0.0148 -0.1578 -0.1569
 2651SOL    HW1 8852   1.371   3.595   4.971 -0.8637  2.2203 -0.9401
 2651SOL    HW2 8853   1.230   3.619   4.893 -1.1108 -2.4827 -2.2204
 2652SOL     OW 8854   1.268   3.761   0.541  0.0245 -0.0969  0.3202
 2652SOL    HW1 8855   1.332   3.778   0.466  1.4045 -0.9205  1.2640
 2652SOL    HW2 8856   1.259   3.843   0.596  0.1531  0.0686  0.0967
 2653SOL     OW 8857   5.931   0.195   5.721 -0.3412 -0.6109  0.3514
 2653SOL    HW1 8858   5.958   0.237   5.808  0.9999  0.3760 -0.5008
 2653SOL    HW2 8859   6.008   0.142   5.685 -0.8762 -0.9915 -0.2378
 2654SOL     OW 8860   1.647   2.815   0.868 -0.5985  0.0993  0.0629
 2654SOL    HW1 8861   1.742   2.788   0.859 -0.3368  0.5094  1.3933
 2654SOL    HW2 8862   1.637   2.910   0.839 -0.1828  0.7111  1.8024
 2655SOL     OW 8863   0.414   5.098   6.011 -0.0688  0.3314  0.5289
 2655SOL    HW1 8864   0.410   4.998   6.001  0.9396  0.0598  2.4046
 2655SOL    HW2 8865   0.493   5.134   5.963  0.2413  0.0642  0.8357
 2656SOL     OW 8866   1.996   2.912   4.822  0.2001 -0.3574 -0.3564
 2656SOL    HW1 8867   2.035   2.905   4.914  0.0751 -1.1539 -0.3608
 2656SOL    HW2 8868   2.024   2.999   4.781 -0.0260  0.1644  0.5622
 2657SOL     OW 8869   4.407   2.068   4.543 -0.3476 -0.5333 -0.7041
 2657SOL    HW1 8870   4.434   2.050   4.638  0.3758  1.1945 -0.5429
 2657SOL    HW2 8871   4.374   2.162   4.535  1.1686 -0.0880 -2.4669
 2658SOL     OW 8872   1.561   4.657   5.447  0.6227  0.3010  0.0643
 2658SOL    HW1 8873   1.461   4.652   5.446  0.4597  2.3124  0.5615
 2658SOL    HW2 8874   1.597   4.627   5.358 -0.6004  1.6881 -0.9584
 2659SOL     OW 8875   6.154   2.938   0.669  0.0569  0.5379  0.0967
 2659SOL    HW1 8876   6.076   2.876   0.682  0.7687 -0.5989 -0.7848
 2659SOL    HW2 8877   6.219   2.896   0.605  0.5556  2.2326 -0.5734
 2660SOL     OW 8878   1.505   5.742   3.504 -0.4955  0.1948 -0.1188
 2660SOL    HW1 8879   1.496   5.840   3.520 -0.3831  0.1956 -0.0559
 2660SOL    HW2 8880   1.422   5.707   3.460  0.1004  0.6052 -1.6161
 2661SOL     OW 8881   4.118   6.945   5.344 -0.8634  0.3039  1.0233
 2661SOL    HW1 8882   4.052   6.877   5.313  1.8546 -2.9657  1.8358
 2661SOL    HW2 8883   4.138   6.930   5.440 -0.5694  2.7325  1.4022
 2662SOL     OW 8884   5.359   1.824   4.904  0.2539 -0.2804  0.2201
 2662SOL    HW1 8885   5.309   1.910   4.916  0.7364 -0.0256  0.4220
 2662SOL    HW2 8886   5.294   1.748   4.906 -0.0915  0.0155  0.9026
 2663SOL     OW 8887   2.290   7.014   0.248  0.5170 -0.2924 -0.0595
 2663SOL    HW1 8888   2.235   6.992   0.167 -0.1369 -0.8770  0.5323
 2663SOL    HW2 8889   2.306   7.113   0.251 -0.3582 -0.1295 -0.3517
 2664SOL     OW 8890   5.087   3.584   0.366 -0.2414 -0.6018  0.2383
 2664SOL    HW1 8891   5.096   3.646   0.444 -0.5318  0.0531 -0.2350
 2664SOL    HW2 8892   5.174   3.540   0.348  0.6604  1.5244 -0.9288
 2665SOL     OW 8893   2.727   2.134   1.070 -0.0634  0.2285 -0.3288
 2665SOL    HW1 8894   2.680   2.212   1.110 -1.3422 -1.5905  1.9906
 2665SOL    HW2 8895   2.676   2.102   0.990 -1.1652  0.0815  0.4034
 2666SOL     OW 8896   2.606   2.442   0.966  0.2645  0.8990  0.3486
 2666SOL    HW1 8897   2.700   2.431   0.933 -0.0221 -0.9656  0.0397
 2666SOL    HW2 8898   2.544   2.449   0.888  0.0746  1.3758  0.5424
 2667SOL     OW 8899   5.041   6.901   6.500  0.1932  0.3955 -0.8959
 2667SOL    HW1 8900   5.136   6.924   6.525  0.9630 -3.0476 -0.1911
 2667SOL    HW2 8901   5.042   6.839   6.421 -1.3816 -0.6992 -0.1004
 2668SOL     OW 8902   3.179   3.928   3.686 -0.0172  0.3685 -0.6171
 2668SOL    HW1 8903   3.184   3.990   3.764 -0.1270 -0.3810  0.0015
 2668SOL    HW2 8904   3.267   3.926   3.639  0.5360 -0.3187  0.4034
 2669SOL     OW 8905   3.730   4.570   1.050 -0.6183 -0.3852  0.0636
 2669SOL    HW1 8906   3.770   4.550   1.139 -0.2441 -1.0384 -0.2364
 2669SOL    HW2 8907   3.792   4.538   0.978  0.4320  2.6270 -0.5185
 2670SOL     OW 8908   0.435   2.459   0.249 -0.2462 -0.4624 -0.2428
 2670SOL    HW1 8909   0.357   2.492   0.302 -2.6205 -1.9469 -2.5736
 2670SOL    HW2 8910   0.473   2.534   0.194  0.2020  0.3213  1.0811
 2671SOL     OW 8911   5.082   4.593   0.838 -0.1832 -0.4543  0.6925
 2671SOL    HW1 8912   5.015   4.603   0.911  0.8015  0.3153  1.5352
 2671SOL    HW2 8913   5.127   4.681   0.822 -0.4837 -0.5709 -0.9677
 2672SOL     OW 8914   3.294   3.442   6.271  0.0350  0.6304 -0.9176
 2672SOL    HW1 8915   3.322   3.495   6.191  0.5353  1.7251 -0.0517
 2672SOL    HW2 8916   3.329   3.486   6.354  0.6203 -1.1772 -0.1607
 2673SOL     OW 8917   3.785   4.547   5.835 -0.3556 -0.0491  0.2990
 2673SOL    HW1 8918   3.759   4.467   5.889 -0.1863  0.0346  0.5022
 2673SOL    HW2 8919   3.798   4.520   5.740  1.2846 -0.5929  0.6431
 2674SOL     OW 8920   1.746   6.564   6.427 -0.4481  0.5289  0.0519
 2674SOL    HW1 8921   1.657   6.519   6.428 -0.2370  0.1082  0.6967
 2674SOL    HW2 8922   1.801   6.527   6.352 -0.0194 -0.8460  0.9923
 2675SOL     OW 8923   6.510   1.171   5.858 -0.0442  0.5675 -0.2974
 2675SOL    HW1 8924   6.570   1.119   5.798 -0.0617 -0.4871  0.5798
 2675SOL    HW2 8925   6.420   1.179   5.815  0.0558  0.1606 -0.5887
 2676SOL     OW 8926   3.432   1.876   4.390  0.2937  0.3527 -0.2565
 2676SOL    HW1 8927   3.395   1.963   4.422  1.7931  0.5868  0.9617
 2676SOL    HW2 8928   3.510   1.850   4.447 -0.2444 -1.9032 -0.4731
 2677SOL     OW 8929   4.128   5.509   5.475  0.2668  0.3515  0.5740
 2677SOL    HW1 8930   4.088   5.418   5.468 -0.5320  0.4969  2.6451
 2677SOL    HW2 8931   4.223   5.501   5.505  1.2043  0.1282 -2.1244
 2678SOL     OW 8932   5.158   2.064   4.897  0.3654 -0.1291 -0.9760
 2678SOL    HW1 8933   5.174   2.116   4.981  0.6350  0.7982 -1.5845
 2678SOL    HW2 8934   5.217   2.099   4.825 -1.0195  0.1814 -1.9977
 2679SOL     OW 8935   0.093   3.580   2.132 -0.5251 -0.3980  0.1940
 2679SOL    HW1 8936  -0.002   3.573   2.164 -0.6459  2.3475  0.7170
 2679SOL    HW2 8937   0.099   3.651   2.062  0.9219 -1.6166 -0.9718
 2680SOL     OW 8938   0.153   0.302   6.116 -0.3040 -0.7612 -0.2082
 2680SOL    HW1 8939   0.227   0.235   6.126  0.6417  0.0704 -1.3998
 2680SOL    HW2 8940   0.158   0.369   6.190  0.0017 -0.8164 -0.1791
 2681SOL     OW 8941   4.175   5.322   6.428  0.7726  0.3869 -0.3347
 2681SOL    HW1 8942   4.159   5.330   6.330 -0.1003  2.0925 -0.1093
 2681SOL    HW2 8943   4.131   5.400   6.474  1.2001 -0.3641  1.3959
 2682SOL     OW 8944   6.202   0.227   1.299 -0.0690  0.1684  0.1538
 2682SOL    HW1 8945   6.291   0.220   1.344  0.2079 -0.7247 -0.4941
 2682SOL    HW2 8946   6.137   0.275   1.359  0.1178 -1.4837  1.7638
 2683SOL     OW 8947   0.607   5.679   4.889  0.1666  0.1084  0.0289
 2683SOL    HW1 8948   0.678   5.742   4.922 -0.1027 -0.2502  1.3719
 2683SOL    HW2 8949   0.602   5.600   4.951 -1.9564  0.5081  0.4459
 2684SOL     OW 8950   4.417   4.756   4.552  0.0072  0.1045 -0.8061
 2684SOL    HW1 8951   4.457   4.692   4.486 -0.8657  0.2996 -1.5510
 2684SOL    HW2 8952   4.386   4.707   4.633 -0.5897 -0.4303 -1.3425
 2685SOL     OW 8953   6.728   2.659   6.317 -0.7210  0.0417  0.4718
 2685SOL    HW1 8954   6.770   2.730   6.259  0.9504 -0.1782  1.3487
 2685SOL    HW2 8955   6.661   2.701   6.378 -0.3154  0.7560  0.4379
 2686SOL     OW 8956   1.728   4.519   5.621  0.5514  0.4404  0.1032
 2686SOL    HW1 8957   1.658   4.558   5.562 -0.0176 -0.7325 -0.0231
 2686SOL    HW2 8958   1.809   4.496   5.567  0.3550  0.1507 -0.0652
 2687SOL     OW 8959   2.245   4.169   6.841 -0.4357 -0.1018 -0.0239
 2687SOL    HW1 8960   2.313   4.134   6.906  1.0700  1.5573 -0.6177
 2687SOL    HW2 8961   2.288   4.179   6.751 -1.7470  0.1617 -0.6416
 2688SOL     OW 8962   4.691   3.175   5.283  1.1065  0.0109 -0.2267
 2688SOL    HW1 8963   4.762   3.224   5.232  1.1772  0.0927 -0.0507
 2688SOL    HW2 8964   4.656   3.234   5.355 -0.3955  0.6315 -1.4173
 2689SOL     OW 8965   6.881   1.752   0.896  0.2721 -0.2510 -0.1853
 2689SOL    HW1 8966   6.925   1.707   0.818 -0.0407  0.1098 -0.5748
 2689SOL    HW2 8967   6.944   1.754   0.974  0.6661 -0.4178 -0.4982
 2690SOL     OW 8968   1.325   4.446   5.170 -0.1171 -0.0760  0.2116
 2690SOL    HW1 8969   1.346   4.541   5.194  0.4013  0.0424 -0.6760
 2690SOL    HW2 8970   1.304   4.439   5.073 -1.0532 -0.7338  0.4457
 2691SOL     OW 8971   4.801   0.835   0.017  0.3335  0.5858  0.4183
 2691SOL    HW1 8972   4.898   0.828  -0.005  0.4059  0.3417  0.8066
 2691SOL    HW2 8973   4.790   0.848   0.116 -0.0896 -1.2954  0.6613
 2692SOL     OW 8974   5.868   0.780   6.119  0.1725  0.5836  0.5746
 2692SOL    HW1 8975   5.906   0.707   6.063 -0.8703 -0.6156  1.3691
 2692SOL    HW2 8976   5.943   0.834   6.159  0.9342  0.6080 -0.8404
 2693SOL     OW 8977   6.791   4.155   0.758 -0.0175 -0.5446  0.3725
 2693SOL    HW1 8978   6.795   4.055   0.760 -2.5973 -0.7732 -1.5056
 2693SOL    HW2 8979   6.826   4.188   0.671  1.1290  0.2585  1.1094
 2694SOL     OW 8980   5.941   5.770   6.857  0.3078  0.0904 -0.2349
 2694SOL    HW1 8981   5.869   5.839   6.855  1.8052  1.8541  1.6157
 2694SOL    HW2 8982   6.029   5.813   6.835  1.0785 -1.6068 -0.6593
 2695SOL     OW 8983   5.968   4.584   0.863  0.1031  0.9369  0.3756
 2695SOL    HW1 8984   6.051   4.530   0.854 -0.0646  0.5868  0.8929
 2695SOL    HW2 8985   5.904   4.538   0.925 -0.7938  0.8142 -0.6014
 2696SOL     OW 8986   3.257   2.000   5.427 -0.4955 -0.2523 -0.1414
 2696SOL    HW1 8987   3.198   2.080   5.411 -1.2705 -0.0688  2.9397
 2696SOL    HW2 8988   3.199   1.919   5.435 -0.1138 -0.4455  0.6845
 2697SOL     OW 8989   6.425   5.169   5.642 -0.0302 -0.0658 -0.6869
 2697SOL    HW1 8990   6.494   5.223   5.690 -0.1637  0.6154 -1.2527
 2697SOL    HW2 8991   6.335   5.208   5.658 -0.4195 -1.4717  0.7816
 2698SOL     OW 8992   6.682   0.677   0.993  0.5917  0.3619 -0.1670
 2698SOL    HW1 8993   6.627   0.707   1.071  1.5743  0.7831  0.3812
 2698SOL    HW2 8994   6.774   0.653   1.024  0.8606  0.0984 -1.1300
 2699SOL     OW 8995   6.927   5.107   5.289 -0.0506 -0.4443 -0.0720
 2699SOL    HW1 8996   6.935   5.148   5.198 -0.2276 -0.2530  0.0001
 2699SOL    HW2 8997   6.851   5.042   5.290 -1.9990  1.7016  0.7430
 2700SOL     OW 8998   4.624   6.460   2.303  0.0658  0.0791  0.5145
 2700SOL    HW1 8999   4.576   6.375   2.326  1.0039 -0.3140  1.1099
 2700SOL    HW2 9000   4.583   6.501   2.221 -1.4423 -0.0793  1.1545
 2701SOL     OW 9001   2.242   6.244   4.497  0.0893  0.2523 -0.1474
 2701SOL    HW1 9002   2.188   6.278   4.575  2.1548  0.3394  1.3145
 2701SOL    HW2 9003   2.318   6.307   4.480  1.9012 -1.7334  0.2834
 2702SOL     OW 9004   0.031   5.382   0.256  0.1527 -0.4628 -0.1965
 2702SOL    HW1 9005   0.020   5.480   0.247  0.9561 -0.2358  1.0470
 2702SOL    HW2 9006   0.097   5.349   0.188 -1.7670 -0.5411 -2.1322
 2703SOL     OW 9007   3.754   1.000   6.992  0.1751 -0.4779 -0.0508
 2703SOL    HW1 9008   3.717   1.003   7.085 -1.6948 -2.0152 -0.6711
 2703SOL    HW2 9009   3.750   1.091   6.951  0.0795  0.0164  1.0251
 2704SOL     OW 9010   5.699   3.846   4.518  0.0697 -0.0829 -0.0243
 2704SOL    HW1 9011   5.641   3.873   4.441  1.4037  1.6948 -0.4649
 2704SOL    HW2 9012   5.683   3.906   4.595  0.9022  0.0779  0.0383
 2705SOL     OW 9013   3.711   0.224   2.352  0.3066  0.4016  0.0591
 2705SOL    HW1 9014   3.733   0.269   2.439 -2.3836  1.7616  0.1299
 2705SOL    HW2 9015   3.616   0.195   2.352  1.3189 -3.5208 -0.8712
 2706SOL     OW 9016   4.651   4.059   0.409 -0.4557  0.4446 -0.3528
 2706SOL    HW1 9017   4.700   4.134   0.365 -1.1311  1.6095  0.8049
 2706SOL    HW2 9018   4.675   4.056   0.506 -1.0552 -0.3232 -0.2224
 2707SOL     OW 9019   5.853   2.577   5.496  0.0974 -0.0848 -0.8795
 2707SOL    HW1 9020   5.789   2.571   5.572 -1.2328 -2.0395 -2.0451
 2707SOL    HW2 9021   5.843   2.496   5.438  3.0762 -0.0660 -1.5872
 2708SOL     OW 9022   0.405   2.813   5.875  0.0342 -0.0784 -0.4097
 2708SOL    HW1 9023   0.320   2.865   5.889  0.3860  0.7655 -1.2405
 2708SOL    HW2 9024   0.388   2.739   5.810 -0.0622  0.1239 -0.6191
 2709SOL     OW 9025   3.474   1.469   2.065  0.0281 -0.1451  0.0503
 2709SOL    HW1 9026   3.411   1.535   2.107 -0.1634  0.0610 -0.5416
 2709SOL    HW2 9027   3.424   1.386   2.040  0.2528 -0.4818  0.7214
 2710SOL     OW 9028   3.800   0.824   1.314  0.1388 -0.3078  0.3506
 2710SOL    HW1 9029   3.795   0.793   1.409  0.8100  0.2984  0.5954
 2710SOL    HW2 9030   3.847   0.913   1.311  0.2436 -0.3896 -0.5638
 2711SOL     OW 9031   5.279   5.968   5.214  0.5588 -0.0592  0.5840
 2711SOL    HW1 9032   5.228   6.045   5.177  0.1114 -1.5129 -2.0938
 2711SOL    HW2 9033   5.238   5.940   5.302 -0.3772  1.5853  0.7193
 2712SOL     OW 9034   6.028   6.616   3.435  0.3462 -0.2563 -0.5228
 2712SOL    HW1 9035   5.994   6.679   3.504  0.0749 -1.4532  0.4663
 2712SOL    HW2 9036   6.090   6.664   3.373 -0.4486  1.1468 -0.2634
 2713SOL     OW 9037   0.692   5.183   2.590  0.1448 -0.9551 -0.5337
 2713SOL    HW1 9038   0.700   5.238   2.673  1.8825  1.9602 -2.4393
 2713SOL    HW2 9039   0.601   5.193   2.551  0.8516  2.1817 -1.6952
 2714SOL     OW 9040   2.853   2.387   6.987  0.4248 -0.0458 -0.0349
 2714SOL    HW1 9041   2.875   2.344   6.899 -1.6300  1.5817 -1.4115
 2714SOL    HW2 9042   2.813   2.319   7.048 -0.6770 -0.6371 -1.3642
 2715SOL     OW 9043   1.352   4.036   1.868  0.0067  0.1871  0.3972
 2715SOL    HW1 9044   1.265   3.992   1.843  0.6703 -0.8219 -0.2000
 2715SOL    HW2 9045   1.351   4.131   1.836 -0.0157 -0.4461 -1.6602
 2716SOL     OW 9046   3.828   5.260   6.599  0.5450 -0.4259 -0.2505
 2716SOL    HW1 9047   3.873   5.335   6.552 -1.8466  0.4337 -1.3375
 2716SOL    HW2 9048   3.860   5.255   6.694 -0.4429  3.1119  0.4009
 2717SOL     OW 9049   0.696   4.876   1.904 -0.2148  0.0243 -0.3229
 2717SOL    HW1 9050   0.736   4.807   1.964  1.2906  0.0030 -1.3048
 2717SOL    HW2 9051   0.632   4.832   1.840  0.3310 -0.3899 -0.5920
 2718SOL     OW 9052   1.109   5.197   0.440 -0.2012 -0.3304 -0.7223
 2718SOL    HW1 9053   1.131   5.144   0.522  0.0795  1.9422  0.7673
 2718SOL    HW2 9054   1.011   5.215   0.437 -0.2056 -0.3773 -0.8618
 2719SOL     OW 9055   0.219   2.072   2.730  0.1084  0.0431  0.1394
 2719SOL    HW1 9056   0.196   2.030   2.818  0.8636 -0.9375 -0.1110
 2719SOL    HW2 9057   0.165   2.155   2.717 -0.2204  0.0389  1.3958
 2720SOL     OW 9058   2.746   2.710   5.340  0.1882 -0.7265 -0.1411
 2720SOL    HW1 9059   2.749   2.621   5.293  0.5146 -0.2887 -0.9737
 2720SOL    HW2 9060   2.796   2.777   5.286 -2.5323  0.6753 -1.0643
 2721SOL     OW 9061   0.807   1.553   5.577 -0.1495 -0.5794  0.1179
 2721SOL    HW1 9062   0.815   1.465   5.625  0.2993 -0.0161  1.1064
 2721SOL    HW2 9063   0.807   1.537   5.478  1.0828 -1.6137  0.2570
 2722SOL     OW 9064   0.171   6.933   3.739 -0.8980  0.0681  0.0507
 2722SOL    HW1 9065   0.074   6.926   3.761 -1.1850  3.5408  0.4977
 2722SOL    HW2 9066   0.223   6.952   3.823  0.0921 -0.9604 -0.2963
 2723SOL     OW 9067   4.697   1.109   3.205 -0.4468 -0.1314  0.1558
 2723SOL    HW1 9068   4.666   1.184   3.146 -0.7625 -1.1228 -0.9707
 2723SOL    HW2 9069   4.765   1.144   3.269  1.5238  0.6101 -2.1763
 2724SOL     OW 9070   0.551   3.891   5.728  0.1687  0.8440  0.0501
 2724SOL    HW1 9071   0.549   3.977   5.678  0.7756  0.6218 -0.3804
 2724SOL    HW2 9072   0.618   3.830   5.686 -0.4240  0.0688  0.1982
 2725SOL     OW 9073   6.694   6.550   5.964  0.4932 -0.0324  0.1438
 2725SOL    HW1 9074   6.728   6.626   5.909  0.9847 -0.0990  0.3503
 2725SOL    HW2 9075   6.610   6.578   6.011  1.7834  1.1536  1.9277
 2726SOL     OW 9076   1.137   6.781   0.475  0.0417 -0.0351  0.3350
 2726SOL    HW1 9077   1.090   6.869   0.470  1.0120  0.6227  2.0186
 2726SOL    HW2 9078   1.235   6.795   0.463  0.3116 -0.7340  1.6396
 2727SOL     OW 9079   2.949   6.029   6.072 -0.1046  0.5674  0.5353
 2727SOL    HW1 9080   2.955   6.105   6.136 -1.1506  0.6322  0.5750
 2727SOL    HW2 9081   3.038   6.015   6.029  0.5359  0.7154  1.7652
 2728SOL     OW 9082   3.341   1.786   6.378  0.5011  0.2726  0.7619
 2728SOL    HW1 9083   3.258   1.827   6.342  1.4318  1.0275 -0.5902
 2728SOL    HW2 9084   3.416   1.852   6.375  0.9395 -0.0231  2.9860
 2729SOL     OW 9085   3.853   3.707   3.846  0.4814 -0.7197  0.1748
 2729SOL    HW1 9086   3.892   3.758   3.770 -0.6715  1.2193  0.8284
 2729SOL    HW2 9087   3.772   3.657   3.815 -1.4004  1.9184  0.4957
 2730SOL     OW 9088   2.772   4.046   0.590 -0.0422  0.3635 -0.0158
 2730SOL    HW1 9089   2.708   4.119   0.565  0.0995  0.0140 -1.5354
 2730SOL    HW2 9090   2.759   3.968   0.528  1.6904  0.2052 -0.2401
 2731SOL     OW 9091   5.491   2.080   1.268  0.3718 -0.8037 -0.1555
 2731SOL    HW1 9092   5.466   2.176   1.256  1.3734 -0.4304  0.6363
 2731SOL    HW2 9093   5.408   2.024   1.273 -0.2113 -0.1209 -1.5705
 2732SOL     OW 9094   0.844   1.841   6.024  0.7957  0.5304 -0.0228
 2732SOL    HW1 9095   0.875   1.834   5.929  1.6226 -0.4732  0.3042
 2732SOL    HW2 9096   0.918   1.814   6.085 -0.7315 -2.1089  0.8060
 2733SOL     OW 9097   3.328   0.558   6.901  0.0597  0.1304 -0.3682
 2733SOL    HW1 9098   3.382   0.642   6.893 -1.4668  1.0952 -0.9707
 2733SOL    HW2 9099   3.297   0.530   6.810  1.4044 -1.7206 -0.3249
 2734SOL     OW 9100   2.249   5.626   6.866 -0.4739 -0.7969 -0.2443
 2734SOL    HW1 9101   2.327   5.653   6.923 -0.9922  0.2216  0.0015
 2734SOL    HW2 9102   2.263   5.660   6.773  0.2656 -2.2668 -0.6990
 2735SOL     OW 9103   6.598   6.669   1.555 -0.4905  0.1054 -0.5479
 2735SOL    HW1 9104   6.659   6.747   1.567 -0.2642 -0.0998 -0.3548
 2735SOL    HW2 9105   6.644   6.597   1.503 -0.6221  0.0139 -0.5390
 2736SOL     OW 9106   6.895   2.386   5.203 -0.0796 -0.0776  0.1541
 2736SOL    HW1 9107   6.855   2.355   5.117  4.0958  0.7994 -2.4194
 2736SOL    HW2 9108   6.879   2.318   5.274 -1.9608 -1.8642 -1.8261
 2737SOL     OW 9109   0.080   0.493   6.999  0.3404  0.5759  0.3271
 2737SOL    HW1 9110   0.149   0.562   7.022 -0.1493  0.9602  0.6803
 2737SOL    HW2 9111  -0.007   0.519   7.041  0.3251 -0.6459  1.1034
 2738SOL     OW 9112   5.435   0.092   2.201 -0.5358 -0.1436 -0.3317
 2738SOL    HW1 9113   5.351   0.106   2.150  0.7974  2.0602 -2.0819
 2738SOL    HW2 9114   5.416   0.036   2.282 -3.3297 -1.0216 -1.4881
 2739SOL     OW 9115   2.577   1.789   6.171 -0.0126  0.1385 -0.1589
 2739SOL    HW1 9116   2.542   1.700   6.201  2.0839 -1.0416 -1.0320
 2739SOL    HW2 9117   2.666   1.806   6.213 -0.0521  1.4873 -0.5835
 2740SOL     OW 9118   6.300   4.751   4.259 -0.1511 -0.2971  0.2280
 2740SOL    HW1 9119   6.319   4.847   4.281  0.8065 -0.6692  1.1235
 2740SOL    HW2 9120   6.299   4.697   4.343 -1.2786 -0.9891 -0.2077
 2741SOL     OW 9121   3.965   1.861   4.449  0.2317  0.2740  0.3122
 2741SOL    HW1 9122   4.001   1.952   4.470 -0.6023  0.6491  0.1614
 2741SOL    HW2 9123   3.908   1.866   4.367  3.1943 -1.1049 -2.0164
 2742SOL     OW 9124   0.556   6.612   4.959  0.4205 -0.1713 -0.5818
 2742SOL    HW1 9125   0.525   6.652   5.045  0.1730 -1.7778  0.1146
 2742SOL    HW2 9126   0.485   6.552   4.923  0.6029  0.3439 -1.8253
 2743SOL     OW 9127   1.114   0.505   4.825 -0.3108 -0.1435 -0.0457
 2743SOL    HW1 9128   1.082   0.410   4.831  0.4471 -0.3748  0.4707
 2743SOL    HW2 9129   1.074   0.548   4.744 -1.0597 -0.7459 -0.0163
 2744SOL     OW 9130   0.801   5.673   5.354  0.8191 -0.2858 -0.4463
 2744SOL    HW1 9131   0.799   5.581   5.314  0.2472 -0.1576 -0.7110
 2744SOL    HW2 9132   0.779   5.741   5.284 -2.5746 -0.2112  0.5175
 2745SOL     OW 9133   5.194   3.043   6.574 -0.1335 -0.2692 -0.1391
 2745SOL    HW1 9134   5.262   3.022   6.644 -1.9097 -1.7263  1.2827
 2745SOL    HW2 9135   5.208   2.984   6.495  0.4251 -0.3609  0.0254
 2746SOL     OW 9136   6.816   3.384   0.957  0.2423  0.3731 -0.3274
 2746SOL    HW1 9137   6.858   3.317   1.019 -0.7522 -0.8618 -0.9249
 2746SOL    HW2 9138   6.868   3.387   0.872  0.0721  0.0501 -0.4475
 2747SOL     OW 9139   3.387   3.736   3.834 -0.3763 -0.2302 -0.1238
 2747SOL    HW1 9140   3.331   3.818   3.825  0.4312  0.2935 -0.5059
 2747SOL    HW2 9141   3.467   3.756   3.892  1.9280  0.4244 -3.2821
 2748SOL     OW 9142   4.370   2.630   5.968 -0.3334  0.1471 -0.2450
 2748SOL    HW1 9143   4.422   2.706   5.929  1.1810 -0.1571  1.0768
 2748SOL    HW2 9144   4.285   2.618   5.917  0.0259  1.8532 -1.3172
 2749SOL     OW 9145   0.097   3.313   2.065 -0.5444  0.0937 -0.0263
 2749SOL    HW1 9146   0.029   3.284   2.132 -0.2726  1.2993  0.7851
 2749SOL    HW2 9147   0.116   3.410   2.075  1.0999 -0.1536 -0.4316
 2750SOL     OW 9148   3.304   3.717   4.495  0.1165 -0.2104  0.5616
 2750SOL    HW1 9149   3.360   3.754   4.568  1.1413 -0.5938 -0.0118
 2750SOL    HW2 9150   3.219   3.680   4.533 -1.0602  2.7845  1.1531
 2751SOL     OW 9151   1.274   2.791   2.264 -0.6149  1.2794  0.0230
 2751SOL    HW1 9152   1.330   2.825   2.188  0.8375  4.6247  2.3660
 2751SOL    HW2 9153   1.326   2.797   2.349 -2.3277 -1.9285  1.4849
 2752SOL     OW 9154   4.796   1.141   2.668 -0.2146 -0.3986 -0.4032
 2752SOL    HW1 9155   4.813   1.231   2.627 -2.2720 -0.0331 -0.5541
 2752SOL    HW2 9156   4.815   1.069   2.602 -0.3767  0.0183 -0.9032
 2753SOL     OW 9157   2.368   3.686   0.925  0.3196 -0.4362 -0.2264
 2753SOL    HW1 9158   2.340   3.750   0.997 -0.6323 -2.1462  0.9835
 2753SOL    HW2 9159   2.424   3.614   0.964  0.4390 -0.9823 -1.3615
 2754SOL     OW 9160   2.570   5.941   4.027  0.4230 -0.3195 -0.0762
 2754SOL    HW1 9161   2.555   5.948   4.126 -2.1031 -1.1836 -0.3197
 2754SOL    HW2 9162   2.655   5.891   4.010  1.2996  0.5068  1.6282
 2755SOL     OW 9163   6.257   1.655   6.807 -0.0616 -0.1299  0.2127
 2755SOL    HW1 9164   6.196   1.719   6.853  0.9672 -0.0462  1.5208
 2755SOL    HW2 9165   6.327   1.706   6.756  0.7982 -0.1647  1.3087
 2756SOL     OW 9166   1.953   1.077   4.927  0.4682 -0.1049 -0.7258
 2756SOL    HW1 9167   1.957   1.006   4.998  0.8605 -0.3740 -1.0179
 2756SOL    HW2 9168   1.986   1.039   4.841 -1.2601 -0.1854 -1.3875
 2757SOL     OW 9169   2.759   1.651   4.306  0.3255  0.4768 -0.4425
 2757SOL    HW1 9170   2.753   1.711   4.386 -1.2026 -0.0010 -0.1597
 2757SOL    HW2 9171   2.774   1.557   4.337  1.5319  0.5347 -0.8221
 2758SOL     OW 9172   1.237   3.109   1.406  0.1134 -0.0970 -0.4651
 2758SOL    HW1 9173   1.187   3.071   1.484  1.8330 -2.8582 -0.5374
 2758SOL    HW2 9174   1.322   3.151   1.438  0.5706 -0.7683 -0.7594
 2759SOL     OW 9175   2.711   5.768   0.876 -0.3830  0.7995 -0.1713
 2759SOL    HW1 9176   2.663   5.775   0.788  1.1437 -0.3641 -1.1602
 2759SOL    HW2 9177   2.728   5.672   0.897  1.7083  1.1560 -0.0170
 2760SOL     OW 9178   1.541   5.688   4.134  0.5917  0.3942 -0.0288
 2760SOL    HW1 9179   1.572   5.619   4.199 -1.0958 -2.4890 -2.0760
 2760SOL    HW2 9180   1.443   5.702   4.145  0.4741  0.6244 -1.2574
 2761SOL     OW 9181   0.356   4.406   5.312 -0.1468 -0.1573 -0.2270
 2761SOL    HW1 9182   0.287   4.413   5.384 -1.4898  0.3789 -1.5184
 2761SOL    HW2 9183   0.383   4.310   5.302 -0.7296 -0.3820  0.2792
 2762SOL     OW 9184   0.014   0.784   6.035  0.0883  0.6908 -0.3744
 2762SOL    HW1 9185  -0.080   0.802   6.004  0.0821  2.2900  0.4560
 2762SOL    HW2 9186   0.044   0.695   6.002 -1.7095  0.1720 -0.6909
 2763SOL     OW 9187   2.700   6.089   4.990 -0.4554  0.6921 -0.1741
 2763SOL    HW1 9188   2.699   6.004   5.043  0.9842  1.0661  0.5088
 2763SOL    HW2 9189   2.715   6.166   5.052 -0.7478  1.3492 -0.9080
 2764SOL     OW 9190   2.109   6.425   5.403  0.3358  0.3355 -0.2478
 2764SOL    HW1 9191   2.195   6.375   5.409  0.5420  0.4992 -1.5918
 2764SOL    HW2 9192   2.068   6.410   5.313 -1.1134  0.1539  0.4038
 2765SOL     OW 9193   6.079   4.226   0.031  0.2889 -0.4672 -0.0852
 2765SOL    HW1 9194   6.138   4.307   0.035 -0.8611  0.5172 -1.7921
 2765SOL    HW2 9195   6.050   4.211  -0.064 -2.1339 -0.9441  0.6738
 2766SOL     OW 9196   2.232   3.054   4.270 -0.6149 -0.0497 -0.0751
 2766SOL    HW1 9197   2.276   2.964   4.276  0.4314  0.3122 -1.7018
 2766SOL    HW2 9198   2.202   3.083   4.361 -0.6104 -1.8529  0.5421
 2767SOL     OW 9199   6.485   3.166   4.136 -0.4110 -0.2451  0.1659
 2767SOL    HW1 9200   6.526   3.081   4.103 -0.9691 -0.2358 -0.5968
 2767SOL    HW2 9201   6.390   3.171   4.105  0.3756  1.9365 -2.2517
 2768SOL     OW 9202   2.439   5.204   5.243 -0.6391 -0.3828 -0.5316
 2768SOL    HW1 9203   2.413   5.261   5.321 -0.5777  0.3909 -1.0639
 2768SOL    HW2 9204   2.534   5.224   5.217 -0.8550 -0.1721 -1.1911
 2769SOL     OW 9205   1.286   4.593   5.825 -0.0064 -0.5953 -0.2121
 2769SOL    HW1 9206   1.339   4.554   5.901 -1.4439 -0.2895  0.9783
 2769SOL    HW2 9207   1.262   4.520   5.761 -0.0968 -1.1432  0.4332
 2770SOL     OW 9208   3.889   4.724   6.015 -0.6398 -0.0901  0.5901
 2770SOL    HW1 9209   3.940   4.672   6.083 -0.5757 -0.1406  0.5048
 2770SOL    HW2 9210   3.847   4.661   5.950 -1.0068 -0.0579  0.7975
 2771SOL     OW 9211   0.935   4.975   0.259  0.2609 -0.1587 -0.4078
 2771SOL    HW1 9212   1.003   4.922   0.310  2.8081  3.2109  0.0886
 2771SOL    HW2 9213   0.911   5.057   0.311 -2.4434 -0.0591 -1.6675
 2772SOL     OW 9214   4.111   5.889   6.130 -0.1703  0.1526 -0.3613
 2772SOL    HW1 9215   4.182   5.954   6.158  0.3919 -0.3953 -0.4930
 2772SOL    HW2 9216   4.152   5.817   6.074 -1.0946  0.6982 -1.8157
 2773SOL     OW 9217   6.101   3.047   4.639 -0.6863  0.6708 -0.0959
 2773SOL    HW1 9218   6.023   3.110   4.643 -0.3716  1.0319  0.6567
 2773SOL    HW2 9219   6.186   3.098   4.659 -0.6010 -0.2693  2.3889
 2774SOL     OW 9220   1.255   5.391   5.738 -0.2710  0.3979  0.3555
 2774SOL    HW1 9221   1.250   5.377   5.640 -0.0221 -1.7871  0.6117
 2774SOL    HW2 9222   1.287   5.484   5.757 -1.1334  1.1477 -1.5891
 2775SOL     OW 9223   6.168   5.464   6.651  0.3929 -0.0530 -0.2214
 2775SOL    HW1 9224   6.185   5.371   6.683  0.5310 -0.3511 -1.1197
 2775SOL    HW2 9225   6.126   5.518   6.724 -0.6276 -1.0992 -0.0189
 2776SOL     OW 9226   6.187   4.430   0.839  0.1882 -0.1166  0.0727
 2776SOL    HW1 9227   6.174   4.332   0.857  2.3126 -0.2072  1.5114
 2776SOL    HW2 9228   6.243   4.442   0.757  0.5908 -0.1565  0.3373
 2777SOL     OW 9229   3.442   0.359   3.147  0.4856 -0.3432 -0.0714
 2777SOL    HW1 9230   3.396   0.271   3.145  0.7360 -0.4720 -1.0526
 2777SOL    HW2 9231   3.379   0.431   3.119  0.5444 -0.3515 -0.2288
 2778SOL     OW 9232   6.763   4.927   2.725  0.1750  0.0909  0.0243
 2778SOL    HW1 9233   6.771   4.944   2.823 -1.4852  1.6980 -0.0569
 2778SOL    HW2 9234   6.781   4.830   2.706 -0.1373 -0.3987  1.9875
 2779SOL     OW 9235   2.969   4.565   5.516  0.3585  0.5547 -0.2308
 2779SOL    HW1 9236   2.914   4.512   5.580 -0.8640  2.5039  0.4248
 2779SOL    HW2 9237   2.992   4.509   5.437 -0.6879 -0.9906  0.5209
 2780SOL     OW 9238   1.352   3.730   1.738  0.1859 -0.7484 -0.6890
 2780SOL    HW1 9239   1.390   3.638   1.750 -1.1017 -1.3388 -0.9119
 2780SOL    HW2 9240   1.368   3.761   1.645 -0.9669 -1.5473 -1.1845
 2781SOL     OW 9241   3.648   3.622   2.059  0.2374 -0.4228 -0.6547
 2781SOL    HW1 9242   3.600   3.709   2.048 -0.2996 -0.3762  1.7209
 2781SOL    HW2 9243   3.739   3.638   2.096  0.8643 -0.7728 -1.9757
 2782SOL     OW 9244   4.899   0.300   2.065  0.0081 -0.3269  0.5308
 2782SOL    HW1 9245   4.831   0.240   2.022  0.1709 -0.0425 -0.1354
 2782SOL    HW2 9246   4.930   0.368   1.998  0.7808 -0.3139  0.8974
 2783SOL     OW 9247   6.826   0.670   4.101 -0.1476  0.0154 -0.2666
 2783SOL    HW1 9248   6.778   0.747   4.144  0.7809  0.8349 -0.6644
 2783SOL    HW2 9249   6.864   0.611   4.173 -1.8700 -0.7474  0.0561
 2784SOL     OW 9250   6.670   3.875   3.145 -0.1260 -0.3840  0.1241
 2784SOL    HW1 9251   6.663   3.893   3.243  0.0383  0.1814  0.0356
 2784SOL    HW2 9252   6.694   3.959   3.097 -0.0171 -0.6981 -0.3833
 2785SOL     OW 9253   2.974   1.506   4.513  0.1703 -0.2097  0.4673
 2785SOL    HW1 9254   3.040   1.563   4.463 -2.4348  2.9175  0.2562
 2785SOL    HW2 9255   3.022   1.456   4.585  2.8928  1.1612 -0.2265
 2786SOL     OW 9256   4.593   4.368   4.892 -0.0697 -0.2386  0.2890
 2786SOL    HW1 9257   4.516   4.388   4.953  0.8498  3.9505  0.3754
 2786SOL    HW2 9258   4.566   4.389   4.798  0.3698 -0.6535  0.0694
 2787SOL     OW 9259   5.424   2.171   3.629 -0.2560  0.2624  0.1227
 2787SOL    HW1 9260   5.498   2.121   3.584  2.0460  2.8794  0.7640
 2787SOL    HW2 9261   5.352   2.107   3.655  2.9040 -2.9060  1.8417
 2788SOL     OW 9262   4.120   2.297   6.862  0.3673 -0.1081 -0.0504
 2788SOL    HW1 9263   4.183   2.276   6.788 -0.3137 -3.2279  0.1431
 2788SOL    HW2 9264   4.144   2.243   6.943 -0.7349  0.9573  1.0320
 2789SOL     OW 9265   0.773   4.256   5.973 -0.3731 -0.0547  0.3028
 2789SOL    HW1 9266   0.823   4.236   6.057 -1.0307 -0.2968  0.6496
 2789SOL    HW2 9267   0.835   4.252   5.894  0.1879 -0.1061  0.7444
 2790SOL     OW 9268   0.341   5.472   0.464 -0.1329  0.2100  0.3472
 2790SOL    HW1 9269   0.283   5.455   0.544 -0.3539  0.1650  0.1766
 2790SOL    HW2 9270   0.405   5.396   0.453 -0.7255 -0.2358 -0.0686
 2791SOL     OW 9271   6.046   0.039   4.132 -0.3787 -0.2907 -0.0499
 2791SOL    HW1 9272   6.097  -0.040   4.100  0.2881 -0.0216  0.3090
 2791SOL    HW2 9273   6.063   0.117   4.071 -1.2801 -0.5020 -0.5792
 2792SOL     OW 9274   5.139   1.333   1.231 -0.3567 -0.2426 -0.3305
 2792SOL    HW1 9275   5.220   1.291   1.273 -0.6010 -1.3484 -0.9245
 2792SOL    HW2 9276   5.162   1.426   1.201  0.9219 -0.7972 -1.1578
 2793SOL     OW 9277   1.547   5.947   5.828  0.6402 -0.2156 -0.0171
 2793SOL    HW1 9278   1.557   6.045   5.815  0.2938 -0.1316  0.3346
 2793SOL    HW2 9279   1.452   5.921   5.816  0.3695 -0.1971  1.8520
 2794SOL     OW 9280   4.105   2.027   0.312 -0.0076 -0.0446 -0.1254
 2794SOL    HW1 9281   4.173   2.068   0.373  1.1071  1.8310 -2.4352
 2794SOL    HW2 9282   4.066   1.945   0.355  2.2948 -0.1021  2.1031
 2795SOL     OW 9283   6.012   2.383   3.845 -0.1515 -0.5627 -0.3359
 2795SOL    HW1 9284   6.098   2.415   3.887 -0.2965  0.8946 -1.0629
 2795SOL    HW2 9285   5.984   2.297   3.888 -0.2227  0.7382  2.4784
 2796SOL     OW 9286   5.065   3.215   4.414  0.3379 -0.3846  0.5734
 2796SOL    HW1 9287   5.036   3.187   4.506 -0.0896 -0.5845  0.3790
 2796SOL    HW2 9288   5.028   3.306   4.394 -0.8476 -0.9623  0.0202
 2797SOL     OW 9289   5.714   4.928   5.163 -0.2712 -0.4317  0.1242
 2797SOL    HW1 9290   5.710   4.886   5.254 -0.3861 -2.5328 -0.7898
 2797SOL    HW2 9291   5.621   4.941   5.129 -0.3468 -4.1576 -1.5530
 2798SOL     OW 9292   0.343   3.843   2.478 -0.0030 -0.4202  0.0335
 2798SOL    HW1 9293   0.360   3.928   2.429 -1.8764  0.2404  0.4635
 2798SOL    HW2 9294   0.409   3.834   2.552  0.5872  0.3424 -0.3813
 2799SOL     OW 9295   3.488   4.070   4.865  0.0420 -0.0643  0.2574
 2799SOL    HW1 9296   3.565   4.113   4.818  1.3078 -1.4347  0.9724
 2799SOL    HW2 9297   3.422   4.038   4.797 -0.0180  1.3050 -0.3603
 2800SOL     OW 9298   1.573   6.065   2.826 -0.0535  0.2771  0.1148
 2800SOL    HW1 9299   1.539   5.981   2.784 -0.7468 -0.0966  1.3762
 2800SOL    HW2 9300   1.625   6.043   2.908 -1.5368  1.1181  1.3476
 2801SOL     OW 9301   5.915   0.143   2.606 -0.1962  0.3875 -0.0790
 2801SOL    HW1 9302   5.901   0.188   2.694  1.8481  2.7581 -0.8488
 2801SOL    HW2 9303   5.993   0.081   2.612 -1.0824 -0.7438  0.1560
 2802SOL     OW 9304   4.757   2.575   1.685  0.0427  0.7278 -0.1567
 2802SOL    HW1 9305   4.697   2.654   1.694 -0.4170  0.3870 -0.1724
 2802SOL    HW2 9306   4.848   2.597   1.720 -0.2763  1.0439  0.4812
 2803SOL     OW 9307   1.665   1.878   2.235 -0.1117 -0.3544 -0.6832
 2803SOL    HW1 9308   1.673   1.978   2.236  0.2116 -0.3833  0.2072
 2803SOL    HW2 9309   1.756   1.838   2.228 -0.1366 -0.5948  0.2675
 2804SOL     OW 9310   4.209   1.866   1.313  0.2911  0.3920 -0.8563
 2804SOL    HW1 9311   4.163   1.890   1.228 -0.9180 -0.7006 -0.5455
 2804SOL    HW2 9312   4.156   1.901   1.390 -0.2960 -1.2620 -0.4771
 2805SOL     OW 9313   4.058   0.783   2.663 -0.1589  0.3806  0.6219
 2805SOL    HW1 9314   4.135   0.809   2.605  0.1639 -0.1683  0.7936
 2805SOL    HW2 9315   4.017   0.699   2.628 -0.6442  0.6386  0.5677
 2806SOL     OW 9316   1.154   3.838   2.883 -0.4935  0.5697 -0.4587
 2806SOL    HW1 9317   1.217   3.776   2.835 -1.2545  1.4498 -2.7677
 2806SOL    HW2 9318   1.074   3.787   2.913  0.7114 -0.3154  1.3914
 2807SOL     OW 9319   1.919   5.022   4.109  0.0200  0.2083 -1.0657
 2807SOL    HW1 9320   1.920   4.924   4.131  0.9544  0.0839 -1.6456
 2807SOL    HW2 9321   1.824   5.051   4.094 -0.2870 -0.5536 -0.6958
 2808SOL     OW 9322   4.893   3.167   2.180  0.3310  0.5678  0.1492
 2808SOL    HW1 9323   4.857   3.135   2.093 -0.4107 -0.0272  0.6594
 2808SOL    HW2 9324   4.890   3.267   2.183  0.1635  0.5813 -0.4129
 2809SOL     OW 9325   3.979   3.727   6.432 -0.0779 -0.2025 -0.4857
 2809SOL    HW1 9326   4.010   3.632   6.422  1.4390  0.0885  1.1639
 2809SOL    HW2 9327   4.037   3.787   6.378 -1.5886 -0.2342 -2.2674
 2810SOL     OW 9328   0.659   0.882   5.806 -0.0011  0.9513  0.0541
 2810SOL    HW1 9329   0.742   0.827   5.794 -0.7020 -0.2578  0.5949
 2810SOL    HW2 9330   0.670   0.941   5.886  0.4073  0.9229  0.0223
 2811SOL     OW 9331   5.831   0.853   2.114  0.4766  0.2565  0.3352
 2811SOL    HW1 9332   5.754   0.807   2.158  1.8848 -1.3040  1.2925
 2811SOL    HW2 9333   5.843   0.817   2.021  0.7917 -0.3995  0.6255
 2812SOL     OW 9334   0.150   1.011   2.329  0.2312  0.2631  0.0592
 2812SOL    HW1 9335   0.232   1.066   2.311  0.0456  1.3389  2.2084
 2812SOL    HW2 9336   0.069   1.070   2.326 -0.3828 -0.5940 -1.0125
 2813SOL     OW 9337   6.080   4.124   0.848 -0.0965  0.0676  0.4212
 2813SOL    HW1 9338   6.063   4.150   0.754  1.0733  1.8255  0.6465
 2813SOL    HW2 9339   5.993   4.109   0.896 -0.7439  0.9376 -0.4631
 2814SOL     OW 9340   5.527   3.571   5.541 -0.0472 -0.4705  0.1387
 2814SOL    HW1 9341   5.458   3.639   5.514 -1.7656 -1.3861  1.9091
 2814SOL    HW2 9342   5.490   3.479   5.527 -0.5100 -1.0142  3.8049
 2815SOL     OW 9343   6.680   5.693   6.289  0.2706 -0.3281 -0.2658
 2815SOL    HW1 9344   6.733   5.757   6.232 -0.1811 -0.4275 -0.8033
 2815SOL    HW2 9345   6.700   5.599   6.261  2.1656 -0.5536  1.5749
 2816SOL     OW 9346   0.441   2.678   0.646  0.3807 -0.2531 -0.2301
 2816SOL    HW1 9347   0.509   2.605   0.633  1.0747  0.6421 -2.1297
 2816SOL    HW2 9348   0.465   2.755   0.587 -1.0147  1.0369  0.8260
 2817SOL     OW 9349   2.470   1.465   1.956 -0.7307  0.6475 -0.2879
 2817SOL    HW1 9350   2.518   1.379   1.974  1.6428  2.1624  1.1956
 2817SOL    HW2 9351   2.423   1.495   2.039  0.5790  1.9668  0.0251
 2818SOL     OW 9352   0.194   0.383   4.752  0.0452 -0.1573 -0.3098
 2818SOL    HW1 9353   0.169   0.426   4.665  0.6693  0.5748 -0.1416
 2818SOL    HW2 9354   0.142   0.427   4.826 -0.5368 -0.8264 -0.3140
 2819SOL     OW 9355   3.953   0.247   1.090 -0.5379 -0.4826  0.8495
 2819SOL    HW1 9356   3.908   0.169   1.133 -2.8494  0.1861 -0.1807
 2819SOL    HW2 9357   3.971   0.317   1.158 -0.1105 -1.1689  1.4595
 2820SOL     OW 9358   5.532   5.269   4.841  0.4091 -0.0432 -0.2167
 2820SOL    HW1 9359   5.534   5.172   4.862 -2.8881 -0.4939 -1.3712
 2820SOL    HW2 9360   5.548   5.322   4.924 -1.6659 -1.6405  1.3071
 2821SOL     OW 9361   5.552   5.142   2.282  0.4243 -0.1023  0.1072
 2821SOL    HW1 9362   5.537   5.192   2.367  0.4746 -0.0266  0.0725
 2821SOL    HW2 9363   5.550   5.206   2.205  1.0783 -0.0583  0.1149
 2822SOL     OW 9364   4.600   4.536   2.126 -0.3365  0.3158  0.1781
 2822SOL    HW1 9365   4.679   4.595   2.112 -0.0141  0.4567  2.2148
 2822SOL    HW2 9366   4.570   4.498   2.038  1.5300  0.8259 -0.7327
 2823SOL     OW 9367   5.858   3.985   3.736 -0.5353  0.3125  0.6520
 2823SOL    HW1 9368   5.900   3.988   3.827  0.0781  0.9876  0.3618
 2823SOL    HW2 9369   5.831   3.892   3.714  0.1493 -0.0092  1.1550
 2824SOL     OW 9370   5.716   2.833   5.325 -0.3944 -0.0523 -0.3656
 2824SOL    HW1 9371   5.667   2.895   5.263 -1.5452  0.6628  1.1766
 2824SOL    HW2 9372   5.678   2.741   5.316 -1.5902  0.3563  0.3258
 2825SOL     OW 9373   0.096   6.432   6.042 -1.0688  0.4507  0.2476
 2825SOL    HW1 9374   0.056   6.519   6.068 -1.1585  0.8312 -1.1277
 2825SOL    HW2 9375   0.196   6.438   6.049 -0.9865  1.1426 -1.2026
 2826SOL     OW 9376   0.728   2.246   2.903 -0.0214  0.8020 -0.3764
 2826SOL    HW1 9377   0.727   2.346   2.906 -0.0912  0.7935 -0.0795
 2826SOL    HW2 9378   0.797   2.212   2.967  0.7969  0.6873 -1.3019
 2827SOL     OW 9379   1.464   2.321   6.268 -0.0398  0.4982  0.3562
 2827SOL    HW1 9380   1.437   2.389   6.336 -0.4599 -1.6592  2.4981
 2827SOL    HW2 9381   1.382   2.280   6.227  0.0293 -1.2011  1.7838
 2828SOL     OW 9382   0.671   3.637   5.005  0.3428 -0.0821  0.2628
 2828SOL    HW1 9383   0.755   3.588   4.981  0.8780  1.5156 -1.4827
 2828SOL    HW2 9384   0.615   3.582   5.066  1.4004 -2.3537 -0.7103
 2829SOL     OW 9385   1.800   4.092   5.609 -0.1515  0.1043 -0.2127
 2829SOL    HW1 9386   1.778   4.136   5.523 -0.1941 -0.7014 -0.6211
 2829SOL    HW2 9387   1.889   4.045   5.602  0.5146  1.1918  0.6204
 2830SOL     OW 9388   6.642   0.611   4.479 -0.0489  0.2668  0.8110
 2830SOL    HW1 9389   6.623   0.709   4.470  0.9339  0.5094  1.3164
 2830SOL    HW2 9390   6.740   0.596   4.492 -0.4139 -0.6082  3.0201
 2831SOL     OW 9391   0.432   5.577   1.257  0.0552  0.0760 -0.1840
 2831SOL    HW1 9392   0.525   5.611   1.247 -0.1056  0.3866 -0.6995
 2831SOL    HW2 9393   0.380   5.598   1.174 -0.3850 -0.3749 -0.0276
 2832SOL     OW 9394   2.131   5.865   5.947  0.1139 -0.0193  0.2135
 2832SOL    HW1 9395   2.159   5.907   6.033 -1.3752  0.2590  0.5881
 2832SOL    HW2 9396   2.062   5.923   5.903  1.2893  0.1684 -1.4934
 2833SOL     OW 9397   5.131   3.018   1.580 -0.4418  0.1341  0.1225
 2833SOL    HW1 9398   5.224   3.025   1.546 -0.5932 -3.1059 -1.3654
 2833SOL    HW2 9399   5.067   3.043   1.507 -0.7131 -2.7019 -0.7186
 2834SOL     OW 9400   2.524   6.554   3.818  0.0133  0.2993  0.0311
 2834SOL    HW1 9401   2.596   6.589   3.759  0.3411  0.2377  0.3936
 2834SOL    HW2 9402   2.534   6.591   3.910 -0.5341  0.4476  0.0362
 2835SOL     OW 9403   3.236   1.427   5.284 -0.2692 -0.0849  0.2469
 2835SOL    HW1 9404   3.250   1.427   5.383 -0.2474 -0.5943  0.2462
 2835SOL    HW2 9405   3.208   1.519   5.254  0.8985  0.3995  0.5510
 2836SOL     OW 9406   6.872   0.800   6.536  0.4306  0.4427 -0.7935
 2836SOL    HW1 9407   6.911   0.792   6.444  0.6513  0.2220 -0.6799
 2836SOL    HW2 9408   6.790   0.858   6.532 -0.0516 -0.2555 -1.2770
 2837SOL     OW 9409   3.376   2.346   1.749 -0.1313  0.4683 -0.5435
 2837SOL    HW1 9410   3.472   2.369   1.767  0.2489  0.0628 -1.8998
 2837SOL    HW2 9411   3.321   2.429   1.746 -0.2375  0.5710  2.2897
 2838SOL     OW 9412   5.749   5.639   4.579 -0.5099 -0.2005  0.3772
 2838SOL    HW1 9413   5.666   5.690   4.599 -0.2472 -0.7372  3.1411
 2838SOL    HW2 9414   5.726   5.556   4.528 -1.4120  0.5875 -0.5414
 2839SOL     OW 9415   5.607   5.932   6.312  0.4918  0.0106  0.0244
 2839SOL    HW1 9416   5.613   6.031   6.299 -1.7489  0.0594 -1.1588
 2839SOL    HW2 9417   5.622   5.886   6.224 -1.6414 -0.4539 -0.1597
 2840SOL     OW 9418   5.563   6.151   5.324  0.5060  0.0045 -0.6208
 2840SOL    HW1 9419   5.612   6.071   5.288  1.3613 -0.6506  1.7981
 2840SOL    HW2 9420   5.609   6.234   5.293  0.9131 -0.4920 -1.3945
 2841SOL     OW 9421   4.291   6.195   0.784 -0.2946  0.0874 -0.3130
 2841SOL    HW1 9422   4.350   6.186   0.864  1.7894  2.2132 -1.4714
 2841SOL    HW2 9423   4.206   6.241   0.810  0.6531  1.3916  0.5962
 2842SOL     OW 9424   1.729   1.156   5.195 -0.7506 -0.0485  0.1647
 2842SOL    HW1 9425   1.709   1.171   5.099 -1.6894  1.5364  0.5821
 2842SOL    HW2 9426   1.673   1.217   5.251 -0.8675 -1.5417  1.7655
 2843SOL     OW 9427   3.675   1.345   3.264  0.1563  0.3314 -0.4360
 2843SOL    HW1 9428   3.638   1.386   3.181  0.4063 -0.4698 -0.9527
 2843SOL    HW2 9429   3.753   1.399   3.296  0.0957  0.6097 -0.7520
 2844SOL     OW 9430   3.638   3.625   3.392  0.5333 -0.0738  0.0017
 2844SOL    HW1 9431   3.732   3.600   3.416  0.4153 -0.9218 -0.3928
 2844SOL    HW2 9432   3.595   3.550   3.342  0.3480  1.1259 -1.7333
 2845SOL     OW 9433   4.148   4.717   4.377  0.1783  0.0273  0.7295
 2845SOL    HW1 9434   4.106   4.694   4.464  2.6296 -1.2038  1.6902
 2845SOL    HW2 9435   4.236   4.671   4.369 -0.3324 -0.6710 -2.8266
 2846SOL     OW 9436   0.886   0.040   5.459 -0.3648  0.2474 -0.3976
 2846SOL    HW1 9437   0.935   0.127   5.460  1.3398 -0.6390 -1.2285
 2846SOL    HW2 9438   0.943  -0.030   5.504 -0.4838 -0.9963 -2.0880
 2847SOL     OW 9439   0.403   6.472   1.702 -0.0046  0.0932 -0.0579
 2847SOL    HW1 9440   0.476   6.522   1.657 -0.8359  0.1188 -1.4211
 2847SOL    HW2 9441   0.316   6.518   1.686 -1.2430 -2.9214 -3.5161
 2848SOL     OW 9442   2.536   0.175   0.304  0.3778 -0.1569 -0.0248
 2848SOL    HW1 9443   2.632   0.190   0.325  0.7676 -0.5430 -1.4367
 2848SOL    HW2 9444   2.481   0.248   0.344  1.1294 -0.4666  1.6471
 2849SOL     OW 9445   3.327   3.370   4.620 -0.5516 -0.4243  0.9317
 2849SOL    HW1 9446   3.408   3.423   4.594 -2.8170  1.7143 -2.6374
 2849SOL    HW2 9447   3.317   3.293   4.558 -0.8978 -1.1229  1.8327
 2850SOL     OW 9448   4.561   2.597   2.057 -0.2237  0.0246 -0.0778
 2850SOL    HW1 9449   4.507   2.653   1.994  1.4402  0.3089 -1.3197
 2850SOL    HW2 9450   4.619   2.657   2.113 -0.5638 -0.3209  0.6624
 2851SOL     OW 9451   6.836   3.508   6.538  0.3468  0.2753  0.0608
 2851SOL    HW1 9452   6.762   3.564   6.500  0.2771  0.7869  0.9087
 2851SOL    HW2 9453   6.889   3.468   6.464 -0.7226 -0.0313 -0.5635
 2852SOL     OW 9454   6.826   4.389   4.770  0.1511  0.0339 -0.4841
 2852SOL    HW1 9455   6.781   4.345   4.848  1.4471 -1.7510 -0.6765
 2852SOL    HW2 9456   6.767   4.386   4.690 -0.9234  1.2807  0.2259
 2853SOL     OW 9457   2.112   3.250   0.569 -0.1435 -0.3398  0.3289
 2853SOL    HW1 9458   2.027   3.201   0.585 -0.7034  0.5357  0.1090
 2853SOL    HW2 9459   2.109   3.339   0.616 -0.0565  0.4197 -1.0460
 2854SOL     OW 9460   5.407   2.445   0.605  0.6152 -0.0771 -0.2488
 2854SOL    HW1 9461   5.491   2.489   0.575  1.3935 -0.9120  0.6276
 2854SOL    HW2 9462   5.390   2.364   0.549  1.7110 -1.2601  1.0674
 2855SOL     OW 9463   2.642   6.879   2.887 -0.4314 -0.0037 -0.2829
 2855SOL    HW1 9464   2.573   6.875   2.960 -1.3143  0.6182 -1.0698
 2855SOL    HW2 9465   2.631   6.799   2.827  1.9636 -1.9733  1.6704
 2856SOL     OW 9466   5.549   1.870   5.607 -0.1653  0.3240 -0.1953
 2856SOL    HW1 9467   5.561   1.967   5.629 -0.7428  0.4940 -0.5798
 2856SOL    HW2 9468   5.571   1.814   5.686 -2.6400  0.9220  1.0187
 2857SOL     OW 9469   6.053   2.856   1.352 -0.1388 -0.0403 -0.3192
 2857SOL    HW1 9470   6.146   2.894   1.350  0.0040 -0.3625  0.1699
 2857SOL    HW2 9471   5.995   2.916   1.408 -0.4326  0.6135 -1.3040
 2858SOL     OW 9472   6.395   6.720   1.347  0.0790  1.0739  0.0154
 2858SOL    HW1 9473   6.435   6.708   1.438 -1.1401 -0.4849  0.3920
 2858SOL    HW2 9474   6.467   6.707   1.278  0.3868 -1.4464  0.6835
 2859SOL     OW 9475   2.098   0.952   6.738  0.7046 -0.3092  0.4879
 2859SOL    HW1 9476   2.057   0.983   6.824  2.0306  1.6673  0.4753
 2859SOL    HW2 9477   2.057   1.003   6.662 -0.3631 -1.9453 -0.0733
 2860SOL     OW 9478   4.659   5.144   4.814 -0.0908 -0.8018 -0.1811
 2860SOL    HW1 9479   4.737   5.127   4.874 -0.0530 -2.1637 -0.5855
 2860SOL    HW2 9480   4.580   5.092   4.846 -0.8097  0.4594  0.1454
 2861SOL     OW 9481   4.588   5.824   5.815  0.1513 -0.2229 -0.0562
 2861SOL    HW1 9482   4.650   5.886   5.864  0.9366  0.4622 -1.8179
 2861SOL    HW2 9483   4.641   5.752   5.770 -0.3983 -0.1412 -0.8657
 2862SOL     OW 9484   4.641   1.437   0.629  0.2529 -0.3653 -0.2167
 2862SOL    HW1 9485   4.557   1.413   0.580 -0.0007  0.7765 -0.3672
 2862SOL    HW2 9486   4.720   1.422   0.570 -0.1209  2.0618 -1.4641
 2863SOL     OW 9487   2.802   5.450   3.006 -0.5100 -1.2604 -0.3254
 2863SOL    HW1 9488   2.821   5.446   3.104 -2.6848 -0.7651  0.1812
 2863SOL    HW2 9489   2.887   5.458   2.955  0.5820  0.2265  1.6298
 2864SOL     OW 9490   2.956   3.086   1.773  0.1071  0.3114 -0.1639
 2864SOL    HW1 9491   2.954   3.182   1.743  0.4706  0.2230 -0.4715
 2864SOL    HW2 9492   2.907   3.029   1.707 -1.5415  0.4943  0.8296
 2865SOL     OW 9493   4.976   0.708   6.852  0.1415  0.0628 -0.0826
 2865SOL    HW1 9494   4.916   0.632   6.877  0.5638  0.0134  0.8420
 2865SOL    HW2 9495   5.064   0.697   6.899  0.7736  0.2821 -1.1896
 2866SOL     OW 9496   6.661   4.882   1.025  0.1831 -0.0241 -0.0017
 2866SOL    HW1 9497   6.684   4.972   1.063  1.2593 -0.9125  1.5524
 2866SOL    HW2 9498   6.641   4.891   0.927  0.2582  1.8931  0.1301
 2867SOL     OW 9499   5.940   6.572   3.866 -0.1106  0.0024 -0.2836
 2867SOL    HW1 9500   5.888   6.644   3.911 -2.7971 -1.1141 -1.3917
 2867SOL    HW2 9501   6.013   6.540   3.927 -0.1346  2.2150  1.0040
 2868SOL     OW 9502   3.490   6.624   1.531 -0.4896 -0.2273  0.1936
 2868SOL    HW1 9503   3.556   6.591   1.599 -1.1212  0.8985  1.4148
 2868SOL    HW2 9504   3.415   6.559   1.523 -0.4694 -0.3155  0.6807
 2869SOL     OW 9505   1.441   3.399   2.327  0.1036 -0.0134 -0.0584
 2869SOL    HW1 9506   1.390   3.480   2.296 -0.9952 -0.6450  0.0650
 2869SOL    HW2 9507   1.417   3.321   2.270 -1.5789 -1.0930  2.0001
 2870SOL     OW 9508   0.071   3.430   5.288 -0.5919  0.8486  0.1463
 2870SOL    HW1 9509   0.066   3.403   5.192  0.5228  1.0136  0.0247
 2870SOL    HW2 9510  -0.020   3.422   5.330 -0.7079 -1.3137 -0.3536
 2871SOL     OW 9511   2.320   4.010   1.524 -0.2405 -0.3704  0.6094
 2871SOL    HW1 9512   2.249   4.078   1.541  0.3384  0.6334 -0.8359
 2871SOL    HW2 9513   2.374   3.997   1.607 -0.7209  0.4983  1.0714
 2872SOL     OW 9514   4.065   0.955   5.981 -0.2834  0.2821 -0.1468
 2872SOL    HW1 9515   4.055   1.055   5.986 -0.2393  0.3047 -0.4991
 2872SOL    HW2 9516   3.979   0.912   6.007 -1.1853  0.4614 -2.5693
 2873SOL     OW 9517   3.596   0.593   4.371 -0.1751 -0.1948 -0.0193
 2873SOL    HW1 9518   3.683   0.625   4.333  0.1649 -1.6928 -0.5765
 2873SOL    HW2 9519   3.522   0.653   4.340  0.3891 -0.1104 -1.2739
 2874SOL     OW 9520   0.146   5.365   6.851 -0.1688 -0.4930  0.2777
 2874SOL    HW1 9521   0.230   5.382   6.799  0.9023 -1.9258  1.4311
 2874SOL    HW2 9522   0.170   5.328   6.940 -2.0591 -1.2856  0.4962
 2875SOL     OW 9523   2.962   3.833   3.529 -0.2560 -0.2171 -0.2390
 2875SOL    HW1 9524   2.897   3.788   3.589 -1.4051  2.0324  0.3179
 2875SOL    HW2 9525   3.021   3.893   3.583 -0.3860  0.7884 -1.1833
 2876SOL     OW 9526   4.189   5.976   3.959 -0.1928  0.3186 -0.1522
 2876SOL    HW1 9527   4.218   6.072   3.965  0.0700  0.2135  0.2981
 2876SOL    HW2 9528   4.266   5.920   3.930 -0.3870  0.2590 -0.5640
 2877SOL     OW 9529   3.646   5.225   5.221  0.5100 -0.7960  0.1752
 2877SOL    HW1 9530   3.652   5.162   5.144 -0.0607 -1.0851  0.3530
 2877SOL    HW2 9531   3.737   5.259   5.245  0.4632  1.5146 -2.4156
 2878SOL     OW 9532   2.934   3.712   5.448  0.4637 -0.3187 -0.5910
 2878SOL    HW1 9533   2.841   3.690   5.418  0.6027  0.1567 -1.4307
 2878SOL    HW2 9534   2.937   3.718   5.548 -0.2019 -1.2067 -0.5117
 2879SOL     OW 9535   5.175   4.190   6.108  0.5371 -0.1958  0.3849
 2879SOL    HW1 9536   5.173   4.274   6.163 -1.6525 -0.7177  1.1670
 2879SOL    HW2 9537   5.089   4.180   6.059  0.8454 -1.9050  0.1431
 2880SOL     OW 9538   0.973   1.832   5.793 -0.0828 -0.1835  0.0080
 2880SOL    HW1 9539   0.951   1.831   5.696 -1.0831 -1.6651  0.2133
 2880SOL    HW2 9540   1.070   1.809   5.806  0.2905  0.9466 -0.6624
 2881SOL     OW 9541   3.740   1.691   6.555  0.0698  0.4019  0.2337
 2881SOL    HW1 9542   3.691   1.688   6.468 -1.7204 -2.4718  1.1864
 2881SOL    HW2 9543   3.836   1.668   6.540 -0.1171  0.3794 -1.0300
 2882SOL     OW 9544   4.980   0.900   3.702  0.5485  0.1299 -0.1648
 2882SOL    HW1 9545   4.900   0.939   3.748  0.7077  1.4427 -0.9260
 2882SOL    HW2 9546   4.951   0.853   3.619  0.4022 -0.9951  0.5090
 2883SOL     OW 9547   1.105   1.705   6.110  0.4715 -0.1234  0.3969
 2883SOL    HW1 9548   1.051   1.641   6.056 -0.3545  0.0837  0.9570
 2883SOL    HW2 9549   1.173   1.656   6.163 -1.2783 -0.7837  2.1650
 2884SOL     OW 9550   4.579   2.547   3.150 -0.0155  0.1980  0.4269
 2884SOL    HW1 9551   4.575   2.599   3.235 -0.4001  2.2964 -0.8186
 2884SOL    HW2 9552   4.516   2.469   3.156 -1.4731  1.3893  1.3809
 2885SOL     OW 9553   4.040   1.214   2.494 -0.4168 -0.4282  0.4713
 2885SOL    HW1 9554   4.134   1.240   2.470 -0.6645  0.0987  0.0497
 2885SOL    HW2 9555   3.991   1.295   2.526 -1.2593 -0.3241 -1.0226
 2886SOL     OW 9556   4.130   1.022   4.885  0.0690  0.1201 -0.5183
 2886SOL    HW1 9557   4.147   1.009   4.787 -0.6563  0.2904 -0.6689
 2886SOL    HW2 9558   4.098   0.936   4.925 -0.3052  0.2367 -0.5707
 2887SOL     OW 9559   0.279   4.618   5.867  0.0473  0.0238  0.3850
 2887SOL    HW1 9560   0.340   4.587   5.794 -0.5588  2.9380 -1.5257
 2887SOL    HW2 9561   0.192   4.570   5.861 -1.0818  2.1781 -2.8435
 2888SOL     OW 9562   1.753   3.817   0.587 -0.0375 -0.8316 -0.2444
 2888SOL    HW1 9563   1.849   3.837   0.569  0.0987  0.5447  1.6941
 2888SOL    HW2 9564   1.729   3.728   0.548  1.8245 -0.8977 -1.3245
 2889SOL     OW 9565   2.609   3.298   7.014 -0.5250  0.1796  0.2684
 2889SOL    HW1 9566   2.585   3.262   6.924 -0.4177 -3.1835  1.4743
 2889SOL    HW2 9567   2.536   3.278   7.079  0.6881 -0.1414  1.5775
 2890SOL     OW 9568   3.261   0.563   3.574 -0.3499  0.0335  0.0685
 2890SOL    HW1 9569   3.346   0.611   3.595 -2.1316  3.8913 -0.6492
 2890SOL    HW2 9570   3.233   0.583   3.481 -0.4581 -4.0356 -0.9762
 2891SOL     OW 9571   0.966   1.500   4.049 -0.0064  0.1604 -0.1560
 2891SOL    HW1 9572   0.984   1.563   4.125  0.1728  0.0037 -0.0685
 2891SOL    HW2 9573   0.957   1.407   4.084  1.3795 -0.1095 -0.4691
 2892SOL     OW 9574   6.908   4.976   2.992  0.2838 -0.8205 -0.5212
 2892SOL    HW1 9575   6.986   5.033   2.967 -1.5775  0.7283 -3.3057
 2892SOL    HW2 9576   6.937   4.880   2.996  2.3315 -0.2955 -1.4137
 2893SOL     OW 9577   6.073   2.377   4.163  0.4452  0.2415 -0.6234
 2893SOL    HW1 9578   6.087   2.408   4.257  1.9461  1.5091 -1.2206
 2893SOL    HW2 9579   5.994   2.425   4.124  1.9951  2.5678 -1.1301
 2894SOL     OW 9580   6.674   4.800   6.778  0.7381 -0.2391  0.3691
 2894SOL    HW1 9581   6.637   4.846   6.859 -2.3104  0.3533 -1.1973
 2894SOL    HW2 9582   6.677   4.865   6.702 -1.8890 -2.0330 -1.4108
 2895SOL     OW 9583   2.339   6.318   0.354 -0.3791  0.3356  0.4615
 2895SOL    HW1 9584   2.271   6.247   0.374 -1.2305  1.3018  1.1858
 2895SOL    HW2 9585   2.408   6.319   0.426 -0.4851  0.3667  0.5640
 2896SOL     OW 9586   6.321   6.531   1.879 -0.1024 -0.0409 -0.3284
 2896SOL    HW1 9587   6.303   6.508   1.974  1.9678 -0.2070  0.0764
 2896SOL    HW2 9588   6.338   6.630   1.871  0.9205 -0.1953 -0.2735
 2897SOL     OW 9589   0.627   2.507   2.861 -0.2368  0.1373  0.1398
 2897SOL    HW1 9590   0.630   2.561   2.945  0.4466  0.0279  0.1848
 2897SOL    HW2 9591   0.556   2.438   2.868  1.3497 -1.4256  1.5665
 2898SOL     OW 9592   1.920   5.954   6.681 -0.2105 -0.0503 -0.5162
 2898SOL    HW1 9593   1.852   5.995   6.741  1.0935  2.1465 -0.4359
 2898SOL    HW2 9594   1.934   6.012   6.601  0.5001 -1.2216 -1.2772
 2899SOL     OW 9595   0.392   1.564   5.771  0.7561 -0.3926 -0.0948
 2899SOL    HW1 9596   0.345   1.580   5.857  1.3811 -0.4860  0.2682
 2899SOL    HW2 9597   0.489   1.589   5.780  1.0618 -1.4026 -0.4491
 2900SOL     OW 9598   6.284   2.511   4.051  0.7748  0.5334 -0.4222
 2900SOL    HW1 9599   6.191   2.499   4.085  0.6837  0.4002 -0.7158
 2900SOL    HW2 9600   6.315   2.427   4.008  1.3370  0.3097  0.3956
 2901SOL     OW 9601   5.331   6.287   5.463 -0.2267 -0.7868 -0.2705
 2901SOL    HW1 9602   5.390   6.223   5.415 -0.4305  0.9345 -3.0542
 2901SOL    HW2 9603   5.235   6.259   5.452 -0.1946 -1.1124  0.2852
 2902SOL     OW 9604   4.555   0.583   4.165  0.1930  0.4288  0.1408
 2902SOL    HW1 9605   4.530   0.505   4.108  1.4356 -0.9275  1.3784
 2902SOL    HW2 9606   4.589   0.657   4.107 -0.5361 -0.1047 -1.0184
 2903SOL     OW 9607   4.923   4.738   2.952  0.1320 -0.0667 -0.0816
 2903SOL    HW1 9608   5.012   4.699   2.929 -0.9832 -1.8305 -1.7274
 2903SOL    HW2 9609   4.879   4.682   3.022  0.8987  1.6825  1.8760
 2904SOL     OW 9610   0.300   2.382   2.133  0.6973 -0.6060  0.1351
 2904SOL    HW1 9611   0.382   2.386   2.190  0.7821  0.2421 -0.0400
 2904SOL    HW2 9612   0.233   2.321   2.177  1.5121 -1.5314  0.1321
 2905SOL     OW 9613   2.139   3.506   4.342  0.2942  0.1041  0.0153
 2905SOL    HW1 9614   2.178   3.496   4.434  1.1977 -1.3720 -0.4989
 2905SOL    HW2 9615   2.121   3.603   4.325  1.9477  0.6325  1.0207
 2906SOL     OW 9616   1.754   4.512   5.904  0.2415  0.1807 -0.2346
 2906SOL    HW1 9617   1.772   4.553   5.815 -2.0066  1.8969  0.0162
 2906SOL    HW2 9618   1.787   4.573   5.976  0.5411 -0.4000  0.1276
 2907SOL     OW 9619   5.082   6.780   0.155  0.1210  0.1993 -0.3608
 2907SOL    HW1 9620   5.141   6.819   0.085 -0.0587  0.2235 -0.4990
 2907SOL    HW2 9621   5.116   6.805   0.245 -0.2743  1.1024 -0.4499
 2908SOL     OW 9622   6.210   2.692   1.040 -0.4878 -0.0585 -0.0407
 2908SOL    HW1 9623   6.123   2.710   1.086  0.3643 -0.1147  1.6690
 2908SOL    HW2 9624   6.249   2.779   1.010 -1.4930 -0.0982 -1.5722
 2909SOL     OW 9625   4.585   0.179   4.594  0.3762 -0.0987  0.1397
 2909SOL    HW1 9626   4.567   0.256   4.655  2.2184 -0.1383  0.7983
 2909SOL    HW2 9627   4.680   0.151   4.603  0.0594 -1.6904 -0.9849
 2910SOL     OW 9628   5.509   5.344   2.844 -0.6652  0.3075  0.1155
 2910SOL    HW1 9629   5.506   5.426   2.788 -1.4512  0.9764  1.0856
 2910SOL    HW2 9630   5.573   5.358   2.920 -0.7288 -0.0095  0.2304
 2911SOL     OW 9631   0.636   3.348   3.152  1.6366 -0.2430  0.1120
 2911SOL    HW1 9632   0.573   3.316   3.082  0.1754  1.8106  0.4168
 2911SOL    HW2 9633   0.625   3.292   3.234 -2.0612  1.7970  1.2167
 2912SOL     OW 9634   5.114   6.356   3.542  0.3751 -0.1614 -0.6281
 2912SOL    HW1 9635   5.137   6.427   3.475  1.1334 -1.0631 -1.3502
 2912SOL    HW2 9636   5.198   6.317   3.579 -0.0416  0.0768  0.5962
 2913SOL     OW 9637   0.880   5.524   2.042 -0.4941  0.1733 -0.6093
 2913SOL    HW1 9638   0.798   5.485   2.085 -0.4053  1.5361  0.9071
 2913SOL    HW2 9639   0.960   5.473   2.071 -0.5500  0.4171 -0.0162
 2914SOL     OW 9640   2.823   5.134   3.391  0.3887 -0.2046 -0.3470
 2914SOL    HW1 9641   2.809   5.162   3.486  0.1919 -2.4934  0.3445
 2914SOL    HW2 9642   2.918   5.149   3.365 -0.2293  3.6713 -1.0036
 2915SOL     OW 9643   4.959   1.155   4.806  0.6457  0.0081  0.1840
 2915SOL    HW1 9644   4.951   1.090   4.881 -0.8801 -0.4947 -0.3736
 2915SOL    HW2 9645   5.024   1.227   4.831  0.2357 -0.1800  1.9498
 2916SOL     OW 9646   0.727   2.192   4.947 -0.0190 -0.1080  0.8107
 2916SOL    HW1 9647   0.637   2.189   4.992 -0.6580 -1.1894 -0.4373
 2916SOL    HW2 9648   0.767   2.100   4.949 -0.1324 -0.2216 -0.8826
 2917SOL     OW 9649   4.535   2.746   1.805 -0.2509  0.4147  0.4775
 2917SOL    HW1 9650   4.480   2.751   1.722 -2.7462 -0.3426  1.9948
 2917SOL    HW2 9651   4.563   2.839   1.833 -0.4590  0.7735 -0.4930
 2918SOL     OW 9652   3.506   0.798   6.914  0.3617 -0.4598  0.7359
 2918SOL    HW1 9653   3.598   0.833   6.928 -0.9231  3.0626  1.3899
 2918SOL    HW2 9654   3.446   0.834   6.986 -1.6862 -2.1464 -0.0243
 2919SOL     OW 9655   3.009   6.938   4.666 -0.3772  0.0984 -0.2196
 2919SOL    HW1 9656   3.084   6.887   4.623  0.0193  0.7253 -0.2861
 2919SOL    HW2 9657   2.999   7.026   4.619  0.9023  1.3654  1.7452
 2920SOL     OW 9658   6.860   3.405   2.589  0.1533  0.0190  0.6799
 2920SOL    HW1 9659   6.771   3.440   2.615  0.1398  1.7705 -1.4839
 2920SOL    HW2 9660   6.866   3.307   2.612 -3.2327 -0.7844 -1.3025
 2921SOL     OW 9661   6.008   2.524   0.305 -0.8667 -0.5765  0.1475
 2921SOL    HW1 9662   6.018   2.603   0.245 -0.2691 -0.5603  0.2569
 2921SOL    HW2 9663   6.050   2.544   0.394  0.6399 -1.5150 -0.2985
 2922SOL     OW 9664   2.465   2.294   2.545 -0.3185 -0.6692 -0.2817
 2922SOL    HW1 9665   2.404   2.324   2.618  0.9812  0.9298  0.2215
 2922SOL    HW2 9666   2.495   2.201   2.562  0.5458 -0.0743  1.6592
 2923SOL     OW 9667   1.873   4.980   2.184 -0.1138 -0.2603 -0.0407
 2923SOL    HW1 9668   1.793   4.965   2.243 -0.2891  0.0831 -0.1877
 2923SOL    HW2 9669   1.859   5.064   2.131  0.0551 -0.5506 -0.5462
 2924SOL     OW 9670   1.554   1.497   1.568  0.4426  0.0281 -0.3792
 2924SOL    HW1 9671   1.596   1.561   1.504  0.1344 -0.3351 -0.9533
 2924SOL    HW2 9672   1.455   1.494   1.554  0.1911  0.9291  1.0189
 2925SOL     OW 9673   0.848   5.834   5.627 -0.1930 -0.2940 -0.2547
 2925SOL    HW1 9674   0.860   5.735   5.633 -0.0352 -0.2750 -0.2604
 2925SOL    HW2 9675   0.898   5.870   5.549  0.3329 -0.1169  0.1577
 2926SOL     OW 9676   0.794   0.270   0.912 -0.6832  0.2629 -0.6926
 2926SOL    HW1 9677   0.800   0.356   0.862  0.0999  0.8626  0.3826
 2926SOL    HW2 9678   0.739   0.283   0.994 -2.2356 -0.7933 -1.5247
 2927SOL     OW 9679   0.942   3.336   1.451  0.0735 -0.4202 -0.1309
 2927SOL    HW1 9680   1.041   3.322   1.453 -0.2778 -3.5075  1.6124
 2927SOL    HW2 9681   0.912   3.373   1.539 -0.1775  2.9217 -1.4694
 2928SOL     OW 9682   4.174   5.779   2.158 -0.0175 -0.1175  0.1823
 2928SOL    HW1 9683   4.133   5.771   2.068  0.1887 -1.3920  0.1744
 2928SOL    HW2 9684   4.263   5.823   2.151  0.9674 -2.1146 -0.5826
 2929SOL     OW 9685   5.213   6.248   2.132  0.2668 -0.1627  0.2165
 2929SOL    HW1 9686   5.276   6.275   2.205 -0.8485  0.1190  1.0871
 2929SOL    HW2 9687   5.194   6.326   2.073  1.5366 -0.4996 -0.7003
 2930SOL     OW 9688   1.914   4.814   2.450  0.3653 -0.5875  0.1132
 2930SOL    HW1 9689   1.822   4.804   2.412 -0.3509  1.6121  1.0579
 2930SOL    HW2 9690   1.912   4.792   2.548  0.6698  0.1337  0.2891
 2931SOL     OW 9691   2.343   2.072   4.879  0.2202 -0.2242  0.4060
 2931SOL    HW1 9692   2.439   2.077   4.909  0.6421  1.1681 -1.0642
 2931SOL    HW2 9693   2.314   2.162   4.846 -1.4662 -0.7508  0.3896
 2932SOL     OW 9694   2.676   4.361   6.762 -0.1865 -0.0711 -0.6733
 2932SOL    HW1 9695   2.640   4.426   6.828  0.3804 -1.0188  0.6122
 2932SOL    HW2 9696   2.742   4.301   6.807  0.0560 -0.8859 -2.0588
 2933SOL     OW 9697   3.337   1.756   5.636  0.2533  0.3543  0.0316
 2933SOL    HW1 9698   3.437   1.758   5.631  0.3163 -0.5263  0.6405
 2933SOL    HW2 9699   3.308   1.678   5.691 -0.6326  2.4713  2.8537
 2934SOL     OW 9700   5.904   6.287   1.215  0.2342 -0.7695 -0.4182
 2934SOL    HW1 9701   5.938   6.194   1.226  5.2519  0.9096  0.8293
 2934SOL    HW2 9702   5.906   6.312   1.118  5.1364 -0.2243 -0.3978
 2935SOL     OW 9703   2.002   5.059   5.399  0.1699  0.0036  0.1520
 2935SOL    HW1 9704   1.924   5.087   5.455 -0.4183 -2.2244  0.5312
 2935SOL    HW2 9705   1.977   4.979   5.344  2.1216 -0.6580  0.1469
 2936SOL     OW 9706   4.685   5.557   3.006  0.2038 -0.4796 -0.3102
 2936SOL    HW1 9707   4.630   5.641   3.012 -1.1724 -1.3967  0.4247
 2936SOL    HW2 9708   4.758   5.561   3.074  0.1102  0.1052 -0.2360
 2937SOL     OW 9709   6.765   6.176   3.270  0.0098  0.2260 -0.1373
 2937SOL    HW1 9710   6.734   6.180   3.175 -1.0271  0.7759  0.2102
 2937SOL    HW2 9711   6.691   6.142   3.328  0.6119 -0.0441  0.4929
 2938SOL     OW 9712   1.934   2.910   0.623 -0.1575  0.0857  0.9715
 2938SOL    HW1 9713   1.993   2.870   0.553 -0.9543  1.1767 -0.3925
 2938SOL    HW2 9714   1.977   2.991   0.661 -0.0634 -0.0642  1.1867
 2939SOL     OW 9715   5.906   5.802   1.162 -0.3116 -0.2741 -0.0999
 2939SOL    HW1 9716   5.913   5.836   1.256 -3.2123 -0.9058  0.4232
 2939SOL    HW2 9717   5.972   5.851   1.104  0.7624  0.9148  2.0230
 2940SOL     OW 9718   3.088   4.824   2.897  0.5397  0.1453 -0.4645
 2940SOL    HW1 9719   3.035   4.800   2.815  0.1620 -1.4036  0.1933
 2940SOL    HW2 9720   3.026   4.837   2.974  0.9143  1.3628 -0.3405
 2941SOL     OW 9721   1.035   4.765   5.375  0.9962 -0.4406 -0.4318
 2941SOL    HW1 9722   0.959   4.776   5.311  1.8992  0.9826 -1.2904
 2941SOL    HW2 9723   1.099   4.841   5.366  0.5550  0.5311  3.0226
 2942SOL     OW 9724   0.921   4.287   1.392  0.1230 -0.8874 -0.2044
 2942SOL    HW1 9725   1.003   4.267   1.447 -0.1981 -1.6004  0.0230
 2942SOL    HW2 9726   0.846   4.313   1.453  1.3282  4.4334 -0.5416
 2943SOL     OW 9727   0.282   6.097   0.442 -0.2887 -0.1691 -0.2542
 2943SOL    HW1 9728   0.343   6.155   0.495 -0.7483  2.3707 -2.2805
 2943SOL    HW2 9729   0.198   6.081   0.493  1.1847 -2.1275  1.7788
 2944SOL     OW 9730   1.037   1.441   1.648  0.0446 -0.8307  0.1150
 2944SOL    HW1 9731   1.090   1.478   1.725  2.0775 -0.5415 -1.3273
 2944SOL    HW2 9732   0.955   1.396   1.683 -0.1734  1.0365  2.2823
 2945SOL     OW 9733   2.877   4.405   0.675  0.2889  0.0332 -0.5474
 2945SOL    HW1 9734   2.921   4.342   0.739 -0.7619 -1.7104 -1.4687
 2945SOL    HW2 9735   2.879   4.367   0.583 -2.3762  0.2175 -0.7667
 2946SOL     OW 9736   5.988   0.057   3.051 -0.4717 -0.1332  0.3499
 2946SOL    HW1 9737   5.963   0.079   3.145  0.7485 -0.1079  0.6852
 2946SOL    HW2 9738   5.980  -0.042   3.036  1.9320 -0.5262  1.3228
 2947SOL     OW 9739   4.478   6.037   0.055 -0.2742 -0.2287 -0.1178
 2947SOL    HW1 9740   4.514   6.112  -0.001  0.0699 -0.2013  0.1397
 2947SOL    HW2 9741   4.535   5.956   0.042 -0.1632 -0.2058  0.2396
 2948SOL     OW 9742   1.270   3.497   0.644 -0.3258  0.0889  0.3914
 2948SOL    HW1 9743   1.263   3.591   0.610 -2.9009 -0.1623 -0.0393
 2948SOL    HW2 9744   1.251   3.433   0.569 -1.6970 -0.6235  1.2870
 2949SOL     OW 9745   0.432   4.288   3.906  0.1656  0.2582  0.6477
 2949SOL    HW1 9746   0.456   4.193   3.884  0.3664  0.7884 -1.6577
 2949SOL    HW2 9747   0.344   4.290   3.953 -0.7874 -0.9819 -0.9706
 2950SOL     OW 9748   3.362   4.756   0.596  0.0742  0.0395  0.7922
 2950SOL    HW1 9749   3.398   4.707   0.675  0.5331  0.4968  0.8751
 2950SOL    HW2 9750   3.286   4.705   0.556 -0.5766  0.1043  1.9111
 2951SOL     OW 9751   4.154   1.292   1.226 -0.2209 -0.5765 -0.0691
 2951SOL    HW1 9752   4.212   1.289   1.307 -0.9786  0.6718  0.5478
 2951SOL    HW2 9753   4.163   1.206   1.175  0.2371 -1.3955  1.3443
 2952SOL     OW 9754   2.345   6.710   1.192  0.6438  1.0151  0.4591
 2952SOL    HW1 9755   2.269   6.664   1.146  0.1712  0.3097  1.8883
 2952SOL    HW2 9756   2.310   6.785   1.249  0.8471 -0.0297  2.0219
 2953SOL     OW 9757   4.656   1.610   1.223 -0.4358  0.4372 -0.4222
 2953SOL    HW1 9758   4.659   1.540   1.294 -0.1700 -1.1760 -1.9431
 2953SOL    HW2 9759   4.593   1.683   1.251 -1.3671 -0.8012  0.8834
 2954SOL     OW 9760   0.608   0.856   6.942 -0.0841 -0.5316  0.3831
 2954SOL    HW1 9761   0.552   0.932   6.908  1.0968  0.1932 -0.0083
 2954SOL    HW2 9762   0.628   0.870   7.039  0.7816  0.0801  0.1235
 2955SOL     OW 9763   6.286   2.668   5.032  0.5435  0.3667  0.2306
 2955SOL    HW1 9764   6.201   2.616   5.039  0.7518 -0.0615 -0.3882
 2955SOL    HW2 9765   6.331   2.670   5.121  0.1511  0.1425  0.4360
 2956SOL     OW 9766   2.982   1.177   0.763  0.1434  0.0233 -0.4916
 2956SOL    HW1 9767   2.956   1.215   0.852 -0.5656  2.1530 -1.5390
 2956SOL    HW2 9768   3.076   1.203   0.742  0.6319 -1.2647 -0.0019
 2957SOL     OW 9769   1.985   0.853   3.661 -0.4881 -0.2885  0.2968
 2957SOL    HW1 9770   2.024   0.821   3.575  1.8096  3.6552 -0.3464
 2957SOL    HW2 9771   2.023   0.800   3.736  0.0869 -1.5795 -0.8535
 2958SOL     OW 9772   1.107   0.391   1.265 -0.0706 -0.5940 -0.1099
 2958SOL    HW1 9773   1.167   0.336   1.324 -2.0517 -1.9062  0.7745
 2958SOL    HW2 9774   1.130   0.372   1.170 -0.6681 -3.0538  0.1473
 2959SOL     OW 9775   3.008   1.369   3.680  0.3782  0.3280 -0.1795
 2959SOL    HW1 9776   3.036   1.400   3.589 -1.3863  2.4695 -0.0747
 2959SOL    HW2 9777   3.047   1.430   3.749 -1.8382  1.4970  0.1433
 2960SOL     OW 9778   5.901   6.598   0.416 -0.1790  0.3351 -0.1409
 2960SOL    HW1 9779   5.957   6.636   0.343  0.2029 -3.1212 -1.8642
 2960SOL    HW2 9780   5.807   6.587   0.384 -0.0297 -1.1089 -0.1474
 2961SOL     OW 9781   5.763   6.835   6.074 -0.1721 -0.5780  0.7504
 2961SOL    HW1 9782   5.829   6.785   6.019  0.6209 -0.4072  1.5196
 2961SOL    HW2 9783   5.675   6.787   6.073 -0.0536 -0.7812 -0.3172
 2962SOL     OW 9784   4.771   4.544   5.866 -0.1668 -0.2003 -0.2463
 2962SOL    HW1 9785   4.826   4.627   5.853 -1.3846  0.9733  1.5843
 2962SOL    HW2 9786   4.708   4.534   5.789  1.0607 -0.3108 -1.2533
 2963SOL     OW 9787   1.463   4.159   4.144 -0.5690 -0.0896  0.5025
 2963SOL    HW1 9788   1.560   4.139   4.130 -0.7645 -0.6692 -0.1068
 2963SOL    HW2 9789   1.452   4.253   4.174  0.1335  0.2137 -0.1680
 2964SOL     OW 9790   6.378   6.889   3.139  0.7448  0.0719  0.3116
 2964SOL    HW1 9791   6.305   6.821   3.139  1.2584 -0.4941 -0.4485
 2964SOL    HW2 9792   6.396   6.919   3.233 -0.4781  0.2495  0.5063
 2965SOL     OW 9793   6.152   5.339   1.499  0.0281 -0.2393 -0.0214
 2965SOL    HW1 9794   6.179   5.402   1.571 -0.8996  0.9185 -0.6462
 2965SOL    HW2 9795   6.061   5.304   1.518 -0.9971  1.4568 -1.4443
 2966SOL     OW 9796   6.501   4.360   1.064  0.2368 -0.1361 -0.3817
 2966SOL    HW1 9797   6.494   4.370   0.965  1.2079 -1.7341 -0.6502
 2966SOL    HW2 9798   6.588   4.398   1.095  0.7593 -1.2316 -0.4321
 2967SOL     OW 9799   0.279   6.777   3.024  0.4138 -0.0418  0.3449
 2967SOL    HW1 9800   0.326   6.862   3.047 -0.2094  0.4936 -0.2989
 2967SOL    HW2 9801   0.180   6.791   3.034  0.3767 -1.1324  1.6434
 2968SOL     OW 9802   3.804   0.424   0.953 -0.3131 -0.1508  0.2592
 2968SOL    HW1 9803   3.846   0.338   0.981 -0.6157 -0.5827 -0.6061
 2968SOL    HW2 9804   3.831   0.496   1.018  1.1300 -0.5715  0.1712
 2969SOL     OW 9805   5.184   3.534   5.711 -0.7520 -0.2638 -0.3337
 2969SOL    HW1 9806   5.183   3.634   5.715 -0.2195 -0.2286 -0.9005
 2969SOL    HW2 9807   5.256   3.499   5.771 -1.7968 -0.3866  0.9050
 2970SOL     OW 9808   2.263   2.523   4.746 -0.5498 -0.0120  0.0961
 2970SOL    HW1 9809   2.166   2.540   4.729 -0.2349  0.5423 -1.3036
 2970SOL    HW2 9810   2.308   2.607   4.774 -0.4700 -0.2716  0.7611
 2971SOL     OW 9811   6.539   3.165   0.605 -0.0831 -0.0801  0.0374
 2971SOL    HW1 9812   6.497   3.194   0.691 -3.7151 -3.6877 -0.2196
 2971SOL    HW2 9813   6.603   3.091   0.623  0.3104  0.1750 -0.2879
 2972SOL     OW 9814   6.212   3.891   3.291 -0.1208 -0.8943  0.8924
 2972SOL    HW1 9815   6.158   3.878   3.374 -0.1473  2.2973  1.4840
 2972SOL    HW2 9816   6.205   3.985   3.260  1.8432 -1.3807 -1.3896
 2973SOL     OW 9817   0.973   3.788   5.351  0.1693  0.3961 -0.2451
 2973SOL    HW1 9818   1.045   3.814   5.286  0.7115 -1.5919 -0.4941
 2973SOL    HW2 9819   0.984   3.840   5.435  0.0802  2.2723 -1.3219
 2974SOL     OW 9820   4.686   4.746   6.784 -0.3931  0.5103  0.0088
 2974SOL    HW1 9821   4.700   4.651   6.812 -1.2090 -0.4120 -2.4986
 2974SOL    HW2 9822   4.771   4.797   6.795 -0.1126 -0.2822  1.9982
 2975SOL     OW 9823   3.262   6.133   6.255 -0.2186 -0.4000  0.0198
 2975SOL    HW1 9824   3.335   6.145   6.322  0.6127 -1.0572 -0.7353
 2975SOL    HW2 9825   3.236   6.222   6.217  0.1059 -0.1498  0.3811
 2976SOL     OW 9826   3.288   6.133   2.327  0.2459 -0.2484 -0.0976
 2976SOL    HW1 9827   3.224   6.187   2.381  0.7656  0.3122 -0.0267
 2976SOL    HW2 9828   3.337   6.193   2.264  0.2101 -0.7758 -0.6363
 2977SOL     OW 9829   5.330   1.836   2.696 -0.9689  0.0927 -0.3099
 2977SOL    HW1 9830   5.409   1.776   2.704  1.3634  2.6072 -2.5324
 2977SOL    HW2 9831   5.278   1.814   2.614 -0.3375  0.7924 -0.9129
 2978SOL     OW 9832   1.175   0.124   6.344 -0.2682 -0.0262 -0.0520
 2978SOL    HW1 9833   1.266   0.084   6.333  0.5178  1.4664  0.7518
 2978SOL    HW2 9834   1.162   0.152   6.439 -0.7823  1.5778 -0.5576
 2979SOL     OW 9835   6.280   5.192   6.703 -0.2910 -0.1375 -0.1362
 2979SOL    HW1 9836   6.260   5.094   6.704 -0.0783 -0.1942 -0.7444
 2979SOL    HW2 9837   6.306   5.222   6.794  0.5984 -0.8525 -0.1384
 2980SOL     OW 9838   2.419   2.527   5.113 -0.2557 -0.5366 -0.2385
 2980SOL    HW1 9839   2.326   2.490   5.121 -1.3380  1.9136 -0.5879
 2980SOL    HW2 9840   2.454   2.510   5.021 -0.2932 -1.5415 -0.0816
 2981SOL     OW 9841   4.686   3.715   5.775  0.4840  0.0767 -0.2714
 2981SOL    HW1 9842   4.615   3.744   5.839 -0.5791 -1.0516 -0.8960
 2981SOL    HW2 9843   4.765   3.777   5.782  0.0903  0.4146  1.5544
 2982SOL     OW 9844   1.964   5.409   4.625  0.2369  0.3245 -0.1086
 2982SOL    HW1 9845   1.890   5.443   4.682  0.7285  1.4286 -0.0988
 2982SOL    HW2 9846   2.043   5.388   4.682  0.9966  2.1688 -0.4158
 2983SOL     OW 9847   1.352   2.854   1.563  0.1241 -0.6753 -0.2172
 2983SOL    HW1 9848   1.366   2.867   1.464 -0.0216 -1.5665 -0.3589
 2983SOL    HW2 9849   1.267   2.899   1.590  0.6803  0.4640 -0.2911
 2984SOL     OW 9850   2.789   4.947   0.240  0.1716 -0.0294 -0.1806
 2984SOL    HW1 9851   2.708   4.895   0.267  1.3686 -1.9548 -0.0326
 2984SOL    HW2 9852   2.826   4.994   0.320 -1.8064  2.4905 -0.6220
 2985SOL     OW 9853   5.112   6.163   2.939 -0.3555 -0.1222 -0.6316
 2985SOL    HW1 9854   5.081   6.246   2.985 -1.9322 -1.2552  0.4539
 2985SOL    HW2 9855   5.208   6.172   2.915 -0.3936  1.8519 -0.2127
 2986SOL     OW 9856   0.397   4.696   0.433 -0.6760  0.1084  0.0345
 2986SOL    HW1 9857   0.367   4.602   0.447  0.8482 -0.0647  3.2826
 2986SOL    HW2 9858   0.496   4.697   0.414 -0.7854  1.0165 -0.5408
 2987SOL     OW 9859   0.904   2.604   3.985  0.6894 -0.2793  0.2768
 2987SOL    HW1 9860   1.002   2.587   3.999  0.8216  0.7191  0.7097
 2987SOL    HW2 9861   0.892   2.694   3.943 -0.0734 -0.1337  0.7882
 2988SOL     OW 9862   4.760   5.667   2.486 -0.7930  0.1982 -0.0879
 2988SOL    HW1 9863   4.817   5.587   2.506 -0.5282 -0.4289 -2.9441
 2988SOL    HW2 9864   4.664   5.639   2.478 -0.8914  0.4264  0.2627
 2989SOL     OW 9865   1.129   3.765   4.867 -0.3989  0.2098  0.5842
 2989SOL    HW1 9866   1.147   3.864   4.871  1.0114 -0.0368  0.9757
 2989SOL    HW2 9867   1.104   3.739   4.774 -0.5459  0.9056  0.4267
 2990SOL     OW 9868   2.431   2.729   6.523 -0.4090 -0.1240  0.1219
 2990SOL    HW1 9869   2.431   2.717   6.623  2.3796  0.9390  0.3259
 2990SOL    HW2 9870   2.465   2.820   6.501 -1.0507 -0.3279 -1.8349
 2991SOL     OW 9871   1.021   6.822   5.952 -0.1203  0.1391  0.3080
 2991SOL    HW1 9872   0.972   6.885   5.892 -0.4613 -1.1181 -0.7892
 2991SOL    HW2 9873   0.994   6.728   5.931  1.1060 -0.4457  1.2174
 2992SOL     OW 9874   4.436   3.709   6.583  0.1684  0.1966  0.3464
 2992SOL    HW1 9875   4.435   3.800   6.543 -0.7046 -1.1997 -3.2295
 2992SOL    HW2 9876   4.528   3.669   6.573  0.1378  0.1040  0.4350
 2993SOL     OW 9877   5.922   5.706   5.482 -0.0555  0.4898  0.1812
 2993SOL    HW1 9878   5.922   5.726   5.580  0.2310  0.2797  0.2274
 2993SOL    HW2 9879   5.933   5.791   5.431 -2.4386  0.8951  0.2432
 2994SOL     OW 9880   5.447   4.138   3.199  0.4135 -1.1347 -0.4592
 2994SOL    HW1 9881   5.525   4.167   3.142  1.0244  0.5335  1.1572
 2994SOL    HW2 9882   5.362   4.169   3.158  0.9078  0.8814 -0.0312
 2995SOL     OW 9883   4.791   6.735   1.730 -0.0021 -0.0330 -0.5993
 2995SOL    HW1 9884   4.816   6.801   1.801  4.2687 -3.9816  2.1490
 2995SOL    HW2 9885   4.847   6.751   1.649  0.4625  0.1214 -0.2502
 2996SOL     OW 9886   3.387   1.511   1.407 -0.1810 -0.2371  0.3993
 2996SOL    HW1 9887   3.371   1.607   1.432  2.9941  0.2124  1.1769
 2996SOL    HW2 9888   3.426   1.506   1.315  4.2222 -0.1011  2.0061
 2997SOL     OW 9889   0.730   2.574   4.452 -1.0742  0.5211 -0.5376
 2997SOL    HW1 9890   0.818   2.530   4.436 -1.1851 -0.4036  1.2354
 2997SOL    HW2 9891   0.665   2.545   4.381 -0.4503 -0.1888 -0.8356
 2998SOL     OW 9892   2.810   0.509   0.397  1.0647 -0.7466 -0.3352
 2998SOL    HW1 9893   2.908   0.517   0.381  1.3177 -2.6703 -0.0242
 2998SOL    HW2 9894   2.769   0.452   0.325  0.0856  0.3776 -0.6977
 2999SOL     OW 9895   4.157   5.566   3.923  0.7307  0.2683 -0.2691
 2999SOL    HW1 9896   4.145   5.601   4.015  1.3134 -0.0088 -0.0832
 2999SOL    HW2 9897   4.226   5.621   3.875  2.2320 -1.0608  0.2841
 3000SOL     OW 9898   6.520   4.503   1.348  0.6476 -1.0922  0.0354
 3000SOL    HW1 9899   6.559   4.436   1.411  1.8338 -1.2506 -0.8380
 3000SOL    HW2 9900   6.421   4.502   1.356  0.7745 -0.3915  2.6349
 3001SOL     OW 9901   0.279   3.455   2.847 -0.4776  0.2808 -0.2611
 3001SOL    HW1 9902   0.326   3.509   2.777 -0.1113  0.2693 -0.0249
 3001SOL    HW2 9903   0.301   3.492   2.937  0.6259 -0.9178 -0.0238
 3002SOL     OW 9904   2.802   3.167   6.745  0.3476  0.5324  0.0778
 3002SOL    HW1 9905   2.861   3.148   6.823 -0.6491  0.2031  0.7745
 3002SOL    HW2 9906   2.709   3.137   6.766  0.2426 -0.4165 -1.5900
 3003SOL     OW 9907   0.145   5.094   6.064  0.3005 -0.1354  0.2151
 3003SOL    HW1 9908   0.085   5.081   5.985 -1.2407  2.1291  0.9342
 3003SOL    HW2 9909   0.240   5.084   6.035 -0.2419 -0.0182 -1.7767
 3004SOL     OW 9910   0.890   2.425   0.302  0.2846 -0.5846 -0.4165
 3004SOL    HW1 9911   0.871   2.424   0.204 -0.1601 -1.4136 -0.3237
 3004SOL    HW2 9912   0.950   2.503   0.323  1.4419 -1.1315 -1.5372
 3005SOL     OW 9913   6.945   3.176   2.676  0.0592 -0.4244  0.2981
 3005SOL    HW1 9914   6.890   3.103   2.634 -0.3892 -0.4436  0.9081
 3005SOL    HW2 9915   7.026   3.135   2.718  0.5092 -0.4068 -0.5206
 3006SOL     OW 9916   4.421   6.486   1.358  0.1731 -0.1424 -0.4115
 3006SOL    HW1 9917   4.420   6.558   1.289 -0.6172  0.5388  0.2929
 3006SOL    HW2 9918   4.373   6.517   1.440 -0.3368 -1.5267 -0.1536
 3007SOL     OW 9919   2.587   5.389   1.407  0.7332 -0.5397  0.4052
 3007SOL    HW1 9920   2.595   5.292   1.386  0.1737 -0.4639 -0.2080
 3007SOL    HW2 9921   2.669   5.437   1.377  0.5644 -0.6667 -0.2879
 3008SOL     OW 9922   2.171   1.546   6.414  0.7253  0.4430 -0.4404
 3008SOL    HW1 9923   2.188   1.451   6.388  0.8463  0.3514 -0.0288
 3008SOL    HW2 9924   2.073   1.558   6.434  0.3391  0.8568 -2.3335
 3009SOL     OW 9925   6.578   0.198   3.472 -0.1153 -0.2065  0.9335
 3009SOL    HW1 9926   6.499   0.246   3.510 -0.8330 -1.0642  0.5513
 3009SOL    HW2 9927   6.554   0.102   3.456  0.2359  0.0428 -1.4449
 3010SOL     OW 9928   6.194   2.119   0.885 -0.2668 -0.5328  0.1911
 3010SOL    HW1 9929   6.266   2.189   0.894 -1.0788  0.5802 -1.4903
 3010SOL    HW2 9930   6.186   2.069   0.971  0.0882  1.7128  1.6075
 3011SOL     OW 9931   2.885   3.441   3.989 -0.3615  0.0177  0.5056
 3011SOL    HW1 9932   2.922   3.495   4.064  1.1858 -0.9665  0.5162
 3011SOL    HW2 9933   2.898   3.490   3.903 -0.1650  0.2381  0.6597
 3012SOL     OW 9934   0.795   3.101   1.363  0.0472 -0.1713 -0.1568
 3012SOL    HW1 9935   0.874   3.090   1.304 -0.5384  1.5012 -1.3441
 3012SOL    HW2 9936   0.806   3.185   1.418 -0.3333 -0.6087  0.6089
 3013SOL     OW 9937   3.029   0.455   0.803 -0.4000 -0.8231 -0.1257
 3013SOL    HW1 9938   3.064   0.492   0.890  2.0017  1.1091 -1.7746
 3013SOL    HW2 9939   3.062   0.361   0.792  1.4863 -0.2330 -0.0112
 3014SOL     OW 9940   1.937   6.357   1.646  0.0744 -0.1721 -0.8025
 3014SOL    HW1 9941   2.001   6.356   1.723 -2.2646 -0.1676  1.2942
 3014SOL    HW2 9942   1.923   6.263   1.614  0.7051 -0.2282 -0.9262
 3015SOL     OW 9943   2.074   1.393   1.292  0.0301  0.2324  0.0975
 3015SOL    HW1 9944   2.041   1.487   1.289  0.9617  0.7945  3.3589
 3015SOL    HW2 9945   2.148   1.381   1.225 -0.1755  1.7814 -0.4321
 3016SOL     OW 9946   4.105   3.489   5.855  0.1992  0.9035  0.2969
 3016SOL    HW1 9947   4.134   3.584   5.864 -0.4246  1.1457 -0.2105
 3016SOL    HW2 9948   4.011   3.485   5.821  0.5610  0.0960 -0.6601
 3017SOL     OW 9949   5.096   0.946   3.416  0.1721  0.0165 -0.5886
 3017SOL    HW1 9950   5.150   0.889   3.478 -0.0398 -1.6298 -1.8619
 3017SOL    HW2 9951   5.002   0.953   3.451  1.0755  3.1022  1.7728
 3018SOL     OW 9952   1.199   2.108   0.671  0.5384  0.7410  0.0660
 3018SOL    HW1 9953   1.152   2.024   0.644  1.7078  0.3615 -0.8581
 3018SOL    HW2 9954   1.131   2.180   0.688 -0.4032  0.0671 -0.7136
 3019SOL     OW 9955   4.606   5.307   2.906 -0.1378  0.4598  0.0534
 3019SOL    HW1 9956   4.520   5.261   2.929  0.7297 -0.4881  1.4922
 3019SOL    HW2 9957   4.608   5.397   2.949 -1.1564  1.2846 -1.4903
 3020SOL     OW 9958   4.848   6.340   4.470 -0.9480 -0.0852 -0.6196
 3020SOL    HW1 9959   4.903   6.407   4.421  2.1104 -2.1196 -0.2673
 3020SOL    HW2 9960   4.856   6.251   4.425 -1.2520 -1.1430  1.3070
 3021SOL     OW 9961   0.506   1.886   6.545 -0.1283 -0.4254 -0.0356
 3021SOL    HW1 9962   0.592   1.839   6.567 -1.0151 -1.5042  1.2723
 3021SOL    HW2 9963   0.520   1.985   6.550  0.9338 -0.5886  0.5826
 3022SOL     OW 9964   4.879   4.022   4.235 -0.3076  0.3412 -0.2391
 3022SOL    HW1 9965   4.807   3.963   4.272 -0.4943  1.4979  1.3664
 3022SOL    HW2 9966   4.961   3.968   4.215 -0.0896 -0.3202  2.2199
 3023SOL     OW 9967   5.209   1.929   0.582 -0.0309 -0.1064 -0.2142
 3023SOL    HW1 9968   5.306   1.954   0.575 -0.0124 -0.1532 -0.1310
 3023SOL    HW2 9969   5.155   1.990   0.525 -0.1138  0.9317  0.9219
 3024SOL     OW 9970   2.069   4.888   0.737  0.2938  0.4580  0.2722
 3024SOL    HW1 9971   2.010   4.949   0.686 -1.7853 -0.9242  0.9164
 3024SOL    HW2 9972   2.103   4.934   0.819 -0.7368  0.9633  0.4227
 3025SOL     OW 9973   0.802   6.946   3.405  0.2001 -0.1708  0.3573
 3025SOL    HW1 9974   0.823   6.950   3.503 -0.4472  0.5697  0.4707
 3025SOL    HW2 9975   0.751   7.027   3.378 -2.2010 -1.6982  0.0173
 3026SOL     OW 9976   4.571   2.426   4.759  0.4045  0.3292 -0.7636
 3026SOL    HW1 9977   4.628   2.497   4.719  0.5760  1.1288  0.8518
 3026SOL    HW2 9978   4.537   2.456   4.848 -1.3659 -0.7128 -1.0430
 3027SOL     OW 9979   3.789   6.708   3.257 -0.0884  0.3697  0.3364
 3027SOL    HW1 9980   3.763   6.795   3.301 -2.1866 -0.0826  0.1236
 3027SOL    HW2 9981   3.817   6.643   3.327 -0.1410  0.6976  0.6663
 3028SOL     OW 9982   3.208   4.039   1.526 -0.1603 -0.3381  0.2234
 3028SOL    HW1 9983   3.159   3.970   1.473 -2.5381  1.2157  0.2792
 3028SOL    HW2 9984   3.282   4.077   1.469  0.6018 -2.1930 -0.1239
 3029SOL     OW 9985   7.010   5.942   4.948  0.1270 -0.1788 -0.4177
 3029SOL    HW1 9986   7.105   5.960   4.921  0.3719 -0.8906 -0.0468
 3029SOL    HW2 9987   7.005   5.855   4.997 -0.3832  0.8029  1.3673
 3030SOL     OW 9988   1.317   2.751   4.529  0.6278  0.1877 -0.0558
 3030SOL    HW1 9989   1.229   2.798   4.528  0.1881 -0.6102  0.3991
 3030SOL    HW2 9990   1.307   2.661   4.571  1.1285 -0.9206 -2.1231
 3031SOL     OW 9991   3.798   5.725   4.381 -0.2621 -0.5526  0.2460
 3031SOL    HW1 9992   3.736   5.799   4.407 -1.0079 -1.4553  1.1112
 3031SOL    HW2 9993   3.806   5.721   4.282  0.9879  1.6455  0.1972
 3032SOL     OW 9994   4.959   3.797   2.921 -0.0085  0.5581  0.0672
 3032SOL    HW1 9995   4.941   3.891   2.891 -1.2794  0.4281  0.3574
 3032SOL    HW2 9996   4.942   3.734   2.846  1.0000  0.5531 -0.1751
 3033SOL     OW 9997   4.620   1.381   4.972 -0.6037 -0.3467  0.5360
 3033SOL    HW1 9998   4.632   1.416   4.879 -0.7209 -1.9533 -0.0978
 3033SOL    HW2 9999   4.523   1.367   4.991 -0.5045 -1.0761  0.5071
 3034SOL     OW10000   6.814   1.505   3.050  0.4629  0.9245 -0.1258
 3034SOL    HW110001   6.809   1.409   3.078 -0.7398  1.7195  2.7144
 3034SOL    HW210002   6.887   1.551   3.099 -0.2443  1.8885  0.0529
 3035SOL     OW10003   1.533   1.510   3.803  0.7125  0.6838  0.4376
 3035SOL    HW110004   1.602   1.493   3.732  1.4331  1.7866  0.8469
 3035SOL    HW210005   1.579   1.522   3.891 -0.0718  0.6699  0.8562
 3036SOL     OW10006   6.660   1.983   1.238  0.2911  0.1045 -0.2477
 3036SOL    HW110007   6.719   2.017   1.311  1.8206 -1.9196 -0.4352
 3036SOL    HW210008   6.613   1.900   1.268  1.1252 -0.8991 -1.5655
 3037SOL     OW10009   1.156   5.679   6.330 -0.2750 -0.2624  0.0731
 3037SOL    HW110010   1.070   5.652   6.287  0.8894 -2.8471 -0.8133
 3037SOL    HW210011   1.198   5.600   6.373  2.3648  0.5664 -0.8102
 3038SOL     OW10012   2.615   5.631   5.591 -0.2528  0.1301  0.5420
 3038SOL    HW110013   2.653   5.695   5.523 -0.6099  0.2100  0.4176
 3038SOL    HW210014   2.589   5.546   5.545  0.4062 -0.1838  0.7392
 3039SOL     OW10015   0.952   3.008   0.067  0.1789 -0.2442  0.3626
 3039SOL    HW110016   1.037   2.991   0.116  0.8457  0.7764 -0.3781
 3039SOL    HW210017   0.959   3.095   0.018 -1.3344 -0.0973  0.3623
 3040SOL     OW10018   0.406   1.318   5.361 -0.3872  0.1046  1.0971
 3040SOL    HW110019   0.331   1.292   5.301  1.0623 -0.9070 -0.3875
 3040SOL    HW210020   0.394   1.412   5.393 -1.7937  0.2581  0.1665
 3041SOL     OW10021   2.520   4.595   1.214 -0.1234  0.3336  0.0393
 3041SOL    HW110022   2.508   4.550   1.125 -0.8394  1.4863 -0.4738
 3041SOL    HW210023   2.441   4.575   1.272  0.4612 -0.6305  0.5443
 3042SOL     OW10024   2.045   6.885   4.187 -0.1095 -0.4365  0.5318
 3042SOL    HW110025   2.075   6.812   4.125 -0.6374  0.0520 -0.3231
 3042SOL    HW210026   1.950   6.909   4.166  0.6995  2.0139 -0.7240
 3043SOL     OW10027   3.374   4.453   5.672 -0.4664 -0.1083  0.1458
 3043SOL    HW110028   3.305   4.523   5.689 -1.2052 -1.0844  1.3665
 3043SOL    HW210029   3.367   4.420   5.578 -2.5992 -1.1278  0.6071
 3044SOL     OW10030   4.035   4.235   1.346  0.6677 -0.9275 -1.1048
 3044SOL    HW110031   4.112   4.177   1.369  0.5355 -1.2486 -1.4701
 3044SOL    HW210032   4.009   4.290   1.426  2.8428  1.0364 -1.6260
 3045SOL     OW10033   3.162   4.012   4.681  0.7155 -0.7459 -0.2292
 3045SOL    HW110034   3.079   3.957   4.676  1.7020 -2.2273 -1.2664
 3045SOL    HW210035   3.175   4.046   4.774 -0.3486 -1.6096  0.2472
 3046SOL     OW10036   6.879   2.832   1.510  0.3701 -0.4461  0.1694
 3046SOL    HW110037   6.788   2.802   1.482 -0.1923  1.2445  0.1311
 3046SOL    HW210038   6.919   2.764   1.571 -1.5507 -0.4827  1.4598
 3047SOL     OW10039   4.830   4.197   0.279  0.0091 -0.1305 -0.2064
 3047SOL    HW110040   4.914   4.188   0.225  1.6502  0.2780  2.1196
 3047SOL    HW210041   4.802   4.293   0.282  0.3487 -0.0422  0.2497
 3048SOL     OW10042   0.299   5.839   6.227 -0.2621 -0.2587 -0.1879
 3048SOL    HW110043   0.296   5.938   6.246  0.7215 -0.4326  0.9786
 3048SOL    HW210044   0.209   5.799   6.243 -0.1067  0.0620  1.7033
 3049SOL     OW10045   5.075   1.173   1.025  0.2477 -1.1127  0.4282
 3049SOL    HW110046   5.103   1.231   1.102  0.1206 -1.3163  0.6315
 3049SOL    HW210047   5.156   1.133   0.982  0.4005 -0.0340 -0.3179
 3050SOL     OW10048   4.635   4.394   3.665  0.1508 -0.6191 -0.5411
 3050SOL    HW110049   4.683   4.321   3.715 -0.6474 -0.5751  0.3196
 3050SOL    HW210050   4.607   4.360   3.575 -1.0763 -1.7453  0.2185
 3051SOL     OW10051   0.123   5.631   0.920  0.3150 -0.2492 -0.2563
 3051SOL    HW110052   0.198   5.565   0.910  0.6807  0.2286 -0.7471
 3051SOL    HW210053   0.127   5.697   0.845 -0.2756  0.1089  0.0193
 3052SOL     OW10054   0.199   1.290   3.063  0.1702  0.5619 -0.2268
 3052SOL    HW110055   0.120   1.263   3.007 -0.8591  0.1296  1.3772
 3052SOL    HW210056   0.181   1.378   3.106  0.2823  0.1616  0.6569
 3053SOL     OW10057   5.566   3.118   3.347  0.1853 -0.1543  0.2072
 3053SOL    HW110058   5.503   3.182   3.301 -0.0012  0.3920  1.1977
 3053SOL    HW210059   5.655   3.120   3.301 -0.2976 -0.4094 -0.7772
 3054SOL     OW10060   3.753   7.016   3.902 -0.4335 -0.9874  0.1822
 3054SOL    HW110061   3.702   7.031   3.817  1.0252 -3.9034 -1.3769
 3054SOL    HW210062   3.842   7.061   3.897 -1.7072  2.0669  1.9127
 3055SOL     OW10063   0.884   0.995   3.628  0.2930  0.1788 -0.5102
 3055SOL    HW110064   0.834   1.002   3.714  1.2290 -0.7214  0.1413
 3055SOL    HW210065   0.856   1.068   3.566 -1.2506  0.1465  0.1091
 3056SOL     OW10066   6.103   1.158   4.919  0.5551  0.2330  0.3371
 3056SOL    HW110067   6.105   1.058   4.912 -0.3532  0.3301 -2.0673
 3056SOL    HW210068   6.085   1.198   4.829  0.0755  2.5622  1.3906
 3057SOL     OW10069   5.978   0.321   1.907 -0.1107 -0.1618  0.4039
 3057SOL    HW110070   6.006   0.416   1.895 -1.3387  0.1931  0.2301
 3057SOL    HW210071   5.988   0.295   2.003  2.9347 -0.7773  0.0157
 3058SOL     OW10072   0.526   4.771   5.314  0.1807 -0.0328  0.4558
 3058SOL    HW110073   0.558   4.687   5.357  0.5661 -0.3791 -0.4761
 3058SOL    HW210074   0.539   4.848   5.377  0.3375 -0.5870  1.1071
 3059SOL     OW10075   1.558   5.424   6.828  0.3396  0.4988 -0.8530
 3059SOL    HW110076   1.533   5.334   6.792 -0.2788  0.0338  0.6902
 3059SOL    HW210077   1.643   5.417   6.879 -0.2734  0.5589  0.1893
 3060SOL     OW10078   5.027   3.162   6.161  0.0049 -0.6181  0.3901
 3060SOL    HW110079   4.947   3.105   6.179 -1.1048  0.9081  0.5628
 3060SOL    HW210080   5.059   3.202   6.247  1.4121 -1.7637  0.4237
 3061SOL     OW10081   5.585   4.345   4.474 -0.3996 -0.0380 -0.4341
 3061SOL    HW110082   5.521   4.269   4.482  1.4158 -1.9003 -2.1785
 3061SOL    HW210083   5.543   4.419   4.423 -1.8299 -0.3579  0.2492
 3062SOL     OW10084   2.201   3.987   0.965  0.7221 -0.2280 -0.0903
 3062SOL    HW110085   2.234   3.931   1.042 -0.7257  0.1326  0.8450
 3062SOL    HW210086   2.101   3.985   0.964  0.7051  0.1504 -1.7223
 3063SOL     OW10087   5.681   3.115   0.100  0.0614 -0.7245  0.0494
 3063SOL    HW110088   5.603   3.090   0.042 -0.1026 -1.2796  0.4948
 3063SOL    HW210089   5.654   3.112   0.196  0.1607  0.7963  0.1506
 3064SOL     OW10090   5.966   1.701   3.510  0.3252 -0.1224  0.1640
 3064SOL    HW110091   5.986   1.693   3.608 -2.1539 -0.2377  0.7330
 3064SOL    HW210092   5.992   1.793   3.478  2.9274 -0.7103  0.4047
 3065SOL     OW10093   0.963   1.554   4.598  0.0308 -0.6452  0.2446
 3065SOL    HW110094   0.892   1.603   4.548  0.3035 -1.5911 -1.1140
 3065SOL    HW210095   1.050   1.604   4.590 -0.1067 -0.3539  0.5171
 3066SOL     OW10096   5.514   0.574   3.060 -0.0329 -0.6740 -0.2289
 3066SOL    HW110097   5.597   0.525   3.033  0.0568 -0.1271 -1.0049
 3066SOL    HW210098   5.522   0.603   3.155 -0.1397 -2.2358  0.2685
 3067SOL     OW10099   0.394   2.317   2.883 -0.0408 -0.6996  0.2621
 3067SOL    HW110100   0.326   2.322   2.810  0.0658  0.7435  0.2258
 3067SOL    HW210101   0.347   2.307   2.971 -0.2382 -0.9316  0.1316
 3068SOL     OW10102   1.483   3.493   1.765 -0.2184 -0.6039  0.1645
 3068SOL    HW110103   1.550   3.464   1.697 -1.8123 -1.2276 -1.2108
 3068SOL    HW210104   1.414   3.421   1.777 -2.1349  1.0564 -0.4732
 3069SOL     OW10105   4.497   1.671   3.322  0.2029  0.3689  1.4369
 3069SOL    HW110106   4.556   1.680   3.402 -0.4125 -0.1335  1.9570
 3069SOL    HW210107   4.426   1.603   3.340 -0.4729  0.8813  0.7752
 3070SOL     OW10108   1.806   5.639   1.205 -0.2498  0.3537  0.0962
 3070SOL    HW110109   1.890   5.592   1.175 -0.2614  0.2248  0.2617
 3070SOL    HW210110   1.829   5.705   1.276 -0.2046  0.7491 -0.2865
 3071SOL     OW10111   0.639   6.575   1.264  0.2976  0.5147  0.2313
 3071SOL    HW110112   0.712   6.583   1.332 -0.0478 -1.6557  0.9416
 3071SOL    HW210113   0.653   6.642   1.192  4.0956 -0.9365 -0.6174
 3072SOL     OW10114   0.690   2.973   5.732  0.2599  0.5400  0.6840
 3072SOL    HW110115   0.722   2.879   5.746 -1.3999  0.0059  1.1522
 3072SOL    HW210116   0.602   2.971   5.685 -0.1020  1.8333  1.2667
 3073SOL     OW10117   1.630   3.202   2.705  0.2725 -0.0677  0.1842
 3073SOL    HW110118   1.716   3.184   2.656  0.7031  1.1018  0.4693
 3073SOL    HW210119   1.591   3.289   2.672 -0.0162  0.1619  1.1152
 3074SOL     OW10120   4.844   4.632   1.619 -0.1355 -0.0833 -0.3649
 3074SOL    HW110121   4.928   4.594   1.581 -1.1950 -0.0555 -2.9244
 3074SOL    HW210122   4.778   4.558   1.635  0.9080 -0.3928  3.5151
 3075SOL     OW10123   4.205   0.709   1.351 -0.4961  0.2419  0.3188
 3075SOL    HW110124   4.295   0.705   1.395 -0.9639 -0.2755  1.2685
 3075SOL    HW210125   4.134   0.714   1.422 -1.2635 -0.3672 -0.3921
 3076SOL     OW10126   5.646   0.488   0.109 -0.3165  0.0634  0.6795
 3076SOL    HW110127   5.713   0.520   0.041 -1.0865  1.0570  0.3698
 3076SOL    HW210128   5.632   0.559   0.178 -0.0995 -0.6515  1.4841
 3077SOL     OW10129   6.785   5.996   1.820 -0.0443  0.0231 -0.2186
 3077SOL    HW110130   6.722   6.051   1.767  0.3689 -0.1441 -0.8917
 3077SOL    HW210131   6.829   5.928   1.761  1.1534  0.4755  0.1099
 3078SOL     OW10132   0.528   6.230   1.555 -0.0251  0.3058  0.6084
 3078SOL    HW110133   0.608   6.246   1.612  0.7074 -0.7863 -0.0940
 3078SOL    HW210134   0.545   6.266   1.463  1.2109 -3.2009 -0.6759
 3079SOL     OW10135   2.783   4.946   4.170 -0.2164 -0.0928  0.1949
 3079SOL    HW110136   2.815   4.979   4.259  0.9893 -0.0562 -0.2301
 3079SOL    HW210137   2.723   4.867   4.184  0.6311 -0.6220  1.0200
 3080SOL     OW10138   5.977   5.386   2.232 -0.0489  0.1643 -0.5418
 3080SOL    HW110139   6.030   5.416   2.312  1.5335 -0.3546 -1.3598
 3080SOL    HW210140   5.964   5.464   2.171  0.6702  0.0654 -0.8242
 3081SOL     OW10141   1.525   0.147   2.121  0.5448 -1.0222  0.2827
 3081SOL    HW110142   1.512   0.224   2.184  1.1323 -0.2437 -0.5198
 3081SOL    HW210143   1.553   0.066   2.173 -0.9668 -0.9648  1.2459
 3082SOL     OW10144   4.552   5.319   2.454  0.6289  0.5542 -0.6033
 3082SOL    HW110145   4.640   5.365   2.442  0.6435  1.0146  1.0522
 3082SOL    HW210146   4.554   5.264   2.537 -0.2499 -0.4224 -1.2102
 3083SOL     OW10147   5.716   1.645   3.829 -0.3430  0.1036  0.2462
 3083SOL    HW110148   5.689   1.708   3.902 -0.6897 -0.8995  0.9998
 3083SOL    HW210149   5.692   1.551   3.855  0.7889 -0.4248 -0.5621
 3084SOL     OW10150   6.801   5.771   2.081  0.2304 -0.7527 -0.2473
 3084SOL    HW110151   6.726   5.837   2.076 -1.2878 -2.4563 -1.8388
 3084SOL    HW210152   6.793   5.718   2.165 -0.5833 -1.1572 -0.5692
 3085SOL     OW10153   0.264   2.281   5.362 -0.1218  0.0018 -0.2442
 3085SOL    HW110154   0.213   2.349   5.414 -0.6443  0.5136 -1.3873
 3085SOL    HW210155   0.225   2.191   5.377  0.8049 -0.1290  1.5733
 3086SOL     OW10156   3.297   2.313   5.675 -0.3049 -0.7114 -0.6720
 3086SOL    HW110157   3.323   2.360   5.759 -0.3323 -0.0440 -1.0279
 3086SOL    HW210158   3.344   2.225   5.670  1.1271  0.0411 -0.8344
 3087SOL     OW10159   3.849   3.935   0.352  0.5664 -0.1518 -0.3706
 3087SOL    HW110160   3.789   3.878   0.408  0.0011  0.4812 -0.3129
 3087SOL    HW210161   3.916   3.980   0.412  1.5568 -1.3846 -0.5164
 3088SOL     OW10162   1.444   3.782   0.322 -0.0480 -0.4214  0.2208
 3088SOL    HW110163   1.357   3.773   0.273 -0.3972  0.6574  0.6169
 3088SOL    HW210164   1.517   3.746   0.265 -0.5982 -0.2279 -0.6399
 3089SOL     OW10165   4.099   6.716   6.315 -0.1465 -0.2333  0.4512
 3089SOL    HW110166   4.093   6.661   6.231 -0.9809  0.5932 -0.0441
 3089SOL    HW210167   4.173   6.680   6.372 -1.1452 -2.3317  0.5016
 3090SOL     OW10168   4.853   4.043   3.350 -0.2304  0.1199 -0.9842
 3090SOL    HW110169   4.783   4.084   3.292 -0.8225  0.4121 -0.0823
 3090SOL    HW210170   4.827   4.052   3.446  1.7355  1.5792 -0.5067
 3091SOL     OW10171   4.404   1.192   6.700 -0.1465  0.0043  0.2908
 3091SOL    HW110172   4.377   1.280   6.740  1.2001  0.6103 -0.0737
 3091SOL    HW210173   4.481   1.206   6.638 -0.3945 -1.3395 -0.3585
 3092SOL     OW10174   5.787   3.240   6.535  0.0637 -0.2301 -0.0023
 3092SOL    HW110175   5.711   3.182   6.567 -0.6127  0.8656  0.4248
 3092SOL    HW210176   5.818   3.297   6.611  0.3608  0.3526 -0.5633
 3093SOL     OW10177   2.974   1.140   3.066  0.2976 -0.0721  0.1045
 3093SOL    HW110178   2.903   1.206   3.089  1.1516  0.2958  1.8459
 3093SOL    HW210179   3.017   1.106   3.150  1.1401 -1.4472 -0.8336
 3094SOL     OW10180   2.026   0.474   4.733  1.0130 -0.2706 -0.2014
 3094SOL    HW110181   1.962   0.449   4.660 -0.6413  1.4910  0.5253
 3094SOL    HW210182   2.099   0.530   4.696 -0.9814  2.4635 -0.3481
 3095SOL     OW10183   4.692   2.891   3.494  0.5696  0.2680  0.2358
 3095SOL    HW110184   4.690   2.984   3.459 -0.5677  0.8439  1.6978
 3095SOL    HW210185   4.786   2.866   3.519  0.8798  1.0052 -0.1873
 3096SOL     OW10186   3.554   3.641   6.037  0.3918  0.0163 -0.3403
 3096SOL    HW110187   3.565   3.735   6.003  3.2093 -0.0850  0.0665
 3096SOL    HW210188   3.501   3.642   6.121  0.6029  1.2929 -0.1966
 3097SOL     OW10189   3.891   6.700   0.999 -0.2841 -0.3876 -0.1546
 3097SOL    HW110190   3.922   6.721   1.092  1.2543  0.0571 -0.7394
 3097SOL    HW210191   3.962   6.650   0.951 -1.5376 -1.6858 -0.7370
 3098SOL     OW10192   1.934   4.610   5.393 -0.1948  0.1183  0.1227
 3098SOL    HW110193   1.938   4.698   5.347  0.3955  0.0082 -0.0541
 3098SOL    HW210194   1.997   4.611   5.471 -1.8678  0.6260  1.5199
 3099SOL     OW10195   6.355   6.729   2.224  0.0469  0.3876 -0.2060
 3099SOL    HW110196   6.260   6.747   2.249  0.0571  0.2850 -0.0925
 3099SOL    HW210197   6.404   6.689   2.302  0.5135  1.5863  0.1446
 3100SOL     OW10198   0.833   6.558   4.317 -0.0911  0.3093  0.2131
 3100SOL    HW110199   0.893   6.478   4.313 -1.4921 -0.7110 -1.7617
 3100SOL    HW210200   0.760   6.541   4.384 -0.1614  0.0806  0.0815
 3101SOL     OW10201   0.670   1.294   6.563 -0.0031 -0.4989  0.2456
 3101SOL    HW110202   0.759   1.313   6.522 -0.6582  0.0855 -0.9879
 3101SOL    HW210203   0.646   1.198   6.548 -0.1497 -0.3367 -0.6113
 3102SOL     OW10204   2.417   5.772   3.786 -0.3527  0.0689 -0.0389
 3102SOL    HW110205   2.370   5.836   3.725  1.8420  1.0323 -0.8312
 3102SOL    HW210206   2.462   5.823   3.859 -1.3936 -0.9305  1.3528
 3103SOL     OW10207   4.729   1.932   6.542 -0.5836 -0.1523  0.5633
 3103SOL    HW110208   4.804   1.889   6.491 -0.6796 -0.6614  0.8433
 3103SOL    HW210209   4.708   2.021   6.502  1.2530  0.7470  1.4503
 3104SOL     OW10210   5.362   0.582   0.040 -0.1291  0.0419  0.1434
 3104SOL    HW110211   5.274   0.628   0.049  0.3203  0.5693  2.9180
 3104SOL    HW210212   5.427   0.621   0.105  1.7260 -1.3330 -0.7694
 3105SOL     OW10213   4.483   6.851   5.626  0.1084 -0.1294  0.1544
 3105SOL    HW110214   4.550   6.890   5.563  0.2959 -0.7637 -0.0520
 3105SOL    HW210215   4.528   6.825   5.711 -0.0447  0.2340  0.3516
 3106SOL     OW10216   3.514   4.446   6.253  0.0152 -0.8681  0.5309
 3106SOL    HW110217   3.604   4.487   6.262  0.3357 -1.3397 -0.4196
 3106SOL    HW210218   3.472   4.438   6.343  0.3317  0.6501  0.8509
 3107SOL     OW10219   1.497   0.817   4.921 -0.2719  0.0218 -0.4500
 3107SOL    HW110220   1.476   0.837   5.017  0.5393  0.6921 -0.3971
 3107SOL    HW210221   1.414   0.788   4.874 -1.3051  2.3285 -0.2034
 3108SOL     OW10222   2.087   6.513   0.681 -0.2320 -0.2988 -0.5429
 3108SOL    HW110223   2.182   6.538   0.702 -0.3596 -0.7296  0.6190
 3108SOL    HW210224   2.085   6.424   0.635 -0.0438 -0.0391 -1.0593
 3109SOL     OW10225   0.321   5.641   6.475  0.0673  0.3896 -0.1808
 3109SOL    HW110226   0.297   5.551   6.437  2.0655 -0.0673 -0.4441
 3109SOL    HW210227   0.346   5.703   6.401  2.0794  0.0781  0.1738
 3110SOL     OW10228   5.086   2.788   2.181 -1.1088  0.4488 -0.0072
 3110SOL    HW110229   5.044   2.733   2.254  0.0042  0.0478  0.3590
 3110SOL    HW210230   5.021   2.799   2.106 -1.0036 -2.4330 -0.6372
 3111SOL     OW10231   0.580   2.879   5.359  0.5732 -0.2772 -0.4214
 3111SOL    HW110232   0.642   2.958   5.358  0.2923 -0.0328  0.4997
 3111SOL    HW210233   0.490   2.908   5.391  0.4803 -0.9836 -0.0374
 3112SOL     OW10234   3.656   3.107   2.058  0.0740  0.0751 -0.4616
 3112SOL    HW110235   3.604   3.189   2.080  1.0835  0.3925  0.9391
 3112SOL    HW210236   3.668   3.099   1.959 -0.2625  1.4723 -0.6238
 3113SOL     OW10237   4.467   0.334   1.843 -0.3157 -0.2149  0.0191
 3113SOL    HW110238   4.434   0.271   1.773  0.5788  0.1272 -0.7354
 3113SOL    HW210239   4.469   0.427   1.805 -1.4968  0.2698  1.0723
 3114SOL     OW10240   2.229   3.516   0.661  0.4608  0.0415  0.2704
 3114SOL    HW110241   2.284   3.448   0.709  0.9908  0.3736  0.1343
 3114SOL    HW210242   2.176   3.570   0.728  0.3949 -0.1926  0.4078
 3115SOL     OW10243   5.186   4.083   1.869 -0.2086 -0.7253  0.2160
 3115SOL    HW110244   5.139   4.118   1.950 -0.7639 -1.0209  0.0236
 3115SOL    HW210245   5.183   3.984   1.869  3.3919 -0.9993  1.9939
 3116SOL     OW10246   4.329   2.943   5.620 -0.1601 -0.3959 -0.6570
 3116SOL    HW110247   4.288   3.030   5.645 -0.2394 -0.1440 -1.6045
 3116SOL    HW210248   4.425   2.941   5.648 -0.2832 -0.1916 -0.2182
 3117SOL     OW10249   1.308   6.719   4.303  0.2146  0.3510  0.2096
 3117SOL    HW110250   1.406   6.735   4.293  0.1628  0.8864  0.5030
 3117SOL    HW210251   1.267   6.706   4.212  0.5841 -0.0588  0.1007
 3118SOL     OW10252   0.891   1.412   5.157  0.5066 -0.5453  0.9735
 3118SOL    HW110253   0.988   1.438   5.149 -0.1511  1.8392 -0.0339
 3118SOL    HW210254   0.859   1.378   5.068  0.0269  0.2048  0.8531
 3119SOL     OW10255   0.151   3.758   6.541 -0.0815  0.0422  0.2304
 3119SOL    HW110256   0.085   3.807   6.483  0.4342  0.1573 -0.2621
 3119SOL    HW210257   0.202   3.693   6.485  0.4160  0.1460  0.5621
 3120SOL     OW10258   6.297   6.834   0.181  0.0867 -0.1581  0.0669
 3120SOL    HW110259   6.360   6.758   0.192 -0.0445 -0.3789 -0.6682
 3120SOL    HW210260   6.347   6.914   0.147 -0.1431 -0.5412 -1.2075
 3121SOL     OW10261   2.665   0.396   3.306 -0.5132 -0.3432 -0.1655
 3121SOL    HW110262   2.756   0.355   3.298 -0.8510 -1.6861  2.0682
 3121SOL    HW210263   2.598   0.341   3.256 -0.0557  1.0835 -2.4884
 3122SOL     OW10264   0.685   4.752   3.057  0.2674  0.2966 -0.3904
 3122SOL    HW110265   0.764   4.697   3.028  1.2792  0.7771  1.3030
 3122SOL    HW210266   0.635   4.702   3.128 -1.2875 -0.2162 -1.7867
 3123SOL     OW10267   4.791   5.109   0.181  0.3299 -0.0571  0.1243
 3123SOL    HW110268   4.745   5.159   0.109  2.8745  0.1028 -1.5327
 3123SOL    HW210269   4.759   5.140   0.270 -2.3651  0.2626 -0.8905
 3124SOL     OW10270   1.527   3.736   3.478 -0.3667  0.2468 -0.1588
 3124SOL    HW110271   1.620   3.763   3.503 -0.4748  0.7538 -0.2941
 3124SOL    HW210272   1.490   3.801   3.411 -0.5278 -0.3983 -0.7078
 3125SOL     OW10273   5.964   0.233   0.572  0.3022  0.0923 -0.6907
 3125SOL    HW110274   5.899   0.166   0.608  0.4077  0.3011 -0.0941
 3125SOL    HW210275   5.982   0.302   0.642 -0.6850  1.3970 -1.6621
 3126SOL     OW10276   0.071   4.182   3.799 -0.5729  0.0325  0.0420
 3126SOL    HW110277   0.035   4.221   3.714  0.0471  0.5850  0.0178
 3126SOL    HW210278   0.023   4.222   3.877  0.1001  0.9305  0.0208
 3127SOL     OW10279   1.696   6.481   4.700  0.7448  0.1035 -0.5753
 3127SOL    HW110280   1.619   6.423   4.724 -1.3772  2.6531 -0.7485
 3127SOL    HW210281   1.677   6.528   4.614  1.0621  3.0665  0.8541
 3128SOL     OW10282   1.840   3.204   4.086 -0.0119 -0.4842 -0.4664
 3128SOL    HW110283   1.903   3.128   4.074 -0.3685 -0.4949 -2.9320
 3128SOL    HW210284   1.890   3.290   4.085  0.1063 -0.5453 -1.4254
 3129SOL     OW10285   2.183   6.946   6.236 -0.8741  0.2435  0.0746
 3129SOL    HW110286   2.164   6.959   6.334 -0.0832  0.5350  0.2007
 3129SOL    HW210287   2.221   7.030   6.198 -0.2208 -0.1856 -0.2399
 3130SOL     OW10288   0.769   4.019   6.596 -0.3143 -0.7023 -0.1053
 3130SOL    HW110289   0.769   4.033   6.695  0.8792  1.9030 -0.3785
 3130SOL    HW210290   0.675   4.016   6.562 -0.7227 -0.3430  0.9715
 3131SOL     OW10291   3.110   0.376   2.522  0.4142 -0.8240 -0.6347
 3131SOL    HW110292   3.138   0.452   2.580  0.5974 -1.5382  0.2326
 3131SOL    HW210293   3.065   0.412   2.440 -1.0257  0.1927  0.5351
 3132SOL     OW10294   4.459   0.970   3.843 -0.2541  0.3893 -0.3207
 3132SOL    HW110295   4.385   1.027   3.806  0.0126  1.3452  0.5820
 3132SOL    HW210296   4.531   0.960   3.774  0.1187  1.9270 -0.1786
 3133SOL     OW10297   3.364   1.597   3.301 -0.0114  0.3773  0.4987
 3133SOL    HW110298   3.347   1.690   3.334  0.6424  0.3887  0.8195
 3133SOL    HW210299   3.463   1.583   3.291 -0.1299 -0.1373  0.0267
 3134SOL     OW10300   4.572   4.847   2.804 -0.2376  0.7830 -0.7274
 3134SOL    HW110301   4.570   4.878   2.709 -0.6734  2.4686 -0.1870
 3134SOL    HW210302   4.480   4.823   2.834  0.1406 -1.7220 -1.2971
 3135SOL     OW10303   3.226   3.695   1.759  0.4251  0.5357  0.0078
 3135SOL    HW110304   3.262   3.675   1.850  0.6005 -1.0400 -0.3806
 3135SOL    HW210305   3.131   3.725   1.766 -0.3934 -1.9394  0.5923
 3136SOL     OW10306   4.069   6.971   4.470 -0.6511 -0.5653 -0.3082
 3136SOL    HW110307   4.001   6.897   4.475  0.0723 -1.2751 -0.7827
 3136SOL    HW210308   4.096   6.997   4.562 -1.4579 -0.3791 -0.1162
 3137SOL     OW10309   1.418   2.478   5.507 -0.2470 -0.0213  0.8401
 3137SOL    HW110310   1.497   2.474   5.569 -0.0992 -0.0569  0.6499
 3137SOL    HW210311   1.448   2.459   5.414 -0.5082 -0.1943  0.7909
 3138SOL     OW10312   3.832   5.503   4.877 -0.3385  0.3996  0.2970
 3138SOL    HW110313   3.818   5.461   4.788 -1.6770 -0.4140  0.8733
 3138SOL    HW210314   3.857   5.433   4.944 -1.3154  0.6812  0.9817
 3139SOL     OW10315   1.013   5.304   0.966 -0.4859 -0.1424  0.3124
 3139SOL    HW110316   0.923   5.344   0.985 -0.2429  0.9764 -0.8014
 3139SOL    HW210317   1.021   5.217   1.015 -3.1668 -1.5788 -1.4985
 3140SOL     OW10318   0.969   1.593   1.136  0.0453  0.2627  0.2561
 3140SOL    HW110319   0.981   1.689   1.111  3.8309 -0.5516 -1.8722
 3140SOL    HW210320   1.009   1.577   1.226 -1.4875  0.7724  1.0676
 3141SOL     OW10321   1.622   4.983   2.570 -0.5366 -0.2442 -0.7682
 3141SOL    HW110322   1.696   5.019   2.627 -0.1607 -0.6299 -1.0034
 3141SOL    HW210323   1.612   5.040   2.489 -1.0884  0.3187 -0.3106
 3142SOL     OW10324   6.133   2.996   5.481 -0.6401 -0.1798  0.4670
 3142SOL    HW110325   6.096   3.041   5.563  0.2666  2.0792 -0.2807
 3142SOL    HW210326   6.067   3.003   5.407 -0.0242  1.1161  0.0022
 3143SOL     OW10327   3.761   3.367   5.339 -0.0337 -0.0835  0.2681
 3143SOL    HW110328   3.695   3.301   5.304 -1.5876 -0.0747  2.9225
 3143SOL    HW210329   3.751   3.453   5.289 -2.0456 -0.0881  0.5864
 3144SOL     OW10330   2.386   5.840   5.129 -0.3121  0.2535  0.2949
 3144SOL    HW110331   2.327   5.760   5.142 -0.9265  0.6245 -0.1571
 3144SOL    HW210332   2.455   5.842   5.200  0.8565 -1.6965 -0.6827
 3145SOL     OW10333   0.989   5.645   5.812  0.1317 -0.7536 -0.0166
 3145SOL    HW110334   1.020   5.626   5.719 -0.5685 -1.3850 -0.1341
 3145SOL    HW210335   1.015   5.570   5.872  0.7987 -0.2299  0.3525
 3146SOL     OW10336   3.431   6.692   3.756 -0.1795  0.1057  0.3155
 3146SOL    HW110337   3.464   6.632   3.829  2.4375 -0.4960 -1.2368
 3146SOL    HW210338   3.503   6.703   3.687 -2.1416  1.5465 -1.6256
 3147SOL     OW10339   6.774   3.948   1.940  0.3993 -0.2769  0.2937
 3147SOL    HW110340   6.846   4.009   1.906  0.6346 -0.3371  0.6857
 3147SOL    HW210341   6.760   3.874   1.874  0.5146 -0.1195  0.0912
 3148SOL     OW10342   4.707   5.756   1.203 -0.9929  0.2184  0.4676
 3148SOL    HW110343   4.722   5.728   1.107 -0.0348  0.1656  0.6181
 3148SOL    HW210344   4.617   5.798   1.212 -1.4283 -0.5057 -0.2958
 3149SOL     OW10345   3.098   3.058   2.840  0.1112 -0.2925 -0.1177
 3149SOL    HW110346   3.063   3.078   2.932 -0.4463  0.9129 -0.5789
 3149SOL    HW210347   3.180   3.000   2.848  0.6766  0.6259  1.2003
 3150SOL     OW10348   5.043   1.521   0.380 -0.0381  0.1935  0.2798
 3150SOL    HW110349   5.064   1.512   0.282 -2.3118 -1.6407 -0.1292
 3150SOL    HW210350   5.127   1.511   0.433  1.2175  1.0065 -1.4686
 3151SOL     OW10351   4.074   1.910   6.424 -0.1192 -0.4413 -0.1327
 3151SOL    HW110352   4.127   1.826   6.416  0.1778 -0.0992 -2.3157
 3151SOL    HW210353   4.127   1.987   6.389 -0.5814  0.6141  1.3507
 3152SOL     OW10354   5.935   3.182   3.375 -0.1879 -1.3405  0.4377
 3152SOL    HW110355   5.891   3.268   3.351 -0.9253 -1.6089  0.7890
 3152SOL    HW210356   6.024   3.200   3.416  0.4290 -0.8282 -1.0878
 3153SOL     OW10357   5.573   5.449   5.029 -0.1862 -0.1087  0.2343
 3153SOL    HW110358   5.495   5.494   5.071 -1.0505  1.9664 -3.1398
 3153SOL    HW210359   5.632   5.517   4.986  0.7684 -1.9261 -1.5502
 3154SOL     OW10360   3.157   2.523   1.471  0.0403  0.2783  0.1261
 3154SOL    HW110361   3.226   2.503   1.401  0.1675  0.6038  0.1574
 3154SOL    HW210362   3.143   2.622   1.477 -2.2548  0.1533 -1.6493
 3155SOL     OW10363   5.565   1.218   1.803  0.6878  0.1107  0.2986
 3155SOL    HW110364   5.561   1.118   1.795  2.7636 -0.0721  1.1011
 3155SOL    HW210365   5.566   1.244   1.900 -0.5189  0.9844  0.1084
 3156SOL     OW10366   3.455   6.711   4.519 -0.2005 -0.2095  0.1611
 3156SOL    HW110367   3.464   6.802   4.479 -1.4011 -1.1264 -2.4561
 3156SOL    HW210368   3.531   6.694   4.581  1.0066  1.9299 -0.6278
 3157SOL     OW10369   1.826   6.556   0.498 -0.3536 -0.1151 -0.3223
 3157SOL    HW110370   1.847   6.638   0.551 -2.0141  0.2796 -0.2223
 3157SOL    HW210371   1.827   6.579   0.400 -0.1988 -0.1273 -0.3234
 3158SOL     OW10372   1.979   1.515   5.758 -0.8046  0.0983 -0.0588
 3158SOL    HW110373   2.045   1.528   5.832  0.3865 -0.3412 -1.0031
 3158SOL    HW210374   1.944   1.604   5.728  1.5917  0.6606 -1.4732
 3159SOL     OW10375   4.531   4.742   3.504  0.3644  0.2903  0.2771
 3159SOL    HW110376   4.616   4.778   3.467 -0.8016  0.8600 -2.0667
 3159SOL    HW210377   4.542   4.644   3.523  0.8456 -0.2877 -2.5393
 3160SOL     OW10378   3.424   6.842   3.464  0.2663  0.1148  0.5112
 3160SOL    HW110379   3.390   6.915   3.523 -1.2531 -0.1164 -0.0327
 3160SOL    HW210380   3.461   6.768   3.519 -0.0604  0.4046  1.1248
 3161SOL     OW10381   4.044   4.142   5.215  0.3055 -0.4416 -0.1432
 3161SOL    HW110382   4.106   4.220   5.214  0.8270 -0.8393  0.2468
 3161SOL    HW210383   4.051   4.092   5.129 -0.4594  0.2582 -0.6303
 3162SOL     OW10384   4.385   1.220   3.440 -0.5413  0.2883  0.7392
 3162SOL    HW110385   4.395   1.311   3.480  0.1196  0.2945  0.5811
 3162SOL    HW210386   4.366   1.229   3.342 -0.3247  0.2565  0.6936
 3163SOL     OW10387   4.954   1.890   0.073  0.1456 -0.1165 -0.5636
 3163SOL    HW110388   4.935   1.880   0.171  0.3746 -2.5736 -0.7085
 3163SOL    HW210389   4.877   1.936   0.028 -0.4546  0.0284  0.5803
 3164SOL     OW10390   4.458   4.300   0.628 -0.7257  0.5532  0.0938
 3164SOL    HW110391   4.439   4.282   0.531 -1.0682  0.9212  0.0910
 3164SOL    HW210392   4.377   4.276   0.682 -0.8621  1.2020  0.1871
 3165SOL     OW10393   4.705   5.752   0.730 -0.6782 -0.2692  0.2203
 3165SOL    HW110394   4.705   5.708   0.820 -1.1292  1.1475  0.9575
 3165SOL    HW210395   4.641   5.829   0.731  0.6347  0.8977 -0.7453
 3166SOL     OW10396   2.304   3.883   6.582 -0.0541 -0.4008  0.4605
 3166SOL    HW110397   2.297   3.817   6.507  2.0753  0.3712 -0.4932
 3166SOL    HW210398   2.224   3.943   6.580 -0.1595 -0.5582 -1.0607
 3167SOL     OW10399   1.957   2.950   4.372  0.4027 -0.0063 -0.3450
 3167SOL    HW110400   1.966   2.951   4.273 -0.8528 -1.5655 -0.5151
 3167SOL    HW210401   2.042   2.919   4.414  0.2605 -1.4540 -1.0789
 3168SOL     OW10402   6.257   6.360   4.246  0.1051  0.0740  0.0187
 3168SOL    HW110403   6.291   6.282   4.298 -2.3443  0.8900  3.1204
 3168SOL    HW210404   6.179   6.331   4.190 -0.0208  0.0617  0.2013
 3169SOL     OW10405   4.104   5.677   5.280 -0.3694  0.2793  0.3939
 3169SOL    HW110406   4.107   5.599   5.342  0.3860  0.6176  0.7951
 3169SOL    HW210407   4.197   5.706   5.257 -0.6440  0.6316 -0.2956
 3170SOL     OW10408   1.542   2.845   3.111 -0.7825 -0.0862 -0.0510
 3170SOL    HW110409   1.614   2.844   3.041 -0.5372 -1.5065  0.2026
 3170SOL    HW210410   1.468   2.783   3.084 -1.9075  1.2920 -0.2631
 3171SOL     OW10411   5.278   3.729   3.221 -0.4255 -0.0155  0.0092
 3171SOL    HW110412   5.275   3.764   3.128 -0.5645  0.5102  0.2047
 3171SOL    HW210413   5.185   3.720   3.257 -0.3938 -0.6613 -0.0624
 3172SOL     OW10414   4.886   5.619   0.206 -0.1327 -0.2559  0.1647
 3172SOL    HW110415   4.811   5.644   0.145 -0.4676 -1.0717  0.2289
 3172SOL    HW210416   4.943   5.550   0.162 -0.3703 -0.8441  0.7514
 3173SOL     OW10417   2.204   7.004   1.791 -0.2648  0.5085 -0.1876
 3173SOL    HW110418   2.174   6.913   1.822  0.5520  0.3683  0.2287
 3173SOL    HW210419   2.262   6.994   1.710  1.0640  0.5161  0.7373
 3174SOL     OW10420   6.918   4.813   4.354 -0.9552 -0.3887 -1.1075
 3174SOL    HW110421   6.920   4.897   4.408 -0.0072  0.6527 -2.6644
 3174SOL    HW210422   6.841   4.815   4.291 -0.5424 -0.3536 -1.6218
 3175SOL     OW10423   2.912   2.015   0.434  0.6855 -1.1376  0.0083
 3175SOL    HW110424   2.970   2.007   0.353 -0.8918 -1.8590 -1.1048
 3175SOL    HW210425   2.828   1.964   0.419  0.6611 -1.8989  2.4162
 3176SOL     OW10426   4.868   5.670   6.669  0.1196 -0.4172  0.3991
 3176SOL    HW110427   4.940   5.638   6.731 -1.0178  0.5656  2.3457
 3176SOL    HW210428   4.783   5.620   6.688 -0.4671  0.4886  0.2422
 3177SOL     OW10429   1.818   0.679   5.587 -0.6157 -0.4575 -0.2070
 3177SOL    HW110430   1.817   0.583   5.616 -0.7260 -0.2152  0.6185
 3177SOL    HW210431   1.874   0.732   5.651 -1.0870  0.1420 -0.2930
 3178SOL     OW10432   3.254   2.596   1.773  0.3122  0.0143 -0.1222
 3178SOL    HW110433   3.207   2.576   1.687  1.7292  0.8205 -1.1004
 3178SOL    HW210434   3.194   2.652   1.831 -0.2078  0.4249 -1.0420
 3179SOL     OW10435   1.785   2.859   3.935 -0.1981 -0.1554 -0.0576
 3179SOL    HW110436   1.761   2.815   3.848 -0.5484  0.4414 -0.2736
 3179SOL    HW210437   1.735   2.946   3.943  0.4269  0.1735  0.3825
 3180SOL     OW10438   0.155   1.132   0.403 -0.2875 -0.1100 -0.1477
 3180SOL    HW110439   0.081   1.147   0.336 -0.4681 -1.4129 -0.2781
 3180SOL    HW210440   0.167   1.033   0.416  0.5678  0.1169  0.8477
 3181SOL     OW10441   2.085   4.703   0.144  0.1291  0.0724  0.1063
 3181SOL    HW110442   2.056   4.792   0.110 -0.4694 -0.4893 -0.9115
 3181SOL    HW210443   2.100   4.708   0.243  1.6321  1.6753 -0.1594
 3182SOL     OW10444   2.932   6.398   4.863 -0.8296 -0.2204 -0.1389
 3182SOL    HW110445   2.940   6.444   4.775  0.0198  0.1798  0.1388
 3182SOL    HW210446   2.996   6.321   4.866  1.2113  1.4146  1.1242
 3183SOL     OW10447   3.695   4.167   4.724  0.3365 -0.2251  0.5039
 3183SOL    HW110448   3.678   4.161   4.626 -0.4744  0.7123  0.5675
 3183SOL    HW210449   3.789   4.196   4.740  0.1567  0.6870 -0.0353
 3184SOL     OW10450   2.356   1.003   3.269  0.1901 -0.4805  0.4483
 3184SOL    HW110451   2.343   0.996   3.367 -0.0523  0.8134  0.5247
 3184SOL    HW210452   2.280   1.053   3.228  1.4207  1.0595 -0.0574
 3185SOL     OW10453   4.279   0.621   1.770  0.6384 -0.0029  0.4975
 3185SOL    HW110454   4.362   0.605   1.717  0.3633 -1.1932  0.4164
 3185SOL    HW210455   4.220   0.541   1.766 -0.6208  0.8994  0.3900
 3186SOL     OW10456   0.810   0.840   6.755  0.1797  0.2462  0.4693
 3186SOL    HW110457   0.738   0.835   6.825  0.2535  0.8690  0.6027
 3186SOL    HW210458   0.791   0.917   6.694  0.3655 -0.0119  0.0862
 3187SOL     OW10459   2.867   3.891   1.684  0.2225  0.1271 -0.0886
 3187SOL    HW110460   2.896   3.986   1.680  1.2341 -0.0374  2.1479
 3187SOL    HW210461   2.769   3.886   1.699  0.5607  0.9440  2.9182
 3188SOL     OW10462   3.000   0.421   6.549 -0.2948  1.3605 -0.2146
 3188SOL    HW110463   2.975   0.326   6.565  0.1713  1.6316  2.6689
 3188SOL    HW210464   2.996   0.441   6.451 -3.1873 -0.7961 -0.6542
 3189SOL     OW10465   5.323   0.899   4.474 -0.5775 -0.2985 -0.3666
 3189SOL    HW110466   5.301   0.895   4.377  1.0177 -1.0057 -0.7461
 3189SOL    HW210467   5.262   0.963   4.520 -1.1154  0.3384 -1.9041
 3190SOL     OW10468   0.247   5.439   1.413 -0.2098 -0.3207  0.4121
 3190SOL    HW110469   0.159   5.463   1.373 -0.2619 -0.0326  0.6953
 3190SOL    HW210470   0.320   5.480   1.358 -0.1968 -1.4440 -0.4460
 3191SOL     OW10471   0.113   6.049   2.663 -0.0712 -0.5054 -0.0357
 3191SOL    HW110472   0.044   5.976   2.652 -0.8462  0.2884 -0.6052
 3191SOL    HW210473   0.165   6.057   2.578 -1.3389  0.9227 -0.7269
 3192SOL     OW10474   1.668   5.322   0.579  0.2885 -0.8280  0.6466
 3192SOL    HW110475   1.680   5.256   0.505  0.1588 -1.4840  1.2047
 3192SOL    HW210476   1.745   5.386   0.579  0.1648 -0.6633 -0.2066
 3193SOL     OW10477   1.068   6.397   1.687  0.3041  0.6224  0.1295
 3193SOL    HW110478   1.123   6.463   1.635  1.3741 -0.4672 -0.1751
 3193SOL    HW210479   0.991   6.367   1.632  0.6628  0.5055 -0.3184
 3194SOL     OW10480   2.176   4.385   2.158  0.6210 -0.1249  0.3058
 3194SOL    HW110481   2.241   4.385   2.235 -0.1729 -1.1990  1.0078
 3194SOL    HW210482   2.205   4.453   2.090  2.0850 -0.0894  0.9232
 3195SOL     OW10483   6.069   0.771   3.130  0.1760 -0.0007  0.4427
 3195SOL    HW110484   6.137   0.751   3.059  0.4233  0.3244  0.5822
 3195SOL    HW210485   6.022   0.687   3.156  1.0879 -0.3732  0.9181
 3196SOL     OW10486   4.590   4.481   0.970  0.1955  0.2469  0.3707
 3196SOL    HW110487   4.539   4.408   1.016 -0.0721 -0.0180 -0.3448
 3196SOL    HW210488   4.542   4.568   0.985  0.7627  0.3729  1.6169
 3197SOL     OW10489   4.445   4.727   0.981 -0.3247 -0.1557  0.4061
 3197SOL    HW110490   4.524   4.780   0.950  0.1384 -1.1278 -0.1276
 3197SOL    HW210491   4.397   4.778   1.052 -0.4481  1.4082 -0.7250
 3198SOL     OW10492   2.594   2.691   1.756  0.2935 -0.1300  0.0499
 3198SOL    HW110493   2.567   2.605   1.799  2.7863 -0.7469  0.5227
 3198SOL    HW210494   2.555   2.697   1.665 -0.2617 -1.5559  0.1742
 3199SOL     OW10495   1.992   0.029   4.654 -0.1879 -0.0147  0.1675
 3199SOL    HW110496   2.074   0.027   4.711 -0.3478  0.1573  0.4034
 3199SOL    HW210497   1.928   0.096   4.690 -1.1620 -1.3368  0.9994
 3200SOL     OW10498   1.276   0.826   6.168  0.0053 -0.0567  0.3048
 3200SOL    HW110499   1.269   0.877   6.082  1.4277  1.4800  1.0563
 3200SOL    HW210500   1.339   0.749   6.156 -1.8969 -1.5600 -0.7392
 3201SOL     OW10501   3.139   3.051   4.303 -0.2788 -0.0276  0.3365
 3201SOL    HW110502   3.175   3.043   4.210 -0.5067  0.1789  0.2290
 3201SOL    HW210503   3.068   3.122   4.305 -0.8796 -0.6280  0.4900
 3202SOL     OW10504   5.761   6.067   1.367 -0.2654  0.8477  0.2724
 3202SOL    HW110505   5.719   6.102   1.284  0.4487 -1.7096 -1.2987
 3202SOL    HW210506   5.855   6.038   1.347 -0.0279  0.3221  1.9983
 3203SOL     OW10507   0.033   4.039   0.146 -0.0373 -0.3472 -0.5642
 3203SOL    HW110508  -0.020   3.987   0.079 -0.3366  0.0807 -0.6671
 3203SOL    HW210509  -0.027   4.103   0.194  0.1828 -0.6146  0.0838
 3204SOL     OW10510   5.300   4.223   0.532  0.3861  0.2651  1.0155
 3204SOL    HW110511   5.211   4.250   0.495  1.4050  2.0316 -0.2713
 3204SOL    HW210512   5.307   4.252   0.627 -2.0314 -3.7961  2.6919
 3205SOL     OW10513   1.030   5.757   0.316  0.1325 -0.1852 -0.0400
 3205SOL    HW110514   0.994   5.830   0.257  1.9308 -1.3163 -2.7667
 3205SOL    HW210515   1.049   5.793   0.407 -0.5512  2.3223 -0.8168
 3206SOL     OW10516   4.859   1.938   0.543 -0.5596  0.1495 -0.7379
 3206SOL    HW110517   4.786   1.999   0.572 -0.0112 -0.2589  1.6636
 3206SOL    HW210518   4.940   1.991   0.518 -0.9822  0.4997 -1.3898
 3207SOL     OW10519   6.018   1.989   3.102 -0.0995 -0.6751 -0.5432
 3207SOL    HW110520   6.024   2.042   3.017 -0.8106  1.5783  0.7359
 3207SOL    HW210521   5.923   1.966   3.120 -0.4805  1.9223  1.3188
 3208SOL     OW10522   0.028   4.434   6.224 -0.0357 -0.3110 -0.1492
 3208SOL    HW110523   0.099   4.442   6.293  0.4593  0.3726 -0.7164
 3208SOL    HW210524   0.060   4.374   6.150 -0.0472 -0.0251 -0.3909
 3209SOL     OW10525   1.630   2.833   4.670  0.1463  0.2995 -0.0263
 3209SOL    HW110526   1.676   2.801   4.587  1.5302  0.0345  0.8051
 3209SOL    HW210527   1.545   2.878   4.646  0.6985  0.5477 -1.6180
 3210SOL     OW10528   2.624   3.917   5.309 -0.5799 -0.3504 -0.6451
 3210SOL    HW110529   2.544   3.936   5.251 -1.0600  1.3298  0.4958
 3210SOL    HW210530   2.674   4.001   5.326  1.3908 -1.3477 -1.1896
 3211SOL     OW10531   5.294   1.903   1.324  0.5027 -0.2067 -0.0753
 3211SOL    HW110532   5.250   1.859   1.245 -1.0556  1.2631 -0.0761
 3211SOL    HW210533   5.234   1.898   1.403  0.5941  1.3026  0.1040
 3212SOL     OW10534   4.868   3.439   1.897  0.0456  0.3090 -0.3091
 3212SOL    HW110535   4.832   3.422   1.989  3.9686 -0.2342  1.3134
 3212SOL    HW210536   4.889   3.353   1.852  1.1143  0.5930 -0.3808
 3213SOL     OW10537   6.055   0.553   2.107  0.3262 -0.3188 -0.6055
 3213SOL    HW110538   5.960   0.583   2.103  0.4888  0.7434  1.6539
 3213SOL    HW210539   6.115   0.632   2.114  1.2412 -1.0144 -0.3079
 3214SOL     OW10540   2.338   1.426   0.459  0.3365 -0.4393 -0.1689
 3214SOL    HW110541   2.313   1.502   0.518 -1.8878 -1.3490  0.1535
 3214SOL    HW210542   2.290   1.433   0.371  0.4695 -1.2044 -0.3183
 3215SOL     OW10543   2.146   3.278   0.936  0.2756  0.5790  0.3467
 3215SOL    HW110544   2.175   3.238   1.023  0.7340 -2.0518 -0.8979
 3215SOL    HW210545   2.225   3.313   0.887  0.6306 -1.3214 -0.5398
 3216SOL     OW10546   6.953   4.934   6.771  0.3305 -0.5710 -0.0659
 3216SOL    HW110547   6.886   4.953   6.699 -0.8870 -2.5275  0.4593
 3216SOL    HW210548   6.913   4.957   6.860  1.2172  0.3319  0.1067
 3217SOL     OW10549   2.827   2.481   0.538 -0.1854  0.0104  0.6029
 3217SOL    HW110550   2.920   2.487   0.501 -0.5971  3.1206 -0.2375
 3217SOL    HW210551   2.814   2.552   0.607 -1.6419 -1.0946  1.5153
 3218SOL     OW10552   0.304   6.403   3.574 -0.2409 -0.0207  0.0448
 3218SOL    HW110553   0.363   6.472   3.533 -0.2950  1.0632  1.6829
 3218SOL    HW210554   0.275   6.434   3.665 -0.9319 -1.8512  0.4923
 3219SOL     OW10555   5.816   0.009   1.559  0.1146 -0.1879  0.5612
 3219SOL    HW110556   5.878   0.023   1.636 -0.9764  1.6702  1.1522
 3219SOL    HW210557   5.767  -0.078   1.571  1.5627 -1.0150  0.7716
 3220SOL     OW10558   2.328   5.954   2.789 -0.3881  0.3805 -0.1216
 3220SOL    HW110559   2.379   5.929   2.872 -1.9501  0.5999  0.9520
 3220SOL    HW210560   2.265   5.880   2.766 -0.9008  0.8842 -0.3347
 3221SOL     OW10561   4.038   4.743   2.895  0.5774  0.4144 -0.2984
 3221SOL    HW110562   3.962   4.784   2.845 -1.5373  3.1181  4.4425
 3221SOL    HW210563   4.096   4.692   2.832 -3.8331  0.0389 -4.6464
 3222SOL     OW10564   0.502   4.004   4.718 -0.4245  0.4669  0.1030
 3222SOL    HW110565   0.414   4.045   4.692 -0.5328 -0.0892 -0.4511
 3222SOL    HW210566   0.576   4.066   4.694 -0.7003  1.3295  1.3844
 3223SOL     OW10567   1.014   4.340   2.490  0.1379 -0.4979  0.1617
 3223SOL    HW110568   0.952   4.261   2.489 -0.8142  0.2171 -1.8109
 3223SOL    HW210569   0.964   4.422   2.462  1.3387  0.6604  1.2816
 3224SOL     OW10570   4.675   4.932   5.373 -0.3978  0.2284 -0.1284
 3224SOL    HW110571   4.631   4.848   5.405 -0.1538 -1.4742 -3.7602
 3224SOL    HW210572   4.754   4.953   5.431 -0.5061 -1.9989  0.9344
 3225SOL     OW10573   1.182   4.706   3.441  0.3293 -0.2687 -0.0424
 3225SOL    HW110574   1.233   4.648   3.377  0.3563 -0.6875  0.3484
 3225SOL    HW210575   1.231   4.792   3.455  1.6572 -1.2074  1.3762
 3226SOL     OW10576   1.423   5.571   6.468  0.1025 -0.3172 -0.2200
 3226SOL    HW110577   1.493   5.602   6.533  0.3562  0.8781 -1.0293
 3226SOL    HW210578   1.337   5.558   6.517  0.2456  0.7377  0.3459
 3227SOL     OW10579   2.811   6.992   1.051  0.3902  0.3564  0.0883
 3227SOL    HW110580   2.742   6.959   0.986  1.3611  0.5421 -1.0731
 3227SOL    HW210581   2.891   6.931   1.048  1.2632  1.4804 -0.3864
 3228SOL     OW10582   5.912   1.235   5.398 -0.3033  0.2438  0.3181
 3228SOL    HW110583   5.846   1.171   5.437 -0.4842  0.6598  0.6965
 3228SOL    HW210584   6.002   1.192   5.395 -0.1659  0.4086  1.7351
 3229SOL     OW10585   0.484   2.233   5.056 -0.2708 -0.3486  0.2140
 3229SOL    HW110586   0.441   2.161   5.110  0.0692 -0.2280  0.6522
 3229SOL    HW210587   0.489   2.317   5.110 -1.4641  0.2734 -0.5947
 3230SOL     OW10588   1.854   0.433   6.218  0.2740  0.3112  0.5024
 3230SOL    HW110589   1.793   0.454   6.142  1.7565  2.1120 -0.2610
 3230SOL    HW210590   1.840   0.501   6.291  1.7196  1.1114  0.0699
 3231SOL     OW10591   4.093   2.555   6.288 -0.2241  0.0771 -0.1262
 3231SOL    HW110592   4.187   2.543   6.255 -0.6711  0.7465 -1.7350
 3231SOL    HW210593   4.050   2.466   6.300  1.0505 -0.3198  2.0843
 3232SOL     OW10594   2.618   5.412   0.136  0.2947  0.0542 -0.1395
 3232SOL    HW110595   2.687   5.381   0.201 -1.1622 -2.0441  0.5263
 3232SOL    HW210596   2.613   5.348   0.060 -1.5791 -0.4680  0.3532
 3233SOL     OW10597   4.198   5.325   3.313 -0.4123 -0.3202  0.0435
 3233SOL    HW110598   4.293   5.325   3.343 -0.4802  1.5312  0.3860
 3233SOL    HW210599   4.144   5.266   3.373  0.4736 -1.2571 -0.0579
 3234SOL     OW10600   2.558   2.965   5.946 -0.2260  0.2707 -0.4928
 3234SOL    HW110601   2.649   2.963   5.903  0.2053  1.7215  0.2728
 3234SOL    HW210602   2.523   2.872   5.954  1.3453 -0.3584 -0.5157
 3235SOL     OW10603   2.809   4.376   5.625  0.0467 -0.2437  0.6072
 3235SOL    HW110604   2.824   4.286   5.664  2.0770  0.2221  1.0095
 3235SOL    HW210605   2.756   4.432   5.690 -1.3245 -1.1446  0.2980
 3236SOL     OW10606   4.302   2.323   4.779  0.4256 -0.2829 -0.4768
 3236SOL    HW110607   4.400   2.301   4.777  0.1367 -2.0117  1.1356
 3236SOL    HW210608   4.276   2.349   4.872 -0.8073 -0.7729 -0.6726
 3237SOL     OW10609   4.899   0.642   3.491 -0.0598 -0.4338 -0.0646
 3237SOL    HW110610   4.926   0.663   3.397  0.2203 -1.0058 -0.1162
 3237SOL    HW210611   4.977   0.605   3.541 -0.0749  0.3189  0.5445
 3238SOL     OW10612   3.572   6.589   6.963 -0.1496  0.1462  0.2555
 3238SOL    HW110613   3.600   6.497   6.936  1.0841  0.4989  0.2561
 3238SOL    HW210614   3.482   6.610   6.925 -0.1893 -0.8408 -0.2168
 3239SOL     OW10615   3.446   0.403   4.485  0.9794 -0.0343  0.1580
 3239SOL    HW110616   3.380   0.370   4.418  0.2872 -3.7442  2.3730
 3239SOL    HW210617   3.510   0.466   4.441  0.5303 -2.1304 -3.9491
 3240SOL     OW10618   5.468   5.658   6.029  0.6381 -0.1165 -0.0649
 3240SOL    HW110619   5.546   5.602   6.057  0.2734 -0.4900  0.2066
 3240SOL    HW210620   5.406   5.670   6.106 -0.4604 -1.2940 -0.7242
 3241SOL     OW10621   5.797   4.611   0.044 -0.0406  0.0791  0.2953
 3241SOL    HW110622   5.855   4.659  -0.023  0.0547  0.4992  0.6742
 3241SOL    HW210623   5.704   4.604   0.007 -0.0649  0.5929  0.2397
 3242SOL     OW10624   1.286   5.380   5.445 -0.1962 -0.4280 -0.0213
 3242SOL    HW110625   1.365   5.332   5.481  0.0011  0.3766  0.6565
 3242SOL    HW210626   1.274   5.358   5.348 -1.8875 -4.2064  0.8605
 3243SOL     OW10627   0.667   0.967   0.538 -0.1589 -0.6866  0.0512
 3243SOL    HW110628   0.714   1.025   0.605  2.1481 -2.9436  0.5645
 3243SOL    HW210629   0.636   0.883   0.583 -0.4531 -1.3168 -1.2850
 3244SOL     OW10630   3.880   1.064   3.953 -0.5440  0.4025 -0.2507
 3244SOL    HW110631   3.814   1.137   3.970 -0.5155  0.1176  1.1735
 3244SOL    HW210632   3.959   1.102   3.905 -0.9766  1.0964 -0.4315
 3245SOL     OW10633   0.849   1.327   0.456  0.1195  0.4270  0.1156
 3245SOL    HW110634   0.829   1.298   0.362  0.8439 -0.1722  0.1352
 3245SOL    HW210635   0.936   1.376   0.457  0.2328  0.2238  0.5068
 3246SOL     OW10636   5.505   4.306   6.785  0.0235  0.1830 -0.5571
 3246SOL    HW110637   5.493   4.240   6.710 -0.3588 -0.3865 -0.0145
 3246SOL    HW210638   5.495   4.258   6.872  0.8959  0.7548 -0.1320
 3247SOL     OW10639   6.445   0.943   6.965  0.4769 -0.2478  0.1612
 3247SOL    HW110640   6.421   0.964   6.870 -0.5037 -0.0109  0.4482
 3247SOL    HW210641   6.388   0.998   7.026 -1.1976 -2.6443  0.9267
 3248SOL     OW10642   4.789   2.099   6.151 -0.9223  0.4522  0.3285
 3248SOL    HW110643   4.811   2.129   6.058 -1.1321 -2.1416 -0.6603
 3248SOL    HW210644   4.690   2.084   6.158 -1.2869  2.9433  1.8020
 3249SOL     OW10645   6.233   4.769   5.522 -0.3476  0.0139  0.0499
 3249SOL    HW110646   6.203   4.768   5.426  0.9947 -0.2804 -0.3782
 3249SOL    HW210647   6.316   4.824   5.531  0.5009 -1.3320  0.7391
 3250SOL     OW10648   6.415   1.678   2.321 -0.4445 -0.3231  0.1239
 3250SOL    HW110649   6.458   1.636   2.401 -0.5519  0.9990  0.8955
 3250SOL    HW210650   6.451   1.636   2.238  2.0040  0.3878  0.7444
 3251SOL     OW10651   0.672   1.349   1.383  0.2920 -0.2910 -0.2249
 3251SOL    HW110652   0.712   1.307   1.464  0.1660 -1.8561 -0.9301
 3251SOL    HW210653   0.743   1.368   1.316  0.2170 -0.3293 -0.3156
 3252SOL     OW10654   4.644   1.664   4.459 -0.4021  0.3965  0.5452
 3252SOL    HW110655   4.614   1.751   4.418 -1.3073 -0.6951 -1.2346
 3252SOL    HW210656   4.688   1.608   4.389  0.6232 -0.4068  1.7892
 3253SOL     OW10657   2.616   7.000   3.362 -0.0253  0.1290 -0.4251
 3253SOL    HW110658   2.649   7.083   3.317 -0.1001  0.4717  0.1465
 3253SOL    HW210659   2.523   7.014   3.394 -0.0912 -0.2266 -0.4572
 3254SOL     OW10660   4.404   2.489   1.427 -0.2280 -0.3518  0.5705
 3254SOL    HW110661   4.437   2.570   1.379 -0.5712 -0.1907  0.6037
 3254SOL    HW210662   4.476   2.420   1.429  1.2785  1.1197  3.3143
 3255SOL     OW10663   2.331   4.245   4.011 -0.0845 -0.2063  0.2828
 3255SOL    HW110664   2.305   4.302   3.933  0.7405  0.3975  0.4339
 3255SOL    HW210665   2.323   4.149   3.985  0.9272 -0.0211 -0.8259
 3256SOL     OW10666   2.746   3.164   6.069  0.0834 -0.7335 -0.0191
 3256SOL    HW110667   2.842   3.138   6.079  0.4449  0.2069 -0.9036
 3256SOL    HW210668   2.687   3.088   6.098  1.0756 -0.9875  1.4125
 3257SOL     OW10669   6.404   3.681   6.956  0.5157 -0.4446 -0.0244
 3257SOL    HW110670   6.388   3.692   7.054 -0.8621  1.2693 -0.3928
 3257SOL    HW210671   6.468   3.606   6.941 -0.4229 -1.7534  2.0884
 3258SOL     OW10672   2.123   4.754   2.285 -0.5981 -0.1634  0.3689
 3258SOL    HW110673   2.043   4.785   2.336 -0.2989  1.3483 -0.0245
 3258SOL    HW210674   2.098   4.742   2.189 -0.4155  0.0808  0.2894
 3259SOL     OW10675   6.999   2.820   2.457  0.2056  0.0699 -0.2752
 3259SOL    HW110676   7.018   2.887   2.386  0.9437  0.9096  0.6955
 3259SOL    HW210677   7.060   2.742   2.447  0.1325  0.0645 -0.7048
 3260SOL     OW10678   3.906   6.773   4.536 -0.4913  0.3883  0.2117
 3260SOL    HW110679   3.843   6.800   4.464 -2.1852 -0.1780  1.4243
 3260SOL    HW210680   3.861   6.710   4.599  1.5973 -0.8275  0.5992
 3261SOL     OW10681   1.817   1.321   5.867 -0.5186  0.1495 -0.0509
 3261SOL    HW110682   1.877   1.393   5.831  0.7368 -1.0219 -0.4183
 3261SOL    HW210683   1.853   1.289   5.955 -0.2940 -0.8911 -0.5003
 3262SOL     OW10684   6.300   3.698   2.381  0.1175 -0.3858 -0.2369
 3262SOL    HW110685   6.280   3.722   2.286  0.0579  2.1822  0.3583
 3262SOL    HW210686   6.378   3.635   2.383  0.2564 -0.3312 -1.9872
 3263SOL     OW10687   6.114   5.346   3.636 -0.3621 -0.2988  0.8503
 3263SOL    HW110688   6.023   5.383   3.657 -0.3908 -0.7833  1.6040
 3263SOL    HW210689   6.105   5.277   3.564 -0.1346  2.0785 -1.6205
 3264SOL     OW10690   5.425   4.038   2.678 -0.1203  0.3631 -0.1352
 3264SOL    HW110691   5.397   4.066   2.770  0.0018  0.3713 -0.0993
 3264SOL    HW210692   5.519   4.070   2.662  0.5429 -1.1954  0.4333
 3265SOL     OW10693   4.056   6.195   5.798 -0.0321  0.2105  0.1790
 3265SOL    HW110694   4.018   6.156   5.714 -2.5064 -1.9820  2.1156
 3265SOL    HW210695   4.003   6.276   5.824  0.1986  0.4025  0.0501
 3266SOL     OW10696   4.627   4.350   1.686  0.1174 -0.6136 -0.3113
 3266SOL    HW110697   4.572   4.318   1.763  1.7945 -0.6688  0.9095
 3266SOL    HW210698   4.637   4.277   1.619 -0.8418 -0.7529 -0.3246
 3267SOL     OW10699   1.812   1.379   0.357  0.9724  0.4082  0.1493
 3267SOL    HW110700   1.741   1.355   0.424  1.2270 -0.1812  0.2133
 3267SOL    HW210701   1.821   1.479   0.352  0.8446  0.4585  0.8752
 3268SOL     OW10702   5.959   4.917   5.089 -0.0373 -0.5135 -0.1139
 3268SOL    HW110703   5.864   4.939   5.114  0.5673  0.3647  1.4980
 3268SOL    HW210704   5.998   4.992   5.036  0.4003  0.0663  1.0062
 3269SOL     OW10705   6.318   2.326   2.945  0.4078 -0.0586 -0.1959
 3269SOL    HW110706   6.264   2.381   3.009 -3.6716 -2.4062 -1.2640
 3269SOL    HW210707   6.355   2.247   2.993 -2.1644 -1.5126 -0.4193
 3270SOL     OW10708   3.333   2.993   3.853 -0.2950 -0.0099 -0.3915
 3270SOL    HW110709   3.424   2.955   3.871 -0.3760  0.0394  0.1384
 3270SOL    HW210710   3.295   3.030   3.937 -1.0789 -0.6175 -0.4665
 3271SOL     OW10711   4.195   6.312   3.047  0.2058 -0.1495  0.5296
 3271SOL    HW110712   4.196   6.410   3.067  0.6266  0.0066 -0.2383
 3271SOL    HW210713   4.222   6.297   2.952 -0.5478 -0.9592  0.4302
 3272SOL     OW10714   5.146   4.321   4.376  0.1416 -0.0000 -0.7020
 3272SOL    HW110715   5.194   4.234   4.386  0.1168 -0.1006 -1.3822
 3272SOL    HW210716   5.097   4.322   4.289 -1.1791  0.0728  0.0215
 3273SOL     OW10717   5.602   5.856   4.316 -0.0902  0.1648  0.2426
 3273SOL    HW110718   5.551   5.838   4.400 -0.6924 -0.2909 -0.2086
 3273SOL    HW210719   5.577   5.789   4.246 -0.1768  0.9929 -0.5490
 3274SOL     OW10720   6.276   4.365   6.366 -0.0645 -0.4180 -0.5906
 3274SOL    HW110721   6.201   4.299   6.358  1.2524 -2.2100  1.0077
 3274SOL    HW210722   6.283   4.397   6.460  0.2766  0.8854 -1.0376
 3275SOL     OW10723   0.533   4.104   1.289  0.3486 -0.0514 -0.5116
 3275SOL    HW110724   0.442   4.136   1.263 -0.6531 -0.3421  2.3379
 3275SOL    HW210725   0.581   4.070   1.207 -1.2104  2.0722 -2.4338
 3276SOL     OW10726   4.709   0.327   3.474  0.1743  0.1213 -1.3871
 3276SOL    HW110727   4.661   0.414   3.485 -2.2827 -1.2477 -0.4446
 3276SOL    HW210728   4.804   0.337   3.502 -0.1675  2.3735 -0.8781
 3277SOL     OW10729   1.589   6.298   6.936  0.3554  0.7840  0.2575
 3277SOL    HW110730   1.495   6.264   6.931  1.1606 -1.4344 -2.8103
 3277SOL    HW210731   1.632   6.265   7.020 -0.6037 -1.2199  0.0118
 3278SOL     OW10732   2.411   2.369   5.511  0.1982  0.0387  0.4921
 3278SOL    HW110733   2.318   2.384   5.478  1.5135  2.2109 -2.8050
 3278SOL    HW210734   2.458   2.457   5.521  2.2475 -1.0269  0.9189
 3279SOL     OW10735   0.237   6.425   3.160 -0.0900  0.2198 -0.2514
 3279SOL    HW110736   0.159   6.485   3.176  0.6288  0.7867  1.2712
 3279SOL    HW210737   0.249   6.413   3.061 -2.2841 -0.1787 -0.5323
 3280SOL     OW10738   1.490   3.308   2.035 -0.3159  0.2067  0.2216
 3280SOL    HW110739   1.534   3.397   2.036 -0.5376  0.3100  0.8211
 3280SOL    HW210740   1.544   3.245   1.979  0.3948  0.4349  0.6412
 3281SOL     OW10741   6.509   5.587   6.435 -0.4525 -0.4013 -0.2349
 3281SOL    HW110742   6.419   5.598   6.392 -0.1136  2.2040 -0.4306
 3281SOL    HW210743   6.575   5.648   6.390  1.1697 -1.4303  0.6502
 3282SOL     OW10744   5.183   0.574   5.025  0.0208  0.2822  0.0740
 3282SOL    HW110745   5.158   0.602   4.933  0.7457 -0.4926 -0.3680
 3282SOL    HW210746   5.281   0.558   5.030 -0.2098 -1.1458  0.5807
 3283SOL     OW10747   5.131   1.687   5.758 -0.2336 -0.4654  0.4281
 3283SOL    HW110748   5.203   1.617   5.758 -0.8688 -1.1277  0.1957
 3283SOL    HW210749   5.165   1.769   5.711  0.9999 -0.0853  1.8797
 3284SOL     OW10750   6.631   0.849   1.483 -0.5138 -0.0161  0.2623
 3284SOL    HW110751   6.679   0.920   1.534 -0.6476 -0.2282  0.6862
 3284SOL    HW210752   6.533   0.869   1.481 -0.6187 -0.4511  0.8176
 3285SOL     OW10753   6.601   0.739   4.832 -0.1006  0.1716 -0.0925
 3285SOL    HW110754   6.594   0.712   4.736 -1.0351 -2.7303  0.7082
 3285SOL    HW210755   6.672   0.810   4.841 -0.0653  0.6264 -2.8865
 3286SOL     OW10756   6.327   1.477   3.420 -0.6473  0.1715 -0.0100
 3286SOL    HW110757   6.348   1.575   3.416  0.3661 -0.0712 -2.4850
 3286SOL    HW210758   6.407   1.425   3.393 -1.1651 -1.3735  1.3316
 3287SOL     OW10759   0.031   1.680   2.837  0.8122 -0.2260 -0.5164
 3287SOL    HW110760   0.011   1.753   2.902 -2.8429 -2.9580  1.8714
 3287SOL    HW210761  -0.044   1.673   2.771  1.8266 -0.8939 -1.6332
 3288SOL     OW10762   2.767   1.892   1.278 -0.2721  0.2633  0.4176
 3288SOL    HW110763   2.707   1.970   1.296  0.0302  0.7891 -0.6873
 3288SOL    HW210764   2.759   1.866   1.182  0.7863 -0.0524  0.3969
 3289SOL     OW10765   5.183   4.079   3.976  0.1773 -0.3199 -0.0224
 3289SOL    HW110766   5.173   4.166   4.025 -1.5259  0.0508 -0.9458
 3289SOL    HW210767   5.279   4.063   3.956  0.7625  0.2918  2.0045
 3290SOL     OW10768   6.820   3.412   5.346 -0.5921 -0.1500  0.4152
 3290SOL    HW110769   6.801   3.510   5.350 -0.1236 -0.0470  0.2265
 3290SOL    HW210770   6.741   3.365   5.307  0.0743  0.4487 -1.8624
 3291SOL     OW10771   0.989   0.660   5.190 -0.0754  0.6402 -0.1489
 3291SOL    HW110772   0.923   0.587   5.208 -1.1064  1.5657 -0.0840
 3291SOL    HW210773   1.072   0.621   5.150 -0.4147 -0.6161  0.3457
 3292SOL     OW10774   5.838   5.604   4.097  0.3009  0.1609  0.3128
 3292SOL    HW110775   5.818   5.645   4.008  1.6563  0.7120  0.2354
 3292SOL    HW210776   5.856   5.677   4.163  1.5385 -0.2621  0.4668
 3293SOL     OW10777   0.496   1.750   4.688 -0.3020  0.6130  0.1185
 3293SOL    HW110778   0.475   1.728   4.783 -0.0718 -1.3773 -0.2449
 3293SOL    HW210779   0.496   1.666   4.634 -1.7509  1.8445 -1.9288
 3294SOL     OW10780   1.560   3.971   0.498  0.2441 -0.2250 -0.3551
 3294SOL    HW110781   1.533   3.914   0.421  0.3772  1.1127 -1.4358
 3294SOL    HW210782   1.635   3.928   0.547  0.1710 -1.0834 -0.9789
 3295SOL     OW10783   0.137   6.758   5.891 -0.5359  0.2470 -0.2318
 3295SOL    HW110784   0.110   6.733   5.984 -0.9982  0.9324 -0.1715
 3295SOL    HW210785   0.054   6.773   5.837 -0.2667  1.1371 -0.3960
 3296SOL     OW10786   3.942   4.164   0.521  0.0632  0.2563 -0.0203
 3296SOL    HW110787   3.852   4.134   0.552 -0.2820  1.5047  0.2362
 3296SOL    HW210788   3.967   4.249   0.568  1.4341 -0.1350  0.0090
 3297SOL     OW10789   2.693   1.532   1.692  0.4071 -0.6577  0.1614
 3297SOL    HW110790   2.595   1.513   1.694  0.3792 -0.4935  0.3330
 3297SOL    HW210791   2.712   1.600   1.621  0.0726  1.1627  1.7605
 3298SOL     OW10792   5.077   3.655   6.930  0.4346 -0.2264 -0.2537
 3298SOL    HW110793   5.057   3.749   6.957  1.8337 -0.1983  0.8057
 3298SOL    HW210794   5.153   3.620   6.986 -1.8133 -2.9241  1.3533
 3299SOL     OW10795   6.608   6.303   6.942  0.6785 -0.5745 -0.0325
 3299SOL    HW110796   6.609   6.219   6.995  0.4527 -0.4030  0.2465
 3299SOL    HW210797   6.558   6.288   6.856  4.0210 -1.8760 -1.9419
 3300SOL     OW10798   1.691   2.132   2.173  0.1719 -0.2063  0.3417
 3300SOL    HW110799   1.607   2.187   2.168  1.0376  1.1193 -0.2073
 3300SOL    HW210800   1.724   2.115   2.080 -0.6324 -2.6082  0.4264
 3301SOL     OW10801   6.043   6.044   1.265 -0.1053 -0.0228  0.0596
 3301SOL    HW110802   6.078   6.043   1.359  0.4699  0.7322 -0.1320
 3301SOL    HW210803   6.100   5.985   1.208 -1.3915 -1.7497  0.4727
 3302SOL     OW10804   6.271   2.995   1.402  0.4775  0.3113  0.4566
 3302SOL    HW110805   6.357   2.992   1.351  1.3770  0.4976  1.9197
 3302SOL    HW210806   6.289   3.021   1.497 -0.8875 -1.9970  1.4192
 3303SOL     OW10807   5.247   1.106   3.749 -0.1675 -0.2892 -0.0796
 3303SOL    HW110808   5.151   1.112   3.777 -0.6612  0.4735 -1.8115
 3303SOL    HW210809   5.306   1.137   3.824 -1.3718  1.0352  0.3623
 3304SOL     OW10810   1.240   0.061   0.728 -0.0880 -0.1714 -0.5138
 3304SOL    HW110811   1.163   0.071   0.791 -1.8291 -0.4678 -2.4755
 3304SOL    HW210812   1.254  -0.036   0.707 -0.3990 -0.0095 -1.5479
 3305SOL     OW10813   0.612   3.356   5.400  0.2020  0.1501 -0.0796
 3305SOL    HW110814   0.513   3.347   5.412 -0.1232  0.9299 -1.8402
 3305SOL    HW210815   0.658   3.281   5.446 -1.2219 -0.3817  0.5332
 3306SOL     OW10816   5.669   4.591   3.684  0.2663  0.4798  0.0907
 3306SOL    HW110817   5.711   4.602   3.774  0.2243 -2.1775  0.5128
 3306SOL    HW210818   5.735   4.616   3.613  0.7224  1.4151  0.8251
 3307SOL     OW10819   1.360   4.719   5.179  0.4189 -0.1409  0.4157
 3307SOL    HW110820   1.309   4.782   5.238 -0.1661  0.3637 -0.6023
 3307SOL    HW210821   1.397   4.769   5.101 -1.8556 -1.3561 -1.5784
 3308SOL     OW10822   1.630   1.429   4.857  0.1235 -0.0407  0.2217
 3308SOL    HW110823   1.616   1.330   4.846 -0.2091  0.0192  0.0819
 3308SOL    HW210824   1.705   1.446   4.920  0.1083 -0.3836  0.3315
 3309SOL     OW10825   1.152   4.831   4.758  0.5093 -0.2313  0.6846
 3309SOL    HW110826   1.190   4.916   4.722  0.7612 -0.7215 -0.2160
 3309SOL    HW210827   1.175   4.755   4.698 -0.0610 -0.8827  1.2655
 3310SOL     OW10828   5.933   2.970   1.941  0.1408  0.2777 -0.2706
 3310SOL    HW110829   5.890   2.910   2.009 -1.1471  1.1950 -0.2300
 3310SOL    HW210830   6.019   2.929   1.911  0.6171 -0.3072  1.6833
 3311SOL     OW10831   1.877   2.696   3.193 -0.0459  0.3663  0.4619
 3311SOL    HW110832   1.801   2.630   3.196 -0.0782  0.4196  1.1157
 3311SOL    HW210833   1.924   2.695   3.281  1.1212 -0.1357 -0.1519
 3312SOL     OW10834   0.962   6.470   6.584  0.1196  0.2766 -0.1409
 3312SOL    HW110835   1.038   6.529   6.559 -0.4591  0.3875 -1.7554
 3312SOL    HW210836   0.883   6.491   6.526 -0.8779 -0.3980  0.9342
 3313SOL     OW10837   5.692   5.201   5.547 -0.4411 -0.5337 -0.4009
 3313SOL    HW110838   5.640   5.218   5.464 -0.7437 -1.7420 -0.4659
 3313SOL    HW210839   5.632   5.164   5.618  0.0710 -0.7572 -0.0752
 3314SOL     OW10840   5.809   1.344   2.382  0.1057  0.1564 -0.0050
 3314SOL    HW110841   5.817   1.266   2.444 -0.4130  1.5662  1.9281
 3314SOL    HW210842   5.810   1.312   2.287 -0.7497 -2.2358  0.7352
 3315SOL     OW10843   5.259   6.540   6.534  0.4199  0.4697  0.4662
 3315SOL    HW110844   5.226   6.476   6.464 -0.4001  3.7043 -2.4281
 3315SOL    HW210845   5.188   6.555   6.602 -0.8031  0.9096 -0.8568
 3316SOL     OW10846   4.305   2.258   6.116 -0.1273 -0.3550  0.0692
 3316SOL    HW110847   4.374   2.328   6.096 -0.4602 -0.0984 -0.1915
 3316SOL    HW210848   4.232   2.264   6.048 -0.7317 -0.2033  0.7317
 3317SOL     OW10849   2.608   2.859   0.913  0.7948  0.3904  0.5400
 3317SOL    HW110850   2.660   2.808   0.844  0.1884 -0.0061  0.3700
 3317SOL    HW210851   2.598   2.804   0.995 -2.5507 -1.1367 -0.7198
 3318SOL     OW10852   2.660   6.120   3.542 -0.0205  0.0415 -0.5258
 3318SOL    HW110853   2.635   6.139   3.447 -1.1240  0.0377 -0.2514
 3318SOL    HW210854   2.704   6.031   3.548  1.2419  0.5830 -1.2047
 3319SOL     OW10855   5.328   1.371   1.953 -0.3359 -0.2465 -0.2502
 3319SOL    HW110856   5.259   1.324   2.007  0.2028  0.0550  0.7160
 3319SOL    HW210857   5.414   1.374   2.003  0.3227 -0.4143 -1.3480
 3320SOL     OW10858   5.891   2.786   3.112 -0.0766 -0.1004 -0.1021
 3320SOL    HW110859   5.920   2.724   3.186  0.2885 -0.3934 -0.4869
 3320SOL    HW210860   5.810   2.749   3.068  1.3000 -1.4254 -1.6879
 3321SOL     OW10861   6.967   5.296   1.142  0.0654 -0.4802  0.1291
 3321SOL    HW110862   6.966   5.305   1.242  1.8240  1.2169  0.0481
 3321SOL    HW210863   6.929   5.379   1.101 -0.1416 -0.9440 -0.6381
 3322SOL     OW10864   1.702   3.518   2.381 -0.2762 -0.3202  0.0570
 3322SOL    HW110865   1.621   3.463   2.360 -0.8134 -0.2463  1.8222
 3322SOL    HW210866   1.775   3.459   2.415  0.2156 -0.2999 -0.9181
 3323SOL     OW10867   0.700   6.413   2.502 -0.2765 -0.3659 -0.1115
 3323SOL    HW110868   0.676   6.327   2.547 -1.5191  0.5410  1.0303
 3323SOL    HW210869   0.618   6.468   2.488  0.6321  1.1440  0.2458
 3324SOL     OW10870   6.772   2.070   1.488 -0.0248 -0.0686 -0.1841
 3324SOL    HW110871   6.720   2.030   1.564  0.2575  0.0436  0.0696
 3324SOL    HW210872   6.869   2.050   1.499  0.0565  0.2296 -0.3369
 3325SOL     OW10873   6.123   2.035   6.241  0.1410 -0.4349  0.3815
 3325SOL    HW110874   6.129   2.120   6.293 -0.0572 -1.0848  1.4865
 3325SOL    HW210875   6.107   1.959   6.303 -2.1428 -1.0064 -0.8010
 3326SOL     OW10876   1.832   0.576   6.445  0.6243  0.8264 -0.0139
 3326SOL    HW110877   1.768   0.651   6.431 -0.5102 -0.2258 -0.7077
 3326SOL    HW210878   1.782   0.495   6.478  1.3480 -0.4158 -1.8083
 3327SOL     OW10879   0.383   3.528   5.587  0.4841 -0.5267  0.1120
 3327SOL    HW110880   0.396   3.623   5.559 -0.9482 -0.3529 -0.0673
 3327SOL    HW210881   0.308   3.488   5.535 -1.6434 -0.4853  2.8868
 3328SOL     OW10882   2.909   5.978   2.350  0.8269 -0.0900  1.0004
 3328SOL    HW110883   2.951   6.052   2.297 -0.0232 -0.3503 -0.0558
 3328SOL    HW210884   2.915   5.892   2.299 -0.9784 -0.1357  0.8002
 3329SOL     OW10885   4.062   0.153   4.070  0.1692 -0.1341  0.1881
 3329SOL    HW110886   4.081   0.130   4.166  0.1347 -1.4545 -0.1069
 3329SOL    HW210887   4.102   0.083   4.011 -0.1369  0.4751 -0.7519
 3330SOL     OW10888   4.085   6.906   1.575  0.8010 -0.4241  0.0891
 3330SOL    HW110889   4.043   6.851   1.648 -0.9561 -1.3868 -1.5557
 3330SOL    HW210890   4.158   6.854   1.531  0.8742 -0.4128  0.1953
 3331SOL     OW10891   3.313   0.920   3.918 -0.0951 -0.3918  0.6408
 3331SOL    HW110892   3.282   0.996   3.977 -0.2361 -1.6242  2.2315
 3331SOL    HW210893   3.397   0.946   3.872 -1.1122  1.3999 -0.2930
 3332SOL     OW10894   6.391   3.078   5.906 -0.4886 -0.4764 -0.1803
 3332SOL    HW110895   6.458   3.098   5.978 -0.6126  2.7006 -0.7969
 3332SOL    HW210896   6.386   2.979   5.892  3.1142 -0.9631  0.7957
 3333SOL     OW10897   1.879   3.092   2.145  0.2419 -0.0348  0.0690
 3333SOL    HW110898   1.977   3.111   2.154  0.1573 -0.3973  2.4042
 3333SOL    HW210899   1.848   3.118   2.054  2.2567  1.1976 -0.3192
 3334SOL     OW10900   6.085   1.195   1.763  0.4122  0.4064  0.3802
 3334SOL    HW110901   6.170   1.215   1.714 -0.2568  0.4553 -0.7868
 3334SOL    HW210902   6.017   1.159   1.699 -0.1757 -0.4467  1.4528
 3335SOL     OW10903   6.374   5.386   3.315  0.1345 -0.0495 -0.6598
 3335SOL    HW110904   6.279   5.407   3.293 -0.2535 -1.3690 -0.3676
 3335SOL    HW210905   6.382   5.288   3.336  1.4072  0.2097  0.1445
 3336SOL     OW10906   0.668   3.953   6.154  0.5797 -0.8189 -0.6134
 3336SOL    HW110907   0.587   3.987   6.201  1.0197 -0.0241 -0.4164
 3336SOL    HW210908   0.670   3.853   6.159 -0.6464 -0.8756 -1.0624
 3337SOL     OW10909   6.613   3.045   3.057 -0.6911 -0.0842 -0.3627
 3337SOL    HW110910   6.669   2.974   3.013 -0.0438 -0.5558  1.1501
 3337SOL    HW210911   6.631   3.133   3.014 -2.1516 -0.8840 -2.8793
 3338SOL     OW10912   2.289   5.574   5.162  0.3858 -0.4898  0.2296
 3338SOL    HW110913   2.191   5.556   5.158  0.1144  0.5950  1.3300
 3338SOL    HW210914   2.322   5.561   5.256  1.0991  0.0539  0.0683
 3339SOL     OW10915   0.465   5.384   6.261 -0.1102  0.6060 -0.2716
 3339SOL    HW110916   0.527   5.419   6.332  1.1121 -2.2819  0.2064
 3339SOL    HW210917   0.495   5.418   6.172  0.2804  1.6908  0.2453
 3340SOL     OW10918   5.078   2.741   5.105 -0.1793 -0.0320  0.6513
 3340SOL    HW110919   5.111   2.835   5.101  1.5184 -0.6217 -1.7835
 3340SOL    HW210920   5.148   2.680   5.069 -1.4659 -2.2017  1.6138
 3341SOL     OW10921   3.535   0.704   3.579  0.1745  0.4893 -0.3776
 3341SOL    HW110922   3.580   0.793   3.572  1.0465  0.1208  0.3623
 3341SOL    HW210923   3.603   0.631   3.571 -0.4082 -0.0993 -0.0721
 3342SOL     OW10924   5.412   3.743   4.772  0.0647 -0.2119  0.0997
 3342SOL    HW110925   5.369   3.652   4.772 -0.3205 -0.0294  0.6204
 3342SOL    HW210926   5.408   3.782   4.863  0.5590  0.1833 -0.0433
 3343SOL     OW10927   0.073   5.798   0.720 -0.1365 -0.1264  0.0008
 3343SOL    HW110928   0.123   5.812   0.635 -0.1212  1.1724  0.1901
 3343SOL    HW210929  -0.020   5.835   0.711 -0.4507 -0.8520  0.2365
 3344SOL     OW10930   5.414   2.118   2.556  0.0496 -0.3777  0.6681
 3344SOL    HW110931   5.510   2.142   2.539 -0.2173 -0.6983 -1.5967
 3344SOL    HW210932   5.409   2.038   2.615  1.1548 -0.2145  1.0016
 3345SOL     OW10933   4.295   5.214   4.513 -0.0253  0.0780  0.0790
 3345SOL    HW110934   4.270   5.281   4.443 -0.2369  0.9672  0.9665
 3345SOL    HW210935   4.291   5.122   4.475 -0.9420  0.4818 -0.8520
 3346SOL     OW10936   3.973   4.201   5.488  0.1576  0.6598 -0.1621
 3346SOL    HW110937   4.022   4.268   5.544  0.5800  0.5122 -0.3478
 3346SOL    HW210938   4.014   4.199   5.396 -1.3171  1.8110 -0.8858
 3347SOL     OW10939   1.074   3.003   1.963  0.3402 -0.4250  0.4619
 3347SOL    HW110940   1.165   3.024   1.929  0.2773  0.1372  0.6199
 3347SOL    HW210941   1.053   2.906   1.948  1.0001 -0.5777  0.5298
 3348SOL     OW10942   5.003   1.360   1.558 -0.1812 -0.2850 -0.2676
 3348SOL    HW110943   4.928   1.336   1.496  0.3510 -0.8407 -0.7124
 3348SOL    HW210944   5.053   1.277   1.583  1.7077  0.2997 -1.8269
 3349SOL     OW10945   5.836   3.736   6.506  0.0236  0.1290 -0.4526
 3349SOL    HW110946   5.806   3.698   6.419  3.9101 -1.7600 -1.2049
 3349SOL    HW210947   5.764   3.725   6.574 -1.5088 -2.5683 -2.3242
 3350SOL     OW10948   1.977   4.144   2.396  1.1779  0.1784  0.0218
 3350SOL    HW110949   2.024   4.216   2.448  2.3964 -0.0454 -0.7322
 3350SOL    HW210950   2.022   4.132   2.308  1.5282 -2.0782  0.4535
 3351SOL     OW10951   2.073   4.245   0.771  0.1156 -0.2447  0.1237
 3351SOL    HW110952   2.163   4.242   0.814  0.0568 -0.6268  0.2244
 3351SOL    HW210953   2.084   4.267   0.674  0.1471  2.1335  0.6038
 3352SOL     OW10954   4.674   4.708   6.477  0.5333 -0.4021 -0.1603
 3352SOL    HW110955   4.681   4.804   6.451 -1.4851 -0.2096 -0.1348
 3352SOL    HW210956   4.669   4.700   6.577  2.1184 -0.6746 -0.0748
 3353SOL     OW10957   6.142   5.786   6.161 -0.0158 -0.9131  0.4862
 3353SOL    HW110958   6.209   5.807   6.232 -1.4473 -1.2207  1.9980
 3353SOL    HW210959   6.066   5.735   6.201 -2.6427  1.9702 -0.4331
 3354SOL     OW10960   1.651   4.637   5.198  0.2462 -0.2125 -0.1350
 3354SOL    HW110961   1.651   4.563   5.131  0.5465 -0.5338  0.2191
 3354SOL    HW210962   1.620   4.721   5.154  2.5353  0.1206 -1.3051
 3355SOL     OW10963   3.649   3.405   2.425 -0.4229 -0.2032  0.1482
 3355SOL    HW110964   3.732   3.368   2.384  0.8087  1.1150  1.3407
 3355SOL    HW210965   3.574   3.402   2.358 -0.0492 -3.4102 -0.2687
 3356SOL     OW10966   6.074   5.373   4.967  0.5859  0.4547  0.0332
 3356SOL    HW110967   6.118   5.329   5.045 -0.4419  1.0855  1.0128
 3356SOL    HW210968   6.003   5.313   4.930  1.6254 -0.1836 -0.9589
 3357SOL     OW10969   6.923   5.108   0.650 -0.3527 -0.7832  0.2773
 3357SOL    HW110970   7.019   5.135   0.645 -0.7836  0.7087 -0.4680
 3357SOL    HW210971   6.912   5.038   0.720  0.9688  0.5391  1.9048
 3358SOL     OW10972   5.708   1.437   2.706  0.3203 -0.0413  0.4320
 3358SOL    HW110973   5.613   1.457   2.683  1.0761  1.7473 -1.4297
 3358SOL    HW210974   5.735   1.351   2.664 -0.6412 -0.9358  1.5786
 3359SOL     OW10975   0.778   2.331   1.028 -0.2580  0.4697 -0.3896
 3359SOL    HW110976   0.736   2.242   1.047 -1.0879  0.8074 -0.6156
 3359SOL    HW210977   0.803   2.375   1.115  2.2700 -0.9399 -0.3003
 3360SOL     OW10978   1.266   1.455   4.196 -0.5729  0.1225  0.7199
 3360SOL    HW110979   1.289   1.552   4.200 -0.1841  0.1168 -0.9278
 3360SOL    HW210980   1.324   1.405   4.260  1.2517  0.6240 -0.4640
 3361SOL     OW10981   5.038   5.287   2.082 -0.9436 -0.4140  0.0493
 3361SOL    HW110982   4.999   5.300   1.991  0.5470 -3.2954 -1.1242
 3361SOL    HW210983   5.022   5.194   2.113  0.9748 -0.3284  1.5055
 3362SOL     OW10984   2.229   0.477   3.622  0.4444 -0.7483 -0.4269
 3362SOL    HW110985   2.131   0.476   3.602  0.3613  1.3117 -0.3487
 3362SOL    HW210986   2.280   0.481   3.536  0.4349 -1.2302 -0.4543
 3363SOL     OW10987   5.929   5.807   1.448  0.1017 -0.4438  0.3538
 3363SOL    HW110988   5.847   5.793   1.504  0.1000  0.2773  0.5473
 3363SOL    HW210989   5.990   5.872   1.494  0.7667 -0.9453  0.1895
 3364SOL     OW10990   2.489   3.577   5.862 -0.4724 -0.5027  0.0418
 3364SOL    HW110991   2.531   3.571   5.953 -0.8484 -1.1939  0.1773
 3364SOL    HW210992   2.559   3.603   5.795 -0.1908  0.0128  0.5237
 3365SOL     OW10993   3.355   5.264   2.314 -0.3514 -0.1124 -0.1029
 3365SOL    HW110994   3.407   5.326   2.373 -0.3818  1.7419 -1.8814
 3365SOL    HW210995   3.412   5.238   2.236 -1.6930  1.1585 -1.5741
 3366SOL     OW10996   1.448   0.980   4.388  0.0232 -0.2054  0.2819
 3366SOL    HW110997   1.545   0.960   4.400 -0.3890 -3.6457 -0.9588
 3366SOL    HW210998   1.417   0.941   4.301 -2.6109  0.3121  0.9118
 3367SOL     OW10999   5.553   2.987   5.768  0.0386  0.3005  0.8160
 3367SOL    HW111000   5.646   2.993   5.805  1.1369 -1.0835 -1.4896
 3367SOL    HW211001   5.548   2.911   5.703 -2.7227  0.3789  0.8195
 3368SOL     OW11002   3.852   3.647   2.229 -0.0917 -0.1192  0.3375
 3368SOL    HW111003   3.883   3.552   2.234  1.0490  0.2900  1.3640
 3368SOL    HW211004   3.825   3.678   2.320 -0.6638  0.4839 -0.0303
 3369SOL     OW11005   2.049   2.128   6.147 -0.8325 -0.4247  0.0989
 3369SOL    HW111006   2.147   2.139   6.130 -1.1381  1.8681 -0.4816
 3369SOL    HW211007   2.034   2.096   6.241  0.4463 -0.3129  0.3544
 3370SOL     OW11008   6.597   3.614   1.995 -0.7454 -0.7363  0.1767
 3370SOL    HW111009   6.645   3.529   2.015 -0.9068 -1.0247 -0.6103
 3370SOL    HW211010   6.498   3.597   1.991 -0.6942 -0.8310 -1.3706
 3371SOL     OW11011   1.062   0.572   3.934 -0.3410  0.2215  0.0443
 3371SOL    HW111012   1.063   0.634   4.012 -0.5218  0.3659 -0.0652
 3371SOL    HW211013   0.970   0.535   3.922 -1.0950  2.4678 -1.8459
 3372SOL     OW11014   6.152   6.549   4.052  0.1719 -0.3819  0.3550
 3372SOL    HW111015   6.228   6.549   3.987  1.4131 -0.7999  1.7692
 3372SOL    HW211016   6.166   6.477   4.119 -1.4485 -0.4083  0.7072
 3373SOL     OW11017   6.781   5.656   2.616  0.3189  0.7765 -0.3292
 3373SOL    HW111018   6.742   5.680   2.705  0.0928 -2.1329  0.4857
 3373SOL    HW211019   6.712   5.606   2.562  1.0903  0.7364 -1.3102
 3374SOL     OW11020   5.795   0.428   0.443  0.1987  0.5393 -0.3822
 3374SOL    HW111021   5.835   0.458   0.356 -0.2273  1.5655 -0.2434
 3374SOL    HW211022   5.827   0.336   0.464  0.3022  0.2630 -1.6337
 3375SOL     OW11023   4.504   2.404   6.010 -0.4293  0.4146  0.2160
 3375SOL    HW111024   4.452   2.489   5.999 -0.1343  0.3614 -2.2178
 3375SOL    HW211025   4.596   2.426   6.042 -0.8466  0.8417  1.1542
 3376SOL     OW11026   4.654   5.121   3.525  0.0503 -0.0243  0.0323
 3376SOL    HW111027   4.716   5.166   3.460 -1.4080  1.9087 -0.1192
 3376SOL    HW211028   4.565   5.167   3.523 -1.0270 -1.9358  1.1280
 3377SOL     OW11029   6.055   4.366   4.942 -0.1221  0.1311 -0.2878
 3377SOL    HW111030   5.961   4.359   4.976 -0.5768  0.5272 -1.4096
 3377SOL    HW211031   6.118   4.330   5.010 -1.2169 -1.6362 -0.1686
 3378SOL     OW11032   6.225   6.007   5.651  0.1000  0.4960 -0.1724
 3378SOL    HW111033   6.264   6.018   5.559  0.7021 -1.5670 -0.2349
 3378SOL    HW211034   6.279   5.940   5.702 -0.2278  1.6014  1.7173
 3379SOL     OW11035   2.307   5.864   4.525  0.6496 -0.5245  0.4761
 3379SOL    HW111036   2.230   5.905   4.475  1.3551  0.5097  0.2060
 3379SOL    HW211037   2.388   5.921   4.513  2.1731 -2.8839 -1.3835
 3380SOL     OW11038   0.452   2.488   1.913  0.0528  0.1549  0.3526
 3380SOL    HW111039   0.551   2.495   1.922  0.2454 -0.4327 -1.0592
 3380SOL    HW211040   0.413   2.450   1.998  0.8560  1.6481  1.4327
 3381SOL     OW11041   5.185   5.276   2.314  0.3928  0.5073 -0.4548
 3381SOL    HW111042   5.193   5.176   2.313  0.6986  0.5097  0.6031
 3381SOL    HW211043   5.159   5.308   2.223 -0.4915 -0.6032 -0.6188
 3382SOL     OW11044   5.655   4.139   3.687  0.8754  0.1570 -0.1751
 3382SOL    HW111045   5.598   4.127   3.606 -1.1127  0.1027  1.1577
 3382SOL    HW211046   5.725   4.068   3.690  0.3144 -0.4673 -1.3074
 3383SOL     OW11047   0.963   6.367   2.053  0.2788  0.0987 -0.2028
 3383SOL    HW111048   0.940   6.388   2.148 -0.4752 -2.6026  0.2895
 3383SOL    HW211049   0.951   6.449   1.997  0.0360  1.5570  1.8900
 3384SOL     OW11050   1.479   3.324   0.124 -0.2095  0.0657  0.0204
 3384SOL    HW111051   1.461   3.226   0.131 -2.7591  0.5627  1.9066
 3384SOL    HW211052   1.401   3.370   0.082  0.0331  1.5042  1.0675
 3385SOL     OW11053   1.749   5.486   4.189 -0.5970  0.1284 -0.0333
 3385SOL    HW111054   1.798   5.435   4.119 -1.0450 -0.9439  0.4165
 3385SOL    HW211055   1.815   5.528   4.252 -0.2197  0.4084 -0.6019
 3386SOL     OW11056   0.444   3.384   4.844 -0.1768  0.4451  0.0555
 3386SOL    HW111057   0.519   3.331   4.883 -0.5641  0.3154  0.6327
 3386SOL    HW211058   0.480   3.470   4.807  0.3863 -0.0142 -0.4804
 3387SOL     OW11059   6.048   1.301   4.140 -0.3617  0.0694  0.0007
 3387SOL    HW111060   6.058   1.351   4.225  2.1430  1.0512 -0.7781
 3387SOL    HW211061   5.983   1.348   4.080 -0.8715  0.2859  0.7177
 3388SOL     OW11062   3.377   1.663   4.117 -0.0623 -1.0289  1.1316
 3388SOL    HW111063   3.466   1.659   4.163  0.5165 -0.1826  0.1398
 3388SOL    HW211064   3.325   1.741   4.152  0.8209  0.2756 -0.3507
 3389SOL     OW11065   4.977   0.500   1.208  0.2347 -0.3107  0.4057
 3389SOL    HW111066   5.046   0.546   1.153  0.6745  0.0197  1.2185
 3389SOL    HW211067   5.007   0.495   1.303 -1.8553  1.9802  1.3020
 3390SOL     OW11068   3.857   5.847   2.504  0.3088 -0.0513 -0.4001
 3390SOL    HW111069   3.810   5.919   2.553  0.0199  0.0927 -0.8796
 3390SOL    HW211070   3.807   5.825   2.420  0.2591 -0.9742 -0.1468
 3391SOL     OW11071   6.157   3.788   1.402  0.1386  0.3326 -0.1659
 3391SOL    HW111072   6.223   3.726   1.360 -0.3567  0.1819 -0.7342
 3391SOL    HW211073   6.078   3.798   1.342 -0.3325  0.5549  0.4813
 3392SOL     OW11074   6.380   3.149   2.998  0.2026 -0.0193  0.4581
 3392SOL    HW111075   6.471   3.118   3.028  0.7542  0.2595 -0.8575
 3392SOL    HW211076   6.383   3.246   2.976 -0.4051 -0.0143  0.3813
 3393SOL     OW11077   5.077   4.837   3.863 -0.4549 -0.6295 -0.6424
 3393SOL    HW111078   5.043   4.924   3.826 -3.0912 -0.6467  1.4803
 3393SOL    HW211079   5.102   4.776   3.788 -1.7135  0.7703 -2.2596
 3394SOL     OW11080   2.270   5.420   1.550  0.5704 -0.0048  0.0593
 3394SOL    HW111081   2.322   5.345   1.589  0.9033  0.5311  0.6731
 3394SOL    HW211082   2.318   5.506   1.567 -0.2958  0.4558  0.2494
 3395SOL     OW11083   6.336   0.412   2.134  0.7454 -0.0536 -0.3295
 3395SOL    HW111084   6.323   0.452   2.043 -0.9356 -1.4230 -0.7411
 3395SOL    HW211085   6.253   0.427   2.188  1.1516 -0.5815  0.4394
 3396SOL     OW11086   0.644   3.622   5.880  0.5154  0.2896 -0.6337
 3396SOL    HW111087   0.599   3.701   5.837 -0.8973  0.3140  0.7798
 3396SOL    HW211088   0.594   3.539   5.857  0.5902  0.1265 -0.2261
 3397SOL     OW11089   0.959   1.755   6.513 -0.3951 -0.3016 -0.1228
 3397SOL    HW111090   0.865   1.739   6.545 -0.3228  0.4228  0.4704
 3397SOL    HW211091   1.024   1.733   6.585 -0.2889  2.5510  0.7800
 3398SOL     OW11092   4.981   4.726   1.258 -0.5352  0.3419 -0.1408
 3398SOL    HW111093   5.058   4.735   1.321 -0.3282  1.2143 -0.5047
 3398SOL    HW211094   4.928   4.811   1.256 -1.3521 -0.1540 -0.1038
 3399SOL     OW11095   6.133   0.002   2.380  0.2332 -0.3892 -0.0537
 3399SOL    HW111096   6.171   0.036   2.466 -1.4096 -1.8322  1.3129
 3399SOL    HW211097   6.206  -0.005   2.312  1.9551 -0.9037  1.7532
 3400SOL     OW11098   1.347   6.002   6.551 -0.1688 -0.1327  0.1210
 3400SOL    HW111099   1.309   5.956   6.632  0.7067 -0.6444  0.2470
 3400SOL    HW211100   1.444   5.981   6.543  0.1750  1.4341 -0.0123
 3401SOL     OW11101   3.760   0.096   2.947 -0.0403 -0.5469  0.4042
 3401SOL    HW111102   3.806   0.074   3.033  0.1070  1.3485  0.8596
 3401SOL    HW211103   3.663   0.076   2.955  0.1772 -1.5940  0.5433
 3402SOL     OW11104   1.740   2.919   2.899  0.1235  0.0980 -0.0940
 3402SOL    HW111105   1.761   2.851   2.828  0.2182  1.9873 -1.9655
 3402SOL    HW211106   1.823   2.968   2.924 -0.0879  0.0902  0.6388
 3403SOL     OW11107   0.300   0.426   4.258  0.9017  0.2307  0.6444
 3403SOL    HW111108   0.235   0.450   4.186 -0.7163 -2.4712  1.0673
 3403SOL    HW211109   0.323   0.329   4.252  2.8618  0.5180  2.1709
 3404SOL     OW11110   0.673   5.804   4.238  0.2740 -0.5738 -0.3571
 3404SOL    HW111111   0.730   5.726   4.263  0.7905 -0.0716  0.1031
 3404SOL    HW211112   0.583   5.796   4.281  0.7020 -0.3830  0.6125
 3405SOL     OW11113   1.364   0.049   6.019  0.2484  0.1328  0.2232
 3405SOL    HW111114   1.273   0.082   5.994  0.5367  1.0444  0.3328
 3405SOL    HW211115   1.421   0.045   5.936  0.7420  1.6673  0.4489
 3406SOL     OW11116   1.363   6.030   2.523 -0.5426 -0.4253 -0.0669
 3406SOL    HW111117   1.332   6.008   2.431 -1.2542 -1.2227  0.3476
 3406SOL    HW211118   1.376   5.945   2.575  0.1947 -0.0038  0.4642
 3407SOL     OW11119   5.802   5.069   0.503  0.2686  0.5165  0.3065
 3407SOL    HW111120   5.705   5.048   0.498  0.3112  0.6138 -2.1453
 3407SOL    HW211121   5.830   5.077   0.599 -1.8954 -0.4948  1.0783
 3408SOL     OW11122   3.754   1.990   6.157 -0.3382  0.3023  0.0883
 3408SOL    HW111123   3.757   2.002   6.256  0.1235 -0.9005  0.2438
 3408SOL    HW211124   3.818   2.053   6.113 -0.0097  0.3360  0.6087
 3409SOL     OW11125   6.074   5.999   1.606 -0.4866 -0.4845  0.0773
 3409SOL    HW111126   6.049   6.073   1.668 -1.4745 -1.0072  0.3268
 3409SOL    HW211127   6.160   5.959   1.635 -0.7232 -0.4391  0.8546
 3410SOL     OW11128   2.228   6.622   5.950  0.1368 -0.1261  0.3046
 3410SOL    HW111129   2.207   6.552   6.019  0.7177  0.0414  0.6529
 3410SOL    HW211130   2.158   6.694   5.953  0.9644  0.6636  1.7755
 3411SOL     OW11131   0.305   3.246   5.080  0.4188 -0.5386 -0.0190
 3411SOL    HW111132   0.324   3.149   5.070 -1.9207 -0.8905 -2.2363
 3411SOL    HW211133   0.270   3.282   4.994  0.5405  2.1373  0.9439
 3412SOL     OW11134   5.978   4.750   5.317  0.0800 -0.3517  0.0135
 3412SOL    HW111135   6.033   4.666   5.311  0.7081  0.0148  0.4551
 3412SOL    HW211136   5.937   4.770   5.229  0.9011 -0.4792 -0.4080
 3413SOL     OW11137   4.211   0.655   2.322 -0.6231  0.6069  0.5486
 3413SOL    HW111138   4.116   0.642   2.352 -0.7371 -2.7415 -0.7865
 3413SOL    HW211139   4.212   0.682   2.226 -0.2894 -1.4774 -0.0729
 3414SOL     OW11140   0.233   5.947   1.372  0.7615  0.0212  0.1020
 3414SOL    HW111141   0.141   5.974   1.402 -0.0132 -2.1228 -0.1503
 3414SOL    HW211142   0.241   5.959   1.274  0.2378 -1.0702 -0.0889
 3415SOL     OW11143   3.303   0.110   3.147  0.1617 -0.0852  0.2202
 3415SOL    HW111144   3.222   0.165   3.167  0.3688 -0.3909  2.0283
 3415SOL    HW211145   3.295   0.021   3.191  0.4804 -1.0036 -1.4935
 3416SOL     OW11146   1.704   4.222   0.269  0.3213 -0.4390  0.3519
 3416SOL    HW111147   1.726   4.301   0.211 -0.1134 -0.8421 -0.3705
 3416SOL    HW211148   1.677   4.145   0.212  0.7062 -1.1116  1.0557
 3417SOL     OW11149   3.675   3.704   6.413  0.0216  0.0106  0.4229
 3417SOL    HW111150   3.767   3.668   6.394  0.4458  1.1723  0.2268
 3417SOL    HW211151   3.682   3.791   6.461 -1.0101 -0.8652  2.3206
 3418SOL     OW11152   3.086   5.827   1.575 -0.1320  0.1061  0.0450
 3418SOL    HW111153   2.999   5.869   1.551  0.8459  1.6906 -0.9241
 3418SOL    HW211154   3.160   5.873   1.526  1.2673 -1.1771  0.8561
 3419SOL     OW11155   1.552   1.871   6.505 -0.8005 -0.5771  0.8485
 3419SOL    HW111156   1.541   1.969   6.494 -0.1094 -0.4817  0.9576
 3419SOL    HW211157   1.641   1.843   6.471 -1.0587 -1.1949  0.6605
 3420SOL     OW11158   4.422   2.451   4.323  0.0329  0.1260  0.3241
 3420SOL    HW111159   4.488   2.510   4.371  1.2487  0.9018 -2.1477
 3420SOL    HW211160   4.358   2.412   4.390  2.7131 -0.3728  2.8089
 3421SOL     OW11161   4.588   2.321   6.940 -0.0774  0.2059  0.7442
 3421SOL    HW111162   4.525   2.256   6.898  0.5475 -0.4611  0.8042
 3421SOL    HW211163   4.614   2.390   6.874 -1.3847  0.8856  0.9139
 3422SOL     OW11164   0.194   5.311   1.926 -0.6958 -0.0777 -0.3132
 3422SOL    HW111165   0.109   5.339   1.970  1.3547  1.4481  3.0717
 3422SOL    HW211166   0.212   5.372   1.849 -1.6514  0.9578  0.2391
 3423SOL     OW11167   5.733   5.667   4.992  0.4256  0.0478 -0.4859
 3423SOL    HW111168   5.706   5.757   4.957  0.0715 -0.2975 -1.1248
 3423SOL    HW211169   5.832   5.666   5.007  0.4442  0.5197 -0.5479
 3424SOL     OW11170   4.088   1.357   4.157 -0.4336  0.1767  0.1708
 3424SOL    HW111171   4.019   1.323   4.222 -1.7566 -2.5079 -2.3862
 3424SOL    HW211172   4.164   1.293   4.153 -0.0559  0.6561 -0.4378
 3425SOL     OW11173   5.836   0.121   0.314 -0.0212  0.2162 -0.4082
 3425SOL    HW111174   5.761   0.055   0.322 -0.6457  1.0101  0.4737
 3425SOL    HW211175   5.904   0.103   0.386 -0.8687  1.3486  0.7247
 3426SOL     OW11176   3.978   6.098   1.083  0.2875  0.3622  0.5271
 3426SOL    HW111177   4.049   6.051   1.134  1.4648  0.4458 -0.9596
 3426SOL    HW211178   3.910   6.136   1.146  0.0786 -2.0432  1.8348
 3427SOL     OW11179   2.684   6.305   4.806 -0.3971  0.0230 -0.0966
 3427SOL    HW111180   2.661   6.234   4.873  2.3580 -0.0926  0.8297
 3427SOL    HW211181   2.771   6.347   4.831 -1.3522  2.9372 -1.2941
 3428SOL     OW11182   1.738   5.230   4.420 -0.1369 -0.3118 -0.2742
 3428SOL    HW111183   1.671   5.301   4.441 -0.8805 -0.4898 -1.9243
 3428SOL    HW211184   1.793   5.259   4.342 -1.0855 -1.9377 -1.5867
 3429SOL     OW11185   6.189   5.660   1.413 -0.3374  0.3111  0.0713
 3429SOL    HW111186   6.225   5.634   1.503  1.3533 -0.7785 -0.8688
 3429SOL    HW211187   6.102   5.614   1.398 -0.1516 -0.2891  0.7658
 3430SOL     OW11188   3.928   5.268   4.194 -0.3845  0.0948  0.4062
 3430SOL    HW111189   3.985   5.246   4.115 -0.4454  0.7373  0.1743
 3430SOL    HW211190   3.869   5.190   4.215  1.2946 -0.9734  1.3056
 3431SOL     OW11191   0.014   1.946   4.563  0.2056  0.2530  0.1920
 3431SOL    HW111192  -0.047   1.909   4.493  1.2313 -1.9697  0.3956
 3431SOL    HW211193   0.109   1.924   4.539  0.6813  0.7031  1.5878
 3432SOL     OW11194   2.219   1.374   1.085 -0.0244  0.1718 -0.1325
 3432SOL    HW111195   2.275   1.455   1.066 -0.2225  0.3631  0.0931
 3432SOL    HW211196   2.168   1.349   1.002  1.6217 -0.9932 -0.8561
 3433SOL     OW11197   2.023   3.829   5.894  0.0456 -0.2147  0.6316
 3433SOL    HW111198   2.062   3.741   5.868  1.6643  0.6808 -0.0905
 3433SOL    HW211199   1.937   3.843   5.844  0.3890 -0.8625 -0.1614
 3434SOL     OW11200   6.265   1.181   0.072  0.4180 -0.1404  0.5540
 3434SOL    HW111201   6.330   1.225   0.134  1.7011 -0.9724 -0.1574
 3434SOL    HW211202   6.263   1.231  -0.015 -0.2537  0.1589  0.7406
 3435SOL     OW11203   5.003   6.325   1.053  0.0975 -0.1559  0.7330
 3435SOL    HW111204   4.914   6.364   1.078 -1.1421  1.0177 -4.2579
 3435SOL    HW211205   4.994   6.226   1.043 -1.0459  0.0498 -0.6666
 3436SOL     OW11206   4.227   2.098   6.333  0.3086 -0.4304  0.0385
 3436SOL    HW111207   4.216   2.150   6.249 -1.4835  0.6143  0.8646
 3436SOL    HW211208   4.321   2.109   6.367  0.6233  0.3265 -1.0468
 3437SOL     OW11209   3.263   1.413   5.550 -0.4682  0.0889  0.3132
 3437SOL    HW111210   3.261   1.313   5.548 -1.5933  0.0726  1.2397
 3437SOL    HW211211   3.246   1.445   5.643 -1.7680  1.1535 -0.2506
 3438SOL     OW11212   2.461   6.355   0.758 -0.2875  0.6930  0.3825
 3438SOL    HW111213   2.426   6.440   0.797  1.1558  0.3554  2.6142
 3438SOL    HW211214   2.439   6.279   0.820 -2.2992 -0.7936 -1.9594
 3439SOL     OW11215   6.246   4.638   5.061  0.1547 -0.6481  0.2734
 3439SOL    HW111216   6.324   4.593   5.017 -0.2926 -0.8861 -0.2771
 3439SOL    HW211217   6.215   4.713   5.003  0.0589 -0.4623  0.5638
 3440SOL     OW11218   0.459   3.928   2.745  0.1634  0.3041  0.0413
 3440SOL    HW111219   0.559   3.925   2.748  0.2599 -1.2182 -2.2022
 3440SOL    HW211220   0.430   4.018   2.712  1.0503 -0.3249 -2.7428
 3441SOL     OW11221   3.079   6.383   1.407  0.2462  0.1144  0.1213
 3441SOL    HW111222   3.066   6.292   1.447  1.3894  0.4758  1.3735
 3441SOL    HW211223   3.139   6.376   1.328  0.3485 -0.2167  0.2257
 3442SOL     OW11224   5.476   1.499   6.825  0.3020  0.3567 -0.6085
 3442SOL    HW111225   5.569   1.508   6.862  0.4466 -0.1958 -0.8295
 3442SOL    HW211226   5.438   1.590   6.808  0.7892  0.5860 -0.4822
 3443SOL     OW11227   1.392   2.492   3.271  0.5212  0.1942 -0.5347
 3443SOL    HW111228   1.487   2.463   3.259 -0.0735 -0.9392 -3.7447
 3443SOL    HW211229   1.341   2.421   3.319  1.5844  1.6677  3.0379
 3444SOL     OW11230   2.007   6.181   2.505 -0.7854  0.2649 -0.2396
 3444SOL    HW111231   2.030   6.253   2.439  1.0072 -1.1241 -1.2574
 3444SOL    HW211232   2.024   6.213   2.598 -0.5221  1.3211 -0.6445
 3445SOL     OW11233   2.198   6.752   2.398 -0.2985 -0.4482 -0.0233
 3445SOL    HW111234   2.149   6.749   2.311 -0.5660 -0.4490  0.1274
 3445SOL    HW211235   2.172   6.834   2.449  0.1066 -0.2758 -0.0878
 3446SOL     OW11236   5.336   6.930   2.370 -0.3162 -0.4440 -0.0343
 3446SOL    HW111237   5.381   6.870   2.435 -1.0166 -1.4590 -0.4667
 3446SOL    HW211238   5.253   6.886   2.336  0.4279 -0.2830 -2.1852
 3447SOL     OW11239   0.462   4.078   2.017  0.3011  0.3690 -0.4621
 3447SOL    HW111240   0.364   4.064   2.032 -0.1796  2.1168 -1.6113
 3447SOL    HW211241   0.506   3.991   1.994 -0.2632 -1.1183  3.3461
 3448SOL     OW11242   1.998   2.168   4.107 -0.0512 -0.6739 -0.0958
 3448SOL    HW111243   2.062   2.104   4.063  0.1666 -0.6973  0.2539
 3448SOL    HW211244   2.050   2.245   4.146 -0.3941  0.3192 -1.5065
 3449SOL     OW11245   6.248   4.976   4.038  0.1141 -0.0258  0.0801
 3449SOL    HW111246   6.208   5.038   3.970  1.8693  0.0413 -0.9601
 3449SOL    HW211247   6.234   4.881   4.008  0.4815 -0.0075 -0.1666
 3450SOL     OW11248   1.051   3.242   4.842 -0.1351 -0.1288 -0.0787
 3450SOL    HW111249   1.016   3.286   4.925 -0.5909 -0.6644  0.0207
 3450SOL    HW211250   0.984   3.175   4.809 -1.2472  2.0227 -2.4921
 3451SOL     OW11251   6.212   4.704   6.331  0.3568  0.0150  0.1897
 3451SOL    HW111252   6.292   4.654   6.299 -0.3226 -0.8484 -0.1978
 3451SOL    HW211253   6.213   4.796   6.293  3.3193  1.5412  3.4514
 3452SOL     OW11254   4.231   4.112   6.164  0.2110  0.4107 -0.1588
 3452SOL    HW111255   4.247   4.015   6.182 -0.6592 -0.0278 -1.5802
 3452SOL    HW211256   4.144   4.124   6.116 -0.9590  2.1543  2.1600
 3453SOL     OW11257   0.583   6.522   5.701 -0.5192  0.4357 -0.0809
 3453SOL    HW111258   0.485   6.513   5.714 -0.9498  1.5321 -2.1553
 3453SOL    HW211259   0.606   6.617   5.682  0.7247 -0.0244 -1.0767
 3454SOL     OW11260   6.199   6.835   5.861  0.4643 -0.2947 -0.5287
 3454SOL    HW111261   6.153   6.775   5.795 -0.3517 -0.5080  0.2193
 3454SOL    HW211262   6.196   6.929   5.827  0.9523 -0.5330 -1.2735
 3455SOL     OW11263   0.145   4.985   5.145 -0.2347  0.3961  0.2857
 3455SOL    HW111264   0.190   4.895   5.137  0.5298  0.8442 -0.6857
 3455SOL    HW211265   0.132   5.007   5.242  0.6040 -0.2701  0.5647
 3456SOL     OW11266   3.601   3.443   6.511 -0.0703  0.2176  0.1374
 3456SOL    HW111267   3.505   3.455   6.534 -0.6901 -0.2754 -1.9359
 3456SOL    HW211268   3.637   3.526   6.469  0.3759  0.3516  0.7726
 3457SOL     OW11269   6.313   2.260   3.908 -0.4673  0.2333 -0.2354
 3457SOL    HW111270   6.221   2.225   3.924 -0.5621 -0.1630 -1.5314
 3457SOL    HW211271   6.368   2.189   3.863  0.3870  0.5702  0.2453
 3458SOL     OW11272   2.319   6.685   5.501  0.2954  0.3268 -0.1234
 3458SOL    HW111273   2.353   6.593   5.482  0.1040  0.2423 -0.0567
 3458SOL    HW211274   2.393   6.751   5.485  1.1490 -0.0194  2.0254
 3459SOL     OW11275   2.800   4.781   6.891  1.1766 -0.5592  0.1023
 3459SOL    HW111276   2.789   4.820   6.799  0.4319 -0.7414  0.1135
 3459SOL    HW211277   2.826   4.854   6.955  1.9043 -0.4642 -0.2809
 3460SOL     OW11278   6.669   0.613   2.010  0.0763 -0.1075  0.1384
 3460SOL    HW111279   6.675   0.635   2.107  2.7477 -0.8048  0.2042
 3460SOL    HW211280   6.655   0.515   1.999 -1.6283  0.1362 -0.2336
 3461SOL     OW11281   1.898   5.884   3.732  0.2036  0.1198  0.3715
 3461SOL    HW111282   1.893   5.829   3.816  1.4512 -0.3113  0.1853
 3461SOL    HW211283   1.856   5.834   3.657 -0.7498  0.4267  0.6875
 3462SOL     OW11284   4.916   3.464   4.826 -0.2063 -1.0761 -0.0574
 3462SOL    HW111285   4.905   3.529   4.750  1.5550 -0.1794  0.3934
 3462SOL    HW211286   4.870   3.499   4.907  0.6184 -0.4152  0.1442
 3463SOL     OW11287   6.050   6.960   1.354 -0.0723  0.7232  0.3850
 3463SOL    HW111288   6.110   6.998   1.283 -0.2884  0.1774 -0.0970
 3463SOL    HW211289   5.956   6.989   1.337 -0.0376  1.0601  0.7769
 3464SOL     OW11290   1.344   6.219   3.758 -0.2478  0.4650 -0.3646
 3464SOL    HW111291   1.269   6.246   3.697 -0.2996  0.6351 -0.2306
 3464SOL    HW211292   1.423   6.278   3.741 -0.4824  0.9542  0.1786
 3465SOL     OW11293   6.090   6.226   2.573  0.2520  0.4801 -0.3375
 3465SOL    HW111294   6.009   6.284   2.584  0.3151  0.4386  0.4551
 3465SOL    HW211295   6.108   6.177   2.659  1.0936  0.4577 -0.5127
 3466SOL     OW11296   5.395   0.344   4.112  0.2749 -0.4469 -0.2901
 3466SOL    HW111297   5.442   0.257   4.104 -2.5242 -2.0189 -1.0840
 3466SOL    HW211298   5.353   0.368   4.024 -0.6402  0.6853  0.4123
 3467SOL     OW11299   2.140   1.936   2.795 -0.1287 -0.4986 -0.4503
 3467SOL    HW111300   2.189   1.902   2.875 -0.1922  1.7870  0.6546
 3467SOL    HW211301   2.043   1.944   2.816 -0.0856  0.5152 -0.5716
 3468SOL     OW11302   6.988   3.746   1.554 -0.3911  0.2326  0.1744
 3468SOL    HW111303   6.981   3.661   1.502 -0.1078  0.0306  0.4629
 3468SOL    HW211304   7.052   3.808   1.509  0.0294 -0.0325  0.4019
 3469SOL     OW11305   5.335   6.935   1.872  0.0700  0.1094 -0.0106
 3469SOL    HW111306   5.285   6.890   1.798  2.0434 -1.4524 -0.4701
 3469SOL    HW211307   5.407   6.874   1.906  0.6322  1.6453  1.7180
 3470SOL     OW11308   3.095   6.232   0.262  0.2273 -0.5837  0.1112
 3470SOL    HW111309   3.005   6.232   0.219 -0.5638 -0.3659  1.6893
 3470SOL    HW211310   3.124   6.326   0.281  0.7322 -0.6584 -0.2651
 3471SOL     OW11311   6.215   5.684   5.893  0.4527  0.1989 -0.6054
 3471SOL    HW111312   6.209   5.721   5.986  3.5672 -1.7628  0.5514
 3471SOL    HW211313   6.127   5.647   5.866 -0.4463  0.4539  1.7206
 3472SOL     OW11314   0.374   1.055   2.739 -0.6933  0.4317  0.1702
 3472SOL    HW111315   0.363   1.031   2.836  0.1004  0.3086  0.2339
 3472SOL    HW211316   0.367   1.154   2.729  2.4299  0.8144  0.8511
 3473SOL     OW11317   5.305   6.353   1.457  0.3233 -0.7497 -0.0331
 3473SOL    HW111318   5.284   6.349   1.359  1.6104 -1.0239 -0.3213
 3473SOL    HW211319   5.229   6.312   1.509  0.2608 -1.9710 -1.0277
 3474SOL     OW11320   5.638   5.662   2.537 -0.4009  0.0283 -1.0683
 3474SOL    HW111321   5.579   5.618   2.605 -0.8487  0.0206 -1.4531
 3474SOL    HW211322   5.633   5.610   2.451 -0.9405  0.8333 -1.5338
 3475SOL     OW11323   0.643   1.279   3.053 -0.6238  0.7131  0.5707
 3475SOL    HW111324   0.715   1.220   3.018 -0.4637  1.5777 -0.6602
 3475SOL    HW211325   0.563   1.224   3.077 -0.3164 -0.0553 -0.1079
 3476SOL     OW11326   5.762   1.000   3.797  0.0231 -0.0650 -0.0934
 3476SOL    HW111327   5.754   1.066   3.722  0.3512 -1.5780 -1.5099
 3476SOL    HW211328   5.833   1.032   3.861 -0.9929  1.7767  0.2028
 3477SOL     OW11329   6.967   4.130   2.081 -0.1845  0.4757  0.8858
 3477SOL    HW111330   6.870   4.135   2.102  0.1840 -0.7666  3.1470
 3477SOL    HW211331   6.993   4.211   2.027 -2.1541  1.5864  1.4914
 3478SOL     OW11332   0.158   6.710   1.311 -0.2916  0.1526 -0.6272
 3478SOL    HW111333   0.084   6.693   1.376 -0.6926 -1.1998 -1.3832
 3478SOL    HW211334   0.246   6.699   1.357 -0.5654  0.4607 -0.0233
 3479SOL     OW11335   5.008   4.071   2.533 -0.5950  0.3102 -0.3944
 3479SOL    HW111336   4.956   4.003   2.481 -0.9537 -0.0275  0.3912
 3479SOL    HW211337   5.079   4.110   2.475 -2.9071  2.2116 -2.1476
 3480SOL     OW11338   6.397   4.954   1.730 -0.1322  0.8710  0.2802
 3480SOL    HW111339   6.332   5.025   1.758 -1.5437  0.3625 -1.5475
 3480SOL    HW211340   6.348   4.874   1.698  1.4372 -0.1001  0.1761
 3481SOL     OW11341   6.565   3.266   4.403  0.2834  0.1506  0.1927
 3481SOL    HW111342   6.584   3.192   4.468 -0.2507 -0.0109  0.1625
 3481SOL    HW211343   6.582   3.233   4.309  1.5209  0.5228  0.2567
 3482SOL     OW11344   6.471   6.234   0.274 -0.2425 -0.2472 -0.0823
 3482SOL    HW111345   6.443   6.172   0.348  0.9860 -0.5203  0.1816
 3482SOL    HW211346   6.466   6.186   0.187 -0.2694 -0.3917 -0.0026
 3483SOL     OW11347   3.940   3.052   4.435  0.4068 -0.1603  0.3564
 3483SOL    HW111348   3.879   3.046   4.357  1.0200  0.0707 -0.1546
 3483SOL    HW211349   3.913   2.986   4.505  0.0381 -0.5865 -0.1818
 3484SOL     OW11350   1.591   2.131   4.544  0.8291 -0.6997  0.6679
 3484SOL    HW111351   1.597   2.176   4.633  1.8131  0.4887  0.0371
 3484SOL    HW211352   1.573   2.034   4.557  0.8891 -0.5370  2.1527
 3485SOL     OW11353   6.496   0.973   6.073 -0.0925  0.2651  0.1533
 3485SOL    HW111354   6.501   1.025   5.988 -0.2755  1.2080  0.7143
 3485SOL    HW211355   6.560   1.011   6.140  0.1419 -0.5445  0.4023
 3486SOL     OW11356   2.233   5.975   6.159 -0.0499  0.2363  0.3659
 3486SOL    HW111357   2.305   5.919   6.199  0.3979  0.6172  0.1017
 3486SOL    HW211358   2.162   5.991   6.227  0.7803  1.0207  1.0670
 3487SOL     OW11359   5.293   6.746   6.750 -0.1934  0.1350 -0.6396
 3487SOL    HW111360   5.233   6.668   6.732  1.3789 -2.0341  2.4393
 3487SOL    HW211361   5.355   6.759   6.673 -1.4946 -0.6264 -1.8653
 3488SOL     OW11362   1.925   0.709   2.372 -0.2658 -0.4641  0.6131
 3488SOL    HW111363   1.992   0.652   2.324  0.0946  0.9098 -0.5967
 3488SOL    HW211364   1.835   0.698   2.329  0.0349  0.6865 -0.3496
 3489SOL     OW11365   3.782   0.961   4.198 -0.2614  0.4703 -0.4141
 3489SOL    HW111366   3.792   0.964   4.098  1.5772 -1.6057 -0.3859
 3489SOL    HW211367   3.870   0.982   4.240 -0.8314  0.5763  0.7554
 3490SOL     OW11368   6.016   5.702   5.006  0.0782  0.0308  0.2783
 3490SOL    HW111369   6.033   5.606   4.985 -1.0694 -0.3280  0.9270
 3490SOL    HW211370   6.087   5.736   5.067  0.9481 -0.1611 -0.6065
 3491SOL     OW11371   0.866   6.515   2.705  0.0312  0.1762  0.6512
 3491SOL    HW111372   0.796   6.546   2.769 -1.6091  0.8685 -1.3646
 3491SOL    HW211373   0.824   6.457   2.635  1.6783 -0.2842  0.0028
 3492SOL     OW11374   4.325   6.261   1.686  0.8953 -0.2980  0.4767
 3492SOL    HW111375   4.309   6.351   1.727 -0.7366 -0.9838  1.4163
 3492SOL    HW211376   4.393   6.211   1.740 -0.0634 -0.5843  1.4289
 3493SOL     OW11377   5.549   1.577   0.718 -0.7674 -0.4852  0.4465
 3493SOL    HW111378   5.540   1.512   0.643  1.0503  0.7919 -0.9635
 3493SOL    HW211379   5.465   1.577   0.772 -1.5692 -2.5105 -0.6844
 3494SOL     OW11380   1.121   6.126   4.382  0.0060  0.0497  0.1788
 3494SOL    HW111381   1.184   6.199   4.357  0.9186 -0.4325  1.0062
 3494SOL    HW211382   1.129   6.051   4.316 -0.6858  0.5401 -0.4765
 3495SOL     OW11383   4.715   1.118   4.696  0.2011 -0.5294 -0.3064
 3495SOL    HW111384   4.670   1.104   4.785  0.7278  0.1262  0.0743
 3495SOL    HW211385   4.810   1.144   4.711  0.1916 -0.0357 -1.0467
 3496SOL     OW11386   5.219   5.957   1.651  0.1373 -0.0307 -0.2561
 3496SOL    HW111387   5.262   5.883   1.702  0.0621  0.4083  0.4576
 3496SOL    HW211388   5.274   6.040   1.658  0.0010  0.1041 -0.6869
 3497SOL     OW11389   6.035   5.869   2.162 -0.0489  0.5761 -0.1593
 3497SOL    HW111390   5.975   5.789   2.166 -0.5246  0.9285 -0.1040
 3497SOL    HW211391   6.012   5.930   2.238  0.3777  0.7195 -0.1459
 3498SOL     OW11392   0.262   0.138   6.966  0.0728 -0.2235 -0.1561
 3498SOL    HW111393   0.217   0.056   6.999 -0.8710  0.9795  1.7617
 3498SOL    HW211394   0.213   0.174   6.887 -0.5177 -0.5700  0.0510
 3499SOL     OW11395   0.701   1.070   4.630  0.4474  0.0191  0.2318
 3499SOL    HW111396   0.718   1.025   4.542  2.0230 -0.7252  0.8968
 3499SOL    HW211397   0.750   1.157   4.633  0.7208 -0.1438  0.5253
 3500SOL     OW11398   4.906   0.192   5.015 -0.0047 -0.0933  0.2217
 3500SOL    HW111399   4.880   0.240   5.099  1.0312 -0.4107  0.7372
 3500SOL    HW211400   4.923   0.259   4.942 -0.0212  0.2365  0.5220
 3501SOL     OW11401   5.557   6.240   4.786  0.6689 -0.1522 -0.0361
 3501SOL    HW111402   5.545   6.276   4.878  3.2436 -1.3991  0.8808
 3501SOL    HW211403   5.623   6.297   4.736 -0.8288  0.6117 -1.2242
 3502SOL     OW11404   0.757   1.362   4.913 -0.3638  0.6754 -0.6874
 3502SOL    HW111405   0.827   1.301   4.876 -0.0531  0.5361  0.1090
 3502SOL    HW211406   0.668   1.317   4.911 -0.0562 -0.0056  0.3487
 3503SOL     OW11407   3.837   2.042   6.415 -1.1453 -0.8577  0.2428
 3503SOL    HW111408   3.850   2.110   6.487  1.4600  0.5811 -1.4204
 3503SOL    HW211409   3.915   1.978   6.415 -0.5601 -0.2192 -1.8361
 3504SOL     OW11410   2.063   6.336   4.698  0.8246 -0.4330 -0.0364
 3504SOL    HW111411   2.122   6.395   4.753  2.0073 -1.8052  0.2451
 3504SOL    HW211412   1.999   6.392   4.646  1.2024  1.0215  0.9873
 3505SOL     OW11413   2.479   5.963   5.589  0.0902  0.1984 -0.1359
 3505SOL    HW111414   2.533   5.883   5.565  1.8642  1.3851 -0.3748
 3505SOL    HW211415   2.492   6.034   5.519 -0.3866  1.1448  0.7039
 3506SOL     OW11416   4.659   0.994   4.260  0.0610  0.5354  0.1557
 3506SOL    HW111417   4.630   0.939   4.181 -0.0247  0.0944  0.4892
 3506SOL    HW211418   4.757   1.013   4.253 -0.0925  1.1748 -0.4598
 3507SOL     OW11419   4.123   3.592   6.973 -0.4747  0.0866 -0.5927
 3507SOL    HW111420   4.215   3.564   7.002  0.3809  2.1037 -1.2160
 3507SOL    HW211421   4.114   3.580   6.874 -0.9005 -0.1378 -0.5286
 3508SOL     OW11422   2.689   4.723   2.532 -0.1750 -0.6513  0.3241
 3508SOL    HW111423   2.666   4.686   2.442  1.6975  1.7236 -1.2517
 3508SOL    HW211424   2.608   4.769   2.570 -0.6277 -0.5187 -0.7580
 3509SOL     OW11425   0.367   6.462   5.423 -0.2900 -0.7750 -0.6969
 3509SOL    HW111426   0.364   6.382   5.483  0.3960 -0.2478  0.0604
 3509SOL    HW211427   0.448   6.456   5.364  0.9497  0.3195  0.7879
 3510SOL     OW11428   3.829   5.353   5.414  0.6594 -0.2944  0.3746
 3510SOL    HW111429   3.895   5.278   5.417 -0.4771 -1.2784  1.9462
 3510SOL    HW211430   3.753   5.334   5.476 -0.4143  1.4752 -0.3153
 3511SOL     OW11431   3.727   1.604   0.161 -0.2927 -0.3328  0.0088
 3511SOL    HW111432   3.774   1.647   0.084 -2.9943 -2.1900 -2.8860
 3511SOL    HW211433   3.788   1.605   0.241  1.8246  3.6953 -1.3542
 3512SOL     OW11434   6.474   2.677   6.120 -0.3352 -0.0049  0.4536
 3512SOL    HW111435   6.435   2.597   6.164  0.1531  0.3909  1.6292
 3512SOL    HW211436   6.403   2.722   6.065 -1.0136 -0.3710  1.0164
 3513SOL     OW11437   1.608   5.930   2.380  0.4715 -0.7793 -0.0509
 3513SOL    HW111438   1.552   5.895   2.305 -0.4856 -0.7441  0.6229
 3513SOL    HW211439   1.549   5.963   2.453  1.2270  3.1189 -0.9477
 3514SOL     OW11440   0.782   3.067   2.584  0.0703  0.0943 -0.7668
 3514SOL    HW111441   0.866   3.093   2.630 -0.0402 -1.5677  0.4913
 3514SOL    HW211442   0.800   3.052   2.486  1.6457 -1.7025 -0.2730
 3515SOL     OW11443   4.298   6.837   0.170 -0.4645 -0.4230 -0.3699
 3515SOL    HW111444   4.255   6.886   0.094 -0.2337  0.7558  0.2300
 3515SOL    HW211445   4.369   6.777   0.134 -2.8621 -2.8160 -1.4354
 3516SOL     OW11446   4.475   6.876   6.242  0.3147 -0.1826 -0.4011
 3516SOL    HW111447   4.448   6.947   6.177  0.0295  0.2118  0.1407
 3516SOL    HW211448   4.470   6.787   6.197  0.8097  0.1465 -1.1274
 3517SOL     OW11449   3.036   5.474   2.898  0.5258 -0.8300  0.0651
 3517SOL    HW111450   3.121   5.424   2.887  1.2146  0.4052 -0.4524
 3517SOL    HW211451   3.027   5.542   2.825 -0.7726 -0.7532  0.2644
 3518SOL     OW11452   5.000   6.619   3.024  0.1838 -0.2061 -0.3774
 3518SOL    HW111453   4.913   6.657   3.053 -0.2171  0.3556 -2.1728
 3518SOL    HW211454   5.019   6.536   3.076 -1.1537 -0.0533  0.4089
 3519SOL     OW11455   6.977   3.384   4.019  0.0376  0.4997  0.4186
 3519SOL    HW111456   7.011   3.394   3.925 -3.7975  0.5838 -1.1586
 3519SOL    HW211457   7.013   3.300   4.058  1.9686  0.5962 -0.9794
 3520SOL     OW11458   2.148   3.083   0.369 -0.4053  0.4422 -0.2113
 3520SOL    HW111459   2.240   3.090   0.331 -0.7751  2.3859 -0.8802
 3520SOL    HW211460   2.136   3.152   0.440 -0.6429 -1.3092  1.5269
 3521SOL     OW11461   3.398   0.203   6.537 -0.4729  0.2574 -0.2597
 3521SOL    HW111462   3.329   0.198   6.610 -0.5381  0.4480 -0.3072
 3521SOL    HW211463   3.361   0.161   6.454  0.0293 -1.0181  0.1385
 3522SOL     OW11464   3.583   6.679   5.911  0.1409  0.5456  0.1166
 3522SOL    HW111465   3.559   6.723   5.997 -2.0992  0.3929 -0.3493
 3522SOL    HW211466   3.628   6.591   5.929 -0.2926  0.5215  1.1282
 3523SOL     OW11467   3.036   2.147   3.360 -0.1456 -0.2396 -0.4974
 3523SOL    HW111468   3.006   2.054   3.381  0.3068 -0.7191 -1.8692
 3523SOL    HW211469   3.131   2.159   3.388 -0.1803 -0.2054 -0.3915
 3524SOL     OW11470   5.418   4.065   4.842  0.3494 -0.2093 -0.8139
 3524SOL    HW111471   5.385   3.983   4.890  1.4069 -0.0625  0.2135
 3524SOL    HW211472   5.405   4.145   4.900 -1.6891  0.5696 -2.2409
 3525SOL     OW11473   0.915   3.396   1.783 -0.4152 -0.3563 -0.7257
 3525SOL    HW111474   0.947   3.491   1.781 -0.7511 -0.2495 -1.3796
 3525SOL    HW211475   0.964   3.346   1.854  1.5849 -0.3286 -1.9924
 3526SOL     OW11476   1.618   6.597   5.138  0.3157  0.2716  0.5241
 3526SOL    HW111477   1.667   6.532   5.197 -0.6843 -0.5832  0.4481
 3526SOL    HW211478   1.574   6.667   5.195 -2.7345 -1.9370  1.1461
 3527SOL     OW11479   4.886   4.757   0.419  0.5634  0.2203  0.5425
 3527SOL    HW111480   4.801   4.805   0.441  1.5955  2.1772  0.4885
 3527SOL    HW211481   4.919   4.708   0.500 -0.1901  0.1237  0.7935
 3528SOL     OW11482   5.456   3.727   1.536  0.0224  0.5778 -0.1657
 3528SOL    HW111483   5.438   3.641   1.487 -0.5335  0.8920 -0.5339
 3528SOL    HW211484   5.378   3.749   1.594  1.4493 -0.7981  2.4484
 3529SOL     OW11485   4.725   0.368   0.038  0.2069 -0.0083  0.1120
 3529SOL    HW111486   4.780   0.302   0.090 -2.1514 -2.1318  0.1236
 3529SOL    HW211487   4.742   0.355  -0.060 -0.1670 -0.5874  0.1192
 3530SOL     OW11488   4.390   4.722   5.134  0.5832  0.2579  0.5305
 3530SOL    HW111489   4.401   4.633   5.091 -0.0762  1.2436 -1.8441
 3530SOL    HW211490   4.297   4.731   5.170  0.6581 -0.0172  0.7927
 3531SOL     OW11491   6.613   6.490   3.657  0.1549  0.3806 -0.2530
 3531SOL    HW111492   6.606   6.390   3.657  0.2187  0.3758  0.0996
 3531SOL    HW211493   6.706   6.517   3.681 -0.1222  0.5408  0.6605
 3532SOL     OW11494   1.338   1.810   0.757  0.1238 -0.1335  0.1807
 3532SOL    HW111495   1.259   1.764   0.717 -0.0261 -0.6039  0.9962
 3532SOL    HW211496   1.332   1.806   0.857  1.6844 -1.0695  0.2638
 3533SOL     OW11497   3.860   6.447   0.607 -0.7130 -0.3597  0.2771
 3533SOL    HW111498   3.935   6.513   0.608 -1.1107  0.1571 -1.4351
 3533SOL    HW211499   3.839   6.419   0.701  0.5655  0.6627  0.8996
 3534SOL     OW11500   0.939   5.991   3.623 -0.8314 -0.5058  0.3624
 3534SOL    HW111501   0.902   6.075   3.584 -0.4254 -1.1725 -1.5825
 3534SOL    HW211502   0.868   5.920   3.625 -0.9932 -0.3263  1.3688
 3535SOL     OW11503   3.437   0.604   3.803 -0.0873  0.1802  0.4943
 3535SOL    HW111504   3.435   0.504   3.803  2.3149  0.0801  1.1609
 3535SOL    HW211505   3.462   0.637   3.712 -2.0609  0.2830 -0.0644
 3536SOL     OW11506   2.548   1.706   2.249  0.1795 -0.0389  0.0500
 3536SOL    HW111507   2.646   1.688   2.241  0.4356  0.6760  1.3476
 3536SOL    HW211508   2.524   1.786   2.195  0.4030  0.0622  0.0988
 3537SOL     OW11509   0.287   4.540   6.835 -0.3527 -0.1901 -0.1756
 3537SOL    HW111510   0.214   4.591   6.880 -1.1164 -3.0291  2.1115
 3537SOL    HW211511   0.367   4.599   6.824 -1.4289  1.7296  1.5509
 3538SOL     OW11512   5.433   4.509   4.265  0.4253 -0.3017  0.0751
 3538SOL    HW111513   5.346   4.536   4.305 -0.3800  0.7839 -2.2204
 3538SOL    HW211514   5.428   4.414   4.235  0.1564 -0.3369  0.2320
 3539SOL     OW11515   0.019   1.793   5.645  0.4191 -0.1726  0.1720
 3539SOL    HW111516   0.073   1.802   5.729 -0.8451  0.2128  0.9900
 3539SOL    HW211517  -0.076   1.773   5.670 -0.9972  4.0577 -0.8804
 3540SOL     OW11518   3.024   5.426   0.590  0.0727 -0.4208 -0.0062
 3540SOL    HW111519   2.982   5.420   0.681  0.7694  1.0003  0.4372
 3540SOL    HW211520   3.081   5.346   0.574  0.8075 -0.1790  1.2746
 3541SOL     OW11521   3.246   3.672   2.014 -0.0685  0.0645 -0.0583
 3541SOL    HW111522   3.183   3.750   2.015  0.1834  0.2790 -0.3116
 3541SOL    HW211523   3.238   3.620   2.099 -1.5154 -0.6763 -0.6260
 3542SOL     OW11524   1.822   2.050   5.485 -0.0159  0.0208 -0.4750
 3542SOL    HW111525   1.786   2.090   5.569 -0.9548  0.5763 -1.1202
 3542SOL    HW211526   1.750   2.049   5.416  0.4378 -1.3947 -0.9525
 3543SOL     OW11527   1.590   3.134   1.857 -0.5505 -0.0879 -0.5408
 3543SOL    HW111528   1.648   3.145   1.776 -1.2060 -0.0464 -1.0167
 3543SOL    HW211529   1.615   3.050   1.904 -0.4742 -0.3589 -1.0518
 3544SOL     OW11530   5.531   5.650   1.284 -0.0182 -0.0856 -0.7515
 3544SOL    HW111531   5.559   5.590   1.208  1.3280  0.5407 -0.7860
 3544SOL    HW211532   5.450   5.611   1.329  0.8633 -2.0088 -0.7038
 3545SOL     OW11533   1.574   4.824   3.015 -0.5374 -0.1043 -0.3769
 3545SOL    HW111534   1.508   4.756   2.985 -1.6842  1.0589 -0.5836
 3545SOL    HW211535   1.617   4.794   3.101 -1.2702 -0.9110 -0.2791
 3546SOL     OW11536   4.341   1.409   6.235 -0.2436 -0.1952 -0.1476
 3546SOL    HW111537   4.358   1.379   6.329 -0.6574 -1.3567 -0.4329
 3546SOL    HW211538   4.243   1.410   6.218 -0.1671 -0.0126 -0.5856
 3547SOL     OW11539   2.280   3.919   1.951 -0.2239 -0.4192 -0.9571
 3547SOL    HW111540   2.355   3.977   1.918  1.5444 -1.5067  0.8445
 3547SOL    HW211541   2.212   3.976   1.997  2.1197  0.3188  1.9657
 3548SOL     OW11542   0.695   4.668   0.916  0.2553  0.6363  0.2675
 3548SOL    HW111543   0.696   4.645   0.818 -0.6456 -1.4548  0.7153
 3548SOL    HW211544   0.606   4.708   0.939  1.0137  2.6168 -0.0354
 3549SOL     OW11545   3.268   0.288   5.155  0.6049 -0.1624  0.5980
 3549SOL    HW111546   3.343   0.306   5.219  0.1398 -0.2371  1.1710
 3549SOL    HW211547   3.194   0.242   5.203  0.6524 -1.1272 -0.2294
 3550SOL     OW11548   6.482   3.876   6.781 -0.1437  0.4903 -0.2885
 3550SOL    HW111549   6.545   3.932   6.834  0.8766 -1.0058  0.1409
 3550SOL    HW211550   6.436   3.811   6.842 -1.1408  0.6815 -0.8088
 3551SOL     OW11551   3.389   1.285   5.111 -0.6418  0.0123 -0.1692
 3551SOL    HW111552   3.410   1.194   5.147 -0.6618 -0.1655 -0.5983
 3551SOL    HW211553   3.315   1.326   5.165  0.9091  0.7400  1.5120
 3552SOL     OW11554   3.509   6.731   6.179 -0.6638  0.2472 -0.0271
 3552SOL    HW111555   3.517   6.822   6.221  1.4450  0.8216 -1.5060
 3552SOL    HW211556   3.412   6.705   6.176 -1.1575  1.4026  2.4608
 3553SOL     OW11557   0.814   5.331   2.796  0.4738  0.1017  0.1957
 3553SOL    HW111558   0.864   5.351   2.712 -0.0136 -0.7353 -0.3076
 3553SOL    HW211559   0.845   5.243   2.832  0.6944  0.4661  0.9110
 3554SOL     OW11560   2.932   4.790   2.668  0.5544  0.9170  0.4615
 3554SOL    HW111561   2.836   4.786   2.640  0.8692 -0.5711 -0.5559
 3554SOL    HW211562   2.979   4.861   2.616  0.9343 -1.2467 -2.4329
 3555SOL     OW11563   2.671   5.759   4.337  0.0631  0.6744 -0.0948
 3555SOL    HW111564   2.702   5.744   4.243  1.5090  0.7749  0.3346
 3555SOL    HW211565   2.587   5.707   4.353  1.0280 -1.2046 -0.7844
 3556SOL     OW11566   3.754   5.535   0.453  0.3569  0.8803  0.5626
 3556SOL    HW111567   3.720   5.603   0.518  0.0963  0.6143  0.7078
 3556SOL    HW211568   3.847   5.558   0.426  0.1396  1.5094  0.3194
 3557SOL     OW11569   4.869   4.251   4.437 -0.2258 -0.5069  0.2661
 3557SOL    HW111570   4.865   4.204   4.349 -3.8326  1.0901 -0.6361
 3557SOL    HW211571   4.900   4.345   4.423  3.8407 -1.4761  1.5708
 3558SOL     OW11572   4.552   2.940   6.448  0.1090  0.1938 -0.1534
 3558SOL    HW111573   4.478   2.876   6.425  1.3504 -1.3093 -0.1094
 3558SOL    HW211574   4.519   3.003   6.519 -0.3457 -2.2494  1.9835
 3559SOL     OW11575   6.513   1.534   2.788  0.1545  0.7165 -0.4984
 3559SOL    HW111576   6.546   1.453   2.836 -2.8027 -0.1420  0.2510
 3559SOL    HW211577   6.519   1.613   2.848  1.6737  0.8022 -0.7240
 3560SOL     OW11578   0.139   0.362   0.748 -0.0436  0.3531 -0.4042
 3560SOL    HW111579   0.052   0.393   0.786 -0.3110 -1.4814  0.5750
 3560SOL    HW211580   0.214   0.405   0.797 -0.3995 -0.0088  0.4732
 3561SOL     OW11581   3.987   2.084   0.870 -0.2672 -0.2832 -0.4077
 3561SOL    HW111582   4.021   2.134   0.791  3.0738 -1.4513  0.1432
 3561SOL    HW211583   4.028   2.121   0.953 -0.6996 -1.5025  0.3833
 3562SOL     OW11584   2.863   6.282   4.318  0.0958  0.0668 -0.3564
 3562SOL    HW111585   2.928   6.209   4.340  0.8403  0.8362  0.0677
 3562SOL    HW211586   2.786   6.279   4.383 -0.7930 -1.4105 -1.4165
 3563SOL     OW11587   3.428   5.977   5.792  0.0488 -0.3536 -0.0223
 3563SOL    HW111588   3.511   5.961   5.845  1.4085  0.9162 -1.6545
 3563SOL    HW211589   3.425   5.914   5.714  1.5658  2.0100 -2.1686
 3564SOL     OW11590   5.421   7.004   4.961  0.1612 -0.1851  0.1957
 3564SOL    HW111591   5.362   7.084   4.970  0.1693  0.2473 -2.6491
 3564SOL    HW211592   5.461   7.003   4.870  2.2377 -2.0741  1.0400
 3565SOL     OW11593   6.661   5.113   0.628 -0.6132 -0.5347  0.0049
 3565SOL    HW111594   6.644   5.031   0.683  0.3561  0.1124  1.3509
 3565SOL    HW211595   6.757   5.140   0.638 -0.9522  0.8684 -0.2456
 3566SOL     OW11596   0.967   0.358   5.213  0.0131  0.7131  0.0525
 3566SOL    HW111597   0.880   0.364   5.263 -0.1472  0.9266 -0.2469
 3566SOL    HW211598   0.950   0.326   5.120  0.0342  2.3329 -0.5483
 3567SOL     OW11599   0.694   1.471   2.230  0.1592 -0.1272  0.0598
 3567SOL    HW111600   0.793   1.464   2.242  0.0724  0.0133  0.8649
 3567SOL    HW211601   0.659   1.548   2.282  0.0088  1.7227 -2.5599
 3568SOL     OW11602   0.193   1.661   6.841  0.2178 -0.5355  0.2119
 3568SOL    HW111603   0.200   1.749   6.794 -3.7604 -0.1264  0.0575
 3568SOL    HW211604   0.200   1.587   6.774 -1.5249 -0.0870 -0.5169
 3569SOL     OW11605   3.306   1.147   6.406 -0.1221 -0.9855 -0.6969
 3569SOL    HW111606   3.334   1.090   6.484 -0.4175 -3.4432 -2.2546
 3569SOL    HW211607   3.212   1.123   6.380 -0.2770  0.2974 -1.3903
 3570SOL     OW11608   6.496   4.167   3.264 -0.4789  0.1439 -0.6918
 3570SOL    HW111609   6.445   4.187   3.348 -2.4253 -0.4048 -1.6781
 3570SOL    HW211610   6.521   4.071   3.262  1.4616  0.5939  0.2000
 3571SOL     OW11611   2.840   1.196   6.174 -0.1925  0.6511 -0.4569
 3571SOL    HW111612   2.873   1.279   6.219  0.5968 -0.6073  1.4344
 3571SOL    HW211613   2.826   1.214   6.077  1.2729  2.6190 -0.3640
 3572SOL     OW11614   5.566   5.021   1.359 -0.6529  0.5893  0.0742
 3572SOL    HW111615   5.657   5.060   1.366  0.0036 -0.6286 -1.1581
 3572SOL    HW211616   5.526   5.010   1.450  1.6223 -1.5666  0.9221
 3573SOL     OW11617   6.603   4.937   1.903 -0.3119 -0.1516 -0.0579
 3573SOL    HW111618   6.557   4.899   1.983 -1.8302 -0.1696 -0.8991
 3573SOL    HW211619   6.535   4.961   1.833  0.6611  2.9229 -0.0873
 3574SOL     OW11620   6.651   2.460   4.734 -0.3924  0.1650  0.1753
 3574SOL    HW111621   6.708   2.406   4.673  0.7327 -0.6947  1.9077
 3574SOL    HW211622   6.705   2.490   4.813 -1.8140  1.1212  0.8243
 3575SOL     OW11623   3.143   2.872   1.778  0.0046 -0.1205  0.5320
 3575SOL    HW111624   3.225   2.924   1.800 -1.6360  1.6605  2.9237
 3575SOL    HW211625   3.078   2.930   1.730 -0.6257 -0.9655  0.3333
 3576SOL     OW11626   5.411   6.250   3.972  0.4360  0.4325 -0.0308
 3576SOL    HW111627   5.445   6.156   3.966 -0.3511  0.1209  0.1840
 3576SOL    HW211628   5.428   6.286   4.064  0.5322  0.4099 -0.0403
 3577SOL     OW11629   0.594   2.741   3.555 -0.4416 -0.0084 -0.6883
 3577SOL    HW111630   0.505   2.725   3.513 -0.5758 -0.6815 -0.1621
 3577SOL    HW211631   0.617   2.665   3.615 -0.9403  1.5404  1.6258
 3578SOL     OW11632   0.469   6.707   6.787 -0.7577 -0.4424  0.5285
 3578SOL    HW111633   0.445   6.762   6.867  1.0830 -2.6634  2.7710
 3578SOL    HW211634   0.446   6.612   6.804  0.5499 -1.1254 -1.2127
 3579SOL     OW11635   2.368   0.769   4.128 -0.2091  0.1974  1.3777
 3579SOL    HW111636   2.304   0.749   4.203 -2.1229 -0.3058 -0.3140
 3579SOL    HW211637   2.391   0.685   4.081 -0.7864  0.7385  0.0709
 3580SOL     OW11638   4.420   5.823   1.240 -0.0934 -0.3857 -0.6571
 3580SOL    HW111639   4.334   5.815   1.189 -0.9884 -0.6624  0.8487
 3580SOL    HW211640   4.415   5.766   1.322  2.8908 -3.3298 -2.2982
 3581SOL     OW11641   3.610   1.362   2.294  0.0361 -0.7071  0.3369
 3581SOL    HW111642   3.572   1.269   2.293  0.0206 -0.7002  0.1857
 3581SOL    HW211643   3.644   1.384   2.202  0.6280 -0.8057  0.5301
 3582SOL     OW11644   4.677   4.445   0.703  0.8406  0.0111  0.4381
 3582SOL    HW111645   4.614   4.384   0.656 -0.0180  0.0425  1.5167
 3582SOL    HW211646   4.660   4.443   0.801  1.3378  1.3640  0.5832
 3583SOL     OW11647   2.520   5.621   6.214  0.2962  0.4239 -0.2213
 3583SOL    HW111648   2.579   5.580   6.284 -0.4859  2.2895  1.6146
 3583SOL    HW211649   2.562   5.609   6.124  2.0447 -0.7693  0.6997
 3584SOL     OW11650   2.268   1.301   4.076  0.4491 -0.1578 -0.3526
 3584SOL    HW111651   2.279   1.237   4.000 -0.4384  0.2498 -0.8445
 3584SOL    HW211652   2.183   1.281   4.124  2.3969 -2.4256  2.5445
 3585SOL     OW11653   0.639   6.722   4.739 -0.1282 -0.0265  0.2201
 3585SOL    HW111654   0.659   6.662   4.662  2.0556  0.0476  0.6789
 3585SOL    HW211655   0.604   6.669   4.816  1.3304 -0.6771  0.4586
 3586SOL     OW11656   5.391   2.150   6.944  0.5323 -0.1908 -0.3995
 3586SOL    HW111657   5.342   2.094   6.878  1.2958  2.8407 -3.8848
 3586SOL    HW211658   5.482   2.112   6.960  0.9490 -0.1514 -2.4661
 3587SOL     OW11659   1.526   6.462   5.632  0.3349 -0.1360 -0.0715
 3587SOL    HW111660   1.507   6.551   5.589  0.9884 -1.0412 -2.3822
 3587SOL    HW211661   1.525   6.391   5.563  1.7021 -1.6859  1.4195
 3588SOL     OW11662   4.633   2.646   2.490 -0.6091  0.5144 -0.2664
 3588SOL    HW111663   4.728   2.627   2.515 -0.3245  1.1826 -0.8070
 3588SOL    HW211664   4.612   2.742   2.511 -0.3267  1.1420 -2.6478
 3589SOL     OW11665   1.680   2.790   0.549 -0.3538  0.0214 -0.4446
 3589SOL    HW111666   1.684   2.702   0.597 -1.4038  0.9250  1.4380
 3589SOL    HW211667   1.750   2.851   0.586 -2.1145  1.2159  1.1255
 3590SOL     OW11668   1.239   2.024   5.723 -0.1581  0.0049 -0.0997
 3590SOL    HW111669   1.236   1.926   5.700  1.2113  0.1258 -0.9362
 3590SOL    HW211670   1.146   2.060   5.729 -0.7395 -1.6114  1.4801
 3591SOL     OW11671   6.800   1.722   5.325 -0.0416  0.3695 -0.0403
 3591SOL    HW111672   6.800   1.820   5.348  2.3648  0.1975  1.0623
 3591SOL    HW211673   6.706   1.691   5.312 -0.8581  2.8824 -0.7443
 3592SOL     OW11674   3.314   5.220   6.715  0.0450 -0.1091  0.3630
 3592SOL    HW111675   3.293   5.277   6.795 -1.2344 -0.6569  0.4467
 3592SOL    HW211676   3.258   5.137   6.718 -0.8701  0.3788 -1.6767
 3593SOL     OW11677   3.934   5.334   2.556 -0.5031 -0.0090  0.3369
 3593SOL    HW111678   4.023   5.363   2.591 -0.3498 -0.6268  0.4729
 3593SOL    HW211679   3.872   5.412   2.554  1.0705  1.3758 -3.2339
 3594SOL     OW11680   3.438   4.659   6.092 -0.2481  0.3836  0.3586
 3594SOL    HW111681   3.484   4.669   6.003 -1.7169 -0.1244 -0.4787
 3594SOL    HW211682   3.471   4.576   6.137 -0.7777 -0.3279 -0.5268
 3595SOL     OW11683   4.230   2.280   3.642 -0.2751 -0.1255 -0.3368
 3595SOL    HW111684   4.290   2.203   3.621 -0.3704 -0.3073  0.0454
 3595SOL    HW211685   4.263   2.327   3.724  0.3773  0.8760 -1.1440
 3596SOL     OW11686   1.278   2.954   3.372 -0.3184 -0.0261 -0.0175
 3596SOL    HW111687   1.212   2.960   3.447 -0.6994  0.2225 -0.3671
 3596SOL    HW211688   1.273   3.036   3.316 -0.2134 -0.3132 -0.4595
 3597SOL     OW11689   1.631   3.594   0.893  0.1224  0.4620  0.0209
 3597SOL    HW111690   1.598   3.499   0.889  0.1743  0.4671 -0.6081
 3597SOL    HW211691   1.588   3.641   0.970 -0.9568  0.3154 -0.4728
 3598SOL     OW11692   6.487   0.677   0.773  0.1688 -0.5338  0.0609
 3598SOL    HW111693   6.565   0.715   0.824 -1.8828  0.8651  2.3732
 3598SOL    HW211694   6.469   0.584   0.805  0.1693 -0.4342  0.3527
 3599SOL     OW11695   6.097   1.236   0.303  0.6764  0.0301 -0.0584
 3599SOL    HW111696   6.110   1.218   0.205  1.9535  0.7723 -0.0516
 3599SOL    HW211697   6.120   1.153   0.355  0.9649 -0.0722 -0.3400
 3600SOL     OW11698   4.118   0.262   5.044 -0.2499 -0.0639  0.5335
 3600SOL    HW111699   4.063   0.209   5.109 -0.1481 -0.0263  0.6506
 3600SOL    HW211700   4.201   0.210   5.022  0.0811  0.2574  1.0158
 3601SOL     OW11701   3.818   2.856   6.954  0.1260 -0.3364  0.3646
 3601SOL    HW111702   3.864   2.940   6.923 -1.8739  0.6411 -0.0780
 3601SOL    HW211703   3.784   2.806   6.875 -1.3144  0.0081  0.7396
 3602SOL     OW11704   0.875   2.867   3.894  0.0932  0.4874  0.0863
 3602SOL    HW111705   0.971   2.888   3.874 -0.0370 -0.2003 -1.4226
 3602SOL    HW211706   0.818   2.897   3.819 -0.9920  1.5053  1.2749
 3603SOL     OW11707   3.153   2.908   5.064  0.3885 -0.3457 -0.1889
 3603SOL    HW111708   3.168   2.852   4.982  0.7097  0.4208 -0.6675
 3603SOL    HW211709   3.097   2.987   5.039 -1.4595 -1.2658  0.8159
 3604SOL     OW11710   4.004   1.271   4.837 -0.4301  0.4590 -0.7518
 3604SOL    HW111711   4.028   1.277   4.740  0.6286  1.2434 -0.4532
 3604SOL    HW211712   4.053   1.194   4.878  1.2081  1.6968 -0.2789
 3605SOL     OW11713   0.677   0.126   6.808  0.4351  0.1386  0.0472
 3605SOL    HW111714   0.619   0.154   6.884 -0.2086 -0.2729 -0.2745
 3605SOL    HW211715   0.688   0.027   6.809 -0.2355  0.0347 -0.8308
 3606SOL     OW11716   1.479   7.011   5.463 -0.4171  0.0651 -0.2180
 3606SOL    HW111717   1.534   6.930   5.482 -0.9649 -0.0889  0.7504
 3606SOL    HW211718   1.531   7.074   5.405  0.1570 -0.8004 -0.6633
 3607SOL     OW11719   3.732   6.352   4.460  0.4584  0.5184  0.0739
 3607SOL    HW111720   3.785   6.306   4.532  0.5273  0.6592  0.1139
 3607SOL    HW211721   3.755   6.311   4.372 -0.5231 -0.4799  0.2533
 3608SOL     OW11722   5.474   5.471   6.779  0.4318  0.0657  0.6359
 3608SOL    HW111723   5.469   5.493   6.876 -0.3229  0.9109  0.4179
 3608SOL    HW211724   5.524   5.385   6.767 -1.7686 -1.5123  1.9866
 3609SOL     OW11725   3.068   6.225   1.701  0.0848 -0.4253 -0.1557
 3609SOL    HW111726   3.033   6.156   1.638 -3.3496 -1.0018  2.1456
 3609SOL    HW211727   2.993   6.267   1.750  2.4523  1.1307  2.4351
 3610SOL     OW11728   0.133   1.165   6.186 -0.1989  0.4695 -0.0237
 3610SOL    HW111729   0.187   1.086   6.215 -2.0858 -0.0468  2.4069
 3610SOL    HW211730   0.159   1.191   6.093  2.3406 -1.3143  0.0921
 3611SOL     OW11731   0.217   1.490   0.629 -0.3086 -0.5569 -0.0283
 3611SOL    HW111732   0.278   1.472   0.706 -1.6806 -0.3848  1.1195
 3611SOL    HW211733   0.244   1.432   0.552  1.9472  0.2556  0.0691
 3612SOL     OW11734   3.597   1.744   5.577  0.0525 -0.3194  0.2338
 3612SOL    HW111735   3.630   1.810   5.510 -0.2726 -0.2981  0.0945
 3612SOL    HW211736   3.615   1.651   5.544 -0.6551 -0.3206 -0.1692
 3613SOL     OW11737   0.917   0.014   6.644  0.6946  0.1994  0.2310
 3613SOL    HW111738   0.882   0.103   6.613  1.4384  0.5492  0.3869
 3613SOL    HW211739   0.911   0.009   6.743 -0.9079 -0.5965  0.1319
 3614SOL     OW11740   2.949   5.790   6.953 -0.4533 -0.6993 -0.2228
 3614SOL    HW111741   2.879   5.801   7.024 -1.0038 -1.0249 -0.7091
 3614SOL    HW211742   2.906   5.793   6.863 -0.4261 -4.3334 -0.5286
 3615SOL     OW11743   1.358   2.535   6.865 -0.8313 -0.1948  0.2424
 3615SOL    HW111744   1.269   2.491   6.871 -0.6562 -0.4701  1.0867
 3615SOL    HW211745   1.369   2.600   6.941 -0.2467 -0.3093  0.2662
 3616SOL     OW11746   2.405   4.733   2.943 -0.0842  0.1845  0.4630
 3616SOL    HW111747   2.349   4.651   2.949  0.5843 -0.1940  3.2165
 3616SOL    HW211748   2.496   4.710   2.907 -0.0879 -0.1805  0.6876
 3617SOL     OW11749   3.549   5.082   0.110 -0.0010 -0.6293 -0.1446
 3617SOL    HW111750   3.510   5.014   0.172 -0.8451 -1.2197 -1.2801
 3617SOL    HW211751   3.541   5.049   0.016  0.5527  0.5786 -0.6344
 3618SOL     OW11752   1.285   6.032   1.029  0.5305 -0.0970  0.2396
 3618SOL    HW111753   1.360   6.082   1.073  1.6473  0.3448 -1.9978
 3618SOL    HW211754   1.221   6.097   0.988 -1.3612 -0.4659  2.4259
 3619SOL     OW11755   2.451   4.972   4.194  0.4590  0.2764  0.3166
 3619SOL    HW111756   2.498   4.960   4.281 -1.0334  0.6450  1.1955
 3619SOL    HW211757   2.359   5.006   4.210  0.3493  0.8946 -1.4465
 3620SOL     OW11758   4.055   0.138   0.806  0.2029 -0.2970  1.0196
 3620SOL    HW111759   3.971   0.139   0.861 -0.9518  1.4280 -0.6442
 3620SOL    HW211760   4.079   0.231   0.780  2.1568 -0.8481  0.7192
 3621SOL     OW11761   0.534   2.445   4.271 -0.2524  0.1132  0.2371
 3621SOL    HW111762   0.486   2.512   4.215 -1.2902  0.1556  1.1517
 3621SOL    HW211763   0.470   2.378   4.306  0.6965 -1.0583 -0.2130
 3622SOL     OW11764   6.492   5.702   5.302 -0.8438 -0.1346 -0.2039
 3622SOL    HW111765   6.548   5.784   5.287 -0.8748 -0.4450 -2.2507
 3622SOL    HW211766   6.480   5.688   5.401 -0.0335  1.7630  0.2175
 3623SOL     OW11767   5.371   0.156   3.064 -0.3716  0.2771 -0.3240
 3623SOL    HW111768   5.326   0.190   2.982 -0.1608  1.3124 -0.0243
 3623SOL    HW211769   5.435   0.225   3.099 -2.5125  1.1121  2.3198
 3624SOL     OW11770   4.757   2.731   2.202 -0.2144  0.9329 -0.1097
 3624SOL    HW111771   4.799   2.768   2.119  0.5199 -0.0580 -0.1943
 3624SOL    HW211772   4.812   2.656   2.237 -1.4950  0.1214  0.2396
 3625SOL     OW11773   6.322   2.900   0.410 -0.1321 -0.3371 -0.3408
 3625SOL    HW111774   6.336   2.998   0.420  1.7469 -0.5716 -0.3222
 3625SOL    HW211775   6.345   2.872   0.317  0.1315 -0.8792 -0.1163
 3626SOL     OW11776   0.707   1.622   1.529  0.7529  0.1078 -0.3510
 3626SOL    HW111777   0.719   1.550   1.460  1.7717  0.4601 -0.5639
 3626SOL    HW211778   0.744   1.590   1.616  1.7540  0.5613 -0.5867
 3627SOL     OW11779   2.150   6.879   3.357  0.2344  0.1788  0.0126
 3627SOL    HW111780   2.073   6.937   3.332 -1.4206 -1.8732  0.0786
 3627SOL    HW211781   2.117   6.794   3.397  2.5941 -0.2744  1.2160
 3628SOL     OW11782   6.762   5.513   6.540  0.5200 -0.4563  0.5736
 3628SOL    HW111783   6.771   5.422   6.500 -0.1344  0.2951 -1.3917
 3628SOL    HW211784   6.681   5.559   6.503  0.4336  0.6876  2.0495
 3629SOL     OW11785   3.460   0.489   0.602 -0.4771  0.5092 -0.2337
 3629SOL    HW111786   3.506   0.423   0.661  2.1561  0.9052 -1.6851
 3629SOL    HW211787   3.403   0.551   0.657 -1.1153 -1.4141  1.3945
 3630SOL     OW11788   0.279   3.884   0.440  1.1444  0.7289  0.5464
 3630SOL    HW111789   0.345   3.821   0.481 -1.6235 -1.8217  1.4368
 3630SOL    HW211790   0.263   3.858   0.345 -0.8064 -0.7356  1.2217
 3631SOL     OW11791   3.592   0.724   2.249 -0.5890 -0.1431 -0.4810
 3631SOL    HW111792   3.689   0.744   2.235 -0.1428 -0.5374  1.6316
 3631SOL    HW211793   3.583   0.641   2.303 -2.1351 -0.3540 -1.0195
 3632SOL     OW11794   1.927   3.528   5.398 -0.4911  0.6756 -0.8047
 3632SOL    HW111795   1.930   3.551   5.495 -0.1690 -0.1826 -0.6113
 3632SOL    HW211796   1.929   3.429   5.386 -0.7267  0.7638 -1.6832
 3633SOL     OW11797   3.477   6.427   0.902 -0.2419  0.4004 -0.1380
 3633SOL    HW111798   3.386   6.393   0.925  0.3454 -0.2925  1.2588
 3633SOL    HW211799   3.532   6.434   0.985  1.3315 -0.2473 -1.0898
 3634SOL     OW11800   4.342   3.406   5.996 -0.1723  0.1244  0.2472
 3634SOL    HW111801   4.342   3.452   6.084  0.2515 -0.5234  0.5912
 3634SOL    HW211802   4.258   3.428   5.946  0.8917  2.9345 -0.4906
 3635SOL     OW11803   3.598   5.081   2.960 -0.1972  0.5178 -0.5127
 3635SOL    HW111804   3.580   5.137   2.879  0.3751 -0.9030 -1.6547
 3635SOL    HW211805   3.526   5.013   2.971  0.8894 -0.7655 -1.1624
 3636SOL     OW11806   5.107   5.055   5.323  0.0431 -0.0377 -0.3163
 3636SOL    HW111807   5.016   5.062   5.364 -0.5637 -0.3490 -1.5518
 3636SOL    HW211808   5.098   5.059   5.223  1.4789  0.9244 -0.4306
 3637SOL     OW11809   0.491   6.328   0.478 -0.4468  0.3242  0.3172
 3637SOL    HW111810   0.505   6.280   0.391 -1.1482  2.3331 -0.9833
 3637SOL    HW211811   0.577   6.371   0.506 -0.2993 -0.0467  0.4324
 3638SOL     OW11812   3.817   0.011   1.560  0.3572  0.0147  0.3764
 3638SOL    HW111813   3.736  -0.037   1.592  0.2609 -0.1150 -0.0504
 3638SOL    HW211814   3.886  -0.056   1.531 -0.8365  0.0146 -2.9628
 3639SOL     OW11815   6.268   6.390   2.431  0.5631 -0.3609 -0.1136
 3639SOL    HW111816   6.285   6.456   2.504  1.9028  0.2747 -0.9663
 3639SOL    HW211817   6.198   6.325   2.461 -0.3995  1.1045  0.9544
 3640SOL     OW11818   6.078   3.600   6.573 -0.0249  0.2044  0.1539
 3640SOL    HW111819   5.989   3.646   6.569 -0.8042 -1.2700 -0.4753
 3640SOL    HW211820   6.106   3.590   6.668 -0.5469  0.6461  0.3644
 3641SOL     OW11821   3.802   0.921   2.839  0.1712 -0.4033 -0.1276
 3641SOL    HW111822   3.749   0.855   2.893  1.5114 -0.9908  0.5286
 3641SOL    HW211823   3.900   0.905   2.854  0.5473  0.6789 -1.2607
 3642SOL     OW11824   0.778   5.253   6.907 -0.2001 -0.5762  0.1842
 3642SOL    HW111825   0.853   5.296   6.856  0.3648 -1.6753  0.0782
 3642SOL    HW211826   0.694   5.306   6.892 -0.1381 -1.0385 -2.1950
 3643SOL     OW11827   1.348   5.384   3.338 -0.2137 -0.0453 -0.1923
 3643SOL    HW111828   1.341   5.483   3.339  0.4490  0.0094  0.4907
 3643SOL    HW211829   1.374   5.353   3.247 -0.7864  0.3738 -0.5044
 3644SOL     OW11830   6.007   4.961   6.224 -0.3635 -0.3558  0.3091
 3644SOL    HW111831   5.977   4.906   6.146  0.0030 -0.2757  0.1089
 3644SOL    HW211832   6.000   4.907   6.307 -0.1447 -0.6598  0.1332
 3645SOL     OW11833   5.781   4.529   0.684  0.1076 -0.0847 -0.1705
 3645SOL    HW111834   5.719   4.489   0.751 -1.7060  1.8798 -0.5528
 3645SOL    HW211835   5.859   4.569   0.731  0.1884 -1.0136  0.5075
 3646SOL     OW11836   2.137   3.692   1.839  0.3017  0.3688  0.2645
 3646SOL    HW111837   2.159   3.608   1.888  0.7212  0.5577  0.4068
 3646SOL    HW211838   2.190   3.768   1.877 -0.8409  0.9101  0.8372
 3647SOL     OW11839   5.694   6.218   2.412 -0.6597  0.3922 -0.1442
 3647SOL    HW111840   5.764   6.151   2.385 -0.5597  1.2625 -2.2212
 3647SOL    HW211841   5.736   6.287   2.471 -0.6546 -1.0410  1.6334
 3648SOL     OW11842   1.365   3.197   6.731 -0.6631  0.2689 -0.2330
 3648SOL    HW111843   1.449   3.191   6.785 -0.1977  1.3126 -0.8084
 3648SOL    HW211844   1.295   3.138   6.772 -0.7649  1.9854  2.3631
 3649SOL     OW11845   6.391   5.867   2.970 -0.4000  0.0338  0.5707
 3649SOL    HW111846   6.400   5.781   2.920  1.6965  0.6185 -0.1481
 3649SOL    HW211847   6.397   5.944   2.907  1.9080  0.7711  1.5722
 3650SOL     OW11848   4.246   0.979   0.236  0.1725  0.2266 -0.2580
 3650SOL    HW111849   4.317   0.930   0.185 -0.3890  0.7029 -1.5371
 3650SOL    HW211850   4.282   1.067   0.266 -0.1544  0.9583 -1.8621
 3651SOL     OW11851   1.972   5.507   1.556  0.1842 -0.6268  0.5683
 3651SOL    HW111852   1.943   5.429   1.500 -0.2276 -1.2335  1.6078
 3651SOL    HW211853   2.072   5.509   1.560  0.1992 -2.0903  1.8536
 3652SOL     OW11854   5.239   2.999   5.212  0.3325 -0.1681  0.3521
 3652SOL    HW111855   5.164   3.031   5.269  1.8003  1.7273  1.3485
 3652SOL    HW211856   5.231   3.039   5.121 -0.8412 -1.4729 -0.1462
 3653SOL     OW11857   0.984   6.192   3.374  0.0411 -0.5618  0.2303
 3653SOL    HW111858   0.907   6.225   3.427  1.4201  0.6772  1.5417
 3653SOL    HW211859   0.965   6.099   3.342 -1.4866 -0.7249  1.5088
 3654SOL     OW11860   5.273   0.958   4.177  0.4516  0.1424 -0.7051
 3654SOL    HW111861   5.331   0.917   4.108 -0.1756  0.7213 -1.6062
 3654SOL    HW211862   5.204   1.016   4.132  0.0139  0.5051  0.4009
 3655SOL     OW11863   0.573   1.551   3.984  0.1092  0.6106 -0.1285
 3655SOL    HW111864   0.666   1.552   3.948  0.3246 -0.1165  0.3734
 3655SOL    HW211865   0.569   1.490   4.064 -0.8245  0.5136 -0.2377
 3656SOL     OW11866   4.502   1.619   0.305  0.0466 -0.3819 -0.4054
 3656SOL    HW111867   4.403   1.606   0.310  0.1015 -0.6649  0.0492
 3656SOL    HW211868   4.527   1.706   0.348  0.0986 -0.8392  0.5279
 3657SOL     OW11869   2.953   5.989   3.243  0.0847  0.2213  0.0561
 3657SOL    HW111870   2.977   5.903   3.196 -0.7782 -0.3524  0.6393
 3657SOL    HW211871   2.973   5.980   3.340  3.4640  1.9797 -0.3015
 3658SOL     OW11872   0.934   7.002   5.775  0.3308  0.4430  0.3865
 3658SOL    HW111873   0.866   7.063   5.733  0.9824  1.7493  1.1781
 3658SOL    HW211874   0.971   6.941   5.705 -0.9388  0.3701 -0.2574
 3659SOL     OW11875   0.298   0.230   5.591  0.0833 -0.0184  0.0435
 3659SOL    HW111876   0.282   0.329   5.586 -0.6840 -0.1830 -1.5691
 3659SOL    HW211877   0.395   0.211   5.571 -0.0906  0.3389 -1.2576
 3660SOL     OW11878   3.257   2.778   6.329  1.1095 -0.2947 -0.2232
 3660SOL    HW111879   3.221   2.828   6.407  0.7262 -0.4922 -0.2754
 3660SOL    HW211880   3.208   2.692   6.318  2.1206 -0.9491  0.1921
 3661SOL     OW11881   6.596   3.878   3.628  0.0009 -0.7209  0.2892
 3661SOL    HW111882   6.513   3.867   3.683 -0.6154 -1.4646 -0.7422
 3661SOL    HW211883   6.660   3.804   3.647 -0.4772 -1.3359 -0.4062
 3662SOL     OW11884   0.163   2.467   5.518 -0.0354 -0.1324 -0.0356
 3662SOL    HW111885   0.149   2.437   5.612  0.1218  1.1324  0.4119
 3662SOL    HW211886   0.087   2.526   5.490  1.7236  2.6702  0.6826
 3663SOL     OW11887   4.165   6.344   5.478 -0.2024  0.4991  0.1502
 3663SOL    HW111888   4.178   6.360   5.576  0.8648  1.0217 -0.0571
 3663SOL    HW211889   4.209   6.418   5.426 -0.1427 -0.1404 -0.7423
 3664SOL     OW11890   0.225   3.563   3.843 -0.3860  0.1278 -0.3541
 3664SOL    HW111891   0.232   3.531   3.748 -0.1658  0.5856 -0.4956
 3664SOL    HW211892   0.294   3.634   3.858 -1.1066  0.7851 -0.1453
 3665SOL     OW11893   0.226   2.902   1.020  0.3214 -0.0763 -0.0841
 3665SOL    HW111894   0.324   2.911   1.040 -0.1982 -2.3660  4.7873
 3665SOL    HW211895   0.210   2.816   0.972  0.5307 -1.7524  2.6429
 3666SOL     OW11896   1.704   6.650   1.449 -0.1489  0.5406 -0.1517
 3666SOL    HW111897   1.626   6.612   1.399  0.2485  0.2850 -0.5908
 3666SOL    HW211898   1.766   6.694   1.385 -0.6176  2.0041  0.3591
 3667SOL     OW11899   4.503   1.761   0.660 -0.0123 -0.1684  1.0451
 3667SOL    HW111900   4.533   1.792   0.570 -0.4662 -0.2723  0.8548
 3667SOL    HW211901   4.414   1.799   0.681 -0.2648 -0.7748  1.1068
 3668SOL     OW11902   4.959   5.475   3.053 -0.2497  0.4246 -0.5798
 3668SOL    HW111903   4.923   5.453   2.962 -0.6871 -0.2217 -0.2588
 3668SOL    HW211904   5.006   5.395   3.090 -2.3279 -0.2205  0.8269
 3669SOL     OW11905   4.500   0.371   4.761 -0.5069 -0.1110 -0.5268
 3669SOL    HW111906   4.408   0.344   4.733 -0.7583  1.5078 -1.3894
 3669SOL    HW211907   4.507   0.369   4.861 -1.8627  0.8394 -0.3882
 3670SOL     OW11908   3.825   2.219   6.644  0.5357 -0.3811 -0.1486
 3670SOL    HW111909   3.750   2.193   6.705  0.3478 -0.0546 -0.2369
 3670SOL    HW211910   3.913   2.198   6.688  0.4493  1.2300  0.9137
 3671SOL     OW11911   3.815   5.472   4.445 -0.5272  0.2480  0.0668
 3671SOL    HW111912   3.836   5.418   4.363  0.7806  0.4928  0.2222
 3671SOL    HW211913   3.836   5.568   4.428 -0.8395  0.3969  0.4923
 3672SOL     OW11914   0.861   6.040   6.316 -0.6694 -0.0547  0.4408
 3672SOL    HW111915   0.949   5.996   6.334 -0.7219 -1.2459 -1.8942
 3672SOL    HW211916   0.796   5.973   6.279 -0.7113  1.8598 -3.4597
 3673SOL     OW11917   2.421   2.474   4.159 -0.6254 -0.3982 -0.0213
 3673SOL    HW111918   2.506   2.443   4.116  0.2022  1.8937 -0.1989
 3673SOL    HW211919   2.422   2.449   4.256  0.6282  0.2299  0.1553
 3674SOL     OW11920   5.339   1.237   4.226 -0.0014 -0.1780  0.7936
 3674SOL    HW111921   5.272   1.298   4.184 -0.0044 -1.2146 -0.7709
 3674SOL    HW211922   5.309   1.142   4.216 -0.1019 -0.5116  3.3735
 3675SOL     OW11923   6.082   4.500   2.901 -0.0284  0.4848 -0.0821
 3675SOL    HW111924   6.169   4.542   2.924  0.6495 -0.4411 -0.8572
 3675SOL    HW211925   6.008   4.548   2.948  1.0173  0.3699  1.7621
 3676SOL     OW11926   2.264   6.428   1.497  0.2561  0.3912 -0.2659
 3676SOL    HW111927   2.308   6.383   1.575 -0.0247 -0.3203 -0.5126
 3676SOL    HW211928   2.296   6.523   1.491  0.6225  0.3199  0.4425
 3677SOL     OW11929   5.913   3.055   0.397 -0.8995 -0.5433 -0.3650
 3677SOL    HW111930   5.976   2.983   0.425  0.6546  0.6167 -0.6852
 3677SOL    HW211931   5.913   3.063   0.297 -1.2945 -0.3229 -0.3494
 3678SOL     OW11932   1.033   4.609   2.673 -0.0027  0.3145 -0.2958
 3678SOL    HW111933   0.984   4.668   2.737 -1.4431 -0.4740 -0.6234
 3678SOL    HW211934   1.116   4.574   2.716 -0.7624  0.0706  1.0133
 3679SOL     OW11935   5.644   1.399   3.832  0.0747 -0.0551  0.2824
 3679SOL    HW111936   5.547   1.395   3.853 -0.1696 -0.3729 -0.8254
 3679SOL    HW211937   5.657   1.392   3.733  1.1371  1.3973  0.2796
 3680SOL     OW11938   2.811   6.365   4.074 -0.0272 -0.0240  0.7535
 3680SOL    HW111939   2.755   6.297   4.026 -0.0102  0.0557  0.6223
 3680SOL    HW211940   2.822   6.337   4.170 -2.1842  1.0830  1.3861
 3681SOL     OW11941   1.183   5.318   4.710  0.3156  0.1757 -0.0629
 3681SOL    HW111942   1.193   5.262   4.628 -0.6119  0.8457 -0.6511
 3681SOL    HW211943   1.127   5.398   4.689 -1.4325 -0.5224  1.6251
 3682SOL     OW11944   5.887   1.916   5.757  0.2254 -0.0191 -0.2856
 3682SOL    HW111945   5.917   1.996   5.808  1.0202 -0.3588 -0.2032
 3682SOL    HW211946   5.815   1.869   5.807  1.1947 -0.5113  0.6694
 3683SOL     OW11947   4.618   2.463   6.695 -0.1716  0.0395 -0.6932
 3683SOL    HW111948   4.524   2.458   6.728  0.4114  3.3021  2.0650
 3683SOL    HW211949   4.618   2.506   6.604 -1.3746  2.8757  0.4974
 3684SOL     OW11950   6.048   6.758   0.230 -0.0668 -0.4280 -0.3654
 3684SOL    HW111951   5.991   6.736   0.151  0.5280  0.9916 -1.2263
 3684SOL    HW211952   6.143   6.772   0.200  0.6452 -2.0611  0.9376
 3685SOL     OW11953   2.642   2.050   0.829  0.2874 -0.1192 -0.0820
 3685SOL    HW111954   2.582   2.066   0.751  0.3818  0.4502 -0.0449
 3685SOL    HW211955   2.736   2.040   0.797  0.1710 -1.1143 -0.1502
 3686SOL     OW11956   0.339   0.189   0.227  0.2049 -0.2437  0.3153
 3686SOL    HW111957   0.333   0.160   0.131 -0.0155 -0.2796  0.3411
 3686SOL    HW211958   0.349   0.289   0.230  2.1525 -0.3875  0.1762
 3687SOL     OW11959   0.831   2.604   4.886  0.1921 -0.3653 -0.1677
 3687SOL    HW111960   0.861   2.689   4.843  0.9918 -0.1761  0.7204
 3687SOL    HW211961   0.803   2.539   4.816  0.6400  0.2331 -0.9163
 3688SOL     OW11962   3.612   5.197   1.910  0.9736 -0.0856  0.1746
 3688SOL    HW111963   3.631   5.289   1.876  0.0910  0.4650  1.1088
 3688SOL    HW211964   3.541   5.155   1.853  0.2573  0.4232  0.6794
 3689SOL     OW11965   6.664   4.077   4.404  0.2355 -0.6619 -0.6012
 3689SOL    HW111966   6.590   4.028   4.450  0.4192  0.0967  0.5283
 3689SOL    HW211967   6.690   4.157   4.458  2.1218 -1.1156 -0.7659
 3690SOL     OW11968   6.659   2.109   6.078 -0.1795  0.8096 -0.4403
 3690SOL    HW111969   6.753   2.135   6.098  0.0485  0.1912 -0.6812
 3690SOL    HW211970   6.657   2.046   6.000 -0.6935  0.0861  0.1325
 3691SOL     OW11971   3.455   2.925   6.226 -0.0121 -0.2143  0.1379
 3691SOL    HW111972   3.371   2.871   6.236 -0.2183  0.2890  1.2160
 3691SOL    HW211973   3.433   3.022   6.238  0.8056 -0.1244  0.9662
 3692SOL     OW11974   0.919   3.632   5.843  0.2925  0.0438 -0.0076
 3692SOL    HW111975   0.960   3.584   5.921 -1.6436 -1.2286  0.2967
 3692SOL    HW211976   0.822   3.650   5.863  0.3496  1.8442 -1.1812
 3693SOL     OW11977   2.937   0.780   2.096 -0.6203  0.1050 -0.1229
 3693SOL    HW111978   2.994   0.806   2.174  0.5763  0.8046 -1.1894
 3693SOL    HW211979   2.914   0.861   2.043 -0.5186 -0.4786 -1.0842
 3694SOL     OW11980   6.654   5.067   4.092 -0.4508 -0.0635 -0.4265
 3694SOL    HW111981   6.684   5.086   4.186 -2.5682 -0.6060  0.4176
 3694SOL    HW211982   6.653   5.152   4.040  1.1145  0.1868 -0.0981
 3695SOL     OW11983   5.179   6.118   2.422 -0.3564 -0.5332  0.5198
 3695SOL    HW111984   5.098   6.087   2.374  0.4723 -0.4556 -1.0062
 3695SOL    HW211985   5.249   6.046   2.421  0.8468  0.5456 -1.3196
 3696SOL     OW11986   1.380   2.917   5.595 -0.1843  0.3588 -0.1805
 3696SOL    HW111987   1.402   2.856   5.671 -2.2522 -1.5390 -1.0143
 3696SOL    HW211988   1.438   2.895   5.517 -0.7190 -0.3760 -0.3815
 3697SOL     OW11989   0.425   3.163   4.660  0.0797  0.1100  0.1591
 3697SOL    HW111990   0.465   3.252   4.640 -0.5121  0.7988  1.8762
 3697SOL    HW211991   0.358   3.140   4.589  0.8094  0.6483 -0.7217
 3698SOL     OW11992   1.086   1.286   4.537  0.6834  0.3572  0.3888
 3698SOL    HW111993   1.173   1.329   4.559  1.3532 -1.4659  1.5142
 3698SOL    HW211994   1.092   1.240   4.448  1.0787 -0.3129  0.7627
 3699SOL     OW11995   2.687   6.776   0.779 -0.5590  0.3109 -0.5691
 3699SOL    HW111996   2.679   6.726   0.865  0.6997 -0.6354 -0.9859
 3699SOL    HW211997   2.659   6.717   0.703  2.6376 -0.5124 -1.2619
 3700SOL     OW11998   0.573   4.590   2.242  0.1005 -0.0757  0.7242
 3700SOL    HW111999   0.598   4.680   2.277 -1.5510  0.5835  0.3009
 3700SOL    HW212000   0.655   4.543   2.210  1.1223  0.8736  1.8295
 3701SOL     OW12001   6.839   0.019   1.876 -0.1888  0.3348 -0.0162
 3701SOL    HW112002   6.908  -0.053   1.874  0.5304  0.8724  2.2720
 3701SOL    HW212003   6.753  -0.017   1.911  0.3248  0.6354  1.6521
 3702SOL     OW12004   2.483   1.787   0.812  0.3469 -0.3042  0.1732
 3702SOL    HW112005   2.529   1.874   0.826  0.1786  0.1556 -1.9172
 3702SOL    HW212006   2.548   1.719   0.779  0.1877 -0.5748  0.4113
 3703SOL     OW12007   1.267   6.556   2.702  0.0435 -0.4133  0.1201
 3703SOL    HW112008   1.284   6.609   2.619  0.6018  2.2452  1.7942
 3703SOL    HW212009   1.171   6.565   2.729  0.0705 -0.5228  0.2576
 3704SOL     OW12010   0.798   1.640   3.848 -0.6969 -0.0348 -0.1756
 3704SOL    HW112011   0.870   1.621   3.915  0.6250 -2.1592 -2.0237
 3704SOL    HW212012   0.818   1.727   3.802 -0.9372  0.8113  1.2529
 3705SOL     OW12013   5.370   4.958   2.357 -0.2256  0.3555 -0.4542
 3705SOL    HW112014   5.366   4.870   2.310  0.9044  0.0119  0.0532
 3705SOL    HW212015   5.441   5.015   2.315  1.3105 -0.2354  1.2341
 3706SOL     OW12016   2.147   6.243   5.675  0.0435  0.0727 -0.1865
 3706SOL    HW112017   2.077   6.314   5.669 -0.8842 -0.7146  0.8591
 3706SOL    HW212018   2.121   6.165   5.618 -0.3274 -0.5073  0.7344
 3707SOL     OW12019   6.462   0.417   5.608  0.4052 -0.7934  0.3572
 3707SOL    HW112020   6.421   0.361   5.680 -1.0784 -0.8247 -0.4758
 3707SOL    HW212021   6.408   0.409   5.525  0.0860  1.9091  0.2171
 3708SOL     OW12022   3.303   2.897   4.676  0.1443  0.4695  0.0655
 3708SOL    HW112023   3.360   2.932   4.750  0.0752 -1.2740  0.9992
 3708SOL    HW212024   3.274   2.803   4.697  0.4521 -0.2437 -2.3659
 3709SOL     OW12025   4.846   5.426   2.254  0.2638 -0.0865  1.0153
 3709SOL    HW112026   4.816   5.489   2.183  0.4993 -2.5612 -1.4424
 3709SOL    HW212027   4.937   5.391   2.232  0.2591 -1.0871  2.4284
 3710SOL     OW12028   6.450   4.879   6.452 -0.0942 -0.2032 -0.2359
 3710SOL    HW112029   6.392   4.837   6.522 -0.0300  2.3844  1.4769
 3710SOL    HW212030   6.530   4.821   6.437 -0.1564 -0.9000  1.7781
 3711SOL     OW12031   1.904   2.705   2.367 -0.2465  0.3888  0.2680
 3711SOL    HW112032   1.824   2.647   2.355 -0.1825 -0.0352  1.6385
 3711SOL    HW212033   1.942   2.730   2.278 -1.9148  0.6378 -0.3943
 3712SOL     OW12034   1.705   6.014   3.040 -0.2194 -0.7880 -0.2968
 3712SOL    HW112035   1.765   6.085   3.076 -0.0649 -1.5911  1.1402
 3712SOL    HW212036   1.623   6.007   3.097 -2.0651  0.7276 -2.6108
 3713SOL     OW12037   1.224   0.405   1.006  0.0588  0.2568 -0.7615
 3713SOL    HW112038   1.322   0.415   0.989 -0.5882  1.8601 -4.5009
 3713SOL    HW212039   1.191   0.321   0.964 -0.1744 -0.4731  0.8120
 3714SOL     OW12040   4.267   1.186   5.371  0.5677  0.1362  0.5846
 3714SOL    HW112041   4.216   1.240   5.304  0.3402  1.0815  1.4985
 3714SOL    HW212042   4.347   1.146   5.327  0.8199  1.3339 -0.0846
 3715SOL     OW12043   2.192   1.825   6.502  0.5385  0.5815 -0.1426
 3715SOL    HW112044   2.127   1.884   6.455 -1.3572  0.2133  1.8432
 3715SOL    HW212045   2.144   1.744   6.537  2.2273 -0.0867  0.7396
 3716SOL     OW12046   1.193   2.127   4.388  0.2802 -0.2150  0.3082
 3716SOL    HW112047   1.227   2.056   4.327  3.0620  0.4338  0.9392
 3716SOL    HW212048   1.094   2.138   4.377  0.0145 -3.1274 -0.8317
 3717SOL     OW12049   1.056   4.597   0.586 -0.8827  0.0495 -0.1506
 3717SOL    HW112050   1.110   4.652   0.650  0.2099  0.0589 -1.0522
 3717SOL    HW212051   1.071   4.500   0.604 -1.2523  0.0503  0.1624
 3718SOL     OW12052   1.828   2.144   2.885 -0.1494  0.2107 -0.4787
 3718SOL    HW112053   1.833   2.058   2.834 -0.0128  0.0378 -0.1777
 3718SOL    HW212054   1.861   2.219   2.828 -1.6691  0.3049 -1.2838
 3719SOL     OW12055   5.594   4.300   3.886 -0.3212 -0.5563 -0.8626
 3719SOL    HW112056   5.632   4.244   3.812  1.6914  1.3192 -1.3783
 3719SOL    HW212057   5.521   4.357   3.849  0.7791  0.4858 -1.5230
 3720SOL     OW12058   0.651   6.191   5.251  0.3115  0.2528  0.3374
 3720SOL    HW112059   0.743   6.157   5.273  0.9268  1.0743 -0.8516
 3720SOL    HW212060   0.658   6.284   5.216 -0.9172  0.1086 -0.3343
 3721SOL     OW12061   0.718   1.817   6.963 -0.4900  0.2444  0.9661
 3721SOL    HW112062   0.743   1.910   6.991 -1.0541  1.6233 -2.5234
 3721SOL    HW212063   0.801   1.762   6.956  0.2770  1.4273  0.2422
 3722SOL     OW12064   2.525   4.952   4.486 -0.1927 -0.4801 -0.1609
 3722SOL    HW112065   2.467   4.887   4.536 -1.0576  0.0461 -0.4575
 3722SOL    HW212066   2.603   4.904   4.447 -1.2986 -1.5365 -1.1592
 3723SOL     OW12067   4.811   3.547   0.534  0.2828 -0.1741 -0.4402
 3723SOL    HW112068   4.860   3.596   0.606  2.4469 -0.3410 -1.7372
 3723SOL    HW212069   4.785   3.611   0.462 -2.5042  0.1269  0.6995
 3724SOL     OW12070   4.859   4.464   1.296  0.9273  0.3733 -0.0581
 3724SOL    HW112071   4.903   4.552   1.279 -0.2614  1.8177  3.3590
 3724SOL    HW212072   4.907   4.417   1.370 -0.9186  0.2303  1.1270
 3725SOL     OW12073   1.122   6.246   2.461  0.2332  0.5880 -0.0309
 3725SOL    HW112074   1.071   6.279   2.539 -0.5634 -0.3451 -0.1407
 3725SOL    HW212075   1.210   6.292   2.456  0.3776  0.5102  1.5315
 3726SOL     OW12076   1.256   1.346   2.312 -0.0643 -0.8670 -0.1500
 3726SOL    HW112077   1.308   1.376   2.232  0.6682 -0.9490  0.2852
 3726SOL    HW212078   1.288   1.395   2.393 -0.6429 -0.9501  0.1319
 3727SOL     OW12079   2.890   1.831   3.197 -0.8212  0.3216  0.0884
 3727SOL    HW112080   2.870   1.920   3.237  0.7782 -0.2986  2.4815
 3727SOL    HW212081   2.972   1.838   3.139  0.6216  0.0859  1.9927
 3728SOL     OW12082   3.756   1.870   2.603  0.6030 -0.2964  0.5200
 3728SOL    HW112083   3.695   1.792   2.597  0.5515 -0.3182  1.2467
 3728SOL    HW212084   3.743   1.929   2.523  0.5534 -0.9564  0.0334
 3729SOL     OW12085   1.471   6.229   6.110  0.4859  0.2649  0.1247
 3729SOL    HW112086   1.509   6.309   6.157  1.0952 -0.2642  0.5621
 3729SOL    HW212087   1.446   6.160   6.179  0.4685 -0.1293 -0.2756
 3730SOL     OW12088   0.402   1.007   1.092  0.3181 -0.2146  0.4933
 3730SOL    HW112089   0.313   1.029   1.133  1.1874  0.4425  2.0828
 3730SOL    HW212090   0.472   1.069   1.128  1.0713  0.7929 -2.3955
 3731SOL     OW12091   0.048   0.588   4.961 -0.0662  0.0596 -0.0862
 3731SOL    HW112092   0.033   0.675   4.914 -0.2282 -1.2462 -2.6395
 3731SOL    HW212093  -0.039   0.540   4.972  0.2260 -0.5329 -0.3088
 3732SOL     OW12094   5.487   0.217   6.633 -0.4575  0.2186  0.0993
 3732SOL    HW112095   5.535   0.156   6.570 -1.4235  0.0749 -0.5349
 3732SOL    HW212096   5.399   0.176   6.659  0.4984 -0.3710  2.6921
 3733SOL     OW12097   3.794   6.841   5.463  0.1342  0.5192  0.3844
 3733SOL    HW112098   3.734   6.833   5.543  0.4177  1.0320  0.6513
 3733SOL    HW212099   3.768   6.922   5.410 -0.7279 -0.3826 -0.6227
 3734SOL     OW12100   3.908   1.271   0.297  0.1122 -0.4133 -0.2482
 3734SOL    HW112101   3.922   1.177   0.329 -2.6790 -0.3565  1.4401
 3734SOL    HW212102   3.937   1.278   0.201  5.2193 -1.5926  0.8945
 3735SOL     OW12103   1.778   5.372   6.245 -0.2729 -0.1689  0.3229
 3735SOL    HW112104   1.849   5.439   6.225 -0.4347 -0.0932  0.0105
 3735SOL    HW212105   1.816   5.302   6.306 -0.2663  0.5033  1.0983
 3736SOL     OW12106   6.913   4.285   4.391  0.1065 -0.3193  0.0775
 3736SOL    HW112107   6.842   4.354   4.373  1.7834  1.0585 -1.6341
 3736SOL    HW212108   6.956   4.258   4.306  2.4020 -0.2363  1.1335
 3737SOL     OW12109   2.498   6.505   4.829 -0.2659 -0.3507  0.6166
 3737SOL    HW112110   2.538   6.533   4.916  0.3955 -2.7794  1.1690
 3737SOL    HW212111   2.541   6.421   4.798 -0.4362  0.4918 -2.1446
 3738SOL     OW12112   6.736   3.967   6.078  0.1965 -0.8528 -0.1975
 3738SOL    HW112113   6.644   3.992   6.104  0.3879 -0.6936  0.3321
 3738SOL    HW212114   6.742   3.959   5.978  0.2163  1.5588 -0.4305
 3739SOL     OW12115   5.909   4.133   3.009 -0.2505 -0.5320 -0.6086
 3739SOL    HW112116   5.979   4.183   3.060  0.5737 -0.2470 -1.9774
 3739SOL    HW212117   5.822   4.182   3.013  0.1742  0.2317 -0.6753
 3740SOL     OW12118   4.605   4.524   3.091 -0.3581 -0.0756  0.1619
 3740SOL    HW112119   4.546   4.556   3.165 -0.6411  0.6815 -0.3728
 3740SOL    HW212120   4.560   4.540   3.003  0.8424  1.0148 -0.2940
 3741SOL     OW12121   0.285   1.869   6.702  0.5480 -0.8713  0.3407
 3741SOL    HW112122   0.215   1.885   6.632 -0.8812  0.6299  2.0171
 3741SOL    HW212123   0.370   1.838   6.658 -0.7167 -1.3936 -1.8832
 3742SOL     OW12124   6.921   4.483   5.428 -0.0610 -0.0195  0.0632
 3742SOL    HW112125   6.887   4.391   5.449  2.3627 -0.8220  0.7897
 3742SOL    HW212126   6.883   4.548   5.494  0.3933 -0.9995  1.3446
 3743SOL     OW12127   5.197   5.878   0.938  0.0667  0.1585 -0.3312
 3743SOL    HW112128   5.285   5.904   0.898  0.1054  0.4698 -0.0473
 3743SOL    HW212129   5.137   5.842   0.866 -0.5262  2.3930 -1.0590
 3744SOL     OW12130   3.790   5.665   0.151 -0.0644 -0.1982 -0.3613
 3744SOL    HW112131   3.837   5.601   0.212  0.0985  0.1063 -0.1652
 3744SOL    HW212132   3.711   5.620   0.109 -0.8611 -0.0767  0.9554
 3745SOL     OW12133   5.770   4.982   3.856 -0.3130 -0.0815 -0.0956
 3745SOL    HW112134   5.801   4.887   3.859 -0.3718 -0.0893  0.3568
 3745SOL    HW212135   5.730   5.007   3.945 -2.1137 -0.2526 -0.8104
 3746SOL     OW12136   2.176   5.132   6.490  0.1772  0.5857  0.0519
 3746SOL    HW112137   2.220   5.214   6.527 -3.1324  2.3775  0.4532
 3746SOL    HW212138   2.211   5.114   6.398  0.4272  3.0140 -0.4001
 3747SOL     OW12139   0.219   4.496   1.824 -0.4592 -0.3390  0.2602
 3747SOL    HW112140   0.161   4.515   1.745  0.0869  1.6639  0.2860
 3747SOL    HW212141   0.252   4.402   1.820 -1.5181 -0.6751 -1.1682
 3748SOL     OW12142   0.160   2.407   3.759 -0.0099  0.5444 -0.6960
 3748SOL    HW112143   0.207   2.477   3.812  2.0595 -2.4221  1.7661
 3748SOL    HW212144   0.103   2.352   3.820  0.3114 -1.3488 -2.0046
 3749SOL     OW12145   1.712   0.725   2.156  0.9411 -0.2986  0.5709
 3749SOL    HW112146   1.728   0.713   2.058 -1.9964 -0.1365 -0.0326
 3749SOL    HW212147   1.761   0.806   2.188 -0.9330  1.9524 -1.7313
 3750SOL     OW12148   5.331   4.960   6.342 -0.2188 -0.6109  0.3147
 3750SOL    HW112149   5.284   4.887   6.292  0.6576 -0.8555 -0.1709
 3750SOL    HW212150   5.430   4.945   6.336 -0.0016  0.9666 -0.3236
 3751SOL     OW12151   4.769   5.904   6.629  0.4633 -0.4086 -0.0775
 3751SOL    HW112152   4.825   5.823   6.646 -0.9218 -1.6554 -1.2419
 3751SOL    HW212153   4.692   5.880   6.571 -0.4433  1.5945  0.2153
 3752SOL     OW12154   2.130   0.442   6.188 -0.1840 -0.7771 -0.2192
 3752SOL    HW112155   2.130   0.470   6.284  0.0317 -0.5142 -0.2950
 3752SOL    HW212156   2.036   0.420   6.160 -0.4578  0.4537 -0.3229
 3753SOL     OW12157   5.720   5.019   1.675 -0.5848 -0.0941 -0.0844
 3753SOL    HW112158   5.646   5.081   1.649  0.8143  1.1138 -1.3027
 3753SOL    HW212159   5.715   4.937   1.619 -0.7044  0.2005 -0.5139
 3754SOL     OW12160   2.727   1.914   5.124  0.0605  0.2475  0.0799
 3754SOL    HW112161   2.663   1.840   5.103  0.5697 -0.1952  0.0624
 3754SOL    HW212162   2.817   1.891   5.088  0.3626  0.6074  0.5988
 3755SOL     OW12163   1.272   3.213   1.168  0.1995  0.6272  0.0709
 3755SOL    HW112164   1.249   3.182   1.260  0.9134 -0.7254 -0.1849
 3755SOL    HW212165   1.371   3.213   1.157  0.1956  2.3022 -0.2049
 3756SOL     OW12166   3.165   6.209   3.389  0.3233  0.2759 -0.3078
 3756SOL    HW112167   3.118   6.205   3.301  1.1623  0.0098 -0.7511
 3756SOL    HW212168   3.227   6.131   3.397  1.4331  1.1423 -0.1612
 3757SOL     OW12169   0.565   0.956   5.526 -0.1506 -0.4917 -0.3407
 3757SOL    HW112170   0.584   0.960   5.624 -2.4531 -1.6179  0.2173
 3757SOL    HW212171   0.520   0.870   5.504  0.4665 -0.3321 -2.4562
 3758SOL     OW12172   1.239   1.250   5.391 -0.4290  0.2046  0.5749
 3758SOL    HW112173   1.322   1.289   5.353  0.2535 -1.9952 -0.3458
 3758SOL    HW212174   1.262   1.193   5.470 -1.2892  0.9099  1.3611
 3759SOL     OW12175   0.690   2.530   3.717 -0.2369 -0.7363 -0.2850
 3759SOL    HW112176   0.659   2.463   3.649  0.7753 -0.3303 -1.1724
 3759SOL    HW212177   0.787   2.548   3.704 -0.0127 -0.6540  1.3047
 3760SOL     OW12178   2.175   2.874   3.664 -0.2512  0.3859  0.6289
 3760SOL    HW112179   2.139   2.798   3.720  3.5623 -0.9797  1.5191
 3760SOL    HW212180   2.143   2.961   3.703 -4.3585 -0.5569 -0.1342
 3761SOL     OW12181   6.801   4.232   6.351  0.2190  0.2752  0.2286
 3761SOL    HW112182   6.881   4.194   6.303  0.6248  0.1920  0.9533
 3761SOL    HW212183   6.730   4.255   6.285  0.4404 -0.6222 -0.3394
 3762SOL     OW12184   0.456   4.830   2.427 -0.4101 -0.0208 -0.0714
 3762SOL    HW112185   0.379   4.780   2.386  0.0854 -1.8519  1.0697
 3762SOL    HW212186   0.436   4.848   2.523  1.2919 -2.3583  0.8314
 3763SOL     OW12187   3.636   5.800   0.476 -0.5776  0.1798  0.5472
 3763SOL    HW112188   3.627   5.887   0.525  0.2771  1.5366 -1.5332
 3763SOL    HW212189   3.561   5.791   0.411 -0.5098 -0.5122  0.5627
 3764SOL     OW12190   1.722   0.635   6.812  0.2076 -0.5549 -0.1528
 3764SOL    HW112191   1.724   0.691   6.729 -0.8566  0.5838  0.5514
 3764SOL    HW212192   1.811   0.637   6.856  0.1690  0.7003 -0.0896
 3765SOL     OW12193   4.997   5.724   3.073 -0.1627 -0.2343  0.1703
 3765SOL    HW112194   4.971   5.628   3.064  0.7140 -0.5672  0.9682
 3765SOL    HW212195   4.968   5.774   2.992 -1.6944 -0.9193  0.2535
 3766SOL     OW12196   5.655   2.701   2.994 -0.6334 -0.3477  0.6733
 3766SOL    HW112197   5.604   2.630   3.043 -0.8553 -0.5704  0.1250
 3766SOL    HW212198   5.660   2.678   2.897 -0.1074  0.0410  0.6030
 3767SOL     OW12199   6.191   2.652   2.811 -0.1528 -0.0436 -0.3251
 3767SOL    HW112200   6.175   2.728   2.873 -0.4128  0.7547 -1.3507
 3767SOL    HW212201   6.104   2.614   2.780 -0.0256 -0.6369  0.0317
 3768SOL     OW12202   1.572   4.095   3.637 -0.2651 -0.0697  0.3468
 3768SOL    HW112203   1.501   4.117   3.571 -0.6532 -1.1500  0.3757
 3768SOL    HW212204   1.531   4.084   3.728 -0.0037 -0.2814  0.4418
 3769SOL     OW12205   5.307   1.945   5.912  0.6428 -0.1727  0.2188
 3769SOL    HW112206   5.405   1.960   5.917  0.5577 -0.0343  2.0976
 3769SOL    HW212207   5.277   1.888   5.988 -0.6444 -0.8792 -0.7573
 3770SOL     OW12208   5.451   5.943   2.325 -0.2157  0.2317 -0.5799
 3770SOL    HW112209   5.523   5.882   2.359  2.2322  3.7569  1.2285
 3770SOL    HW212210   5.481   5.987   2.240 -1.8531 -0.8145 -1.7575
 3771SOL     OW12211   1.062   3.602   0.346 -0.4005  0.7895  0.4771
 3771SOL    HW112212   0.995   3.650   0.403 -0.1084  0.8722  0.7530
 3771SOL    HW212213   1.015   3.536   0.287 -0.8103  1.4228  0.0830
 3772SOL     OW12214   0.676   1.036   6.440 -0.2281 -0.6196 -0.4105
 3772SOL    HW112215   0.696   1.039   6.342 -2.9620 -1.3434 -1.0887
 3772SOL    HW212216   0.617   0.957   6.459 -1.2912  0.5559  1.4792
 3773SOL     OW12217   2.172   1.331   4.671  0.0304  0.1843  0.0793
 3773SOL    HW112218   2.073   1.315   4.679  0.0803 -0.1063  0.1527
 3773SOL    HW212219   2.212   1.338   4.762  0.1218 -0.0057  0.0562
 3774SOL     OW12220   0.385   3.188   1.287 -0.1042  0.1590 -0.3999
 3774SOL    HW112221   0.365   3.211   1.382  1.2905  0.2076 -0.1045
 3774SOL    HW212222   0.483   3.193   1.271 -0.2553 -0.5137 -1.6768
 3775SOL     OW12223   0.949   6.863   2.114 -0.3328  0.1806 -0.1952
 3775SOL    HW112224   1.035   6.881   2.066 -0.4418 -1.9179 -1.2640
 3775SOL    HW212225   0.890   6.943   2.105  1.1203  1.3085 -0.2420
 3776SOL     OW12226   0.770   4.024   2.792 -0.1250 -0.4121 -0.1812
 3776SOL    HW112227   0.835   4.100   2.788  0.0438 -0.5571 -0.2161
 3776SOL    HW212228   0.691   4.051   2.847  0.4861 -0.6236  0.8295
 3777SOL     OW12229   4.258   6.631   6.733  0.5203  0.4393 -0.3980
 3777SOL    HW112230   4.256   6.622   6.833 -0.9185 -1.7672 -0.5580
 3777SOL    HW212231   4.165   6.638   6.699  0.9736  0.5773 -1.6448
 3778SOL     OW12232   0.807   0.494   0.779 -0.1582  0.0460  0.2832
 3778SOL    HW112233   0.759   0.573   0.742 -0.6727 -0.0820  0.6601
 3778SOL    HW212234   0.905   0.500   0.758 -0.2117  0.7278  0.2283
 3779SOL     OW12235   2.421   6.732   1.568  0.2921 -0.0027 -0.0014
 3779SOL    HW112236   2.384   6.802   1.628  0.0839  0.9571 -1.1936
 3779SOL    HW212237   2.508   6.699   1.604  0.8025  1.4812  0.1758
 3780SOL     OW12238   1.064   3.838   6.994  0.4528  0.1048  0.7006
 3780SOL    HW112239   1.006   3.782   6.935  2.0059 -0.5708 -0.2494
 3780SOL    HW212240   1.141   3.874   6.941  1.9444 -0.5815  2.2947
 3781SOL     OW12241   3.060   2.264   0.313  0.4258 -0.5584 -0.1358
 3781SOL    HW112242   3.120   2.308   0.380  0.5079  0.7463 -1.0199
 3781SOL    HW212243   3.025   2.333   0.250 -0.6190 -1.5741 -0.7052
 3782SOL     OW12244   5.834   3.377   3.886  0.2522 -0.1215 -0.1415
 3782SOL    HW112245   5.787   3.290   3.902  1.4883 -0.5828  1.2714
 3782SOL    HW212246   5.775   3.452   3.913 -0.6355 -0.5320 -0.8862
 3783SOL     OW12247   3.872   2.473   0.781 -0.4839  0.2181  0.3520
 3783SOL    HW112248   3.899   2.569   0.780  1.6941 -0.3228  0.8254
 3783SOL    HW212249   3.924   2.424   0.711  0.3503 -1.0454  1.8125
 3784SOL     OW12250   1.590   1.369   6.930 -1.0064  0.3093  0.7361
 3784SOL    HW112251   1.639   1.365   6.843 -2.1818  0.2944  0.0507
 3784SOL    HW212252   1.593   1.462   6.966  1.4990 -0.1608  1.9087
 3785SOL     OW12253   5.015   3.077   1.332  0.1262 -0.0097 -0.3567
 3785SOL    HW112254   4.925   3.043   1.359  0.7545 -1.6617 -0.2079
 3785SOL    HW212255   5.031   3.057   1.235  0.2664  0.4181 -0.4224
 3786SOL     OW12256   5.493   6.749   3.979 -0.4628  0.2520 -0.3903
 3786SOL    HW112257   5.539   6.701   3.905 -2.5031  0.4023 -1.8559
 3786SOL    HW212258   5.437   6.823   3.941  0.3066  1.9255  1.5443
 3787SOL     OW12259   1.443   2.367   4.129  0.5487 -0.1572 -0.2779
 3787SOL    HW112260   1.505   2.444   4.147  0.6715 -0.8498  2.8864
 3787SOL    HW212261   1.427   2.317   4.214 -2.9968 -1.0733 -1.3212
 3788SOL     OW12262   2.555   0.561   3.500 -0.3235 -0.0444 -0.3076
 3788SOL    HW112263   2.632   0.559   3.563  0.9663  0.5241 -1.8046
 3788SOL    HW212264   2.573   0.499   3.423 -0.9410  0.7935 -1.1434
 3789SOL     OW12265   3.100   3.978   4.988  0.1327  0.3904 -1.2899
 3789SOL    HW112266   3.014   3.929   5.002  0.3201  0.1764 -0.8556
 3789SOL    HW212267   3.133   4.014   5.076  1.5495 -1.3448 -1.0466
 3790SOL     OW12268   5.691   5.274   4.603  0.3263  0.2735 -0.4245
 3790SOL    HW112269   5.690   5.340   4.528  1.3821 -0.1978 -0.8695
 3790SOL    HW212270   5.637   5.310   4.679 -1.0680  0.5918 -1.5288
 3791SOL     OW12271   0.704   2.563   2.374 -0.5762 -0.0525  0.8954
 3791SOL    HW112272   0.675   2.614   2.455 -3.1107 -0.8735  0.5818
 3791SOL    HW212273   0.632   2.501   2.346  1.5264 -2.2228 -0.0810
 3792SOL     OW12274   4.038   1.509   3.935 -0.3229  0.6256 -0.0508
 3792SOL    HW112275   4.058   1.441   4.005  0.8691  0.5183 -0.4729
 3792SOL    HW212276   4.122   1.559   3.912 -0.6108  0.4136 -1.6510
 3793SOL     OW12277   0.984   2.506   3.633  0.1531 -0.3398 -0.0372
 3793SOL    HW112278   0.909   2.467   3.580 -1.2864 -1.0733  2.3830
 3793SOL    HW212279   1.019   2.587   3.586  0.0106 -1.7654 -2.7936
 3794SOL     OW12280   4.613   2.249   5.794  0.2677  0.7438 -0.6649
 3794SOL    HW112281   4.559   2.188   5.736  0.6746 -1.1378  0.8357
 3794SOL    HW212282   4.554   2.294   5.860  0.1847  0.6982 -0.7083
 3795SOL     OW12283   3.802   1.709   2.271 -0.0221  0.1795 -0.3196
 3795SOL    HW112284   3.826   1.690   2.175 -0.5362 -1.0160 -0.2268
 3795SOL    HW212285   3.785   1.807   2.282  2.1627  0.6901 -0.9596
 3796SOL     OW12286   5.057   0.032   4.238  0.8690  0.1994 -0.0051
 3796SOL    HW112287   4.972   0.085   4.227 -0.0521 -1.2986 -0.4491
 3796SOL    HW212288   5.100   0.019   4.149  1.5407  0.8827  0.2103
 3797SOL     OW12289   6.838   4.120   2.509  0.3763  0.2701  1.1237
 3797SOL    HW112290   6.923   4.071   2.528 -0.1819 -0.7591  0.9983
 3797SOL    HW212291   6.854   4.218   2.519  1.5868  0.0914  1.0627
 3798SOL     OW12292   2.585   5.102   1.284 -0.2102 -0.3647 -0.5302
 3798SOL    HW112293   2.488   5.078   1.285 -0.3281  0.1127 -0.6699
 3798SOL    HW212294   2.602   5.172   1.215  0.0223  0.4532  0.3483
 3799SOL     OW12295   2.751   4.634   1.076  0.4353  0.0661 -0.2855
 3799SOL    HW112296   2.782   4.545   1.045 -1.1598 -0.2371 -1.1193
 3799SOL    HW212297   2.666   4.623   1.128  0.8261  1.0000  0.5886
 3800SOL     OW12298   0.474   4.303   6.763 -0.2213 -0.3386 -0.1452
 3800SOL    HW112299   0.395   4.360   6.786 -0.6070 -0.6459 -0.7160
 3800SOL    HW212300   0.468   4.217   6.813  0.0977 -0.0949  0.3203
 3801SOL     OW12301   3.136   6.691   2.556  0.0194 -0.1794 -0.1560
 3801SOL    HW112302   3.164   6.745   2.477  1.0903 -0.4006  0.0603
 3801SOL    HW212303   3.207   6.694   2.626 -0.3593 -1.0128  0.2860
 3802SOL     OW12304   5.839   0.263   1.406 -0.0164 -0.2691  0.4371
 3802SOL    HW112305   5.895   0.197   1.456 -0.8243 -1.4677 -0.1777
 3802SOL    HW212306   5.748   0.267   1.448  0.2476  1.0161  0.9094
 3803SOL     OW12307   3.790   6.744   6.984  0.3619  0.0268  0.4909
 3803SOL    HW112308   3.767   6.824   7.038  1.0282  0.0056  0.8122
 3803SOL    HW212309   3.711   6.683   6.979 -0.3329  0.9639 -0.2344
 3804SOL     OW12310   4.232   1.465   0.779  0.5299  0.2611 -0.9413
 3804SOL    HW112311   4.297   1.510   0.841  1.3656  2.5643 -3.2852
 3804SOL    HW212312   4.277   1.390   0.732 -0.3772 -2.1496  1.7316
 3805SOL     OW12313   1.751   3.870   3.633  0.1040  0.1361  0.2446
 3805SOL    HW112314   1.696   3.802   3.682  1.4977  0.0810  1.8325
 3805SOL    HW212315   1.734   3.961   3.670  1.1633  0.0983  0.8512
 3806SOL     OW12316   6.032   1.839   1.872  0.5322 -0.3787 -0.3032
 3806SOL    HW112317   5.968   1.911   1.843 -0.5851 -1.8784 -1.7988
 3806SOL    HW212318   5.985   1.775   1.933  0.9894 -0.7911 -0.3734
 3807SOL     OW12319   6.198   0.182   4.854  0.1138 -0.2573 -0.0305
 3807SOL    HW112320   6.120   0.175   4.916  1.5398  1.1698  2.0280
 3807SOL    HW212321   6.183   0.257   4.790 -0.5957 -0.6088 -0.2913
 3808SOL     OW12322   4.232   2.175   0.090  0.0617  0.6633  0.6241
 3808SOL    HW112323   4.187   2.120   0.161  0.0309 -0.5769 -0.3184
 3808SOL    HW212324   4.299   2.236   0.132 -0.7759  0.7933  1.8184
 3809SOL     OW12325   5.138   3.888   4.167  0.7486  0.3702 -0.2151
 3809SOL    HW112326   5.106   3.795   4.150  2.5550 -0.3713  0.2395
 3809SOL    HW212327   5.189   3.920   4.087  2.7676 -0.2340  0.7837
 3810SOL     OW12328   0.188   3.397   4.755 -0.2352  0.0719  0.1848
 3810SOL    HW112329   0.179   3.419   4.658 -0.7944  0.1859  0.2614
 3810SOL    HW212330   0.285   3.388   4.778  0.0568  2.4681  0.1449
 3811SOL     OW12331   2.906   4.123   5.906  0.2644  0.1834  0.2951
 3811SOL    HW112332   2.956   4.046   5.944 -0.7120 -0.2969  0.6610
 3811SOL    HW212333   2.910   4.119   5.806 -0.5220 -0.8873  0.2833
 3812SOL     OW12334   0.113   1.508   2.026  0.1744  0.5647  0.6031
 3812SOL    HW112335   0.163   1.566   1.962 -1.2480  0.2204 -0.8940
 3812SOL    HW212336   0.178   1.456   2.082  1.4646  1.3818 -0.0853
 3813SOL     OW12337   6.044   1.446   3.383  0.4861  0.0044  0.0668
 3813SOL    HW112338   6.002   1.525   3.427  2.5928 -0.1434  2.5361
 3813SOL    HW212339   6.143   1.461   3.374  0.4509 -0.8031 -3.0131
 3814SOL     OW12340   6.530   2.081   3.823  0.6136  0.2134  0.2013
 3814SOL    HW112341   6.525   2.122   3.732  0.0188  1.5426  0.8179
 3814SOL    HW212342   6.625   2.072   3.851  0.8031 -0.3451 -0.6086
 3815SOL     OW12343   6.495   3.742   2.941  0.2601  0.5910 -0.6134
 3815SOL    HW112344   6.525   3.727   2.847  1.0321 -0.0054 -0.2800
 3815SOL    HW212345   6.575   3.748   3.001 -0.2317  0.7761  0.0344
 3816SOL     OW12346   2.088   3.151   6.639  0.1697 -0.0420  0.2819
 3816SOL    HW112347   2.021   3.126   6.569  0.8417  2.0099 -1.2029
 3816SOL    HW212348   2.152   3.075   6.653 -2.2142 -1.9431  1.5556
 3817SOL     OW12349   4.797   0.661   5.547 -0.4838 -0.2882  0.1889
 3817SOL    HW112350   4.860   0.726   5.590 -1.2486  0.0561  0.8302
 3817SOL    HW212351   4.843   0.574   5.533  0.2340  0.0587  0.3254
 3818SOL     OW12352   1.037   6.708   4.931  0.0613  0.5512 -0.1267
 3818SOL    HW112353   1.068   6.794   4.891  1.1934  0.8637  1.3558
 3818SOL    HW212354   0.994   6.653   4.860  1.9009  1.1052 -1.7724
 3819SOL     OW12355   0.372   0.349   5.288 -0.1193 -0.0578 -0.0109
 3819SOL    HW112356   0.320   0.434   5.285 -0.5079 -0.2805  0.2890
 3819SOL    HW212357   0.345   0.297   5.369  0.6083 -0.1531  0.1726
 3820SOL     OW12358   0.586   5.792   1.885 -0.0085  0.4137  0.4457
 3820SOL    HW112359   0.598   5.881   1.841 -0.4139  1.1134  1.6768
 3820SOL    HW212360   0.615   5.798   1.981  0.8814 -1.0625  0.3031
 3821SOL     OW12361   1.908   1.811   6.444 -0.0816 -0.5075  0.2541
 3821SOL    HW112362   1.854   1.860   6.375  1.8609 -0.6616 -1.4622
 3821SOL    HW212363   1.894   1.713   6.432  0.2773 -0.5346  0.0414
 3822SOL     OW12364   1.449   6.057   3.156  0.0545 -0.2186 -0.0343
 3822SOL    HW112365   1.358   6.014   3.163  0.2952 -0.9427 -1.0800
 3822SOL    HW212366   1.441   6.143   3.106 -0.1702  0.1265  0.5825
 3823SOL     OW12367   5.400   5.535   2.666 -0.2147  0.0623 -0.1100
 3823SOL    HW112368   5.329   5.525   2.736  1.0243 -1.3092  1.0468
 3823SOL    HW212369   5.359   5.525   2.575 -1.6777  0.6417  0.4501
 3824SOL     OW12370   0.242   4.460   0.455  0.1490 -0.0912  0.4024
 3824SOL    HW112371   0.220   4.379   0.400 -0.6298  0.9678 -0.9035
 3824SOL    HW212372   0.281   4.431   0.542 -0.5315 -1.8848  0.1593
 3825SOL     OW12373   0.434   1.579   3.278 -0.1108 -0.0101 -0.2897
 3825SOL    HW112374   0.347   1.577   3.229 -0.6733 -0.8201  0.6937
 3825SOL    HW212375   0.497   1.641   3.232 -1.2375  0.6701 -0.9691
 3826SOL     OW12376   6.671   0.158   6.937 -0.8967  0.0298  0.3499
 3826SOL    HW112377   6.758   0.185   6.978 -1.1018  0.0627  0.7650
 3826SOL    HW212378   6.688   0.092   6.863 -0.4558  0.6766 -0.1373
 3827SOL     OW12379   5.381   1.498   5.756  0.4722  0.2022 -0.5526
 3827SOL    HW112380   5.394   1.512   5.658  1.5743  0.4322 -0.3849
 3827SOL    HW212381   5.469   1.479   5.799 -0.2819 -2.3780  0.0364
 3828SOL     OW12382   1.702   2.062   1.909 -0.1462  0.0426  0.0694
 3828SOL    HW112383   1.616   2.014   1.889 -0.1701 -0.0028  0.2841
 3828SOL    HW212384   1.778   2.013   1.864 -0.2593  0.2205 -0.3229
 3829SOL     OW12385   2.307   2.503   3.898  0.4543 -0.7134 -0.0068
 3829SOL    HW112386   2.364   2.523   3.977 -2.7280  2.0973  1.8722
 3829SOL    HW212387   2.350   2.539   3.815  2.4971 -1.0525  0.8551
 3830SOL     OW12388   3.763   6.808   6.694 -0.3677  0.2093 -0.5141
 3830SOL    HW112389   3.786   6.782   6.788  0.2506  0.6695 -0.5322
 3830SOL    HW212390   3.776   6.906   6.682  0.1819  0.0572 -1.2512
 3831SOL     OW12391   5.632   1.447   4.497 -0.1010  0.1736 -0.6996
 3831SOL    HW112392   5.624   1.421   4.592  0.6457 -0.2329 -0.7382
 3831SOL    HW212393   5.676   1.537   4.491  0.9914 -0.3377 -0.6827
 3832SOL     OW12394   3.281   5.974   1.440  0.4759  0.3317 -0.3654
 3832SOL    HW112395   3.319   6.032   1.511  1.8422  0.0188 -0.8146
 3832SOL    HW212396   3.355   5.932   1.388 -0.4504 -1.8916 -0.0009
 3833SOL     OW12397   1.191   6.798   0.744  0.2499  0.0718 -0.5177
 3833SOL    HW112398   1.265   6.732   0.761 -0.0030 -0.4187 -1.2685
 3833SOL    HW212399   1.158   6.787   0.650 -0.3298  0.7402 -0.3967
 3834SOL     OW12400   2.018   1.939   2.501  0.5127  0.1469  0.4049
 3834SOL    HW112401   1.919   1.956   2.502  0.3240 -0.8639  0.7190
 3834SOL    HW212402   2.047   1.906   2.590  1.3854  1.6370  0.6956
 3835SOL     OW12403   2.969   3.396   6.718  0.0234 -0.5700 -0.2430
 3835SOL    HW112404   2.930   3.304   6.709  2.8362 -1.9695  0.7869
 3835SOL    HW212405   2.945   3.434   6.808  2.6450 -2.3592  1.3306
 3836SOL     OW12406   5.198   4.705   4.076  0.2831 -0.4537  0.1635
 3836SOL    HW112407   5.158   4.763   4.005  0.4793 -0.0235  0.3995
 3836SOL    HW212408   5.187   4.749   4.165  0.2627 -0.8702  0.3683
 3837SOL     OW12409   6.365   5.148   0.293  0.0761 -0.1052 -0.3314
 3837SOL    HW112410   6.279   5.118   0.252 -0.4106 -1.7211  1.7023
 3837SOL    HW212411   6.364   5.247   0.305 -1.0606  0.0116 -1.2520
 3838SOL     OW12412   2.243   3.023   3.208 -0.2816  0.1679 -0.2680
 3838SOL    HW112413   2.316   3.072   3.254 -0.1971  0.3419 -0.5837
 3838SOL    HW212414   2.220   3.069   3.122 -0.9244  0.2523 -0.0580
 3839SOL     OW12415   6.474   1.148   4.829 -0.4262  0.3407  0.1100
 3839SOL    HW112416   6.538   1.136   4.753  1.2223 -1.1670  1.6608
 3839SOL    HW212417   6.459   1.246   4.844  1.6888  0.7607 -0.1893
 3840SOL     OW12418   5.444   3.668   0.525 -0.3121  0.2595  0.2908
 3840SOL    HW112419   5.402   3.759   0.531 -0.5051  0.2640 -0.9023
 3840SOL    HW212420   5.376   3.601   0.496  0.2747  0.0927 -0.7269
 3841SOL     OW12421   0.518   1.840   6.100  0.1755 -0.1091 -0.0749
 3841SOL    HW112422   0.513   1.920   6.158 -2.1264  0.8000 -1.3841
 3841SOL    HW212423   0.562   1.864   6.013  1.4424 -0.8468  0.3396
 3842SOL     OW12424   5.871   5.555   1.315 -0.5351 -0.7566  0.5358
 3842SOL    HW112425   5.870   5.655   1.316  4.7387 -0.3441  3.6869
 3842SOL    HW212426   5.814   5.521   1.389 -0.7654  0.0443  0.7402
 3843SOL     OW12427   4.429   2.360   0.156  0.1737  0.0150  0.3343
 3843SOL    HW112428   4.368   2.437   0.137 -0.5509 -0.3574  1.1091
 3843SOL    HW212429   4.488   2.345   0.077 -1.2856 -0.1335 -0.7764
 3844SOL     OW12430   2.932   3.458   1.971  0.1905  0.0942  0.2059
 3844SOL    HW112431   2.926   3.558   1.976 -0.9182  0.0839 -0.4725
 3844SOL    HW212432   2.984   3.424   2.049 -0.0802  1.1491  0.8795
 3845SOL     OW12433   4.180   5.854   6.425 -0.5663 -0.5491 -0.2588
 3845SOL    HW112434   4.264   5.804   6.404 -1.1033 -1.7415  0.3916
 3845SOL    HW212435   4.124   5.862   6.342 -0.2572 -0.5752 -0.4717
 3846SOL     OW12436   1.037   0.369   4.578  0.0217  0.1456 -0.1582
 3846SOL    HW112437   1.133   0.344   4.579 -0.2593 -1.1931 -1.8565
 3846SOL    HW212438   1.024   0.446   4.515 -0.2183 -0.8262 -1.3438
 3847SOL     OW12439   2.196   0.509   6.723  0.1050 -0.4955  0.1834
 3847SOL    HW112440   2.203   0.586   6.787  0.9103  0.4075 -0.9499
 3847SOL    HW212441   2.264   0.440   6.746 -0.8353 -1.0497  1.4062
 3848SOL     OW12442   6.905   3.001   3.329  0.6093 -0.8639  0.2331
 3848SOL    HW112443   6.850   3.084   3.340  1.5124 -0.4664  2.2394
 3848SOL    HW212444   6.854   2.923   3.364  0.2661 -0.9550 -0.4567
 3849SOL     OW12445   0.371   0.460   0.244 -0.2136  0.4706  0.7457
 3849SOL    HW112446   0.321   0.530   0.194  0.1667 -0.3390 -0.8380
 3849SOL    HW212447   0.375   0.484   0.341 -2.6847  1.1030  0.7427
 3850SOL     OW12448   0.109   1.627   0.260 -0.3230  0.6169 -0.2396
 3850SOL    HW112449   0.201   1.592   0.278 -0.0155 -0.0251 -2.7544
 3850SOL    HW212450   0.110   1.727   0.263  0.8706  0.6877 -1.8164
 3851SOL     OW12451   5.299   1.764   3.678 -0.6111  0.4457 -0.2061
 3851SOL    HW112452   5.328   1.726   3.766  0.7630  1.6539 -0.1078
 3851SOL    HW212453   5.276   1.860   3.689 -1.1454  0.4188 -1.0297
 3852SOL     OW12454   3.031   5.625   2.660 -0.2704  0.4653 -0.0281
 3852SOL    HW112455   3.016   5.724   2.656  0.2962  0.5264 -0.9999
 3852SOL    HW212456   3.126   5.604   2.638 -0.5377 -0.3309 -0.4829
 3853SOL     OW12457   2.847   6.979   6.546 -0.6076  0.6672 -0.2857
 3853SOL    HW112458   2.801   6.925   6.476 -1.9614 -0.5140  1.4548
 3853SOL    HW212459   2.789   6.987   6.626  2.0943 -0.6863  1.9614
 3854SOL     OW12460   5.984   1.344   0.782  0.1353  0.3906  0.3127
 3854SOL    HW112461   5.980   1.429   0.835 -1.9652  0.6620 -0.2247
 3854SOL    HW212462   5.958   1.362   0.687 -0.0772 -0.8037  0.1297
 3855SOL     OW12463   6.995   6.499   3.931 -0.5670  0.5452  0.1730
 3855SOL    HW112464   6.919   6.435   3.935 -1.1523  1.2415  0.2331
 3855SOL    HW212465   7.072   6.456   3.883 -1.1190 -0.0184 -0.2198
 3856SOL     OW12466   0.253   1.653   1.862  0.4470 -0.8864  0.1098
 3856SOL    HW112467   0.285   1.719   1.930 -2.3762  0.8012 -0.0403
 3856SOL    HW212468   0.321   1.582   1.850  4.0176  2.2648 -0.1469
 3857SOL     OW12469   0.729   4.823   2.345 -0.1478 -0.1736 -0.1849
 3857SOL    HW112470   0.796   4.836   2.418  0.0706  1.6537 -0.6740
 3857SOL    HW212471   0.638   4.845   2.380 -0.1616 -0.1908 -0.2102
 3858SOL     OW12472   6.015   2.516   1.183  0.5062 -0.8186 -0.4071
 3858SOL    HW112473   5.977   2.450   1.249 -1.2154 -1.1690 -1.6667
 3858SOL    HW212474   5.990   2.488   1.091  2.0809  0.1696 -1.1635
 3859SOL     OW12475   6.201   1.149   2.703  0.5460  0.1124  0.2289
 3859SOL    HW112476   6.277   1.187   2.650  2.1555 -1.9204  0.8982
 3859SOL    HW212477   6.138   1.221   2.729 -0.3193  1.2830 -4.2799
 3860SOL     OW12478   4.850   5.496   6.006 -0.3971  0.0504  0.1484
 3860SOL    HW112479   4.905   5.552   5.945  1.6273 -0.2539  1.5515
 3860SOL    HW212480   4.899   5.410   6.024 -2.2365 -1.0587  0.0232
 3861SOL     OW12481   2.448   1.634   3.810  0.2779 -0.6021 -0.0764
 3861SOL    HW112482   2.354   1.666   3.804 -0.4552 -2.2337  1.6616
 3861SOL    HW212483   2.508   1.696   3.759 -1.6105  0.8885 -0.5969
 3862SOL     OW12484   6.886   3.304   1.868  0.1409  0.1280  0.0067
 3862SOL    HW112485   6.979   3.295   1.906  0.0998  0.0589  0.0910
 3862SOL    HW212486   6.823   3.250   1.923 -0.3308  1.8564  1.2713
 3863SOL     OW12487   0.812   5.759   2.382  0.3503 -0.3753 -0.7224
 3863SOL    HW112488   0.906   5.727   2.396  0.6771  0.4044 -1.0657
 3863SOL    HW212489   0.751   5.680   2.373  0.4933 -0.9648  2.3272
 3864SOL     OW12490   6.393   3.440   0.471  0.2879  0.4381 -0.5680
 3864SOL    HW112491   6.351   3.432   0.561  0.0243  0.2103 -0.7075
 3864SOL    HW212492   6.365   3.361   0.415 -0.5428  1.1918 -1.2487
 3865SOL     OW12493   6.845   6.742   0.314  0.6387  0.3953 -0.6240
 3865SOL    HW112494   6.932   6.696   0.296  0.7593  0.3534  0.0494
 3865SOL    HW212495   6.848   6.785   0.404 -0.1494  0.1347 -0.4685
 3866SOL     OW12496   2.523   2.215   6.485  0.4015 -0.1107 -0.0736
 3866SOL    HW112497   2.559   2.305   6.461 -1.9693  1.3670  1.5001
 3866SOL    HW212498   2.501   2.165   6.402  0.8722  1.1560 -0.9911
 3867SOL     OW12499   5.778   4.436   1.002 -0.0137 -0.3714 -0.4193
 3867SOL    HW112500   5.769   4.338   1.018  1.3888 -0.6024 -0.9296
 3867SOL    HW212501   5.692   4.481   1.026 -0.5973 -1.6795  0.0655
 3868SOL     OW12502   4.065   3.415   2.822 -0.1532 -0.0275 -0.3147
 3868SOL    HW112503   4.023   3.503   2.842 -0.8876 -0.7475  1.5235
 3868SOL    HW212504   4.127   3.389   2.897 -0.6928 -1.5011 -0.3362
 3869SOL     OW12505   4.406   1.684   4.648 -0.0244  0.3021 -0.4475
 3869SOL    HW112506   4.477   1.617   4.627 -0.4197 -0.1703 -0.2951
 3869SOL    HW212507   4.353   1.704   4.566 -1.5414 -1.5112  0.0199
 3870SOL     OW12508   3.378   0.620   1.109 -0.3603  0.3185 -0.2107
 3870SOL    HW112509   3.336   0.694   1.163 -2.0195 -0.7071 -0.0158
 3870SOL    HW212510   3.426   0.659   1.031 -0.1230  1.6714  0.5747
 3871SOL     OW12511   4.496   2.456   2.323  0.0069  0.4034  0.8929
 3871SOL    HW112512   4.527   2.505   2.241 -1.0479  0.6007  0.5871
 3871SOL    HW212513   4.527   2.504   2.405 -2.2112  2.4689  0.6216
 3872SOL     OW12514   2.290   2.921   3.943 -0.1302  0.4097  0.4500
 3872SOL    HW112515   2.226   2.951   3.872  2.3516  0.2262 -2.0092
 3872SOL    HW212516   2.349   2.997   3.969  0.1608 -0.0014  0.9993
 3873SOL     OW12517   5.294   3.610   5.211 -0.5327 -0.2227  0.0382
 3873SOL    HW112518   5.320   3.681   5.277 -1.1433  0.1343 -0.0985
 3873SOL    HW212519   5.208   3.635   5.167  0.1445 -0.1753 -1.3119
 3874SOL     OW12520   3.767   5.965   2.751 -0.1712 -0.6531 -0.1257
 3874SOL    HW112521   3.751   5.907   2.831 -0.7598  0.9969  0.9995
 3874SOL    HW212522   3.788   6.058   2.781 -2.4131  0.5172 -1.9165
 3875SOL     OW12523   4.409   6.473   3.903  0.0489  0.6523  0.5349
 3875SOL    HW112524   4.310   6.475   3.914  0.0026 -0.9136  0.5952
 3875SOL    HW212525   4.434   6.508   3.813 -0.6544  0.0266  0.0866
 3876SOL     OW12526   0.522   2.211   3.842 -0.4200 -0.7283 -0.3526
 3876SOL    HW112527   0.579   2.132   3.863  0.7664  0.5849  1.7615
 3876SOL    HW212528   0.555   2.256   3.759  0.5406 -0.9745 -0.1057
 3877SOL     OW12529   3.623   4.129   6.423 -0.4596  0.4731 -0.2012
 3877SOL    HW112530   3.533   4.088   6.436 -0.1922 -0.0779 -0.0733
 3877SOL    HW212531   3.624   4.221   6.462 -1.1943  0.7815 -0.8725
 3878SOL     OW12532   4.355   6.673   6.470 -0.1186  0.0535 -0.5891
 3878SOL    HW112533   4.366   6.772   6.478  0.9528 -0.1351  0.5596
 3878SOL    HW212534   4.340   6.634   6.561  2.0887 -1.0952 -0.6415
 3879SOL     OW12535   4.019   3.904   2.951 -0.3043 -0.0691  0.3361
 3879SOL    HW112536   4.115   3.932   2.952 -0.1106 -0.6860  1.8462
 3879SOL    HW212537   3.987   3.892   3.045 -1.1247 -2.2392 -0.1607
 3880SOL     OW12538   6.352   6.579   3.853  0.0126 -0.2638  0.5756
 3880SOL    HW112539   6.385   6.555   3.762 -0.0881  1.4039  0.0548
 3880SOL    HW212540   6.404   6.657   3.887 -1.5491  0.6849  0.8928
 3881SOL     OW12541   0.392   2.920   3.947 -0.0380  0.1679  0.0803
 3881SOL    HW112542   0.439   2.998   3.905  0.5191 -0.8710 -1.2832
 3881SOL    HW212543   0.412   2.919   4.045  2.0829  0.2722 -0.2987
 3882SOL     OW12544   0.076   5.811   2.124  0.3219 -0.5622  1.0787
 3882SOL    HW112545   0.095   5.743   2.194 -2.1240 -1.7005  0.7427
 3882SOL    HW212546  -0.022   5.813   2.105  0.7283  0.6637 -1.3652
 3883SOL     OW12547   1.466   0.419   2.760  0.2609 -0.1828  0.4279
 3883SOL    HW112548   1.458   0.330   2.805 -1.6453  0.3761  1.3193
 3883SOL    HW212549   1.535   0.475   2.807  3.0217 -1.8305 -1.4054
 3884SOL     OW12550   0.175   0.649   2.159 -0.5865  0.0361 -0.3053
 3884SOL    HW112551   0.186   0.649   2.259 -0.6095 -0.7461 -0.2945
 3884SOL    HW212552   0.079   0.663   2.137 -0.6728 -0.3445 -0.1926
 3885SOL     OW12553   1.978   5.530   5.140 -0.1351  0.3181  0.2729
 3885SOL    HW112554   1.943   5.501   5.051 -1.2584 -1.1929  1.1557
 3885SOL    HW212555   1.963   5.628   5.151 -1.5341  0.2218 -0.5466
 3886SOL     OW12556   2.498   6.760   3.476 -0.7104  0.1377 -0.3541
 3886SOL    HW112557   2.565   6.695   3.513 -2.3386 -1.1356  0.5208
 3886SOL    HW212558   2.545   6.842   3.444  1.2780 -0.8397 -0.0961
 3887SOL     OW12559   3.266   3.225   6.599 -0.6529 -0.0947 -0.1385
 3887SOL    HW112560   3.300   3.319   6.588 -0.5078 -0.0108  0.9229
 3887SOL    HW212561   3.173   3.220   6.562 -1.8396  1.2689  2.3689
 3888SOL     OW12562   3.029   5.566   0.138 -0.0356 -0.9323  0.3717
 3888SOL    HW112563   2.998   5.595   0.048  2.3107 -1.2732 -0.6011
 3888SOL    HW212564   2.999   5.472   0.155 -1.8723 -0.3311  0.6877
 3889SOL     OW12565   2.459   1.916   2.050  0.0603 -0.6646  0.2450
 3889SOL    HW112566   2.549   1.947   2.080 -1.2415  1.3801  2.3467
 3889SOL    HW212567   2.425   1.976   1.978  0.3559 -1.4806 -0.6004
 3890SOL     OW12568   2.684   4.829   6.305 -0.1164 -0.2859  0.4319
 3890SOL    HW112569   2.780   4.814   6.328  0.0132 -1.1213 -0.5721
 3890SOL    HW212570   2.643   4.742   6.275 -0.0349  0.8131 -3.2753
 3891SOL     OW12571   1.960   3.614   5.679  0.1804 -0.0159 -0.3076
 3891SOL    HW112572   2.026   3.575   5.743  1.0519 -0.0181 -1.2030
 3891SOL    HW212573   1.872   3.624   5.726  0.9160  0.4483  1.0499
 3892SOL     OW12574   5.644   1.815   5.371 -0.3049  0.2369  0.2535
 3892SOL    HW112575   5.596   1.833   5.456  1.0782 -3.7904  2.1483
 3892SOL    HW212576   5.728   1.870   5.366 -0.3822  0.4807  1.5240
 3893SOL     OW12577   4.827   4.720   3.994  0.3569 -0.7283  0.5404
 3893SOL    HW112578   4.910   4.717   3.938  0.6358 -0.9205  0.9655
 3893SOL    HW212579   4.781   4.808   3.980  0.6128 -0.6324  0.2844
 3894SOL     OW12580   4.131   3.473   0.248  0.1427 -0.4298 -0.2183
 3894SOL    HW112581   4.154   3.448   0.342 -0.0344  2.0736  0.5678
 3894SOL    HW212582   4.216   3.483   0.195  0.4823  1.0294  0.5293
 3895SOL     OW12583   6.160   1.494   2.113 -0.3768  0.0648  0.4749
 3895SOL    HW112584   6.260   1.487   2.122 -0.0858  1.5203 -1.0393
 3895SOL    HW212585   6.129   1.579   2.156 -0.9088 -0.1749  0.5647
 3896SOL     OW12586   2.696   6.569   4.573  0.2566  0.0011 -0.2066
 3896SOL    HW112587   2.620   6.507   4.593  0.3901 -0.1849 -0.2736
 3896SOL    HW212588   2.719   6.621   4.655 -0.0596  0.1859 -0.2332
 3897SOL     OW12589   5.534   2.811   6.441 -0.0660 -0.1916  0.2321
 3897SOL    HW112590   5.564   2.888   6.383  0.6860 -0.4293  0.2896
 3897SOL    HW212591   5.607   2.743   6.445 -0.0076 -0.0601  1.6841
 3898SOL     OW12592   2.923   0.889   0.808  0.9898  0.0160  0.5958
 3898SOL    HW112593   2.947   0.980   0.774  2.1096 -0.4151  0.1609
 3898SOL    HW212594   2.884   0.835   0.733  0.9311 -0.0683  0.6872
 3899SOL     OW12595   1.331   4.596   3.932 -0.6244  0.5353  0.4007
 3899SOL    HW112596   1.326   4.531   4.008 -2.5411 -0.6052 -0.6081
 3899SOL    HW212597   1.356   4.686   3.967  1.6036 -0.5881  1.9091
 3900SOL     OW12598   0.219   2.149   3.361 -0.1337 -0.5342 -0.8557
 3900SOL    HW112599   0.259   2.217   3.423  0.5894 -3.2179  1.8563
 3900SOL    HW212600   0.120   2.157   3.361 -0.4507 -2.2282  3.1822
 3901SOL     OW12601   3.147   4.050   2.310  0.4627  0.1408 -0.0214
 3901SOL    HW112602   3.124   4.030   2.405 -1.5034  0.6841 -0.3294
 3901SOL    HW212603   3.245   4.067   2.302  0.7973 -0.7529  1.7371
 3902SOL     OW12604   5.400   6.472   5.668 -0.4335  0.5053  0.4357
 3902SOL    HW112605   5.344   6.429   5.597 -0.2198  0.9705 -0.0162
 3902SOL    HW212606   5.388   6.571   5.664  2.9255  0.9417 -1.8359
 3903SOL     OW12607   2.119   1.743   0.169 -0.1757  0.4143  0.1206
 3903SOL    HW112608   2.144   1.788   0.255 -1.9960  1.0743  0.3532
 3903SOL    HW212609   2.201   1.728   0.114  0.7479  2.1577  0.9416
 3904SOL     OW12610   2.720   1.487   0.480  0.0307  0.4021 -0.4772
 3904SOL    HW112611   2.817   1.465   0.480  0.0876  0.6531 -0.4107
 3904SOL    HW212612   2.674   1.435   0.408 -0.3120 -1.9862  1.3331
 3905SOL     OW12613   6.127   5.827   3.364 -0.1991  0.2025  0.6017
 3905SOL    HW112614   6.153   5.818   3.268 -1.3201 -0.6844  0.3551
 3905SOL    HW212615   6.158   5.746   3.414 -2.3284 -0.8961  0.2967
 3906SOL     OW12616   6.906   2.637   5.165 -0.0661  0.4608  0.4579
 3906SOL    HW112617   6.902   2.675   5.257  0.3320  1.4214  0.0865
 3906SOL    HW212618   6.902   2.537   5.170  0.8416  0.4604  1.5747
 3907SOL     OW12619   1.295   0.482   0.611 -0.5091  0.0604  0.3799
 3907SOL    HW112620   1.390   0.511   0.598 -1.0601  1.5300 -0.6964
 3907SOL    HW212621   1.279   0.396   0.563  0.1605  0.0487  0.1719
 3908SOL     OW12622   2.081   0.564   3.916 -0.3422 -0.3743 -0.3760
 3908SOL    HW112623   2.035   0.605   3.837 -1.7072 -1.1277 -0.0192
 3908SOL    HW212624   2.179   0.583   3.912 -0.2697 -0.9584 -2.6157
 3909SOL     OW12625   4.694   1.708   2.830  0.8430 -0.4344 -0.8108
 3909SOL    HW112626   4.751   1.775   2.781  0.9912 -0.4672 -0.6875
 3909SOL    HW212627   4.672   1.744   2.921  1.5367 -0.8584 -0.4646
 3910SOL     OW12628   3.134   0.536   5.614 -0.1035  0.3553  0.0434
 3910SOL    HW112629   3.175   0.449   5.585  1.1214 -0.0704  2.7748
 3910SOL    HW212630   3.035   0.527   5.619 -0.0899 -0.4706 -0.8551
 3911SOL     OW12631   5.347   1.060   3.286 -0.1686  0.9417  0.1462
 3911SOL    HW112632   5.284   1.053   3.209 -0.9636 -0.9324  0.9173
 3911SOL    HW212633   5.307   1.017   3.367  1.0802  1.9212  1.3439
 3912SOL     OW12634   1.368   1.203   4.999 -0.9422  0.1181 -0.0516
 3912SOL    HW112635   1.281   1.163   5.026 -0.4299 -1.3138 -0.4498
 3912SOL    HW212636   1.381   1.190   4.901  0.8533 -1.9888  0.4129
 3913SOL     OW12637   0.660   1.093   6.030 -0.1537  0.0799 -0.4469
 3913SOL    HW112638   0.732   1.147   5.986  0.5898 -0.1067  0.5180
 3913SOL    HW212639   0.588   1.153   6.063 -0.6995  0.2324 -1.8282
 3914SOL     OW12640   6.646   4.970   3.544  0.0593 -0.1535  0.4018
 3914SOL    HW112641   6.645   5.069   3.530 -2.3095 -0.3736 -1.6010
 3914SOL    HW212642   6.701   4.926   3.474 -1.3990 -0.3989 -0.6448
 3915SOL     OW12643   4.628   1.496   4.682 -0.4169  0.0283  0.0830
 3915SOL    HW112644   4.640   1.546   4.596  1.7614  0.3071  0.4841
 3915SOL    HW212645   4.570   1.416   4.666 -1.0867  0.7546 -1.3512
 3916SOL     OW12646   5.663   4.115   1.800 -0.1861 -0.0231  0.5495
 3916SOL    HW112647   5.601   4.174   1.747  0.4970  0.8217  0.6747
 3916SOL    HW212648   5.707   4.050   1.738  1.3043  1.5538 -0.1331
 3917SOL     OW12649   5.755   1.522   5.794 -0.5155  0.2237  0.0717
 3917SOL    HW112650   5.698   1.440   5.789 -1.9968  1.1955  0.4927
 3917SOL    HW212651   5.783   1.549   5.702 -1.1037 -0.0197 -0.1802
 3918SOL     OW12652   5.617   4.224   0.636 -0.3975 -0.5971 -0.4644
 3918SOL    HW112653   5.622   4.311   0.685  0.3136 -0.8645 -0.0545
 3918SOL    HW212654   5.637   4.238   0.539 -0.2595 -0.3083 -0.3933
 3919SOL     OW12655   2.483   1.703   3.423 -0.3432 -0.4479  0.0799
 3919SOL    HW112656   2.531   1.734   3.505 -0.5433  0.1826 -0.0408
 3919SOL    HW212657   2.470   1.604   3.428  1.5077 -0.7571 -0.1595
 3920SOL     OW12658   4.617   5.171   4.280  0.3812  0.3013 -0.8993
 3920SOL    HW112659   4.564   5.111   4.341 -2.0196  1.1858 -1.9956
 3920SOL    HW212660   4.674   5.232   4.335  0.2274 -0.6316  0.3417
 3921SOL     OW12661   2.848   6.519   6.291 -0.4617 -0.4044  0.2250
 3921SOL    HW112662   2.863   6.483   6.199 -1.3876 -2.5843  0.8667
 3921SOL    HW212663   2.924   6.492   6.350 -0.9480 -0.9317  0.6155
 3922SOL     OW12664   1.622   1.886   4.643  0.2546 -0.2158  0.3199
 3922SOL    HW112665   1.654   1.796   4.672  0.8175 -0.1404 -0.0505
 3922SOL    HW212666   1.621   1.949   4.721 -0.8105 -0.7189  0.7339
 3923SOL     OW12667   2.540   1.424   4.421 -0.3826 -0.4310  0.0788
 3923SOL    HW112668   2.451   1.387   4.396  0.7414 -1.5214 -2.7641
 3923SOL    HW212669   2.581   1.468   4.341  2.0336 -0.8901  0.9795
 3924SOL     OW12670   0.394   0.006   0.454 -0.1097 -0.0064 -0.0642
 3924SOL    HW112671   0.414   0.071   0.380  0.4474 -0.4018 -0.2623
 3924SOL    HW212672   0.316  -0.051   0.428 -1.6542  1.6050  0.7542
 3925SOL     OW12673   6.012   3.000   3.623 -0.6385  0.2440 -0.0510
 3925SOL    HW112674   6.058   2.971   3.707  0.1264  1.3631 -0.0644
 3925SOL    HW212675   6.078   2.999   3.548 -1.4266 -1.1777 -0.7469
 3926SOL     OW12676   6.587   6.240   3.652  0.2116  0.1269 -0.6517
 3926SOL    HW112677   6.583   6.168   3.583  0.2532 -0.3239 -0.1892
 3926SOL    HW212678   6.498   6.250   3.696  0.6221 -0.7766  0.4192
 3927SOL     OW12679   0.085   1.532   4.126 -0.0656  0.2189 -0.0177
 3927SOL    HW112680   0.052   1.552   4.034  0.7954 -0.4800 -0.4875
 3927SOL    HW212681   0.037   1.452   4.162  1.4972 -1.1818 -0.9456
 3928SOL     OW12682   3.702   5.789   5.276  0.7265 -0.2641 -0.6218
 3928SOL    HW112683   3.778   5.800   5.212  2.3238 -0.5953  1.1110
 3928SOL    HW212684   3.730   5.726   5.349 -0.8670  0.4253  0.6317
 3929SOL     OW12685   3.170   2.855   2.063  0.1392 -0.2770 -0.0464
 3929SOL    HW112686   3.132   2.789   1.999  0.6571 -0.9167  0.3000
 3929SOL    HW212687   3.131   2.945   2.045 -1.7977 -0.9655  0.5391
 3930SOL     OW12688   2.436   4.117   5.432 -0.2667 -0.0689 -0.1495
 3930SOL    HW112689   2.434   4.217   5.426  0.6743  0.0695  1.3864
 3930SOL    HW212690   2.418   4.078   5.341  2.5885  1.5406 -1.5428
 3931SOL     OW12691   0.859   6.334   2.976  0.2328 -0.5352 -0.2302
 3931SOL    HW112692   0.902   6.371   2.894 -0.6780  0.0259 -0.4740
 3931SOL    HW212693   0.918   6.351   3.055  1.4869 -1.7898 -0.8592
 3932SOL     OW12694   6.407   2.206   1.790  0.0463  0.1451 -0.0126
 3932SOL    HW112695   6.345   2.144   1.839 -0.7297  0.9028 -0.0078
 3932SOL    HW212696   6.359   2.245   1.711  0.5704  0.6231 -0.0949
 3933SOL     OW12697   3.022   6.886   0.380  0.2283 -0.0863 -0.1325
 3933SOL    HW112698   3.039   6.797   0.422 -0.1318  0.8056  2.0204
 3933SOL    HW212699   3.020   6.957   0.450 -1.0534  1.4269 -1.5933
 3934SOL     OW12700   3.561   0.421   3.527 -0.8565  0.1541 -0.1910
 3934SOL    HW112701   3.533   0.398   3.620  1.0081  0.3257  0.4558
 3934SOL    HW212702   3.481   0.452   3.475 -1.6828  1.8297  1.8875
 3935SOL     OW12703   3.023   2.602   6.089  0.1079  0.3333  0.5682
 3935SOL    HW112704   2.929   2.618   6.057  0.4209  0.9177 -0.0883
 3935SOL    HW212705   3.087   2.622   6.015  0.8450  1.5788  1.5062
 3936SOL     OW12706   1.907   5.911   0.190  0.0644 -0.4559  0.0716
 3936SOL    HW112707   1.999   5.881   0.215  0.4272  0.1354 -0.5394
 3936SOL    HW212708   1.886   5.882   0.097  0.4749  1.2513 -0.5839
 3937SOL     OW12709   3.528   4.629   5.340 -0.4271 -0.6486  0.1665
 3937SOL    HW112710   3.462   4.559   5.366 -1.3967  0.0238 -0.4355
 3937SOL    HW212711   3.620   4.600   5.368 -1.1307 -0.9315  2.3654
 3938SOL     OW12712   2.220   6.694   3.071 -0.1191  0.1553  0.1680
 3938SOL    HW112713   2.276   6.677   3.152  1.2335  2.0896 -0.2831
 3938SOL    HW212714   2.145   6.756   3.095 -1.7121 -1.8297  0.5985
 3939SOL     OW12715   1.872   1.968   1.669 -0.2548  0.1981  0.2222
 3939SOL    HW112716   1.910   1.879   1.644  0.2287  1.0199 -2.2685
 3939SOL    HW212717   1.780   1.977   1.630 -0.0980  0.9700  0.0180
 3940SOL     OW12718   2.186   2.349   0.291 -0.4622 -0.2480  0.6659
 3940SOL    HW112719   2.208   2.419   0.222 -0.4519  0.3758  1.2876
 3940SOL    HW212720   2.269   2.298   0.315 -0.4483 -0.4087  0.2859
 3941SOL     OW12721   6.949   5.332   6.702  0.8022  0.1336  0.2632
 3941SOL    HW112722   7.032   5.329   6.758 -0.0046  0.3519  1.5305
 3941SOL    HW212723   6.923   5.427   6.684  1.1192  0.0630 -0.5953
 3942SOL     OW12724   3.543   2.946   0.529 -0.2325  0.0117 -0.2734
 3942SOL    HW112725   3.639   2.916   0.523  0.3601  2.0866 -2.6102
 3942SOL    HW212726   3.525   3.014   0.458 -2.7053  1.7358  1.8206
 3943SOL     OW12727   5.830   3.903   6.866  0.0440 -0.2744 -0.1947
 3943SOL    HW112728   5.792   3.978   6.918  1.2329 -0.9961  1.8331
 3943SOL    HW212729   5.905   3.936   6.808  1.9985 -0.0991  2.2624
 3944SOL     OW12730   2.590   0.411   0.748 -0.1287  0.1577 -0.1147
 3944SOL    HW112731   2.600   0.412   0.847  0.4629  2.9258 -0.1300
 3944SOL    HW212732   2.567   0.503   0.716 -0.3694 -0.6824 -2.5500
 3945SOL     OW12733   1.458   4.356   5.929 -0.4833  0.0875 -0.0754
 3945SOL    HW112734   1.407   4.293   5.871  0.2741 -0.0955 -0.5523
 3945SOL    HW212735   1.551   4.365   5.895  0.8418 -2.1048  2.6173
 3946SOL     OW12736   1.034   3.448   3.109  0.2239  0.6383  0.3850
 3946SOL    HW112737   1.033   3.545   3.083 -0.9743 -0.0057 -2.3243
 3946SOL    HW212738   1.125   3.410   3.094  0.0143  0.7290 -1.4067
 3947SOL     OW12739   4.031   3.250   4.683  0.5010 -0.0330 -0.1052
 3947SOL    HW112740   4.077   3.235   4.595 -0.7403  0.2341 -0.8259
 3947SOL    HW212741   3.936   3.277   4.666  0.7373  1.8351  1.2917
 3948SOL     OW12742   1.866   1.104   4.259 -0.6388 -0.4758  0.0918
 3948SOL    HW112743   1.865   1.092   4.160 -0.7493 -1.7800  0.2266
 3948SOL    HW212744   1.822   1.025   4.302  1.9310 -1.3389  1.3062
 3949SOL     OW12745   3.215   1.675   0.814  0.6208  0.0655 -0.2033
 3949SOL    HW112746   3.255   1.708   0.899 -0.2157 -2.0774  1.0990
 3949SOL    HW212747   3.277   1.609   0.771  0.2121 -0.2820 -0.2626
 3950SOL     OW12748   3.998   5.571   2.268 -0.8321  0.2372 -0.8149
 3950SOL    HW112749   3.993   5.506   2.191 -0.2063 -1.2861  0.3816
 3950SOL    HW212750   4.066   5.641   2.248 -0.3636 -0.3875 -1.4909
 3951SOL     OW12751   4.594   3.196   5.731 -0.3517  0.4322  0.3279
 3951SOL    HW112752   4.573   3.146   5.647 -3.1745  2.1638 -0.1220
 3951SOL    HW212753   4.641   3.281   5.709 -1.7154  1.2220  0.3876
 3952SOL     OW12754   5.606   3.369   4.092  0.6897 -0.0188 -0.3969
 3952SOL    HW112755   5.629   3.276   4.120  0.0756  0.2297  1.0636
 3952SOL    HW212756   5.517   3.368   4.046  1.4813 -0.3673 -1.9756
 3953SOL     OW12757   4.163   1.891   2.234  0.6169  0.4488 -0.4606
 3953SOL    HW112758   4.100   1.860   2.163  1.8505  0.3682 -1.5479
 3953SOL    HW212759   4.137   1.984   2.263  0.6898  0.8970 -1.7512
 3954SOL     OW12760   5.005   3.712   3.174 -0.1780  0.0680  0.5478
 3954SOL    HW112761   4.960   3.734   3.088 -0.3724 -1.1360  0.3211
 3954SOL    HW212762   4.980   3.619   3.202  0.2886  0.2566  1.6408
 3955SOL     OW12763   0.806   4.288   5.389  0.0827 -0.3152 -0.1269
 3955SOL    HW112764   0.757   4.374   5.402  1.7619  0.7082 -0.2548
 3955SOL    HW212765   0.901   4.307   5.363  0.5688 -2.2156  0.0934
 3956SOL     OW12766   5.236   2.919   3.948  0.2697  0.3230 -0.4426
 3956SOL    HW112767   5.223   2.831   3.902 -0.3384  0.7214 -1.0555
 3956SOL    HW212768   5.312   2.969   3.904  0.3681  0.2647 -0.3388
 3957SOL     OW12769   5.623   0.666   0.892  0.1929 -0.6173  0.5119
 3957SOL    HW112770   5.601   0.695   0.799  1.5740  0.9574  0.6391
 3957SOL    HW212771   5.549   0.691   0.954  0.4698  0.8632  0.2695
 3958SOL     OW12772   0.861   4.079   5.661  0.0809  0.0115  0.4077
 3958SOL    HW112773   0.861   4.059   5.563 -0.1524 -0.3299  0.4762
 3958SOL    HW212774   0.916   4.161   5.678  0.2342 -0.0045  0.0077
 3959SOL     OW12775   4.138   2.510   1.008 -0.2290 -0.3439 -0.8650
 3959SOL    HW112776   4.076   2.560   1.068  0.0581 -2.6931  1.6348
 3959SOL    HW212777   4.085   2.454   0.944 -0.8085 -2.1615  1.0962
 3960SOL     OW12778   0.076   4.536   5.235 -0.5683  0.4787  0.9876
 3960SOL    HW112779   0.009   4.527   5.309  0.7354  0.8014  2.2596
 3960SOL    HW212780   0.113   4.446   5.212 -0.3511  0.4739  1.3462
 3961SOL     OW12781   2.615   6.544   4.100  0.4484 -0.5792  0.1197
 3961SOL    HW112782   2.535   6.487   4.116  0.4541 -1.3725 -2.2932
 3961SOL    HW212783   2.688   6.489   4.059  0.2558  1.1768 -2.8409
 3962SOL     OW12784   2.308   1.371   5.337 -0.1114 -0.0176  0.1033
 3962SOL    HW112785   2.401   1.334   5.341  0.6179  1.8047  3.4217
 3962SOL    HW212786   2.245   1.307   5.382  0.2760  0.4421  1.3465
 3963SOL     OW12787   1.612   6.155   0.161 -0.2482 -1.2213 -0.0510
 3963SOL    HW112788   1.515   6.174   0.171 -0.5580 -2.1746 -1.0773
 3963SOL    HW212789   1.633   6.065   0.199  0.3458 -0.8035  0.6411
 3964SOL     OW12790   4.679   6.539   0.990 -0.5065  0.4458 -0.0603
 3964SOL    HW112791   4.644   6.595   0.915  0.2957  1.2098  0.1290
 3964SOL    HW212792   4.688   6.595   1.073  0.6060  0.1269  0.0479
 3965SOL     OW12793   2.060   5.067   1.613 -0.3078  0.1383 -0.4412
 3965SOL    HW112794   2.078   4.991   1.675  0.7774  0.3895 -0.4272
 3965SOL    HW212795   2.023   5.144   1.665  1.6119  0.7349  0.1367
 3966SOL     OW12796   2.935   0.376   3.443 -0.5644  0.1191  0.3667
 3966SOL    HW112797   2.987   0.455   3.411  1.0714 -0.9585  0.2869
 3966SOL    HW212798   2.854   0.408   3.493 -0.1871  1.8296 -0.0538
 3967SOL     OW12799   4.507   2.531   5.008  0.4247  0.4388  0.3148
 3967SOL    HW112800   4.416   2.535   5.049  1.4653  0.5481  2.8218
 3967SOL    HW212801   4.559   2.613   5.034  1.4322  0.1132 -0.5914
 3968SOL     OW12802   1.070   0.447   6.504  0.2087 -0.7371  0.1494
 3968SOL    HW112803   1.017   0.475   6.424  2.7417  0.8768 -1.0824
 3968SOL    HW212804   1.047   0.506   6.582  0.0924 -0.1392 -0.3319
 3969SOL     OW12805   0.108   3.478   1.564  0.5674  0.1601  0.4805
 3969SOL    HW112806   0.201   3.472   1.602  0.7468 -0.9836 -0.0951
 3969SOL    HW212807   0.069   3.386   1.559  1.7140 -0.3182 -4.8662
 3970SOL     OW12808   1.427   4.871   4.024 -0.3993 -0.4270  0.1713
 3970SOL    HW112809   1.495   4.901   3.957  0.1191 -0.8560  0.4998
 3970SOL    HW212810   1.343   4.924   4.012 -0.1607 -0.1964 -0.5267
 3971SOL     OW12811   6.329   5.300   6.941 -0.0647  0.0847 -0.3438
 3971SOL    HW112812   6.403   5.243   6.978  0.1520 -0.5032 -1.6505
 3971SOL    HW212813   6.244   5.280   6.991  0.0857 -1.1546 -0.5440
 3972SOL     OW12814   4.259   5.986   3.529  0.0954  0.0147 -0.4624
 3972SOL    HW112815   4.308   6.055   3.583 -0.2991  1.5255 -1.9226
 3972SOL    HW212816   4.321   5.948   3.460  0.5921 -1.8876  0.9749
 3973SOL     OW12817   3.155   1.016   0.978  0.3295  0.4721 -0.0609
 3973SOL    HW112818   3.198   0.987   0.893 -0.8086  1.8804 -1.1744
 3973SOL    HW212819   3.065   0.973   0.987 -0.0290  1.1796 -0.1534
 3974SOL     OW12820   0.603   1.710   2.360 -0.1115  0.4369  0.0356
 3974SOL    HW112821   0.640   1.697   2.452  0.8319 -0.4588 -0.4558
 3974SOL    HW212822   0.648   1.789   2.318  0.0485  0.3461  0.0368
 3975SOL     OW12823   0.638   5.390   4.958  0.0509 -0.0716 -0.2308
 3975SOL    HW112824   0.713   5.324   4.951 -1.0542 -1.2269 -1.5732
 3975SOL    HW212825   0.551   5.342   4.961 -0.6637  1.1695  2.7521
 3976SOL     OW12826   6.464   2.854   3.586 -0.0221  0.3587 -0.1571
 3976SOL    HW112827   6.387   2.899   3.541 -0.2214 -1.0205 -1.2375
 3976SOL    HW212828   6.429   2.785   3.649  0.3261  0.1424 -0.2023
 3977SOL     OW12829   1.980   1.731   3.975  0.6108  0.0491 -0.5558
 3977SOL    HW112830   2.034   1.747   4.058  0.9155  0.4438 -0.8250
 3977SOL    HW212831   1.886   1.764   3.990  0.3679 -0.8388 -0.0120
 3978SOL     OW12832   2.364   4.551   0.725 -0.1448 -0.0338  0.2072
 3978SOL    HW112833   2.444   4.492   0.715  0.5053  0.7764  0.4106
 3978SOL    HW212834   2.335   4.552   0.820 -1.1720 -1.2882 -0.0833
 3979SOL     OW12835   4.019   6.639   0.751 -0.5308  0.0471  0.0166
 3979SOL    HW112836   4.114   6.659   0.773 -0.2540 -0.2083 -0.8916
 3979SOL    HW212837   3.973   6.722   0.722 -0.3277  0.0001 -0.4411
 3980SOL     OW12838   2.814   2.929   1.553  0.2924 -0.1314  0.5569
 3980SOL    HW112839   2.837   2.922   1.456 -4.1035 -1.4898 -0.6628
 3980SOL    HW212840   2.841   2.844   1.599  1.0730 -0.1022  0.1736
 3981SOL     OW12841   5.126   1.394   4.123 -0.2619 -0.0165 -0.0739
 3981SOL    HW112842   5.052   1.416   4.186 -0.7860 -0.5394 -0.4829
 3981SOL    HW212843   5.115   1.447   4.039 -1.1205 -1.2299 -0.7765
 3982SOL     OW12844   4.791   4.065   1.889  0.4678 -0.0140 -0.0165
 3982SOL    HW112845   4.711   4.122   1.910 -0.9284 -1.6732 -0.6103
 3982SOL    HW212846   4.835   4.037   1.975  2.0299  2.9664  0.2931
 3983SOL     OW12847   1.862   6.746   3.395 -0.8229 -0.3030  0.4278
 3983SOL    HW112848   1.792   6.681   3.367  0.0778 -1.4018  0.6498
 3983SOL    HW212849   1.952   6.702   3.393  0.0431  1.4033 -0.9847
 3984SOL     OW12850   1.984   5.545   6.186  0.1182  0.0677  0.1795
 3984SOL    HW112851   2.074   5.562   6.227  0.4422  1.2920 -0.9709
 3984SOL    HW212852   1.990   5.557   6.087 -1.2226 -0.3175  0.0316
 3985SOL     OW12853   4.804   5.609   3.346 -0.3769 -0.7144 -0.4970
 3985SOL    HW112854   4.899   5.583   3.327 -0.5626 -2.1308  0.3693
 3985SOL    HW212855   4.787   5.700   3.309  1.4166 -0.2729 -0.3461
 3986SOL     OW12856   3.754   4.370   5.584 -0.3257 -0.1547  0.3580
 3986SOL    HW112857   3.693   4.338   5.656 -0.7419 -0.7511 -0.2489
 3986SOL    HW212858   3.825   4.302   5.568 -1.3030 -0.8880 -1.0455
 3987SOL     OW12859   1.866   3.772   1.902 -0.4989 -0.1732 -0.5700
 3987SOL    HW112860   1.959   3.738   1.890 -0.3602  0.2228 -0.6332
 3987SOL    HW212861   1.830   3.741   1.990  0.2050  0.8299  0.0962
 3988SOL     OW12862   1.208   0.145   4.458 -0.4680  0.4176 -0.0821
 3988SOL    HW112863   1.267   0.220   4.486 -1.4707  1.2470 -0.1415
 3988SOL    HW212864   1.206   0.075   4.530  1.5957 -0.2601 -0.6295
 3989SOL     OW12865   6.582   6.570   2.898  0.4603  0.4934 -0.6218
 3989SOL    HW112866   6.592   6.621   2.983 -1.0371  1.3807 -0.9359
 3989SOL    HW212867   6.520   6.493   2.911  2.3081 -1.0091 -0.2841
 3990SOL     OW12868   5.859   1.180   5.059  0.0647 -0.4187  0.2077
 3990SOL    HW112869   5.858   1.097   5.115 -0.4008 -1.0810 -0.7581
 3990SOL    HW212870   5.952   1.196   5.025 -0.0217 -1.0568 -0.3410
 3991SOL     OW12871   0.536   5.336   0.794  0.3155  0.4146  0.1004
 3991SOL    HW112872   0.550   5.302   0.701 -1.9699  1.0916 -0.5577
 3991SOL    HW212873   0.497   5.263   0.850  1.8076 -0.0310  0.6064
 3992SOL     OW12874   6.605   6.274   2.113  0.1029 -0.1703 -0.5150
 3992SOL    HW112875   6.617   6.307   2.019 -3.8096  1.5556 -0.6086
 3992SOL    HW212876   6.634   6.345   2.177 -0.8559  0.2734 -0.5530
 3993SOL     OW12877   0.972   0.732   4.644  0.0037 -0.1106  0.3408
 3993SOL    HW112878   0.895   0.727   4.708 -0.7117 -0.9872 -0.5597
 3993SOL    HW212879   1.032   0.808   4.670 -1.1647  0.5967  1.0641
 3994SOL     OW12880   6.558   1.539   0.348  0.3527 -0.3085  0.0067
 3994SOL    HW112881   6.611   1.622   0.365  0.6853 -0.8352  1.8117
 3994SOL    HW212882   6.566   1.478   0.427 -1.8727 -1.0007 -0.2395
 3995SOL     OW12883   4.872   0.678   4.605 -0.2338 -0.1996  0.1563
 3995SOL    HW112884   4.865   0.767   4.560  1.1174  0.1202  0.5455
 3995SOL    HW212885   4.897   0.608   4.537 -0.6667 -0.1801 -0.0295
 3996SOL     OW12886   3.636   0.264   6.119 -0.2116  0.2226 -0.7295
 3996SOL    HW112887   3.722   0.231   6.082 -1.2651 -1.6227 -1.6970
 3996SOL    HW212888   3.614   0.216   6.203 -2.0661 -2.2728 -2.4772
 3997SOL     OW12889   2.314   5.286   0.753  0.7005 -0.0912  0.8201
 3997SOL    HW112890   2.276   5.350   0.687  0.6000 -0.7300  0.2476
 3997SOL    HW212891   2.261   5.291   0.838 -0.4511 -0.7021  0.1636
 3998SOL     OW12892   1.626   0.526   6.082 -0.3503 -0.1343  0.1423
 3998SOL    HW112893   1.582   0.458   6.024 -0.2601 -0.1237  0.0617
 3998SOL    HW212894   1.569   0.543   6.163 -1.0412  0.7055 -0.5093
 3999SOL     OW12895   3.934   0.069   1.942  0.1839  0.0404 -0.6706
 3999SOL    HW112896   3.998   0.082   2.018  0.6872  0.2272 -1.1178
 3999SOL    HW212897   3.869  -0.003   1.965  1.3101 -1.0106 -0.6750
 4000SOL     OW12898   4.891   0.961   5.093  1.1403 -0.7015  0.4219
 4000SOL    HW112899   4.848   1.051   5.103  0.7637 -0.8080 -0.2551
 4000SOL    HW212900   4.962   0.951   5.164  1.4404  0.2698  0.2812
 4001SOL     OW12901   4.905   4.632   0.048  0.5010 -0.2945 -0.0547
 4001SOL    HW112902   4.892   4.659   0.144  1.7109 -1.3823  0.4453
 4001SOL    HW212903   4.888   4.534   0.038  0.5493 -0.2222 -0.9255
 4002SOL     OW12904   3.370   3.859   5.061  0.2504  0.2287  0.2257
 4002SOL    HW112905   3.405   3.864   4.967  0.8575 -1.4667  0.3183
 4002SOL    HW212906   3.273   3.883   5.063 -0.4344 -2.1064 -1.2846
 4003SOL     OW12907   4.860   6.960   3.336  0.5575  0.6630 -0.2352
 4003SOL    HW112908   4.932   6.906   3.292  0.5622  1.3583 -1.1199
 4003SOL    HW212909   4.842   7.041   3.281 -0.9028  0.5078 -0.0300
 4004SOL     OW12910   2.985   1.277   4.130 -0.2159 -0.2671  0.2904
 4004SOL    HW112911   2.939   1.236   4.051 -1.2579  0.2536  0.6131
 4004SOL    HW212912   3.061   1.334   4.098 -0.6933  0.0231 -0.3499
 4005SOL     OW12913   2.713   1.713   1.452  0.8901  0.0289 -0.4089
 4005SOL    HW112914   2.723   1.779   1.377  0.7078 -0.1443 -0.5898
 4005SOL    HW212915   2.673   1.628   1.416  0.1727  0.1808  0.0042
 4006SOL     OW12916   5.187   4.711   3.653 -0.2930 -1.0306 -0.6005
 4006SOL    HW112917   5.127   4.722   3.574 -0.8792 -0.2770 -0.0699
 4006SOL    HW212918   5.282   4.703   3.622 -0.5933 -1.5507 -1.4169
 4007SOL     OW12919   5.097   3.744   0.593 -1.0827 -0.5629 -0.0155
 4007SOL    HW112920   5.115   3.841   0.573 -1.1977 -0.3641  0.8016
 4007SOL    HW212921   5.101   3.730   0.692  1.6016 -1.9266 -0.2319
 4008SOL     OW12922   6.041   2.865   6.031  0.1123 -0.3883  0.7181
 4008SOL    HW112923   6.054   2.881   6.129  1.5726 -0.5997  0.5821
 4008SOL    HW212924   6.057   2.951   5.982  0.6955 -0.5734  0.5735
 4009SOL     OW12925   5.049   5.180   1.149 -0.4706  0.4053 -0.1165
 4009SOL    HW112926   5.129   5.241   1.144 -1.6747  2.1739  0.8561
 4009SOL    HW212927   5.046   5.136   1.238 -0.7299  0.5841 -0.0342
 4010SOL     OW12928   4.881   6.146   1.686  0.4782 -0.2282  0.5115
 4010SOL    HW112929   4.865   6.118   1.592  0.8346 -0.1181  0.4180
 4010SOL    HW212930   4.979   6.159   1.701  0.2093  3.5578 -0.1727
 4011SOL     OW12931   3.315   5.191   1.762  0.0066 -0.1168  0.2983
 4011SOL    HW112932   3.273   5.188   1.852 -0.0108  0.5027  0.3148
 4011SOL    HW212933   3.279   5.117   1.705 -1.5772  0.7829  0.0956
 4012SOL     OW12934   0.938   0.343   2.854 -0.0745  0.1337 -0.2278
 4012SOL    HW112935   0.954   0.430   2.900  0.2787  0.1101 -0.2952
 4012SOL    HW212936   1.025   0.311   2.816 -0.0394 -0.6506  0.4975
 4013SOL     OW12937   6.835   4.377   1.122  0.2530 -0.3180  0.2648
 4013SOL    HW112938   6.821   4.472   1.097 -0.3240 -0.2369  0.8696
 4013SOL    HW212939   6.867   4.371   1.217 -0.4522 -0.7549  0.4830
 4014SOL     OW12940   4.957   3.167   2.522 -0.8458  0.1706  0.0933
 4014SOL    HW112941   4.916   3.093   2.468  0.0721 -0.7940  0.6682
 4014SOL    HW212942   5.051   3.142   2.546 -0.5398  1.5108  0.3669
 4015SOL     OW12943   6.079   6.937   6.313  0.3367 -0.1611  0.8237
 4015SOL    HW112944   6.120   6.929   6.222 -0.8695  0.4632  0.1824
 4015SOL    HW212945   6.073   6.847   6.355  0.2717 -0.5678 -0.0218
 4016SOL     OW12946   3.563   1.385   3.578 -0.0034 -0.2171 -0.3720
 4016SOL    HW112947   3.587   1.385   3.481  1.3104 -1.9729 -0.1021
 4016SOL    HW212948   3.628   1.443   3.629  0.3043 -0.5788 -0.3478
 4017SOL     OW12949   0.842   3.915   0.081  0.0592  0.4579 -0.0491
 4017SOL    HW112950   0.930   3.872   0.058 -0.2451  0.1259 -0.6095
 4017SOL    HW212951   0.827   3.995   0.023  0.3928  1.0409  0.6525
 4018SOL     OW12952   2.364   0.602   3.851  0.1389 -0.1106  0.4768
 4018SOL    HW112953   2.350   0.547   3.769  1.1620 -1.2915  1.0526
 4018SOL    HW212954   2.461   0.625   3.859 -0.1252  0.9617  0.7755
 4019SOL     OW12955   2.707   4.457   5.385  0.1965  0.1881  0.3544
 4019SOL    HW112956   2.772   4.458   5.309  0.2222  1.3842  0.3725
 4019SOL    HW212957   2.752   4.424   5.468  0.4778 -0.0261  0.1180
 4020SOL     OW12958   4.027   5.878   3.475 -0.2796 -0.5464  0.5619
 4020SOL    HW112959   4.105   5.922   3.519 -0.1562 -0.6659  0.4630
 4020SOL    HW212960   3.973   5.830   3.544  0.4154 -1.4957  0.4704
 4021SOL     OW12961   2.885   2.072   6.605  0.0429 -0.3743  0.0795
 4021SOL    HW112962   2.977   2.034   6.599 -0.1604 -0.9285  0.4115
 4021SOL    HW212963   2.843   2.069   6.514 -0.3455 -1.9250  0.2845
 4022SOL     OW12964   6.163   3.194   2.018  0.4903  0.1238 -0.7042
 4022SOL    HW112965   6.072   3.160   2.041  0.7358  0.3605  0.6927
 4022SOL    HW212966   6.155   3.264   1.946 -0.4534  0.2853 -0.4562
 4023SOL     OW12967   3.466   3.459   3.242 -0.1485  0.1084  0.2297
 4023SOL    HW112968   3.368   3.446   3.227 -0.3143  1.0002  0.4496
 4023SOL    HW212969   3.516   3.382   3.203 -0.7630  0.7958 -2.1423
 4024SOL     OW12970   3.100   5.106   0.973 -0.1662 -0.1570 -0.7431
 4024SOL    HW112971   3.172   5.054   0.927 -0.5042 -0.4710 -0.9276
 4024SOL    HW212972   3.054   5.048   1.039  1.1347  0.6410  0.9319
 4025SOL     OW12973   1.066   4.805   6.177  0.3113 -0.2566 -0.8180
 4025SOL    HW112974   1.102   4.897   6.196 -0.1203 -0.5841  1.8677
 4025SOL    HW212975   0.966   4.807   6.181  0.3390 -1.1352  0.9018
 4026SOL     OW12976   5.999   1.308   3.019 -0.1089 -0.5513 -0.0511
 4026SOL    HW112977   6.089   1.274   3.048 -0.6631 -3.0537 -0.9967
 4026SOL    HW212978   5.932   1.235   3.028 -2.0784  1.2153  0.4840
 4027SOL     OW12979   4.985   6.512   1.384 -0.1914  0.3918  0.9239
 4027SOL    HW112980   4.989   6.413   1.396  0.2822  0.2894 -0.0087
 4027SOL    HW212981   5.051   6.540   1.315 -0.5658  1.3238  0.9289
 4028SOL     OW12982   3.293   5.204   0.144 -0.3973 -0.2519  0.5210
 4028SOL    HW112983   3.258   5.237   0.056 -0.9728 -0.6138  0.6072
 4028SOL    HW212984   3.389   5.178   0.135 -0.2013  0.5462  0.2182
 4029SOL     OW12985   4.433   1.501   1.743 -0.7432 -0.4307 -0.1800
 4029SOL    HW112986   4.497   1.507   1.819 -1.7730 -1.3467  0.7931
 4029SOL    HW212987   4.416   1.592   1.706 -2.0159  0.3854  2.2290
 4030SOL     OW12988   0.891   6.265   0.119 -0.3095  0.2117 -0.3777
 4030SOL    HW112989   0.918   6.194   0.053 -2.6367 -0.5274 -0.6227
 4030SOL    HW212990   0.951   6.344   0.110  1.2357 -1.0244 -1.3473
 4031SOL     OW12991   0.751   2.214   6.793 -0.0459 -1.0841  0.3517
 4031SOL    HW112992   0.660   2.183   6.821 -0.3246  1.0853  2.0920
 4031SOL    HW212993   0.821   2.159   6.838 -0.5224  0.6801  3.5335
 4032SOL     OW12994   2.861   5.590   1.993  0.0889 -0.7742 -0.0757
 4032SOL    HW112995   2.776   5.544   1.970  0.4419 -1.4022 -0.1540
 4032SOL    HW212996   2.917   5.530   2.050  1.9277 -1.7599 -2.7431
 4033SOL     OW12997   2.840   0.289   2.961 -0.0616 -0.2591  0.2352
 4033SOL    HW112998   2.757   0.278   2.906 -0.8703  1.5114  1.0388
 4033SOL    HW212999   2.871   0.384   2.956  0.9550 -0.5128  1.2847
 4034SOL     OW13000   2.146   0.453   2.878  0.1885  0.8403 -0.2513
 4034SOL    HW113001   2.139   0.551   2.899  1.2697  0.9317 -0.2479
 4034SOL    HW213002   2.243   0.426   2.880 -0.1497 -0.3650  0.3443
 4035SOL     OW13003   0.704   5.916   2.592 -0.4113  0.6686 -0.3404
 4035SOL    HW113004   0.702   5.871   2.503 -0.9788 -0.1961  0.0970
 4035SOL    HW213005   0.795   5.906   2.632 -1.0630 -2.0045  0.6787
 4036SOL     OW13006   4.210   6.994   2.291  0.0814 -0.2397  0.1048
 4036SOL    HW113007   4.299   6.985   2.247  0.4796  0.3516  0.7865
 4036SOL    HW213008   4.160   7.071   2.250 -0.6445 -1.3305 -1.1453
 4037SOL     OW13009   1.867   5.086   0.645  0.1398 -0.8345 -0.2525
 4037SOL    HW113010   1.831   5.034   0.723  1.8364  0.2486  1.3271
 4037SOL    HW213011   1.839   5.181   0.653  0.2302 -0.7375 -1.0403
 4038SOL     OW13012   4.101   2.442   0.566 -0.4822 -0.6807  0.3995
 4038SOL    HW113013   4.190   2.487   0.563 -1.6560  1.8362  0.1207
 4038SOL    HW213014   4.112   2.343   0.558  2.1409 -0.3100 -1.4979
 4039SOL     OW13015   6.773   5.476   6.151  0.0718 -0.2221 -0.2886
 4039SOL    HW113016   6.867   5.451   6.127  0.0035  0.9443 -1.9582
 4039SOL    HW213017   6.725   5.396   6.187  1.4188 -1.0718 -0.3256
 4040SOL     OW13018   2.790   1.071   2.205 -0.1292 -0.3356  0.3143
 4040SOL    HW113019   2.826   1.088   2.297 -2.9688 -1.2048  1.7113
 4040SOL    HW213020   2.857   1.102   2.137  1.3417  2.0070  2.6178
 4041SOL     OW13021   0.696   3.172   6.282  0.3961 -0.0191  0.0854
 4041SOL    HW113022   0.751   3.247   6.246  0.7287 -0.2438  0.1258
 4041SOL    HW213023   0.725   3.150   6.375  0.8064 -0.6940 -0.1970
 4042SOL     OW13024   4.336   5.807   5.705  0.5975  0.4870 -0.1014
 4042SOL    HW113025   4.435   5.815   5.718  0.5436  2.5966 -0.5802
 4042SOL    HW213026   4.315   5.807   5.607  0.1221  0.0537 -0.0021
 4043SOL     OW13027   2.245   0.231   3.286  0.3695 -0.2067  0.6942
 4043SOL    HW113028   2.153   0.211   3.253  0.5627  0.6999 -0.4200
 4043SOL    HW213029   2.269   0.164   3.357 -1.1447 -0.4324  1.0370
 4044SOL     OW13030   1.776   5.364   5.267 -0.5184 -0.2201  0.6439
 4044SOL    HW113031   1.773   5.360   5.367 -0.7779 -1.7013  0.5927
 4044SOL    HW213032   1.857   5.417   5.239  0.8484 -1.6662  1.6317
 4045SOL     OW13033   2.363   0.029   3.474 -0.0991  0.5608  0.4234
 4045SOL    HW113034   2.290  -0.028   3.436 -0.0667  0.9324 -0.1960
 4045SOL    HW213035   2.369   0.013   3.573 -1.9338  1.5474  0.7254
 4046SOL     OW13036   4.391   0.734   3.581  0.1706 -0.6697 -0.0415
 4046SOL    HW113037   4.477   0.686   3.600 -0.3303 -1.2443  0.8295
 4046SOL    HW213038   4.331   0.729   3.661 -0.0491  1.1229 -0.0579
 4047SOL     OW13039   4.082   3.021   6.064  0.1989  0.1350  0.5987
 4047SOL    HW113040   4.035   3.109   6.062  0.3646  0.2634  1.9419
 4047SOL    HW213041   4.015   2.948   6.077  0.0967  0.0630 -0.2203
 4048SOL     OW13042   0.010   0.275   5.306  0.2319  0.4578  0.1631
 4048SOL    HW113043  -0.055   0.199   5.310 -0.2725  0.8763  0.0719
 4048SOL    HW213044   0.066   0.266   5.224 -1.6177  1.5826 -1.3075
 4049SOL     OW13045   4.463   0.202   2.482 -0.2171  0.7793  0.3507
 4049SOL    HW113046   4.427   0.202   2.389  1.9110  0.0276 -0.5355
 4049SOL    HW213047   4.419   0.274   2.535 -0.7046  1.9522 -1.5601
 4050SOL     OW13048   5.162   3.247   3.604 -0.1668  0.0086 -0.2062
 4050SOL    HW113049   5.237   3.184   3.583 -0.3308 -0.6310  1.0335
 4050SOL    HW213050   5.128   3.287   3.519  2.1373  0.9949 -0.7436
 4051SOL     OW13051   1.829   0.299   0.049 -0.8079 -0.0120  0.0042
 4051SOL    HW113052   1.879   0.247   0.118  0.9095 -0.7233 -1.6862
 4051SOL    HW213053   1.882   0.303  -0.035 -2.7366  0.9900 -1.2522
 4052SOL     OW13054   0.376   1.555   0.228  0.6511 -0.2972 -0.3374
 4052SOL    HW113055   0.446   1.487   0.248  1.8414  1.0864  0.4268
 4052SOL    HW213056   0.408   1.615   0.155 -0.2514 -0.3618 -0.7941
 4053SOL     OW13057   5.881   3.058   5.366 -0.1473  0.1144  0.5331
 4053SOL    HW113058   5.806   3.108   5.408 -0.7236 -0.2947  0.0004
 4053SOL    HW213059   5.850   2.967   5.340  0.8758 -0.5221  1.4472
 4054SOL     OW13060   3.349   4.128   3.415  0.5739 -0.1039 -0.0121
 4054SOL    HW113061   3.337   4.129   3.316 -0.2579 -1.0092  0.0545
 4054SOL    HW213062   3.322   4.038   3.451  0.5953  0.2999  1.0621
 4055SOL     OW13063   6.197   6.913   4.542 -0.0947  0.1821 -0.0520
 4055SOL    HW113064   6.280   6.856   4.534 -0.7209 -0.8067  0.3167
 4055SOL    HW213065   6.157   6.901   4.633  0.1436  1.7834  0.2865
 4056SOL     OW13066   4.285   2.356   2.978 -0.2260 -0.0955  0.4483
 4056SOL    HW113067   4.272   2.271   3.028 -0.0573 -0.7915 -0.6644
 4056SOL    HW213068   4.246   2.432   3.031 -4.5463 -1.3894 -0.5230
 4057SOL     OW13069   3.846   4.265   0.250 -0.5681 -0.0119  0.0480
 4057SOL    HW113070   3.920   4.263   0.182  0.2603  1.6428  0.8275
 4057SOL    HW213071   3.875   4.217   0.333  0.7990  2.7938  1.3516
 4058SOL     OW13072   2.026   4.842   2.022  0.4971 -0.2450  0.6020
 4058SOL    HW113073   1.984   4.899   2.093 -2.2194  0.2432 -1.2309
 4058SOL    HW213074   2.001   4.746   2.037  1.1320 -0.3329  1.0969
 4059SOL     OW13075   5.112   0.579   2.993  0.2797  0.2136 -0.0605
 4059SOL    HW113076   5.160   0.666   2.996 -0.0937  0.4414 -0.7629
 4059SOL    HW213077   5.017   0.593   2.966 -0.2598 -0.2144  1.4938
 4060SOL     OW13078   1.361   6.269   4.383 -0.2110 -0.6077 -0.6094
 4060SOL    HW113079   1.350   6.202   4.456  0.5394 -0.2907 -0.1956
 4060SOL    HW213080   1.429   6.236   4.317  1.7954  0.6272  0.7143
 4061SOL     OW13081   2.689   1.619   3.029 -0.4097  0.2308 -0.5546
 4061SOL    HW113082   2.616   1.652   3.090 -0.3729  1.2180 -1.0182
 4061SOL    HW213083   2.769   1.595   3.083 -0.2757  1.3671 -0.2208
 4062SOL     OW13084   0.036   5.685   1.827  0.4792  0.3938  0.2452
 4062SOL    HW113085   0.098   5.763   1.815  0.0543  1.1907  2.7574
 4062SOL    HW213086   0.067   5.609   1.770  3.3741  1.0026  0.8588
 4063SOL     OW13087   1.127   0.351   2.211  0.4032  0.7628 -0.1092
 4063SOL    HW113088   1.088   0.443   2.210  0.1960  0.7088  1.0844
 4063SOL    HW213089   1.221   0.356   2.245  0.8388  0.6693 -1.2462
 4064SOL     OW13090   0.227   4.193   1.618 -0.1430 -0.4383  0.3922
 4064SOL    HW113091   0.127   4.190   1.614 -0.1119 -0.8825 -0.3380
 4064SOL    HW213092   0.263   4.100   1.609  0.3522 -0.1778 -0.4699
 4065SOL     OW13093   1.751   5.480   3.686 -0.2415  1.1268  0.5330
 4065SOL    HW113094   1.760   5.551   3.616  2.2322  0.2902 -0.1016
 4065SOL    HW213095   1.693   5.513   3.760 -2.7271  2.1717 -1.7026
 4066SOL     OW13096   5.129   3.735   6.128 -0.3759 -0.2032 -0.3475
 4066SOL    HW113097   5.198   3.757   6.059  0.3925  0.7003  0.6696
 4066SOL    HW213098   5.117   3.636   6.133  2.2131 -0.5355  0.6991
 4067SOL     OW13099   2.136   3.184   6.905 -0.1244  0.5228 -0.3584
 4067SOL    HW113100   2.115   3.173   6.808  1.2596  0.1332 -0.6266
 4067SOL    HW213101   2.125   3.096   6.951  0.2269  0.4761 -0.3643
 4068SOL     OW13102   3.142   2.805   5.350  0.4445  0.2847  0.0925
 4068SOL    HW113103   3.126   2.707   5.361  1.5947  0.0882  0.0893
 4068SOL    HW213104   3.161   2.826   5.254 -1.7821  0.8434 -0.3043
 4069SOL     OW13105   0.482   2.559   6.220  0.7613  0.5318  0.2299
 4069SOL    HW113106   0.410   2.619   6.255  0.6772 -0.0849  1.1621
 4069SOL    HW213107   0.533   2.606   6.148 -0.4946  1.0169 -0.3702
 4070SOL     OW13108   0.926   0.484   5.499 -0.0939 -0.7098 -0.0082
 4070SOL    HW113109   0.878   0.405   5.460 -1.7202 -0.9349  2.2286
 4070SOL    HW213110   0.966   0.459   5.587  0.3105  0.6822  0.2307
 4071SOL     OW13111   7.001   4.507   0.637  0.3746  0.0578 -0.1036
 4071SOL    HW113112   6.923   4.516   0.698 -0.1055 -0.4031 -0.6373
 4071SOL    HW213113   7.053   4.425   0.660  2.2327  1.6769  1.9306
 4072SOL     OW13114   3.877   3.074   3.701  0.2416  0.0632 -0.1181
 4072SOL    HW113115   3.822   2.996   3.671  0.8011 -0.7459  0.8802
 4072SOL    HW213116   3.901   3.063   3.798  0.9512  1.1070 -0.1545
 4073SOL     OW13117   2.700   2.206   4.520  0.0243 -0.1900 -0.1410
 4073SOL    HW113118   2.750   2.145   4.580  2.7844  0.9734 -1.0947
 4073SOL    HW213119   2.622   2.157   4.480  0.0173 -1.9239  1.8079
 4074SOL     OW13120   2.349   6.815   3.717  0.3390 -0.0423  0.0184
 4074SOL    HW113121   2.291   6.740   3.750 -1.1293  0.5949 -1.0192
 4074SOL    HW213122   2.406   6.783   3.642  0.6000 -0.4111  0.3688
 4075SOL     OW13123   5.405   6.744   0.253 -0.5422 -0.3750  0.0773
 4075SOL    HW113124   5.467   6.777   0.181  1.0581 -1.4773  0.9082
 4075SOL    HW213125   5.343   6.818   0.279  1.8725  1.5331  0.7657
 4076SOL     OW13126   6.497   6.544   0.223  0.4673  0.4349  0.0144
 4076SOL    HW113127   6.583   6.580   0.190  1.5120 -0.2170  1.8395
 4076SOL    HW213128   6.502   6.444   0.228 -0.8222  0.2897 -0.9141
 4077SOL     OW13129   5.769   2.516   2.434  0.4272  0.0756 -0.3097
 4077SOL    HW113130   5.751   2.419   2.450  2.5201 -0.0914  1.6266
 4077SOL    HW213131   5.684   2.562   2.407 -1.6240 -1.5311  2.7965
 4078SOL     OW13132   0.202   4.371   6.453 -0.0581  0.1610  0.2151
 4078SOL    HW113133   0.146   4.428   6.513  1.3174  1.1115  0.6470
 4078SOL    HW213134   0.291   4.356   6.496  1.2528  1.4910 -1.8835
 4079SOL     OW13135   6.718   2.325   0.160  0.7034  0.2651  0.7430
 4079SOL    HW113136   6.729   2.229   0.187 -2.8983 -0.3414  0.5640
 4079SOL    HW213137   6.750   2.385   0.234 -0.5433 -1.1712  2.5316
 4080SOL     OW13138   6.658   6.765   2.192 -0.1590 -0.1427  0.0176
 4080SOL    HW113139   6.587   6.735   2.129 -0.5246 -0.9476  0.7883
 4080SOL    HW213140   6.669   6.865   2.185 -0.2443 -0.2083 -1.2343
 4081SOL     OW13141   4.042   1.260   2.149  0.0912  0.0945  0.4317
 4081SOL    HW113142   4.081   1.353   2.152 -0.4608  0.3000  2.2669
 4081SOL    HW213143   4.082   1.205   2.222 -0.2053 -0.8884 -0.1303
 4082SOL     OW13144   3.274   0.622   0.734 -0.3575 -0.2938 -0.1508
 4082SOL    HW113145   3.246   0.684   0.807 -4.1906  0.2411 -1.8096
 4082SOL    HW213146   3.215   0.540   0.735  1.0680 -1.3920 -1.2443
 4083SOL     OW13147   5.074   0.325   4.712 -0.0490 -0.3157  0.2296
 4083SOL    HW113148   5.080   0.400   4.778  0.2750 -1.4461  1.5325
 4083SOL    HW213149   4.985   0.328   4.666 -0.7054 -0.0953  1.4716
 4084SOL     OW13150   1.798   5.370   5.545 -0.2890  0.2981  0.1181
 4084SOL    HW113151   1.789   5.464   5.578  1.7770  1.0106 -1.1759
 4084SOL    HW213152   1.865   5.321   5.601 -0.9850 -0.2850  0.4685
 4085SOL     OW13153   2.252   0.219   6.790  0.0242  0.0577 -0.0344
 4085SOL    HW113154   2.250   0.241   6.692 -1.2217 -0.6299 -0.1834
 4085SOL    HW213155   2.347   0.212   6.821  0.5768 -3.2717 -2.0325
 4086SOL     OW13156   0.570   2.316   3.575  0.1102 -0.1954 -0.2444
 4086SOL    HW113157   0.580   2.248   3.503  0.3767  0.4456 -0.8239
 4086SOL    HW213158   0.482   2.363   3.564  0.1265 -0.1336 -0.1172
 4087SOL     OW13159   1.729   4.438   0.008  0.2235  0.3193 -0.0445
 4087SOL    HW113160   1.762   4.411  -0.082  1.1182  0.4473  0.2380
 4087SOL    HW213161   1.802   4.428   0.075 -0.4128  0.2852  0.6629
 4088SOL     OW13162   6.719   0.657   5.442 -0.2103 -0.4613 -0.2891
 4088SOL    HW113163   6.816   0.633   5.450 -0.2890 -0.6086  0.2513
 4088SOL    HW213164   6.692   0.654   5.346  0.3448 -0.3317 -0.4519
 4089SOL     OW13165   4.805   2.319   1.558  0.5140  1.0161  0.0870
 4089SOL    HW113166   4.816   2.402   1.614 -1.5431  2.2111 -1.1696
 4089SOL    HW213167   4.862   2.327   1.476  0.2072  1.2676 -0.1040
 4090SOL     OW13168   6.371   3.617   1.326  0.1229 -0.1442 -0.1828
 4090SOL    HW113169   6.431   3.637   1.248 -0.1288  0.7852 -0.1472
 4090SOL    HW213170   6.426   3.592   1.405  0.5889  2.2254  0.3049
 4091SOL     OW13171   4.174   6.204   0.347  0.1036 -0.6700  0.1118
 4091SOL    HW113172   4.215   6.292   0.372  1.8282 -1.5363  0.4379
 4091SOL    HW213173   4.095   6.221   0.288  1.5161  1.0769 -1.4298
 4092SOL     OW13174   0.260   1.953   1.045  0.1125  0.0641 -0.6106
 4092SOL    HW113175   0.328   2.000   1.101  0.3302 -1.5637  0.5537
 4092SOL    HW213176   0.298   1.936   0.954  0.0760  1.9433 -1.0282
 4093SOL     OW13177   4.018   3.238   5.165  0.1650  0.4719  0.1218
 4093SOL    HW113178   4.070   3.274   5.088 -1.8222 -0.6847 -1.8894
 4093SOL    HW213179   3.941   3.300   5.184  0.5376  0.6515  1.0696
 4094SOL     OW13180   1.454   2.555   5.929  0.3368 -0.4877  0.0571
 4094SOL    HW113181   1.472   2.459   5.908 -1.5327 -0.4739 -2.0159
 4094SOL    HW213182   1.356   2.568   5.941  0.5959  1.1237  0.6163
 4095SOL     OW13183   6.417   4.609   4.017  0.1133 -0.2165  0.8309
 4095SOL    HW113184   6.371   4.652   4.095 -1.0118 -0.6718  0.4530
 4095SOL    HW213185   6.356   4.612   3.938  1.6082  1.1026 -0.3259
 4096SOL     OW13186   1.713   6.700   3.905 -0.0123  0.1214  0.4211
 4096SOL    HW113187   1.724   6.608   3.944  0.8082  0.3555  0.7561
 4096SOL    HW213188   1.647   6.752   3.960  1.0832  0.4251  1.4865
 4097SOL     OW13189   4.268   6.063   3.142  1.0862  0.1469  0.0702
 4097SOL    HW113190   4.240   6.152   3.107  0.4535  0.0006  0.1760
 4097SOL    HW213191   4.247   6.057   3.240 -1.5235 -1.0923 -0.4704
 4098SOL     OW13192   6.310   3.303   6.767 -0.2990 -0.0415 -0.1880
 4098SOL    HW113193   6.366   3.281   6.687 -0.2345 -2.3407  0.4064
 4098SOL    HW213194   6.249   3.379   6.746 -0.0734 -0.3993 -2.3163
 4099SOL     OW13195   4.472   4.535   2.807  0.2359 -0.0103  0.0687
 4099SOL    HW113196   4.486   4.477   2.726  0.7146  0.5564 -0.2657
 4099SOL    HW213197   4.376   4.562   2.813  0.1182 -0.3930 -0.0820
 4100SOL     OW13198   5.743   4.483   1.525  0.2484  0.7531  0.0082
 4100SOL    HW113199   5.807   4.407   1.532  1.1108  1.1721 -2.3698
 4100SOL    HW213200   5.685   4.485   1.606  0.6332 -2.0020  0.4569
 4101SOL     OW13201   6.302   2.693   3.798  0.1890 -0.3310 -0.0281
 4101SOL    HW113202   6.319   2.646   3.884  0.0127  0.4701  0.4587
 4101SOL    HW213203   6.250   2.634   3.737 -1.1760 -0.3138  1.0684
 4102SOL     OW13204   6.347   0.253   6.726 -0.2461  0.1028  0.3216
 4102SOL    HW113205   6.354   0.158   6.758 -1.4848  0.3187  1.2932
 4102SOL    HW213206   6.425   0.305   6.759 -0.0796 -0.3331  0.6276
 4103SOL     OW13207   5.289   1.649   2.983 -0.1041  0.1686  0.0754
 4103SOL    HW113208   5.372   1.684   2.940  0.8639 -0.6256  1.2382
 4103SOL    HW213209   5.215   1.645   2.915  0.7078  1.1617 -0.9002
 4104SOL     OW13210   4.921   6.247   1.392 -0.1209  0.3869  0.1885
 4104SOL    HW113211   4.913   6.148   1.389  1.2618  0.2726 -1.8637
 4104SOL    HW213212   4.830   6.289   1.386 -0.5829 -0.7609 -1.3983
 4105SOL     OW13213   0.193   5.469   1.707 -1.0437 -0.3387  0.0594
 4105SOL    HW113214   0.197   5.444   1.610  0.0014 -0.7048  0.1832
 4105SOL    HW213215   0.269   5.529   1.729  1.1146 -3.3317  1.4533
 4106SOL     OW13216   6.818   6.983   4.838  0.0865  0.1519 -0.2857
 4106SOL    HW113217   6.912   6.953   4.855 -0.4224 -1.0648  0.5245
 4106SOL    HW213218   6.788   6.951   4.749  0.1746 -0.1458 -0.2097
 4107SOL     OW13219   0.255   4.728   5.133  0.1353  0.4448 -0.5652
 4107SOL    HW113220   0.199   4.654   5.172 -1.5985  0.9453 -1.9616
 4107SOL    HW213221   0.345   4.728   5.176 -0.4060 -1.3835  0.6875
 4108SOL     OW13222   4.340   6.425   4.839 -0.0223  0.4571  0.0497
 4108SOL    HW113223   4.416   6.466   4.889 -1.8302 -0.3583  3.7600
 4108SOL    HW213224   4.299   6.352   4.893 -4.5339  1.9550 -0.9409
 4109SOL     OW13225   5.318   6.735   5.946 -0.4092  0.6761  0.8031
 4109SOL    HW113226   5.294   6.751   5.850 -0.2446  0.5718  0.7450
 4109SOL    HW213227   5.259   6.663   5.983  0.0276  0.1931  0.5684
 4110SOL     OW13228   2.928   5.291   0.815 -0.5180  0.6561 -0.7685
 4110SOL    HW113229   2.868   5.250   0.745 -1.6169  0.3357  0.3192
 4110SOL    HW213230   2.966   5.218   0.872  2.2068  0.7105 -2.3661
 4111SOL     OW13231   4.508   0.130   0.368  0.3092 -0.1606  0.1578
 4111SOL    HW113232   4.587   0.069   0.357  0.3315 -0.2053  0.5347
 4111SOL    HW213233   4.499   0.187   0.287  0.7286 -0.1574  0.1084
 4112SOL     OW13234   1.499   2.218   0.356 -0.0868  0.3364 -0.5061
 4112SOL    HW113235   1.568   2.194   0.424  0.1295  3.4766  0.5283
 4112SOL    HW213236   1.543   2.242   0.269  0.2417  2.3983  0.1710
 4113SOL     OW13237   0.778   3.377   5.673  0.2598  0.8920 -0.3528
 4113SOL    HW113238   0.686   3.411   5.655 -0.1270  1.7220  2.6522
 4113SOL    HW213239   0.844   3.451   5.660  0.4524  0.4864 -1.8183
 4114SOL     OW13240   1.251   6.410   5.831  0.0324 -0.0475  0.5569
 4114SOL    HW113241   1.281   6.474   5.760  0.5185 -0.5718  0.2798
 4114SOL    HW213242   1.238   6.460   5.916 -0.9959  0.6679 -0.0015
 4115SOL     OW13243   6.255   3.830   0.614  0.2566  0.5918 -0.0536
 4115SOL    HW113244   6.157   3.844   0.602  0.3959  1.5360 -0.1961
 4115SOL    HW213245   6.272   3.786   0.702 -0.4136 -1.4317 -0.8717
 4116SOL     OW13246   1.040   2.754   1.965  0.2547  0.9053  1.1865
 4116SOL    HW113247   1.137   2.733   1.953  0.3441  0.8415  1.9680
 4116SOL    HW213248   0.985   2.681   1.925  0.5383  0.4791  1.5688
 4117SOL     OW13249   0.518   2.160   1.932  0.0907  0.0431 -0.2921
 4117SOL    HW113250   0.432   2.169   1.883 -0.3597 -0.0841  0.4613
 4117SOL    HW213251   0.594   2.168   1.867 -0.4977 -1.6562 -1.2478
 4118SOL     OW13252   4.932   1.344   0.840 -0.7596  0.1573 -0.4783
 4118SOL    HW113253   4.971   1.435   0.853  3.4473 -1.1753 -1.9034
 4118SOL    HW213254   4.945   1.290   0.923  1.5318 -0.4984 -1.1591
 4119SOL     OW13255   2.522   4.661   6.605  0.4782 -0.5952  0.8234
 4119SOL    HW113256   2.565   4.638   6.518 -0.8664 -0.2687  0.0568
 4119SOL    HW213257   2.462   4.586   6.634 -0.6246  0.1327  0.4532
 4120SOL     OW13258   2.175   2.958   6.022 -0.1135 -0.5967  0.1659
 4120SOL    HW113259   2.226   3.039   5.996 -1.5470  0.1398 -0.4898
 4120SOL    HW213260   2.213   2.919   6.106  0.6213  0.7215  0.4594
 4121SOL     OW13261   0.494   5.829   2.221 -0.1516  0.2389 -0.2034
 4121SOL    HW113262   0.495   5.902   2.153  0.7066  1.3193  0.9369
 4121SOL    HW213263   0.484   5.868   2.312  3.1922 -0.7506  0.7307
 4122SOL     OW13264   0.626   1.682   0.302 -0.4624 -0.1862  0.0813
 4122SOL    HW113265   0.546   1.684   0.242 -0.0679 -1.5785 -0.5343
 4122SOL    HW213266   0.700   1.633   0.257  0.4081  0.2099  1.0512
 4123SOL     OW13267   2.105   4.820   1.177  0.7340  0.2035 -0.3512
 4123SOL    HW113268   2.006   4.832   1.166  0.6336  0.4688  0.7403
 4123SOL    HW213269   2.124   4.729   1.215  0.8400  0.4847  0.2816
 4124SOL     OW13270   6.162   6.765   3.234  0.1218 -0.1690 -0.3712
 4124SOL    HW113271   6.163   6.843   3.296  0.1074  1.5779 -2.4562
 4124SOL    HW213272   6.085   6.773   3.170  0.1692 -1.8542 -0.6954
 4125SOL     OW13273   6.732   5.484   4.255 -0.3780  0.3931  0.7927
 4125SOL    HW113274   6.812   5.510   4.200 -0.4517  0.1486  0.5651
 4125SOL    HW213275   6.654   5.540   4.228  0.2592  2.2957  2.6395
 4126SOL     OW13276   5.716   0.811   5.873 -0.1908 -0.1826  0.2911
 4126SOL    HW113277   5.633   0.758   5.888 -1.0805  0.9952 -0.2874
 4126SOL    HW213278   5.750   0.845   5.961 -1.0889  0.4167  0.4284
 4127SOL     OW13279   5.626   2.096   4.112  0.5236  0.0144  0.0857
 4127SOL    HW113280   5.639   2.021   4.176  1.6338 -0.3661 -0.5486
 4127SOL    HW213281   5.695   2.090   4.039 -1.9982 -0.8738 -2.3919
 4128SOL     OW13282   6.272   3.437   2.557  0.3809  0.2092 -0.4612
 4128SOL    HW113283   6.239   3.527   2.585 -0.7768 -1.0247  2.5777
 4128SOL    HW213284   6.195   3.376   2.539  0.8632 -1.5413  2.6355
 4129SOL     OW13285   0.045   3.948   6.378 -0.2013  0.2471 -0.1016
 4129SOL    HW113286   0.015   3.984   6.467  1.6582 -1.4258  1.2850
 4129SOL    HW213287   0.005   4.003   6.305 -2.2166  1.3656  1.7312
 4130SOL     OW13288   2.986   2.232   4.450  0.1271  0.2118  0.4632
 4130SOL    HW113289   2.890   2.222   4.426  0.2262  2.1562 -0.9558
 4130SOL    HW213290   2.994   2.273   4.541 -0.3596 -0.2439  0.7162
 4131SOL     OW13291   6.929   5.097   2.491 -0.3182  0.1779 -0.3304
 4131SOL    HW113292   6.936   4.999   2.512 -2.2549  0.3054  1.1346
 4131SOL    HW213293   6.902   5.108   2.396 -0.3894 -0.7241 -0.4305
 4132SOL     OW13294   0.399   3.934   5.281 -0.1572  0.1005 -0.3689
 4132SOL    HW113295   0.450   3.887   5.210  2.2234 -0.3084  1.4733
 4132SOL    HW213296   0.316   3.974   5.242  0.8122 -0.4532 -3.2285
 4133SOL     OW13297   0.836   5.686   2.823 -0.3890 -0.0104 -0.2736
 4133SOL    HW113298   0.879   5.601   2.793 -1.6637 -0.8670  0.2420
 4133SOL    HW213299   0.892   5.764   2.794  0.9614 -1.0241 -0.4811
 4134SOL     OW13300   1.389   1.492   2.099 -1.3290 -0.3720  0.1840
 4134SOL    HW113301   1.403   1.462   2.004 -0.2083  2.1748 -0.5499
 4134SOL    HW213302   1.476   1.487   2.148 -1.2749  0.8968  0.2401
 4135SOL     OW13303   1.072   3.337   4.600  0.3403  0.4598  0.0219
 4135SOL    HW113304   0.999   3.405   4.597  0.9383  1.0923 -0.9345
 4135SOL    HW213305   1.094   3.316   4.695 -1.7913 -0.5475  0.3494
 4136SOL     OW13306   2.521   6.459   6.485 -0.4278 -0.1021  0.2414
 4136SOL    HW113307   2.598   6.400   6.508  1.1128  1.2527 -1.1576
 4136SOL    HW213308   2.472   6.420   6.406 -0.8113 -0.6353  0.7327
 4137SOL     OW13309   1.073   3.484   6.031  0.3434 -0.6637 -0.2725
 4137SOL    HW113310   1.130   3.429   6.093  0.8488 -0.1448 -0.2659
 4137SOL    HW213311   1.057   3.433   5.947 -0.6958 -1.5472  0.4295
 4138SOL     OW13312   0.805   3.436   3.693 -0.0996  0.7920  0.3116
 4138SOL    HW113313   0.730   3.435   3.760 -1.0372 -1.2462 -0.6707
 4138SOL    HW213314   0.775   3.484   3.610 -0.0706  0.5671  0.1711
 4139SOL     OW13315   6.740   0.190   3.782  0.4223 -0.2443 -0.3525
 4139SOL    HW113316   6.654   0.157   3.821 -0.1700 -0.0001 -1.4029
 4139SOL    HW213317   6.720   0.250   3.705  1.5591 -1.6795 -1.8198
 4140SOL     OW13318   5.142   0.023   2.033  0.1375 -0.0447 -0.1964
 4140SOL    HW113319   5.165   0.117   2.061 -1.4187  0.3335 -0.1155
 4140SOL    HW213320   5.218  -0.015   1.980  0.4656  1.5532 -0.9323
 4141SOL     OW13321   1.716   6.062   0.993  0.2243 -0.7354 -0.3907
 4141SOL    HW113322   1.796   6.105   1.035 -0.6633 -0.4809  1.0821
 4141SOL    HW213323   1.690   6.113   0.911  0.9081 -0.1804 -0.2739
 4142SOL     OW13324   6.266   1.360   1.595  0.6499  0.3761 -0.2355
 4142SOL    HW113325   6.307   1.340   1.506  0.6268 -0.9496  0.0255
 4142SOL    HW213326   6.169   1.385   1.582  0.6503  0.2068 -0.5808
 4143SOL     OW13327   5.412   6.406   6.131 -0.1341 -0.6923  0.4722
 4143SOL    HW113328   5.402   6.311   6.104  0.4046  0.1056 -2.9347
 4143SOL    HW213329   5.493   6.416   6.190  1.0387 -2.0801 -0.8259
 4144SOL     OW13330   3.009   4.008   0.994  0.3048  0.2386 -0.4271
 4144SOL    HW113331   2.972   4.035   1.082  2.1947  1.8363 -0.0589
 4144SOL    HW213332   2.939   4.016   0.924 -0.3400  2.2045  0.3871
 4145SOL     OW13333   1.850   3.712   4.545  0.3095  0.8300 -0.6151
 4145SOL    HW113334   1.947   3.712   4.570 -0.3792 -1.9567  2.9501
 4145SOL    HW213335   1.823   3.620   4.518 -1.2526  1.7642 -2.5214
 4146SOL     OW13336   2.209   5.557   0.349  0.5421 -0.0888  0.2679
 4146SOL    HW113337   2.259   5.493   0.290  2.1526 -0.0912  1.5544
 4146SOL    HW213338   2.178   5.509   0.431  1.3307  0.6167  1.0102
 4147SOL     OW13339   5.865   4.905   4.330 -0.3463  0.3506 -0.4066
 4147SOL    HW113340   5.877   4.826   4.390 -0.1615  1.0919  0.5663
 4147SOL    HW213341   5.784   4.893   4.274  0.4658 -1.1752 -1.3259
 4148SOL     OW13342   1.321   3.561   5.638  0.1845 -0.0934  0.2134
 4148SOL    HW113343   1.303   3.590   5.544  0.5803 -2.4910 -0.6660
 4148SOL    HW213344   1.328   3.642   5.697  0.5937  1.5134 -1.9129
 4149SOL     OW13345   0.617   6.703   1.607  0.2254  0.2588 -0.1111
 4149SOL    HW113346   0.691   6.656   1.559  0.0880  1.5280 -1.6235
 4149SOL    HW213347   0.654   6.745   1.690  1.5216  1.8599 -1.4317
 4150SOL     OW13348   5.894   6.526   1.313 -0.3525 -0.6955 -0.0917
 4150SOL    HW113349   5.989   6.553   1.328 -0.3698 -0.7041  0.0348
 4150SOL    HW213350   5.891   6.428   1.289 -0.2649 -0.5252 -0.8326
 4151SOL     OW13351   1.272   5.919   5.735 -0.3488 -0.0323  0.1995
 4151SOL    HW113352   1.253   6.016   5.751 -0.7542 -0.2163  0.8672
 4151SOL    HW213353   1.217   5.886   5.658 -1.6910 -0.2003  1.2014
 4152SOL     OW13354   1.800   5.481   1.962  0.1068  0.5345 -0.7276
 4152SOL    HW113355   1.799   5.562   2.021  1.6545  1.1581 -1.5112
 4152SOL    HW213356   1.744   5.499   1.881 -0.3964  0.4233 -0.4080
 4153SOL     OW13357   6.175   6.744   1.750 -0.3027 -0.1040  0.0962
 4153SOL    HW113358   6.149   6.664   1.695  0.6631 -1.4395  1.4989
 4153SOL    HW213359   6.145   6.827   1.704 -3.6266 -1.3358 -0.2164
 4154SOL     OW13360   4.761   6.801   4.458 -0.2106 -0.2437 -0.0821
 4154SOL    HW113361   4.855   6.813   4.491 -0.8150  2.3810  0.9727
 4154SOL    HW213362   4.762   6.757   4.369  2.2053  1.5340 -1.0577
 4155SOL     OW13363   3.433   6.155   5.143  0.2636 -0.1550 -0.3824
 4155SOL    HW113364   3.438   6.255   5.137  2.5011 -0.3190 -2.7267
 4155SOL    HW213365   3.521   6.119   5.174 -0.0931 -1.4621 -0.8289
 4156SOL     OW13366   5.446   3.248   1.167 -0.1964 -0.3481  0.8317
 4156SOL    HW113367   5.358   3.209   1.193  0.9370 -2.7545  1.3372
 4156SOL    HW213368   5.483   3.198   1.089  1.6272 -0.7840  1.9069
 4157SOL     OW13369   2.514   3.166   6.793  0.2557  0.3508 -0.8087
 4157SOL    HW113370   2.455   3.194   6.717  1.8875 -1.5436 -2.9123
 4157SOL    HW213371   2.491   3.072   6.820 -0.6236  1.1599  1.4590
 4158SOL     OW13372   5.630   6.736   2.561 -0.1483  0.4733 -0.4977
 4158SOL    HW113373   5.585   6.649   2.540 -2.4916  1.8590 -1.6674
 4158SOL    HW213374   5.611   6.760   2.657  2.0009 -1.0606  0.3814
 4159SOL     OW13375   5.704   2.599   0.019  0.2140  0.3570 -0.1583
 4159SOL    HW113376   5.752   2.514   0.039  1.4543  0.9802 -0.3717
 4159SOL    HW213377   5.728   2.629  -0.074  0.2617  1.2407  0.1326
 4160SOL     OW13378   3.260   0.537   6.232 -0.2024 -0.4745  0.2374
 4160SOL    HW113379   3.334   0.552   6.298 -0.0954  1.2131 -0.2056
 4160SOL    HW213380   3.254   0.616   6.171 -1.8535 -0.9446 -0.2577
 4161SOL     OW13381   0.683   0.407   3.618  0.2132 -0.0631  0.8849
 4161SOL    HW113382   0.669   0.308   3.629  0.9643 -0.0325  2.4664
 4161SOL    HW213383   0.594   0.452   3.609 -0.1210 -0.9078 -0.3154
 4162SOL     OW13384   0.973   1.446   3.347 -0.1123  0.3242 -0.5101
 4162SOL    HW113385   1.023   1.433   3.433 -0.3487 -3.3354 -0.7804
 4162SOL    HW213386   0.874   1.441   3.366 -0.1678 -0.3261 -0.9470
 4163SOL     OW13387   6.429   5.582   0.210  0.3966  0.4827 -0.3014
 4163SOL    HW113388   6.411   5.579   0.112 -2.1715  0.1152  0.1096
 4163SOL    HW213389   6.517   5.536   0.229 -0.1300 -1.5023 -2.2064
 4164SOL     OW13390   4.366   6.487   0.951 -0.2936 -0.0639  0.0305
 4164SOL    HW113391   4.355   6.542   0.868 -0.0204  0.8454  0.5833
 4164SOL    HW213392   4.463   6.483   0.975 -0.3244 -0.6851  0.0824
 4165SOL     OW13393   1.594   6.453   0.642  0.4471  0.0459 -0.4582
 4165SOL    HW113394   1.673   6.509   0.618  0.7291  0.3524  1.0482
 4165SOL    HW213395   1.576   6.386   0.570  1.8540  0.2234 -0.9944
 4166SOL     OW13396   5.843   6.676   6.405  0.2483 -0.2019  0.1018
 4166SOL    HW113397   5.856   6.700   6.502  0.9007  0.8418 -0.2290
 4166SOL    HW213398   5.932   6.660   6.363 -0.0682 -1.1886 -0.2046
 4167SOL     OW13399   0.160   0.935   6.913 -0.1246  0.4422 -0.2465
 4167SOL    HW113400   0.126   0.899   6.999 -1.3490  0.9984 -0.4751
 4167SOL    HW213401   0.083   0.952   6.851  0.8413 -2.2472 -2.3902
 4168SOL     OW13402   1.922   2.361   2.423  0.5129 -0.0223  0.3302
 4168SOL    HW113403   1.947   2.301   2.347 -1.3858 -0.7561  0.2270
 4168SOL    HW213404   1.840   2.413   2.398 -0.0561 -0.1653  1.8063
 4169SOL     OW13405   6.120   6.121   3.603 -0.8330 -0.4968  0.8121
 4169SOL    HW113406   6.181   6.083   3.534 -1.1791  1.1193 -0.4515
 4169SOL    HW213407   6.173   6.172   3.671 -0.6829  0.4766  0.0003
 4170SOL     OW13408   2.663   4.511   5.814  0.1228  1.0611  0.2999
 4170SOL    HW113409   2.698   4.592   5.861 -0.3570  1.8664 -0.6885
 4170SOL    HW213410   2.579   4.480   5.859  0.6099  0.7691  1.0189
 4171SOL     OW13411   0.833   6.223   5.686  0.4613  0.0591  0.1592
 4171SOL    HW113412   0.831   6.267   5.775  0.6341  0.1609  0.1136
 4171SOL    HW213413   0.799   6.286   5.616 -0.8222 -0.4280  0.3214
 4172SOL     OW13414   3.036   4.382   5.313  0.3262 -0.5992 -0.6862
 4172SOL    HW113415   2.988   4.450   5.258 -1.1857 -0.6963  0.4514
 4172SOL    HW213416   3.025   4.292   5.272  0.3386 -0.4846 -0.9416
 4173SOL     OW13417   6.464   4.002   0.727 -0.0612 -0.4068  0.3120
 4173SOL    HW113418   6.465   4.013   0.827 -2.4970 -1.0392  0.4780
 4173SOL    HW213419   6.415   3.919   0.704 -0.3510  0.2214 -1.4545
 4174SOL     OW13420   4.846   3.314   5.129 -0.4299  0.2646 -0.2583
 4174SOL    HW113421   4.944   3.322   5.146 -0.6003  0.9008  0.4937
 4174SOL    HW213422   4.815   3.393   5.075 -0.5296  0.0565 -0.5110
 4175SOL     OW13423   4.726   3.081   1.052  0.7478  0.2499  0.2424
 4175SOL    HW113424   4.786   3.160   1.036  0.3219  0.2121 -1.7064
 4175SOL    HW213425   4.646   3.087   0.992  1.3397 -2.3256 -0.9260
 4176SOL     OW13426   5.325   6.135   6.210 -0.7960  0.1892  0.4859
 4176SOL    HW113427   5.272   6.064   6.257 -1.4961  0.7776  0.5994
 4176SOL    HW213428   5.409   6.152   6.261 -1.5826  0.8743  1.6047
 4177SOL     OW13429   6.477   4.873   3.724  0.4625  0.4795 -0.2619
 4177SOL    HW113430   6.536   4.906   3.650  0.8433 -0.1741 -0.2565
 4177SOL    HW213431   6.382   4.870   3.693  0.5669  0.5983 -0.5892
 4178SOL     OW13432   1.432   4.077   3.873  0.1511  0.5064  0.5420
 4178SOL    HW113433   1.392   3.986   3.863 -0.2681  0.6532  0.8596
 4178SOL    HW213434   1.439   4.100   3.971  0.8174  0.5707  0.4891
 4179SOL     OW13435   1.825   6.750   6.090  0.0014 -0.3640 -0.0873
 4179SOL    HW113436   1.789   6.825   6.146  0.8327  0.3447 -0.4863
 4179SOL    HW213437   1.754   6.718   6.027  0.3931  1.8959 -1.7765
 4180SOL     OW13438   4.506   0.560   0.338  0.4115 -0.2702  0.2692
 4180SOL    HW113439   4.481   0.623   0.412  1.1919  2.6447 -1.7862
 4180SOL    HW213440   4.428   0.500   0.318 -1.5358  2.0935  0.3580
 4181SOL     OW13441   5.514   4.317   1.682  0.1543  0.0194 -0.2264
 4181SOL    HW113442   5.471   4.381   1.618  0.4537 -0.0479 -0.5024
 4181SOL    HW213443   5.458   4.308   1.764  0.5343  1.2786  0.1819
 4182SOL     OW13444   2.331   4.126   1.272 -0.6977  0.4676  0.5270
 4182SOL    HW113445   2.327   4.062   1.349 -1.4090 -0.7285 -0.4764
 4182SOL    HW213446   2.400   4.196   1.291 -1.2074  0.5067  2.4710
 4183SOL     OW13447   1.056   3.059   0.363 -0.2446  0.2740  0.3447
 4183SOL    HW113448   1.055   2.982   0.426  2.0612  0.4933  0.7284
 4183SOL    HW213449   0.962   3.083   0.338 -1.0457 -2.8402 -0.0592
 4184SOL     OW13450   3.262   6.475   4.539 -0.3921 -0.6226 -0.0485
 4184SOL    HW113451   3.289   6.563   4.501  0.4737 -1.0043 -0.3354
 4184SOL    HW213452   3.164   6.461   4.525 -0.5002  0.2231 -0.1370
 4185SOL     OW13453   6.689   5.724   5.027  0.0039 -0.1363  0.0179
 4185SOL    HW113454   6.608   5.781   5.016  0.5207  0.8421  1.0347
 4185SOL    HW213455   6.708   5.711   5.124  0.8035 -0.7390 -0.2030
 4186SOL     OW13456   2.161   0.677   2.221 -0.1160 -0.3368 -0.3163
 4186SOL    HW113457   2.186   0.691   2.317 -1.0389  0.2924 -0.1598
 4186SOL    HW213458   2.159   0.765   2.173  1.8639 -0.7786 -1.3218
 4187SOL     OW13459   0.330   1.453   0.901  0.3807  0.4810 -0.5585
 4187SOL    HW113460   0.244   1.484   0.941  0.0672  1.5371 -1.9753
 4187SOL    HW213461   0.316   1.365   0.855  0.1659  0.4417 -0.4195
 4188SOL     OW13462   4.501   5.519   5.366  0.1579  0.2581  0.3774
 4188SOL    HW113463   4.449   5.602   5.344 -1.5860 -1.2073 -1.3572
 4188SOL    HW213464   4.470   5.482   5.453 -1.0415 -0.0367 -0.1547
 4189SOL     OW13465   5.499   0.357   4.680  0.0823 -0.5922  0.1059
 4189SOL    HW113466   5.555   0.397   4.607  0.6631 -0.8883  0.3792
 4189SOL    HW213467   5.454   0.430   4.732  0.4574 -0.3326  0.0665
 4190SOL     OW13468   1.484   0.735   1.579  0.0156 -0.9426  0.3893
 4190SOL    HW113469   1.465   0.761   1.674 -1.0953  2.7127 -0.6779
 4190SOL    HW213470   1.520   0.814   1.529  0.0968 -2.5984 -2.3910
 4191SOL     OW13471   4.491   4.459   5.315 -0.2572  0.5124  0.3115
 4191SOL    HW113472   4.455   4.459   5.222  0.0974 -1.8301  0.1117
 4191SOL    HW213473   4.429   4.509   5.376 -0.8870  1.4026 -1.0290
 4192SOL     OW13474   0.820   0.490   4.184  0.2077  0.7330  0.0870
 4192SOL    HW113475   0.888   0.506   4.256 -0.1225 -0.0651  0.5852
 4192SOL    HW213476   0.728   0.494   4.225  0.0665 -1.2456  0.0168
 4193SOL     OW13477   1.985   2.838   2.126 -0.2330 -0.3748 -0.3634
 4193SOL    HW113478   2.065   2.868   2.073 -0.1936  0.0417 -0.0755
 4193SOL    HW213479   1.929   2.918   2.149  0.1331 -0.4552  0.8571
 4194SOL     OW13480   6.579   1.680   6.072  0.5117 -0.1880  0.3266
 4194SOL    HW113481   6.558   1.603   6.012  0.7320 -0.1745  0.2340
 4194SOL    HW213482   6.585   1.764   6.018  2.0170 -0.3783  0.1798
 4195SOL     OW13483   3.244   4.905   5.161  0.0569  0.3456  0.4613
 4195SOL    HW113484   3.343   4.892   5.156 -0.0680 -1.1894  1.3994
 4195SOL    HW213485   3.206   4.912   5.069  1.1389  2.0925  0.0923
 4196SOL     OW13486   4.935   1.261   6.821 -0.8619  0.3392  0.1395
 4196SOL    HW113487   4.895   1.351   6.836 -2.6563 -0.6628  1.7735
 4196SOL    HW213488   4.870   1.190   6.847  0.8520 -1.4437 -0.1440
 4197SOL     OW13489   4.815   1.985   1.582  0.0798  0.1465 -0.9294
 4197SOL    HW113490   4.791   1.976   1.679 -1.4373  0.7977 -1.2104
 4197SOL    HW213491   4.853   2.076   1.565  0.8960 -0.1733 -0.8529
 4198SOL     OW13492   0.342   4.932   5.639 -0.0540  0.3948  0.1521
 4198SOL    HW113493   0.401   5.005   5.606 -1.0312  1.2249  0.1930
 4198SOL    HW213494   0.312   4.952   5.732 -0.5934  0.1144  0.0457
 4199SOL     OW13495   2.891   2.998   6.314  0.3623  0.4686 -0.5579
 4199SOL    HW113496   2.806   3.050   6.321  0.4638  0.5511  0.1574
 4199SOL    HW213497   2.872   2.909   6.273 -0.2666  0.0585  0.5938
 4200SOL     OW13498   1.054   1.863   0.635 -0.1122  0.3857  0.4734
 4200SOL    HW113499   1.033   1.903   0.546 -1.5767  0.2946  0.7597
 4200SOL    HW213500   0.992   1.787   0.653  0.1558  0.4190  1.5861
 4201SOL     OW13501   5.352   6.468   3.704 -0.4170 -0.7826  0.4165
 4201SOL    HW113502   5.402   6.408   3.643 -1.3451  0.0452 -1.2375
 4201SOL    HW213503   5.350   6.429   3.796  1.5906 -1.7307  0.0902
 4202SOL     OW13504   6.068   4.241   0.577 -0.8696 -0.0691  0.4701
 4202SOL    HW113505   6.048   4.329   0.534 -1.2176 -0.0279  0.7196
 4202SOL    HW213506   6.055   4.168   0.510  1.5538  0.2117 -0.4291
 4203SOL     OW13507   3.186   3.427   3.422 -0.0925 -0.1152 -0.1620
 4203SOL    HW113508   3.236   3.499   3.470  1.0522 -0.7465 -0.3506
 4203SOL    HW213509   3.210   3.428   3.325 -2.6056  1.3308 -0.8396
 4204SOL     OW13510   1.707   2.537   0.662 -0.1132 -0.1791  0.3111
 4204SOL    HW113511   1.756   2.465   0.614  0.3301  0.7789 -0.7121
 4204SOL    HW213512   1.746   2.550   0.753  0.5479 -0.4509  0.0665
 4205SOL     OW13513   6.390   0.405   2.849 -0.8587  0.0703  0.1468
 4205SOL    HW113514   6.341   0.337   2.795 -0.6756  0.2940 -0.3017
 4205SOL    HW213515   6.390   0.493   2.801  1.8736 -0.4372 -0.9299
 4206SOL     OW13516   6.647   0.532   5.763  0.5737 -0.0811  0.2743
 4206SOL    HW113517   6.578   0.517   5.691  0.6078  0.2929  0.1652
 4206SOL    HW213518   6.731   0.485   5.738  1.0047  1.1011 -0.5518
 4207SOL     OW13519   6.428   3.331   5.342 -0.1238 -0.2645 -0.3817
 4207SOL    HW113520   6.446   3.416   5.292  5.1519 -2.9507 -4.0345
 4207SOL    HW213521   6.356   3.280   5.296  0.0595  0.1782 -1.1771
 4208SOL     OW13522   4.395   1.023   1.702  0.2249 -0.2770  0.2543
 4208SOL    HW113523   4.313   0.971   1.723  0.8676 -0.9743  1.1420
 4208SOL    HW213524   4.427   1.001   1.610 -2.1672  2.1756 -1.3195
 4209SOL     OW13525   1.841   2.388   1.010 -0.5236 -0.2078  0.1975
 4209SOL    HW113526   1.817   2.294   1.032 -0.1426  0.0379  1.7705
 4209SOL    HW213527   1.784   2.451   1.063  1.5011  0.3966  1.7791
 4210SOL     OW13528   2.815   1.889   5.633  0.1170  0.1368  0.4689
 4210SOL    HW113529   2.739   1.846   5.682  0.7647  0.2619  1.6005
 4210SOL    HW213530   2.786   1.978   5.598  0.6881  1.8495  3.9426
 4211SOL     OW13531   0.581   1.395   4.244 -0.1780  0.1191  0.2820
 4211SOL    HW113532   0.482   1.402   4.254 -0.2055 -2.1889  3.0867
 4211SOL    HW213533   0.607   1.298   4.242  1.9815  0.6535 -1.5499
 4212SOL     OW13534   0.552   4.461   0.297 -0.1766  0.1603  0.0032
 4212SOL    HW113535   0.488   4.419   0.232 -1.5395  0.9924  0.7715
 4212SOL    HW213536   0.550   4.411   0.383 -0.0401  0.4072  0.1500
 4213SOL     OW13537   4.882   2.619   0.944 -0.0374  0.0351 -0.2002
 4213SOL    HW113538   4.803   2.557   0.943  0.4044 -0.6139  1.9064
 4213SOL    HW213539   4.868   2.690   1.012  1.2270 -0.1237  0.2450
 4214SOL     OW13540   6.270   3.689   3.106 -0.0810  0.2815 -0.7212
 4214SOL    HW113541   6.278   3.747   3.186 -0.8886  0.3963 -0.7225
 4214SOL    HW213542   6.342   3.713   3.040  0.4337  0.3453 -0.1478
 4215SOL     OW13543   3.051   6.068   4.135  0.2366 -0.3483 -0.9579
 4215SOL    HW113544   3.079   5.980   4.098  1.9966 -0.2003 -0.0942
 4215SOL    HW213545   3.043   6.062   4.234  1.6549  0.7342 -0.7358
 4216SOL     OW13546   6.722   4.934   5.274 -0.0828 -0.0444 -0.0659
 4216SOL    HW113547   6.684   4.927   5.366 -5.5492 -1.8384 -2.0695
 4216SOL    HW213548   6.783   4.857   5.256  1.6833  0.7303  2.0757
 4217SOL     OW13549   1.516   4.770   6.696 -0.4183 -0.1979 -0.0773
 4217SOL    HW113550   1.439   4.717   6.658 -1.9815  1.4942  0.5966
 4217SOL    HW213551   1.546   4.837   6.628  0.8222 -1.1582 -0.5124
 4218SOL     OW13552   5.274   1.690   5.380 -0.2986 -0.2014 -0.0364
 4218SOL    HW113553   5.315   1.709   5.290 -1.7617 -1.4611 -1.0272
 4218SOL    HW213554   5.341   1.643   5.437  0.8375  1.1005 -0.2542
 4219SOL     OW13555   3.812   4.782   1.399  0.1108 -0.2622 -0.9495
 4219SOL    HW113556   3.769   4.700   1.361 -0.0024  0.9626 -3.7108
 4219SOL    HW213557   3.753   4.819   1.471  0.1583 -2.5192  0.3415
 4220SOL     OW13558   1.510   0.359   5.902 -0.1489  0.5585 -0.8839
 4220SOL    HW113559   1.427   0.397   5.860  0.0009  0.0973 -1.6164
 4220SOL    HW213560   1.513   0.261   5.886  1.0714  0.7212 -1.8094
 4221SOL     OW13561   0.585   5.584   5.623 -0.1257 -0.0279  0.6927
 4221SOL    HW113562   0.486   5.586   5.608  0.1495 -0.4110 -1.5471
 4221SOL    HW213563   0.632   5.596   5.535  1.8040 -2.1574  1.3530
 4222SOL     OW13564   3.687   0.932   6.663 -0.2506 -0.0130 -0.0868
 4222SOL    HW113565   3.608   0.880   6.631 -0.1771 -0.7042  0.8024
 4222SOL    HW213566   3.762   0.869   6.683  0.9597  0.7312 -2.0449
 4223SOL     OW13567   3.415   0.828   5.815 -0.1775  0.4249 -0.1414
 4223SOL    HW113568   3.496   0.794   5.769 -0.9957  2.1131 -3.1291
 4223SOL    HW213569   3.442   0.890   5.889  1.1899 -0.9054  0.5335
 4224SOL     OW13570   5.412   1.369   2.731  0.2923  0.3837  0.1276
 4224SOL    HW113571   5.386   1.297   2.795  0.2762 -1.1734 -1.5412
 4224SOL    HW213572   5.330   1.405   2.686  0.5298 -1.4617 -1.9609
 4225SOL     OW13573   5.691   3.544   4.284  0.0598  0.1995  0.2031
 4225SOL    HW113574   5.661   3.506   4.196  0.5450  0.6593 -0.1628
 4225SOL    HW213575   5.768   3.605   4.270 -0.0684  0.5407  0.9148
 4226SOL     OW13576   1.621   5.027   6.528  0.4438 -0.0323  0.3550
 4226SOL    HW113577   1.643   4.963   6.455 -1.0885  1.7637 -1.8377
 4226SOL    HW213578   1.703   5.077   6.555  1.0792 -0.9049  0.0740
 4227SOL     OW13579   0.441   2.050   5.845  0.3981  0.1629 -0.7388
 4227SOL    HW113580   0.445   1.991   5.764  0.0596  1.3208 -1.6132
 4227SOL    HW213581   0.510   2.122   5.837  0.2395  0.3947 -0.0640
 4228SOL     OW13582   2.925   3.755   3.933 -0.6577 -0.3045  0.2520
 4228SOL    HW113583   2.984   3.829   3.901 -0.4512 -0.3102  0.6054
 4228SOL    HW213584   2.887   3.706   3.855 -0.6800  0.0834  0.0169
 4229SOL     OW13585   6.455   3.559   5.867 -0.3377 -0.1688 -0.4645
 4229SOL    HW113586   6.517   3.520   5.935  1.2563 -1.0144 -2.3116
 4229SOL    HW213587   6.385   3.491   5.844  1.7126 -1.6792 -2.7712
 4230SOL     OW13588   3.380   0.034   3.654  0.8126 -0.4208  0.5999
 4230SOL    HW113589   3.396   0.058   3.750  0.9874 -0.0762  0.4849
 4230SOL    HW213590   3.450   0.076   3.597  0.4616 -0.2730  0.2751
 4231SOL     OW13591   6.098   5.403   6.382 -0.5484 -0.2553 -0.2213
 4231SOL    HW113592   6.184   5.418   6.333  0.2372 -2.4639  0.3367
 4231SOL    HW213593   6.106   5.433   6.476 -0.1939 -0.9228 -0.0345
 4232SOL     OW13594   4.038   1.947   5.328 -0.1867  0.3837 -0.0748
 4232SOL    HW113595   4.036   1.858   5.374  0.5457  1.2538  1.7377
 4232SOL    HW213596   4.031   1.933   5.229 -1.3245 -1.5989  0.2241
 4233SOL     OW13597   1.772   4.625   6.647 -0.4442 -0.0369 -0.0561
 4233SOL    HW113598   1.798   4.640   6.552 -0.4864 -2.6758 -0.5517
 4233SOL    HW213599   1.700   4.691   6.673 -0.6911  0.4833 -1.9440
 4234SOL     OW13600   5.441   2.461   2.864 -0.3296 -0.2813  0.4224
 4234SOL    HW113601   5.378   2.402   2.815 -1.0601  0.9324 -0.1488
 4234SOL    HW213602   5.519   2.483   2.805 -0.4315 -0.0707  0.3663
 4235SOL     OW13603   0.071   4.017   2.550  0.1255 -0.3354 -0.1263
 4235SOL    HW113604   0.068   3.917   2.550 -2.4112 -0.3356 -0.5340
 4235SOL    HW213605   0.108   4.049   2.637 -0.1854 -1.6380  0.5156
 4236SOL     OW13606   6.657   1.240   2.018  0.3127  0.2077  0.1884
 4236SOL    HW113607   6.608   1.208   2.098 -0.7198  0.9782 -0.1160
 4236SOL    HW213608   6.720   1.169   1.986  2.2465  0.5819  2.8378
 4237SOL     OW13609   6.433   6.084   1.834 -0.0823 -0.2693  0.8389
 4237SOL    HW113610   6.424   6.156   1.766  0.6612 -0.9608 -0.0108
 4237SOL    HW213611   6.390   6.113   1.919 -1.3346  0.4679 -0.0219
 4238SOL     OW13612   5.097   1.591   3.189 -0.0358  0.1858  0.6547
 4238SOL    HW113613   5.180   1.609   3.135 -0.4404 -0.9867 -0.4159
 4238SOL    HW213614   5.111   1.623   3.282  1.4712  0.3992  0.3910
 4239SOL     OW13615   3.214   4.071   1.202 -0.5877  0.1804 -0.0487
 4239SOL    HW113616   3.241   4.011   1.126 -0.1649 -0.1833  0.3856
 4239SOL    HW213617   3.116   4.061   1.219 -0.3036 -1.3493  0.8482
 4240SOL     OW13618   0.600   3.008   0.493 -0.5412  0.1235 -0.6927
 4240SOL    HW113619   0.679   2.955   0.524 -0.6636 -0.3824 -1.2443
 4240SOL    HW213620   0.573   3.072   0.565  0.6005  0.5621 -0.6399
 4241SOL     OW13621   1.697   6.951   6.765  0.1263  0.5044 -0.3942
 4241SOL    HW113622   1.700   6.944   6.666  3.9903  0.0397 -0.4240
 4241SOL    HW213623   1.742   6.872   6.806  0.1027  1.4554  1.6374
 4242SOL     OW13624   6.988   0.910   0.349  0.1545 -0.0754 -0.4583
 4242SOL    HW113625   6.923   0.971   0.303 -0.0870  0.0939  0.1016
 4242SOL    HW213626   7.071   0.902   0.294  0.0583  0.5000 -0.6938
 4243SOL     OW13627   3.544   0.548   5.376 -0.0881 -0.8119  0.3157
 4243SOL    HW113628   3.539   0.448   5.372  2.3557 -1.0107  0.3447
 4243SOL    HW213629   3.608   0.581   5.306 -0.4763  0.7002  0.6328
 4244SOL     OW13630   5.511   1.824   0.275 -0.2922 -0.4058 -0.7800
 4244SOL    HW113631   5.567   1.821   0.358 -1.1936  2.3197  0.0515
 4244SOL    HW213632   5.567   1.800   0.196  1.4451 -0.0020  0.2725
 4245SOL     OW13633   5.454   2.609   6.221 -0.2662 -0.2590 -0.2630
 4245SOL    HW113634   5.437   2.678   6.291 -1.0496  1.1674 -1.7961
 4245SOL    HW213635   5.395   2.530   6.237  0.9543 -0.8221  1.7677
 4246SOL     OW13636   5.046   5.636   1.841  0.8755 -0.6552  0.1426
 4246SOL    HW113637   4.986   5.597   1.772  3.0683 -4.6009  0.1529
 4246SOL    HW213638   4.992   5.680   1.912 -1.7077 -0.9052 -1.5575
 4247SOL     OW13639   6.538   0.310   1.820  0.3890 -0.2104 -0.4421
 4247SOL    HW113640   6.488   0.233   1.858  0.4712 -0.8999 -1.6742
 4247SOL    HW213641   6.603   0.345   1.888  0.9246 -1.7368 -0.1299
 4248SOL     OW13642   0.243   2.018   3.060  0.3740  0.2487  0.1700
 4248SOL    HW113643   0.330   1.971   3.076  0.0072 -0.0668  1.3292
 4248SOL    HW213644   0.256   2.117   3.074  0.7071  0.2910 -0.3964
 4249SOL     OW13645   0.398   2.567   5.748 -0.8290  0.3430  0.2702
 4249SOL    HW113646   0.435   2.501   5.814 -0.7296  0.2486  0.1218
 4249SOL    HW213647   0.447   2.558   5.661 -2.0619 -0.7028 -0.3526
 4250SOL     OW13648   5.506   4.787   2.143 -0.1544  0.4281 -0.1739
 4250SOL    HW113649   5.603   4.762   2.147 -0.2446  0.0255 -0.4328
 4250SOL    HW213650   5.491   4.849   2.067  0.3102  2.4071  1.2667
 4251SOL     OW13651   5.165   3.696   6.422 -0.0549  0.2909 -0.5585
 4251SOL    HW113652   5.114   3.726   6.342  2.1757 -0.7901 -2.4929
 4251SOL    HW213653   5.210   3.609   6.402  0.1473 -0.2878  2.0824
 4252SOL     OW13654   6.555   5.483   2.006  0.6120  0.1029  0.5901
 4252SOL    HW113655   6.483   5.551   1.995 -0.3054 -0.9966 -0.4059
 4252SOL    HW213656   6.637   5.512   1.957  0.6747  1.0869  1.2521
 4253SOL     OW13657   2.277   3.936   5.554 -0.2581  0.1617 -0.3202
 4253SOL    HW113658   2.324   3.847   5.550 -1.7720 -0.6472 -3.5076
 4253SOL    HW213659   2.336   4.006   5.514 -0.7090 -0.3517 -1.9607
 4254SOL     OW13660   4.863   6.540   2.390 -0.4045 -0.1913  0.4457
 4254SOL    HW113661   4.842   6.619   2.448  0.8549 -0.8168  1.7804
 4254SOL    HW213662   4.781   6.484   2.379 -1.1304  0.8968  0.0577
 4255SOL     OW13663   6.229   4.170   1.358 -0.1172  0.3509  0.2996
 4255SOL    HW113664   6.323   4.192   1.335  0.6600 -0.3930  2.5105
 4255SOL    HW213665   6.200   4.089   1.308  0.2265  0.8752 -0.7699
 4256SOL     OW13666   0.494   2.347   2.369 -0.0420 -0.2715 -0.6207
 4256SOL    HW113667   0.404   2.340   2.410 -0.1819  0.7968 -0.7328
 4256SOL    HW213668   0.557   2.284   2.415 -0.5288 -0.0875  0.3047
 4257SOL     OW13669   6.112   0.405   2.356  0.3821  0.0673 -0.3295
 4257SOL    HW113670   6.082   0.334   2.291  1.2904  0.2658 -0.9763
 4257SOL    HW213671   6.059   0.488   2.341 -1.6336 -0.8271  1.3106
 4258SOL     OW13672   1.518   2.852   2.445 -0.2011  0.2889  0.2782
 4258SOL    HW113673   1.494   2.902   2.362  0.9271  1.2192  0.4804
 4258SOL    HW213674   1.599   2.894   2.487  0.9131 -1.8255  0.3701
 4259SOL     OW13675   2.663   1.080   6.369 -0.3067  0.1441  0.1595
 4259SOL    HW113676   2.699   0.987   6.376 -2.3081 -0.6879  0.1769
 4259SOL    HW213677   2.694   1.121   6.283  1.4368 -0.1219  0.6197
 4260SOL     OW13678   1.048   2.968   5.326 -0.1255 -0.1943  0.0269
 4260SOL    HW113679   1.081   2.898   5.390  0.4700  0.7119  0.7412
 4260SOL    HW213680   1.024   3.051   5.378 -1.1242  0.0276 -0.7651
 4261SOL     OW13681   6.388   0.418   0.124  0.2391  0.0026  0.0648
 4261SOL    HW113682   6.381   0.513   0.092 -1.4264 -1.0973 -3.2567
 4261SOL    HW213683   6.473   0.407   0.176  2.7303  2.3981 -3.0730
 4262SOL     OW13684   0.780   0.404   0.389  0.1483  0.0867  0.1709
 4262SOL    HW113685   0.774   0.343   0.310  2.8070  0.2454 -0.2519
 4262SOL    HW213686   0.725   0.366   0.464 -2.3546 -0.1243 -1.6219
 4263SOL     OW13687   2.483   0.156   0.684  0.5392 -0.5744  0.2393
 4263SOL    HW113688   2.553   0.226   0.672  0.2496 -0.2147  0.5855
 4263SOL    HW213689   2.429   0.178   0.766 -1.4148  0.4327 -1.2328
 4264SOL     OW13690   5.639   0.999   7.016 -0.1205 -0.1249  0.1869
 4264SOL    HW113691   5.552   0.990   6.967  0.6298  0.2831 -1.2493
 4264SOL    HW213692   5.628   0.961   7.108 -1.5611 -0.8976 -0.2608
 4265SOL     OW13693   6.132   3.065   3.136  0.1865  0.6337 -0.2053
 4265SOL    HW113694   6.214   3.087   3.084 -0.5018 -0.9951 -2.0976
 4265SOL    HW213695   6.066   3.140   3.128  0.9145  1.3291  0.1475
 4266SOL     OW13696   0.194   4.329   7.016  0.0494 -0.5478  0.4836
 4266SOL    HW113697   0.269   4.318   7.080  0.5192  0.8876  0.2001
 4266SOL    HW213698   0.219   4.394   6.944 -1.0736 -0.8510 -0.2232
 4267SOL     OW13699   2.136   1.598   5.533 -0.1339  0.3343 -0.1205
 4267SOL    HW113700   2.104   1.543   5.611  0.3635 -0.2877 -0.3466
 4267SOL    HW213701   2.224   1.639   5.556 -1.0434  2.0670  0.5111
 4268SOL     OW13702   1.707   6.934   1.175  0.5484 -0.2279 -0.6412
 4268SOL    HW113703   1.696   7.002   1.102  0.2903  1.0446  0.5612
 4268SOL    HW213704   1.659   6.850   1.149  2.4389 -0.6842 -3.0018
 4269SOL     OW13705   1.692   5.935   0.317 -0.4103 -0.0730 -0.4504
 4269SOL    HW113706   1.633   5.875   0.264  1.7553 -0.8181 -2.2141
 4269SOL    HW213707   1.779   5.948   0.268  0.2561  2.3479  1.1482
 4270SOL     OW13708   1.836   2.677   0.327  0.0936  0.1212 -0.5089
 4270SOL    HW113709   1.821   2.725   0.414 -0.3755 -1.7215  0.4910
 4270SOL    HW213710   1.934   2.672   0.308  0.3474 -1.0387  0.9122
 4271SOL     OW13711   5.813   3.019   6.201 -0.2385  0.1703 -0.4871
 4271SOL    HW113712   5.815   3.026   6.102 -0.4027 -0.5705 -0.5459
 4271SOL    HW213713   5.904   2.993   6.234 -0.6211 -1.3506 -0.5915
 4272SOL     OW13714   3.655   0.023   3.650 -0.1892  0.0710 -0.1511
 4272SOL    HW113715   3.698   0.069   3.572 -0.2587  0.5830  0.1096
 4272SOL    HW213716   3.646  -0.075   3.630 -0.1229  0.1830 -0.7460
 4273SOL     OW13717   4.800   4.015   4.564 -0.3348  0.2236  0.0299
 4273SOL    HW113718   4.815   4.107   4.528 -0.9652  0.2642 -0.1491
 4273SOL    HW213719   4.767   4.021   4.658  0.4182  0.1483  0.3036
 4274SOL     OW13720   2.487   0.933   3.963 -0.1490 -0.2428  0.2064
 4274SOL    HW113721   2.451   0.849   4.003 -0.5769  0.6130  1.7076
 4274SOL    HW213722   2.587   0.933   3.969 -0.1841 -0.3265  0.8979
 4275SOL     OW13723   4.027   6.678   6.580  0.1513 -0.3875  1.3321
 4275SOL    HW113724   4.025   6.667   6.481  1.1483 -0.7347  1.3424
 4275SOL    HW213725   3.940   6.717   6.611 -0.2830 -0.5679  0.3643
 4276SOL     OW13726   4.464   6.529   1.797 -0.3727 -0.1829  0.3054
 4276SOL    HW113727   4.441   6.503   1.891 -0.4310 -0.3895  0.2337
 4276SOL    HW213728   4.545   6.479   1.768  0.3375  0.7303  0.6492
 4277SOL     OW13729   4.969   1.749   6.465 -0.2666 -1.1389  0.1662
 4277SOL    HW113730   4.934   1.655   6.465  0.9988 -1.6303  0.8706
 4277SOL    HW213731   4.965   1.786   6.372 -0.2411 -2.0899 -0.2228
 4278SOL     OW13732   3.069   2.694   6.679  0.1765  0.0885 -0.2680
 4278SOL    HW113733   3.100   2.602   6.654 -0.8658 -0.0849 -0.9493
 4278SOL    HW213734   3.102   2.759   6.610  0.0468  0.0784 -0.3389
 4279SOL     OW13735   3.906   1.415   2.634 -0.0918 -0.0568  0.1839
 4279SOL    HW113736   3.900   1.369   2.723 -1.3586 -0.2212  0.0278
 4279SOL    HW213737   3.818   1.408   2.587  1.0073 -1.4082 -1.8140
 4280SOL     OW13738   0.751   2.684   5.766  0.8097 -0.2664 -0.4858
 4280SOL    HW113739   0.714   2.669   5.674 -1.0409 -1.2677  0.3716
 4280SOL    HW213740   0.780   2.597   5.806  0.4271 -0.0200  0.3519
 4281SOL     OW13741   1.674   4.379   2.917  0.4531  0.0597  0.8210
 4281SOL    HW113742   1.693   4.420   2.828 -2.5805  0.5446  0.2873
 4281SOL    HW213743   1.680   4.280   2.910  0.6462  0.1101  0.1755
 4282SOL     OW13744   0.862   2.002   0.892 -0.5825 -0.2189 -0.1442
 4282SOL    HW113745   0.955   2.011   0.857 -0.5968  0.4142 -0.0146
 4282SOL    HW213746   0.797   2.017   0.818 -0.5901 -0.2508 -0.1441
 4283SOL     OW13747   1.352   4.938   5.652 -0.0508  0.1496  0.1782
 4283SOL    HW113748   1.415   4.862   5.638  0.1260  0.5967 -1.7984
 4283SOL    HW213749   1.301   4.924   5.736  0.8265 -1.5396  0.4732
 4284SOL     OW13750   3.359   1.917   3.126  0.4939  0.0304 -0.3374
 4284SOL    HW113751   3.425   1.892   3.197  0.5935 -0.0821 -0.4684
 4284SOL    HW213752   3.408   1.946   3.044  0.3986  2.2200  0.3272
 4285SOL     OW13753   6.378   1.369   4.529  0.6076  0.0821 -0.6899
 4285SOL    HW113754   6.456   1.429   4.510  1.5122 -0.8965 -0.1081
 4285SOL    HW213755   6.315   1.416   4.591  1.9748 -0.0444  0.8530
 4286SOL     OW13756   4.690   1.705   1.614  0.1803 -0.1843  0.3115
 4286SOL    HW113757   4.702   1.792   1.566 -0.6648 -0.8994 -1.2914
 4286SOL    HW213758   4.629   1.717   1.692 -2.3729  0.1645 -1.6120
 4287SOL     OW13759   3.718   2.710   5.691 -0.3993 -0.3849  0.1838
 4287SOL    HW113760   3.785   2.782   5.710 -0.3233 -0.2597 -0.5292
 4287SOL    HW213761   3.662   2.694   5.772  0.5101 -0.5081  0.8038
 4288SOL     OW13762   5.351   1.407   0.025  0.2648 -0.6695  0.5452
 4288SOL    HW113763   5.260   1.425   0.063  0.3894 -0.2443  0.6535
 4288SOL    HW213764   5.350   1.423  -0.074  0.1336 -1.0149  0.4906
 4289SOL     OW13765   2.257   0.025   4.162  0.0122 -0.8254  0.4380
 4289SOL    HW113766   2.170  -0.019   4.185 -0.2057 -0.1835  0.8881
 4289SOL    HW213767   2.296  -0.017   4.080 -1.8214  0.3270 -1.1111
 4290SOL     OW13768   6.375   4.609   6.058 -0.6495  0.0869 -0.1303
 4290SOL    HW113769   6.388   4.702   6.092  0.0960 -0.5898  1.5265
 4290SOL    HW213770   6.320   4.611   5.974 -2.6011  1.8425  1.1080
 4291SOL     OW13771   6.256   3.216   4.357 -0.0998  0.1213  0.1320
 4291SOL    HW113772   6.213   3.127   4.342  2.8172 -1.0887 -2.0150
 4291SOL    HW213773   6.280   3.226   4.453 -2.2791 -0.4458  0.7939
 4292SOL     OW13774   6.766   2.662   3.657  0.4733  0.5694  0.4402
 4292SOL    HW113775   6.723   2.689   3.571  0.0538  1.0019  0.7785
 4292SOL    HW213776   6.860   2.633   3.640 -0.1826 -1.1302 -0.4257
 4293SOL     OW13777   6.042   3.555   3.063  0.2397  0.5136  0.2395
 4293SOL    HW113778   6.118   3.619   3.064 -0.7166  1.7209  1.7783
 4293SOL    HW213779   5.969   3.591   3.005  1.1447 -1.1064 -2.0270
 4294SOL     OW13780   6.830   1.017   5.782  0.4393 -0.4213  0.0336
 4294SOL    HW113781   6.922   1.043   5.753  0.7675 -0.9228  0.5916
 4294SOL    HW213782   6.765   1.032   5.707  1.0974 -0.7561 -0.6109
 4295SOL     OW13783   4.102   4.417   1.161  0.1151 -0.1666  0.5677
 4295SOL    HW113784   4.069   4.345   1.222 -1.6454  0.0123 -0.1122
 4295SOL    HW213785   4.150   4.486   1.215  0.1164 -0.8702  1.5031
 4296SOL     OW13786   6.158   6.516   2.803  0.0303  0.3065 -0.4335
 4296SOL    HW113787   6.195   6.596   2.849  1.1867  0.0407 -0.8756
 4296SOL    HW213788   6.108   6.544   2.721 -1.5421  0.7350  0.6383
 4297SOL     OW13789   2.680   3.613   0.296 -0.1994 -0.2125 -0.4950
 4297SOL    HW113790   2.684   3.631   0.198  0.1301  1.1599 -0.2527
 4297SOL    HW213791   2.690   3.515   0.312 -0.7130 -0.5113 -1.8469
 4298SOL     OW13792   2.735   1.254   5.912  0.3069 -0.3593  0.0084
 4298SOL    HW113793   2.788   1.334   5.885  0.7438 -0.2386  1.1813
 4298SOL    HW213794   2.649   1.284   5.954 -0.3653 -0.5439 -1.1951
 4299SOL     OW13795   2.297   0.588   0.960  0.0420  0.8366 -0.0823
 4299SOL    HW113796   2.353   0.617   1.038 -1.3649  1.1018  0.8682
 4299SOL    HW213797   2.231   0.659   0.938 -0.5378  0.1548 -0.5919
 4300SOL     OW13798   2.173   2.074   3.191 -0.2104  0.1363 -1.3961
 4300SOL    HW113799   2.163   2.113   3.100  0.5199  1.4384 -0.9389
 4300SOL    HW213800   2.258   2.106   3.232 -0.2296 -0.9126 -0.4745
 4301SOL     OW13801   2.234   4.227   5.641 -0.4806  0.0926 -0.0884
 4301SOL    HW113802   2.193   4.179   5.719 -0.6333 -0.6076 -0.5922
 4301SOL    HW213803   2.332   4.239   5.657 -0.5071 -0.0747  0.1957
 4302SOL     OW13804   6.751   2.253   6.532 -0.4848 -0.1251  0.4763
 4302SOL    HW113805   6.730   2.187   6.604  0.1650 -2.2132 -1.1406
 4302SOL    HW213806   6.816   2.320   6.567 -0.2502 -1.0333  1.8645
 4303SOL     OW13807   4.229   1.051   1.102  0.4090  0.6212  0.3822
 4303SOL    HW113808   4.298   1.123   1.093 -1.1088  2.0264 -0.4802
 4303SOL    HW213809   4.245   0.980   1.032  1.1964  0.7203  0.4525
 4304SOL     OW13810   4.883   2.899   4.467 -0.0743  1.0321 -0.5149
 4304SOL    HW113811   4.873   2.815   4.521 -0.7339  1.0656 -0.5779
 4304SOL    HW213812   4.925   2.970   4.523 -2.3727  1.6328  0.5671
 4305SOL     OW13813   0.077   4.266   5.483 -0.3623  0.4363 -0.3981
 4305SOL    HW113814  -0.019   4.241   5.472 -0.2067  0.2362 -1.3903
 4305SOL    HW213815   0.134   4.203   5.430  0.6920 -1.9814  3.2107
 4306SOL     OW13816   1.239   3.080   2.477 -0.3353 -0.0609 -0.0901
 4306SOL    HW113817   1.237   3.085   2.377 -0.6722 -1.0516 -0.1463
 4306SOL    HW213818   1.332   3.095   2.509 -0.3453  0.9524 -0.5019
 4307SOL     OW13819   3.776   5.152   6.337  0.0769  0.0691 -0.7368
 4307SOL    HW113820   3.809   5.161   6.431  1.6306  0.4893 -1.2986
 4307SOL    HW213821   3.826   5.078   6.291 -0.5059  0.0249 -1.3165
 4308SOL     OW13822   5.004   5.627   3.773  0.3950 -0.9238 -0.1260
 4308SOL    HW113823   4.941   5.570   3.720  0.1707 -0.9145  0.1279
 4308SOL    HW213824   5.000   5.600   3.869  1.3963 -1.4880 -0.2352
 4309SOL     OW13825   0.375   1.319   1.408  0.3529  0.3507  0.3247
 4309SOL    HW113826   0.475   1.322   1.416  0.2789 -0.0295  1.6271
 4309SOL    HW213827   0.335   1.386   1.470 -0.2236 -0.4086  0.7887
 4310SOL     OW13828   5.583   6.993   3.815  0.4145  0.8126 -0.0895
 4310SOL    HW113829   5.522   6.960   3.742  1.9671  1.2972 -1.6817
 4310SOL    HW213830   5.628   7.077   3.785  1.9480  0.4183  0.9848
 4311SOL     OW13831   0.228   4.714   6.411  0.0736 -0.1157  0.1215
 4311SOL    HW113832   0.185   4.641   6.464  0.0127 -0.4232 -0.3433
 4311SOL    HW213833   0.158   4.759   6.354  0.2255 -0.1183 -0.0696
 4312SOL     OW13834   3.005   6.705   5.728  0.5956  0.3670 -0.2220
 4312SOL    HW113835   3.070   6.636   5.760  1.7881  0.7794 -1.6632
 4312SOL    HW213836   2.918   6.661   5.706  0.9672 -0.4978 -0.0099
 4313SOL     OW13837   2.669   6.027   2.136  0.2206  0.3830  0.3224
 4313SOL    HW113838   2.640   6.115   2.098 -0.2212  0.9876  1.9458
 4313SOL    HW213839   2.761   6.035   2.174  0.3978 -0.0242 -0.0072
 4314SOL     OW13840   4.921   1.012   6.011 -0.3940 -0.2569 -0.4187
 4314SOL    HW113841   5.006   1.058   6.036 -1.0035 -0.1916  1.7022
 4314SOL    HW213842   4.854   1.022   6.085 -1.8246 -1.3764 -1.4998
 4315SOL     OW13843   4.983   2.257   5.535  0.0654 -0.5533  0.5515
 4315SOL    HW113844   4.904   2.228   5.590 -1.0105 -0.5610 -0.9152
 4315SOL    HW213845   4.957   2.256   5.438  1.6757  0.1344  0.0877
 4316SOL     OW13846   4.235   4.992   4.363 -1.0013  0.7475  0.0739
 4316SOL    HW113847   4.307   4.995   4.294 -1.0874  0.9761 -0.0054
 4316SOL    HW213848   4.202   4.898   4.372  0.1124  0.4218  0.9400
 4317SOL     OW13849   4.601   0.634   4.986  0.3256 -0.2708 -0.2403
 4317SOL    HW113850   4.665   0.666   5.056  0.9637 -1.2034 -0.3715
 4317SOL    HW213851   4.621   0.679   4.899  0.6570 -0.3830 -0.2236
 4318SOL     OW13852   0.390   4.206   3.539 -0.3896  0.2163  0.4696
 4318SOL    HW113853   0.300   4.171   3.565 -0.4654 -1.3295 -1.6589
 4318SOL    HW213854   0.423   4.268   3.611 -2.3976 -0.4490  2.0755
 4319SOL     OW13855   0.670   6.533   3.332 -0.4212  0.5083 -0.3157
 4319SOL    HW113856   0.748   6.593   3.319 -0.5783  0.9525  0.7355
 4319SOL    HW213857   0.664   6.469   3.255 -0.0048  1.5469 -1.2271
 4320SOL     OW13858   6.535   5.209   1.498  0.2555  0.5363  0.5479
 4320SOL    HW113859   6.457   5.162   1.456  1.4331  0.0050 -1.1494
 4320SOL    HW213860   6.510   5.239   1.590 -1.7203 -0.2039  0.3044
 4321SOL     OW13861   2.321   0.350   0.402  0.8147 -0.7669 -0.0059
 4321SOL    HW113862   2.246   0.345   0.469  1.6668 -0.4400  0.9942
 4321SOL    HW213863   2.283   0.340   0.310 -0.4731 -0.5005  0.4664
 4322SOL     OW13864   4.484   2.202   2.205 -0.2571  0.5482  0.9059
 4322SOL    HW113865   4.401   2.206   2.148  0.7011  0.0960 -0.5757
 4322SOL    HW213866   4.499   2.291   2.248 -0.2980  1.3094 -0.6032
 4323SOL     OW13867   4.449   4.026   5.736  0.3052  0.0407 -0.5175
 4323SOL    HW113868   4.519   4.013   5.666 -1.4500 -2.0084 -2.0244
 4323SOL    HW213869   4.446   3.947   5.796 -0.9526 -0.0907 -0.7272
 4324SOL     OW13870   4.842   1.504   2.191  0.7484 -0.7214  0.0930
 4324SOL    HW113871   4.839   1.404   2.181 -0.3268 -1.2379  3.9419
 4324SOL    HW213872   4.936   1.533   2.212  1.1187 -0.8356 -1.3159
 4325SOL     OW13873   6.488   2.340   2.747  0.0378 -0.4515 -0.0535
 4325SOL    HW113874   6.448   2.358   2.657  0.5012  0.2360 -0.1231
 4325SOL    HW213875   6.415   2.335   2.816 -0.4326 -2.0255 -0.6050
 4326SOL     OW13876   1.450   2.886   6.869 -0.1686  0.0536  0.3199
 4326SOL    HW113877   1.457   2.789   6.893  0.9177  0.0323 -0.0048
 4326SOL    HW213878   1.354   2.914   6.867 -0.4732 -0.9466  0.6855
 4327SOL     OW13879   4.679   1.067   1.528  0.0831  0.0715  0.0448
 4327SOL    HW113880   4.611   1.044   1.458 -1.2092 -1.2900  1.6359
 4327SOL    HW213881   4.654   1.153   1.572 -0.0262  0.1051 -0.0834
 4328SOL     OW13882   1.011   1.411   1.980 -0.2248 -0.2431  0.3993
 4328SOL    HW113883   1.032   1.323   1.938  1.5741  0.0881  0.5202
 4328SOL    HW213884   1.071   1.481   1.942 -0.6816  0.6619  1.2946
 4329SOL     OW13885   4.968   6.405   6.027 -0.3775 -0.2432  0.0680
 4329SOL    HW113886   5.050   6.447   6.066 -0.2769 -0.6902  0.3491
 4329SOL    HW213887   4.986   6.308   6.009 -0.5531 -0.1324 -0.7249
 4330SOL     OW13888   2.645   5.448   6.406 -0.5072  0.3472  0.0286
 4330SOL    HW113889   2.571   5.441   6.473 -0.9404  0.8426 -0.3819
 4330SOL    HW213890   2.688   5.359   6.393 -1.4458 -0.0876 -0.1803
 4331SOL     OW13891   4.721   1.373   0.107 -0.0809 -0.2437 -0.2246
 4331SOL    HW113892   4.752   1.468   0.104 -0.0963 -0.2116  0.3812
 4331SOL    HW213893   4.634   1.365   0.058 -0.5795  0.2653  0.5384
 4332SOL     OW13894   3.929   5.172   2.330  0.0556  0.9436 -0.2986
 4332SOL    HW113895   3.837   5.141   2.354 -0.1804  0.2799 -1.9001
 4332SOL    HW213896   3.961   5.238   2.398 -1.2893  0.6264  0.6932
 4333SOL     OW13897   6.146   1.106   3.539  0.1570 -0.3107  0.0490
 4333SOL    HW113898   6.081   1.076   3.469 -0.3139  1.1108 -0.1632
 4333SOL    HW213899   6.237   1.070   3.518 -0.4754 -2.0266  0.1570
 4334SOL     OW13900   4.385   5.810   3.349 -0.2481  0.7004 -1.1147
 4334SOL    HW113901   4.425   5.719   3.356 -2.2282 -0.2825 -1.7618
 4334SOL    HW213902   4.341   5.820   3.259 -1.5263  1.6460 -0.4105
 4335SOL     OW13903   1.390   2.202   3.684  0.0791  0.8395 -0.3360
 4335SOL    HW113904   1.467   2.209   3.748  0.3537  1.5763 -0.7435
 4335SOL    HW213905   1.322   2.272   3.705 -0.7553 -0.1329  0.3588
 4336SOL     OW13906   6.757   4.058   5.246 -0.3237 -0.7874  0.1449
 4336SOL    HW113907   6.691   3.992   5.210 -0.1365 -1.0567  0.2901
 4336SOL    HW213908   6.830   4.071   5.179 -0.1979 -0.9645  0.2483
 4337SOL     OW13909   4.351   0.015   5.778  0.3588 -0.3272 -0.1805
 4337SOL    HW113910   4.392  -0.048   5.713  1.2039  0.4933 -0.4552
 4337SOL    HW213911   4.359   0.109   5.744  0.3729  0.0682  0.8722
 4338SOL     OW13912   1.994   5.784   4.746  0.0352 -0.2677 -0.0630
 4338SOL    HW113913   1.965   5.875   4.715  1.9766  0.0788 -0.9719
 4338SOL    HW213914   2.043   5.737   4.672  2.9642 -0.2684  1.7345
 4339SOL     OW13915   6.484   4.592   3.574  0.1160 -0.0841 -0.0771
 4339SOL    HW113916   6.501   4.683   3.613 -2.9194  0.9934 -0.9796
 4339SOL    HW213917   6.508   4.522   3.641 -1.1336  1.5306  2.1923
 4340SOL     OW13918   6.688   1.089   0.622  0.2571  0.1241  0.3896
 4340SOL    HW113919   6.591   1.111   0.635 -0.3171 -2.6447  1.7977
 4340SOL    HW213920   6.710   1.090   0.525 -1.2989  0.4329  0.0119
 4341SOL     OW13921   6.773   5.950   4.457  0.6110 -0.1713  0.2314
 4341SOL    HW113922   6.778   5.899   4.543 -1.2300 -1.3118 -0.2835
 4341SOL    HW213923   6.822   5.899   4.386  1.0999  0.1656  0.3227
 4342SOL     OW13924   0.337   1.562   4.202 -0.5606  0.0456 -0.0031
 4342SOL    HW113925   0.242   1.531   4.199 -0.7649  0.6908 -0.2456
 4342SOL    HW213926   0.340   1.660   4.224 -0.0122  0.3019 -1.1385
 4343SOL     OW13927   1.904   4.135   3.269 -0.4093 -0.3186 -0.7234
 4343SOL    HW113928   1.893   4.227   3.233 -1.4803  0.9553  2.5204
 4343SOL    HW213929   1.833   4.076   3.230 -0.8384  0.6577 -1.4721
 4344SOL     OW13930   4.232   2.813   1.053 -0.2701 -0.4687  0.1391
 4344SOL    HW113931   4.222   2.760   1.137  0.4143 -0.4357  0.2467
 4344SOL    HW213932   4.246   2.909   1.076  0.6383 -0.5639  0.0184
 4345SOL     OW13933   6.538   0.081   3.937 -0.0420  0.2560  0.0619
 4345SOL    HW113934   6.546   0.109   4.033  0.8757  0.7653 -0.1516
 4345SOL    HW213935   6.442   0.085   3.909 -0.0233  3.1992  0.0791
 4346SOL     OW13936   0.071   1.875   1.788 -0.0724 -0.0251 -0.0874
 4346SOL    HW113937  -0.024   1.852   1.767 -0.6744  1.0097  1.3185
 4346SOL    HW213938   0.122   1.791   1.807 -0.6462 -0.6023 -1.0601
 4347SOL     OW13939   1.096   4.021   1.757 -0.2416  0.1669  0.1272
 4347SOL    HW113940   1.057   4.019   1.849  0.4981 -1.3028  0.4402
 4347SOL    HW213941   1.026   3.997   1.690 -0.5803  0.4085  0.3986
 4348SOL     OW13942   3.303   5.425   5.024 -0.0448  0.0692  0.0457
 4348SOL    HW113943   3.371   5.441   4.953  0.3108  3.2222  0.9523
 4348SOL    HW213944   3.342   5.366   5.095  0.8083 -0.2861 -0.7040
 4349SOL     OW13945   4.117   0.099   3.419  0.1538  0.6248  0.3832
 4349SOL    HW113946   4.202   0.049   3.406 -0.2285  0.1443 -0.2757
 4349SOL    HW213947   4.092   0.145   3.334 -0.0476  1.0954  0.6878
 4350SOL     OW13948   2.958   6.816   0.064 -0.2644 -0.2792 -0.1299
 4350SOL    HW113949   2.902   6.857   0.136  1.7081  3.3354 -0.3753
 4350SOL    HW213950   2.902   6.799  -0.017 -1.4267  1.2252  0.3141
 4351SOL     OW13951   3.780   3.226   5.660  0.0478  0.1982 -0.3246
 4351SOL    HW113952   3.869   3.192   5.629  0.5356  1.4689 -0.3572
 4351SOL    HW213953   3.753   3.177   5.743  0.8555 -0.0786 -0.2144
 4352SOL     OW13954   6.925   3.868   4.664  0.0982 -0.2925 -0.1796
 4352SOL    HW113955   6.920   3.966   4.643  1.2615 -0.4001 -1.0544
 4352SOL    HW213956   6.862   3.819   4.603 -1.1280 -0.0436  0.8301
 4353SOL     OW13957   0.797   4.576   7.002  0.0984 -0.3801  0.2587
 4353SOL    HW113958   0.758   4.499   6.952 -1.2366 -2.0094  3.4897
 4353SOL    HW213959   0.724   4.625   7.050  1.3018  0.8651  0.8955
 4354SOL     OW13960   1.625   6.213   0.773 -0.7334 -0.2565 -0.3344
 4354SOL    HW113961   1.615   6.312   0.769 -0.2878 -0.2184 -0.6627
 4354SOL    HW213962   1.665   6.180   0.687 -1.7620 -0.8299 -0.6135
 4355SOL     OW13963   5.685   0.301   2.989  0.1327  0.4448 -0.8430
 4355SOL    HW113964   5.644   0.273   3.076  0.7720  0.5340 -0.5053
 4355SOL    HW213965   5.613   0.312   2.920 -0.2890 -0.5739 -0.5866
 4356SOL     OW13966   5.828   4.013   0.601 -0.1064  0.4714  0.0340
 4356SOL    HW113967   5.753   3.969   0.551 -1.2975  2.4315 -0.0205
 4356SOL    HW213968   5.813   4.112   0.603  3.4141  1.1672 -1.5080
 4357SOL     OW13969   4.072   2.849   6.492  0.0599 -0.1754 -0.1418
 4357SOL    HW113970   4.087   2.750   6.492 -0.0714 -0.2420 -2.1047
 4357SOL    HW213971   3.976   2.867   6.510 -0.4753 -0.6027 -2.2371
 4358SOL     OW13972   5.377   4.180   4.575  0.9307 -0.1726 -0.0040
 4358SOL    HW113973   5.278   4.192   4.568  1.0539  1.1906  0.3021
 4358SOL    HW213974   5.398   4.123   4.655  0.3541 -1.7851 -0.9438
 4359SOL     OW13975   2.004   4.557   2.944 -0.4256  0.0002 -0.5845
 4359SOL    HW113976   2.013   4.539   2.846 -1.2271  1.6892 -1.0020
 4359SOL    HW213977   1.924   4.614   2.960 -0.8836 -1.0668  1.1897
 4360SOL     OW13978   2.376   2.457   3.424 -0.0461 -0.1075  0.0746
 4360SOL    HW113979   2.291   2.491   3.382 -0.0161  0.1226  0.2033
 4360SOL    HW213980   2.452   2.471   3.360 -0.2494 -1.1545 -0.4291
 4361SOL     OW13981   2.893   0.086   6.228  0.1761 -0.2226  0.0474
 4361SOL    HW113982   2.831   0.017   6.265  1.3444 -0.6108  1.3844
 4361SOL    HW213983   2.979   0.042   6.200  1.1664  0.7303  1.4691
 4362SOL     OW13984   2.328   5.487   1.237 -0.7844 -0.4882  0.0585
 4362SOL    HW113985   2.347   5.442   1.324 -0.5051  0.4794  0.5082
 4362SOL    HW213986   2.394   5.560   1.222 -1.7567  0.3539 -0.2333
 4363SOL     OW13987   4.037   3.202   6.289 -0.2384 -0.4568  0.2235
 4363SOL    HW113988   4.084   3.198   6.201  1.7528  0.8994  1.1370
 4363SOL    HW213989   3.979   3.121   6.301  1.1518 -1.7465 -1.3892
 4364SOL     OW13990   6.906   1.081   6.319  0.3105  0.4617 -1.1391
 4364SOL    HW113991   6.928   0.985   6.305  1.0519  0.2134  1.2560
 4364SOL    HW213992   6.965   1.138   6.262  0.6843 -0.4714 -1.6996
 4365SOL     OW13993   0.089   4.188   1.298  0.0492  0.2077  0.0372
 4365SOL    HW113994   0.108   4.091   1.285  1.8252  0.5192  0.1589
 4365SOL    HW213995   0.033   4.200   1.380  1.5490 -0.5878  1.2263
 4366SOL     OW13996   1.755   2.484   1.628  0.3522  0.1992  0.5613
 4366SOL    HW113997   1.810   2.401   1.621 -1.1423 -0.6976 -1.4891
 4366SOL    HW213998   1.705   2.498   1.543 -1.2564  1.9325  1.7166
 4367SOL     OW13999   0.503   5.310   6.731 -0.4040 -0.2211  0.1523
 4367SOL    HW114000   0.481   5.212   6.732 -0.2960 -0.2790 -1.3832
 4367SOL    HW214001   0.561   5.330   6.652 -0.9903  1.2161  0.0667
 4368SOL     OW14002   5.210   3.203   0.553 -0.0861  0.0372  0.0306
 4368SOL    HW114003   5.255   3.114   0.543  0.4976  0.0782  1.9351
 4368SOL    HW214004   5.133   3.209   0.489  2.4820 -0.0493 -3.3554
 4369SOL     OW14005   2.553   4.953   2.235 -0.2165 -0.2391  0.2494
 4369SOL    HW114006   2.551   5.021   2.162  1.8112  0.6222  0.9338
 4369SOL    HW214007   2.550   4.861   2.195  0.7408  0.2102 -0.9180
 4370SOL     OW14008   1.421   1.098   0.205  0.1745 -0.0139  0.5797
 4370SOL    HW114009   1.426   1.194   0.233  1.0485  0.1251 -0.0488
 4370SOL    HW214010   1.513   1.062   0.191 -0.2046 -0.0910 -2.0644
 4371SOL     OW14011   2.428   6.287   1.214  0.1270  0.0989 -0.3369
 4371SOL    HW114012   2.457   6.207   1.266  0.6766 -1.4468 -2.8759
 4371SOL    HW214013   2.376   6.348   1.274 -1.3407 -2.6887  1.4509
 4372SOL     OW14014   3.133   4.037   4.325 -0.4490  0.4623 -0.1217
 4372SOL    HW114015   3.089   4.126   4.309  0.1857  0.6893 -0.6621
 4372SOL    HW214016   3.073   3.980   4.381 -0.7952  1.2929  0.3879
 4373SOL     OW14017   2.961   6.624   6.633  0.3466  0.3984  0.2596
 4373SOL    HW114018   2.926   6.681   6.558 -1.7742  0.0124  0.8704
 4373SOL    HW214019   3.029   6.676   6.685 -0.1081  1.6539 -0.3563
 4374SOL     OW14020   1.873   1.821   0.775 -0.1236  0.1570  0.0688
 4374SOL    HW114021   1.795   1.767   0.807 -0.2668  0.4826  0.2760
 4374SOL    HW214022   1.956   1.767   0.781 -0.3865 -0.3175 -0.4965
 4375SOL     OW14023   3.035   1.036   4.252  0.0283 -0.4316  0.2794
 4375SOL    HW114024   3.029   1.126   4.210 -0.4858 -0.4722  0.2588
 4375SOL    HW214025   3.045   1.046   4.351  0.9399 -0.3411  0.1867
 4376SOL     OW14026   1.760   3.184   1.611 -0.1817  0.3134 -0.0323
 4376SOL    HW114027   1.782   3.199   1.515 -1.4578 -1.9220 -0.7568
 4376SOL    HW214028   1.844   3.181   1.665  0.8131 -1.3009 -1.5781
 4377SOL     OW14029   3.528   6.587   1.974  0.4902 -0.2579 -0.4120
 4377SOL    HW114030   3.545   6.638   2.058  0.9813 -0.7039 -0.2358
 4377SOL    HW214031   3.562   6.493   1.984  0.9210 -0.1994 -1.2514
 4378SOL     OW14032   1.199   1.836   5.465 -0.0502 -0.0747 -0.5941
 4378SOL    HW114033   1.111   1.804   5.498 -0.0124  0.2534 -0.1487
 4378SOL    HW214034   1.272   1.795   5.520 -0.0645  1.9722  1.1001
 4379SOL     OW14035   6.344   4.907   0.459 -0.0381  0.1700 -0.4728
 4379SOL    HW114036   6.253   4.903   0.501  0.0399 -0.3330 -0.3455
 4379SOL    HW214037   6.352   4.991   0.405 -0.4000  0.4633 -0.0813
 4380SOL     OW14038   6.871   0.528   3.881  0.0219 -1.0613  0.1762
 4380SOL    HW114039   6.952   0.470   3.871 -1.0859 -2.6278 -0.0306
 4380SOL    HW214040   6.878   0.580   3.966  0.6790 -2.1268  0.7972
 4381SOL     OW14041   2.390   1.605   1.061 -0.3005  0.5832  0.3165
 4381SOL    HW114042   2.378   1.637   1.155 -0.4450 -0.8808  0.8248
 4381SOL    HW214043   2.447   1.670   1.011  0.1826  1.1476  1.5477
 4382SOL     OW14044   4.534   0.956   2.616 -0.2502  0.3718 -0.5226
 4382SOL    HW114045   4.606   0.910   2.564 -0.8298 -1.6338  0.3366
 4382SOL    HW214046   4.570   0.984   2.705 -0.2433  0.3706 -0.5250
 4383SOL     OW14047   4.643   3.156   0.691  0.4228 -0.9019 -0.0582
 4383SOL    HW114048   4.606   3.241   0.654 -0.7829 -0.0519  2.8348
 4383SOL    HW214049   4.629   3.082   0.625 -0.1556  0.7453 -1.8836
 4384SOL     OW14050   6.679   3.723   2.690  0.2577  0.0426 -0.0927
 4384SOL    HW114051   6.708   3.693   2.599  0.5918 -0.1532  0.0754
 4384SOL    HW214052   6.759   3.730   2.749 -0.0288 -0.4000  0.3526
 4385SOL     OW14053   1.759   1.651   1.949  0.5594  0.7360 -0.0152
 4385SOL    HW114054   1.827   1.724   1.951  0.6606  0.7478 -1.9456
 4385SOL    HW214055   1.802   1.566   1.921  0.0803  0.3574  0.3868
 4386SOL     OW14056   6.788   5.596   3.718 -0.2158 -0.3781 -0.7851
 4386SOL    HW114057   6.752   5.534   3.788  0.7601 -1.0343 -0.8527
 4386SOL    HW214058   6.726   5.598   3.640 -0.1731 -1.4047 -0.8570
 4387SOL     OW14059   2.763   0.600   2.664  1.0038 -0.4545 -0.0329
 4387SOL    HW114060   2.671   0.638   2.667  0.8927 -0.6227 -1.0620
 4387SOL    HW214061   2.807   0.625   2.578  1.5782 -1.1475  0.0470
 4388SOL     OW14062   6.772   6.563   4.494 -0.0268 -0.0870  0.0598
 4388SOL    HW114063   6.865   6.598   4.504 -0.2943  0.2554  1.6905
 4388SOL    HW214064   6.738   6.586   4.403  0.6995  1.7597  0.2031
 4389SOL     OW14065   0.118   2.891   3.393 -0.0259 -0.5021 -0.2813
 4389SOL    HW114066   0.174   2.972   3.409  0.1606 -0.5966 -0.4618
 4389SOL    HW214067   0.023   2.919   3.380  0.2480 -0.1784 -1.7799
 4390SOL     OW14068   3.362   1.813   3.579  0.2552  0.6852  0.7305
 4390SOL    HW114069   3.341   1.768   3.666  1.2193  2.5682  1.9969
 4390SOL    HW214070   3.284   1.804   3.518 -1.2145  0.9133  2.4778
 4391SOL     OW14071   1.109   0.205   5.402  0.5414  1.1005  0.0627
 4391SOL    HW114072   1.055   0.251   5.332  1.5263  3.1835  0.5980
 4391SOL    HW214073   1.159   0.130   5.360 -0.1022  1.3003 -1.1330
 4392SOL     OW14074   3.035   6.553   0.088  0.4939 -0.0722  0.1489
 4392SOL    HW114075   3.062   6.514   0.000  0.4228 -0.0207  0.1043
 4392SOL    HW214076   3.018   6.651   0.078 -0.0643 -0.1714  0.0950
 4393SOL     OW14077   5.655   0.018   2.551 -0.0091  0.0655 -0.1750
 4393SOL    HW114078   5.742   0.057   2.582 -0.4078  0.3518  0.5900
 4393SOL    HW214079   5.664  -0.082   2.545  0.3703  0.0919 -0.0969
 4394SOL     OW14080   1.722   0.083   4.739  1.1617  0.1280 -0.4389
 4394SOL    HW114081   1.663   0.132   4.675  0.1923  2.2394  1.9072
 4394SOL    HW214082   1.763   0.148   4.802  1.4193 -1.9065  1.6099
 4395SOL     OW14083   1.069   2.239   5.369  0.5443  0.3186  0.3895
 4395SOL    HW114084   1.064   2.145   5.336  1.8738  1.3714 -3.2585
 4395SOL    HW214085   0.994   2.293   5.330  0.5845  1.0849  1.3227
 4396SOL     OW14086   4.379   3.999   0.508  0.1691 -1.1441  0.2730
 4396SOL    HW114087   4.474   4.025   0.492  0.3667 -1.4013  1.0202
 4396SOL    HW214088   4.320   4.050   0.445  0.6919 -0.1171  0.5811
 4397SOL     OW14089   4.491   2.604   5.582  0.3177 -0.6210  0.1679
 4397SOL    HW114090   4.446   2.593   5.493 -0.1678  0.5222  0.2519
 4397SOL    HW214091   4.558   2.678   5.577 -0.2453 -0.0327  0.9295
 4398SOL     OW14092   3.963   2.897   1.863 -1.2236  0.0485  0.0589
 4398SOL    HW114093   3.883   2.860   1.910 -2.1164 -1.8723 -2.7132
 4398SOL    HW214094   3.933   2.954   1.786  0.1384  0.9811  0.1784
 4399SOL     OW14095   6.020   3.621   5.740  0.3817  0.0352  0.0218
 4399SOL    HW114096   6.091   3.559   5.707  0.8244  0.4093  0.2644
 4399SOL    HW214097   5.934   3.570   5.751  0.4928 -0.3288 -0.6751
 4400SOL     OW14098   6.972   0.947   2.123 -0.2343  0.4372  0.0542
 4400SOL    HW114099   7.063   0.948   2.164  0.6886  1.2224 -1.8733
 4400SOL    HW214100   6.949   0.854   2.095 -1.1435 -0.2380  2.7354
 4401SOL     OW14101   4.902   1.771   0.324 -0.1186 -0.4999  0.2710
 4401SOL    HW114102   4.969   1.701   0.348  0.4322 -0.1143 -0.1358
 4401SOL    HW214103   4.882   1.827   0.404  0.2843 -0.4138  0.3103
 4402SOL     OW14104   6.370   2.221   5.316 -0.5869  0.0217 -0.7117
 4402SOL    HW114105   6.395   2.222   5.413 -3.5967 -0.3555  0.1582
 4402SOL    HW214106   6.408   2.139   5.273  2.7125  1.2892 -0.5292
 4403SOL     OW14107   4.993   2.723   2.990  0.4187  0.3237 -0.0465
 4403SOL    HW114108   4.990   2.641   2.932 -0.9787  2.2774 -2.9716
 4403SOL    HW214109   5.088   2.751   3.003  0.8738 -1.2717  0.3826
 4404SOL     OW14110   3.540   2.648   1.808  0.2503  0.4071 -0.4043
 4404SOL    HW114111   3.568   2.552   1.807  0.7317  0.5453 -1.5639
 4404SOL    HW214112   3.440   2.654   1.816  0.1626 -0.2143 -0.9566
 4405SOL     OW14113   1.033   2.662   1.076  0.1523 -0.3371 -0.3052
 4405SOL    HW114114   0.936   2.660   1.098 -0.1284 -1.4205 -1.5329
 4405SOL    HW214115   1.051   2.733   1.008 -0.0650 -1.1500 -1.2336
 4406SOL     OW14116   0.512   3.609   3.348 -0.1138 -0.2791  0.0427
 4406SOL    HW114117   0.499   3.631   3.252  0.2305  2.0545  0.4672
 4406SOL    HW214118   0.607   3.585   3.365 -0.0214  0.0004 -0.0823
 4407SOL     OW14119   4.995   4.325   1.468 -0.2421 -0.3527 -0.2580
 4407SOL    HW114120   5.057   4.256   1.430 -0.7536 -1.5527  1.0094
 4407SOL    HW214121   5.021   4.344   1.563  0.0734  1.4530 -0.6609
 4408SOL     OW14122   1.202   6.561   1.508  0.6718  0.1294  0.5711
 4408SOL    HW114123   1.265   6.638   1.521  1.6554 -0.4827 -0.3830
 4408SOL    HW214124   1.211   6.526   1.415 -0.8124 -0.2362  0.5369
 4409SOL     OW14125   5.542   6.670   3.698 -0.7095  0.1700 -0.3383
 4409SOL    HW114126   5.505   6.724   3.623 -0.2460  0.9796  0.0020
 4409SOL    HW214127   5.491   6.584   3.706 -1.3967  0.5109 -0.9509
 4410SOL     OW14128   5.725   1.690   0.887  0.1898  0.0290 -0.0456
 4410SOL    HW114129   5.652   1.715   0.951  0.8627  0.6396  0.4957
 4410SOL    HW214130   5.687   1.630   0.816 -0.4973 -0.9893  1.1306
 4411SOL     OW14131   0.024   3.602   3.386 -0.2875 -0.5373  0.1939
 4411SOL    HW114132  -0.058   3.573   3.435 -0.2284  0.3583  0.8494
 4411SOL    HW214133   0.001   3.617   3.290 -1.3531  1.3543  0.6732
 4412SOL     OW14134   2.836   0.969   4.949 -0.1457 -0.1486  0.4290
 4412SOL    HW114135   2.797   1.055   4.916 -1.1411 -0.4509  0.7830
 4412SOL    HW214136   2.870   0.982   5.042  0.0403 -0.0452  0.3473
 4413SOL     OW14137   1.439   1.104   5.528  0.1285 -0.0114 -0.2147
 4413SOL    HW114138   1.500   1.028   5.550 -0.4318  0.2407  2.5836
 4413SOL    HW214139   1.486   1.168   5.467  2.4379 -0.1756  1.2718
 4414SOL     OW14140   5.315   0.033   6.411  0.6495  0.3009  0.1738
 4414SOL    HW114141   5.371  -0.016   6.345 -0.3355 -0.9408  0.2177
 4414SOL    HW214142   5.258   0.100   6.364  0.0760 -0.4613 -0.2527
 4415SOL     OW14143   2.036   1.295   6.869  0.5437 -0.5982 -0.2762
 4415SOL    HW114144   1.943   1.322   6.844  0.8825 -0.3418 -1.2921
 4415SOL    HW214145   2.089   1.276   6.787  1.6657  0.1667  0.2485
 4416SOL     OW14146   5.529   1.675   6.131 -0.6689 -0.5704 -0.2178
 4416SOL    HW114147   5.438   1.661   6.170 -1.0560 -0.7249 -1.1442
 4416SOL    HW214148   5.594   1.611   6.172 -0.5030  0.8521  1.9109
 4417SOL     OW14149   1.356   5.133   1.132 -0.4374 -0.0288  0.6989
 4417SOL    HW114150   1.443   5.086   1.139 -0.3771 -0.1888 -0.9154
 4417SOL    HW214151   1.284   5.077   1.175  0.0771 -0.3418  1.1613
 4418SOL     OW14152   0.039   2.054   1.522 -0.3680 -0.5416  0.5415
 4418SOL    HW114153   0.119   1.993   1.531 -0.3733 -0.4664  1.1193
 4418SOL    HW214154   0.028   2.106   1.606 -0.5718  0.0136  0.1697
 4419SOL     OW14155   6.512   5.812   2.251  0.3880 -0.1285  0.1612
 4419SOL    HW114156   6.430   5.810   2.195  0.2873 -2.5121  0.2871
 4419SOL    HW214157   6.573   5.885   2.219 -1.1172  0.7391 -0.8448
 4420SOL     OW14158   3.943   0.131   2.756  0.1942 -0.2020 -0.1548
 4420SOL    HW114159   3.856   0.139   2.806  0.0472  0.6559 -0.5232
 4420SOL    HW214160   3.928   0.076   2.674 -0.2962  0.9176 -0.8335
 4421SOL     OW14161   5.774   3.316   2.647  0.2671  0.6341  0.0631
 4421SOL    HW114162   5.691   3.260   2.649 -0.6146  1.9248  0.2380
 4421SOL    HW214163   5.817   3.306   2.557  0.6766 -1.0580  0.3970
 4422SOL     OW14164   5.568   1.671   2.862  0.1694  0.3986  0.5079
 4422SOL    HW114165   5.628   1.669   2.942  0.9374  2.5280  0.0640
 4422SOL    HW214166   5.591   1.595   2.801  2.3540  1.0514  0.4315
 4423SOL     OW14167   5.213   5.203   2.574 -0.0032  0.4342 -0.1964
 4423SOL    HW114168   5.192   5.256   2.493  0.6597  1.6216  0.3813
 4423SOL    HW214169   5.310   5.212   2.597 -0.3623  0.9280  1.2735
 4424SOL     OW14170   0.839   1.282   5.922  0.2784  0.6715  0.3870
 4424SOL    HW114171   0.790   1.348   5.979  1.6102  0.7692  1.4701
 4424SOL    HW214172   0.814   1.296   5.826  0.0889  2.3647  0.6513
 4425SOL     OW14173   0.792   2.530   0.060  0.5647  0.3009  0.7750
 4425SOL    HW114174   0.802   2.628   0.074  1.0731 -0.0389  3.1047
 4425SOL    HW214175   0.699   2.510   0.028  1.0813  1.6787 -1.8813
 4426SOL     OW14176   3.640   0.904   5.466  0.2957 -0.0114  0.3546
 4426SOL    HW114177   3.738   0.901   5.445  0.2707  3.1360 -0.7692
 4426SOL    HW214178   3.591   0.847   5.401  1.1945  0.6913 -1.0030
 4427SOL     OW14179   5.298   4.043   1.614 -0.3413 -0.7988 -0.2764
 4427SOL    HW114180   5.224   3.979   1.596 -1.1947  0.2960 -0.8351
 4427SOL    HW214181   5.289   4.078   1.707 -0.4701 -0.7495 -0.3064
 4428SOL     OW14182   6.443   4.107   3.942 -0.3209  0.0728  0.2023
 4428SOL    HW114183   6.417   4.098   4.038 -0.5948 -1.3626  0.0206
 4428SOL    HW214184   6.542   4.118   3.935 -0.4177  1.4003  0.6967
 4429SOL     OW14185   5.129   0.093   0.053  0.2534 -0.0281 -0.5982
 4429SOL    HW114186   5.195   0.166   0.032 -0.7021  0.2379 -2.9678
 4429SOL    HW214187   5.161   0.007   0.014  1.0209 -0.7916  1.5756
 4430SOL     OW14188   4.431   6.408   2.794 -0.5054  0.7449 -0.0605
 4430SOL    HW114189   4.429   6.505   2.772  0.4907  0.5376 -1.1824
 4430SOL    HW214190   4.384   6.357   2.721 -1.5196  0.4065  0.7941
 4431SOL     OW14191   6.321   1.296   6.150  0.2477 -0.3963  0.2006
 4431SOL    HW114192   6.406   1.344   6.128 -0.8237  1.0240 -1.0134
 4431SOL    HW214193   6.279   1.264   6.065  0.2046 -2.2992  0.8836
 4432SOL     OW14194   4.307   6.817   1.441  0.4275 -0.7065 -0.2419
 4432SOL    HW114195   4.308   6.768   1.353 -0.1590  0.2248 -0.7882
 4432SOL    HW214196   4.369   6.895   1.437 -0.6114  0.1433 -0.3304
 4433SOL     OW14197   4.458   0.405   1.272  0.0569  0.2040 -0.2398
 4433SOL    HW114198   4.498   0.363   1.353 -1.1730  1.2241  0.9225
 4433SOL    HW214199   4.496   0.360   1.190  1.8594 -0.3546  0.8357
 4434SOL     OW14200   3.812   4.766   0.373 -0.1730 -0.2941  0.3652
 4434SOL    HW114201   3.868   4.849   0.371  0.4468 -0.7044  0.4272
 4434SOL    HW214202   3.864   4.690   0.332 -1.4739 -0.2069 -1.6000
 4435SOL     OW14203   5.717   1.161   4.415 -0.4383 -0.4181 -0.4236
 4435SOL    HW114204   5.681   1.254   4.430  0.4667  0.3571 -2.5516
 4435SOL    HW214205   5.653   1.094   4.453 -1.3113  1.0431  0.8341
 4436SOL     OW14206   1.795   2.696   6.581 -0.5665 -0.3415 -0.0584
 4436SOL    HW114207   1.793   2.696   6.681  0.3446 -0.5001 -0.0341
 4436SOL    HW214208   1.711   2.738   6.546 -1.0674 -0.6303  0.7632
 4437SOL     OW14209   0.424   5.791   5.997  0.0653 -0.3520 -0.3467
 4437SOL    HW114210   0.402   5.845   5.916  0.1260 -0.8993 -0.7301
 4437SOL    HW214211   0.367   5.821   6.073 -0.0425  0.1155 -0.6059
 4438SOL     OW14212   1.396   3.064   4.301  0.0942 -0.4441 -0.1470
 4438SOL    HW114213   1.430   2.970   4.304 -0.6000 -0.7156 -0.5624
 4438SOL    HW214214   1.345   3.084   4.385  0.8610 -0.1923  0.2652
 4439SOL     OW14215   5.827   4.268   1.270  0.1656 -0.0797  0.2430
 4439SOL    HW114216   5.882   4.270   1.354 -0.5725  1.1429  0.7227
 4439SOL    HW214217   5.750   4.331   1.280  1.6946  2.4335 -2.4990
 4440SOL     OW14218   0.728   2.252   6.319  0.0418 -0.0626  0.4106
 4440SOL    HW114219   0.767   2.315   6.252 -1.1575  1.4515  1.0755
 4440SOL    HW214220   0.727   2.159   6.282 -1.1676  0.8158 -1.9438
 4441SOL     OW14221   1.219   0.234   5.025 -0.3190 -0.1431 -0.7894
 4441SOL    HW114222   1.245   0.186   5.109 -1.2146 -0.1347 -0.4927
 4441SOL    HW214223   1.295   0.233   4.961  0.4997  0.1329  0.1496
 4442SOL     OW14224   1.823   6.871   1.719 -0.8216  0.5757 -0.1124
 4442SOL    HW114225   1.741   6.923   1.694 -1.4516 -0.3642 -0.0665
 4442SOL    HW214226   1.795   6.785   1.763  0.1406 -0.4925 -1.5012
 4443SOL     OW14227   3.950   5.992   3.808 -0.0369 -0.5550 -0.5371
 4443SOL    HW114228   3.957   6.090   3.789  1.9382 -0.5338  0.1215
 4443SOL    HW214229   4.013   5.967   3.881 -1.7644 -2.0361  0.5559
 4444SOL     OW14230   1.062   3.565   3.955 -0.4631  0.3836 -0.3944
 4444SOL    HW114231   1.030   3.611   3.872  0.7592  0.5144 -0.8041
 4444SOL    HW214232   1.093   3.473   3.932 -2.6480 -0.6239  0.3807
 4445SOL     OW14233   0.694   2.061   0.634 -0.2700 -0.0144 -0.6586
 4445SOL    HW114234   0.769   2.126   0.620  0.8155 -1.2516 -0.7685
 4445SOL    HW214235   0.607   2.110   0.630  0.3671  1.0733 -3.1411
 4446SOL     OW14236   3.320   0.497   4.086  0.0132  0.3170 -0.2826
 4446SOL    HW114237   3.288   0.463   4.175  2.5691  1.0804  1.0478
 4446SOL    HW214238   3.244   0.498   4.021 -2.1796  0.4688  2.1056
 4447SOL     OW14239   3.835   3.601   4.104  0.0604  0.0059 -0.1032
 4447SOL    HW114240   3.913   3.634   4.157 -0.4461  0.1779  0.5575
 4447SOL    HW214241   3.842   3.634   4.010  2.8020 -3.1178 -1.1944
 4448SOL     OW14242   5.977   2.237   0.777  0.4176  0.2390 -0.5384
 4448SOL    HW114243   5.959   2.239   0.679  0.4877 -0.2474 -0.5658
 4448SOL    HW214244   6.052   2.174   0.796 -0.0229 -0.1769 -0.1152
 4449SOL     OW14245   0.728   6.126   2.214  0.2029 -0.1980 -0.2589
 4449SOL    HW114246   0.722   6.048   2.276  1.6527 -0.0371  0.1227
 4449SOL    HW214247   0.787   6.104   2.137 -0.4251  0.0914 -0.8290
 4450SOL     OW14248   1.274   4.238   6.393 -0.0168  0.0498  0.4664
 4450SOL    HW114249   1.340   4.297   6.346 -1.0416  0.8265 -0.0377
 4450SOL    HW214250   1.181   4.265   6.368 -0.5297 -1.4539  0.6297
 4451SOL     OW14251   5.801   4.679   0.307  0.2493  0.3029 -0.1496
 4451SOL    HW114252   5.733   4.674   0.380  0.2134  1.4570 -0.0843
 4451SOL    HW214253   5.762   4.641   0.223  0.8555 -2.5923  0.7759
 4452SOL     OW14254   6.083   2.107   0.300 -0.0474 -0.1442  0.1183
 4452SOL    HW114255   6.166   2.059   0.271  0.4471  0.7007  0.0962
 4452SOL    HW214256   6.054   2.170   0.229  0.4042  0.9614  0.8792
 4453SOL     OW14257   2.909   0.149   2.207  0.3813  0.4105  0.6080
 4453SOL    HW114258   2.981   0.205   2.248  2.5503 -0.0379 -2.2952
 4453SOL    HW214259   2.841   0.208   2.164  1.2824  0.8500 -0.2355
 4454SOL     OW14260   3.987   3.599   2.569 -0.0825 -0.5531 -0.7556
 4454SOL    HW114261   3.979   3.596   2.669  2.5875  0.8975 -0.3811
 4454SOL    HW214262   3.982   3.507   2.533 -0.4506 -1.1783  0.7952
 4455SOL     OW14263   1.456   0.061   5.759 -0.0394  0.5392 -0.0072
 4455SOL    HW114264   1.516  -0.018   5.743 -2.7292 -1.7657  0.4535
 4455SOL    HW214265   1.423   0.096   5.672 -2.1511 -1.6958 -0.2041
 4456SOL     OW14266   3.294   5.902   1.135 -0.2125  0.2468  0.4496
 4456SOL    HW114267   3.368   5.931   1.074 -1.2770  0.4458 -0.7822
 4456SOL    HW214268   3.331   5.841   1.206  1.2194  0.8171  0.2211
 4457SOL     OW14269   2.944   3.879   4.431  0.4319 -0.1541 -0.3609
 4457SOL    HW114270   2.934   3.871   4.530  0.4540  0.4758 -0.3051
 4457SOL    HW214271   2.876   3.821   4.386  0.2012 -0.1854  0.0192
 4458SOL     OW14272   4.422   4.867   6.519 -0.1553 -0.4664  0.4223
 4458SOL    HW114273   4.442   4.824   6.607 -1.6945 -1.4629  0.3134
 4458SOL    HW214274   4.336   4.832   6.483 -0.0553  0.6667 -1.0223
 4459SOL     OW14275   2.239   0.922   6.088  0.3456  0.1465  0.5193
 4459SOL    HW114276   2.323   0.927   6.142  0.3514  2.2153  0.3998
 4459SOL    HW214277   2.238   0.838   6.035  2.5185  0.2425  0.2537
 4460SOL     OW14278   0.625   0.788   1.100 -0.0621  0.0024 -0.0351
 4460SOL    HW114279   0.539   0.838   1.103 -0.1224 -0.0474 -0.8437
 4460SOL    HW214280   0.646   0.753   1.191 -1.5220 -1.0530 -0.0803
 4461SOL     OW14281   4.945   3.384   0.855  0.2360 -1.3920 -0.6421
 4461SOL    HW114282   4.956   3.299   0.805  0.2862 -1.7613 -0.0163
 4461SOL    HW214283   4.970   3.370   0.951  0.7543 -0.5474 -0.6347
 4462SOL     OW14284   4.966   3.455   2.193  0.4487  0.4101 -0.3529
 4462SOL    HW114285   4.954   3.442   2.291 -0.3339 -2.5365 -0.7308
 4462SOL    HW214286   4.975   3.552   2.172  1.7062  1.0677  2.7194
 4463SOL     OW14287   2.485   5.524   4.258 -0.2276  0.0958  0.6444
 4463SOL    HW114288   2.416   5.522   4.331 -0.3180 -0.4805  0.5504
 4463SOL    HW214289   2.440   5.506   4.170  0.4950 -4.2671  0.9626
 4464SOL     OW14290   4.600   1.127   1.863  0.1037  0.2043 -0.1534
 4464SOL    HW114291   4.535   1.064   1.821  0.1402  0.5976 -0.8186
 4464SOL    HW214292   4.586   1.128   1.962 -0.9806  0.3641 -0.2908
 4465SOL     OW14293   0.519   3.601   0.255 -0.1290  0.2529  0.1241
 4465SOL    HW114294   0.460   3.592   0.175  1.0724 -0.3255 -0.7349
 4465SOL    HW214295   0.534   3.511   0.296  2.4926 -0.1701 -1.4719
 4466SOL     OW14296   2.927   1.879   6.847 -0.2313  0.2383 -0.2374
 4466SOL    HW114297   2.842   1.874   6.900 -0.2675  0.1253 -0.3056
 4466SOL    HW214298   2.910   1.847   6.754 -0.0229 -0.1620 -0.1394
 4467SOL     OW14299   2.917   5.270   6.658  0.6712 -0.5244  0.1605
 4467SOL    HW114300   2.882   5.244   6.568  1.4750  0.5330 -0.4817
 4467SOL    HW214301   2.841   5.298   6.717  0.2559  0.1053 -0.6484
 4468SOL     OW14302   6.439   1.911   5.697  0.7983  0.3218 -0.1148
 4468SOL    HW114303   6.435   1.825   5.647  2.6668  0.0561  0.1204
 4468SOL    HW214304   6.396   1.900   5.786 -0.7540  0.2301 -0.8510
 4469SOL     OW14305   3.044   6.741   4.226  0.3708  0.0842 -0.3025
 4469SOL    HW114306   3.063   6.668   4.161  1.6818 -0.1311  0.2959
 4469SOL    HW214307   2.968   6.715   4.285  0.6141 -0.6534 -0.3134
 4470SOL     OW14308   3.728   2.668   1.407  0.1278 -0.0031  0.4098
 4470SOL    HW114309   3.740   2.761   1.444 -0.1547  0.0180  0.4491
 4470SOL    HW214310   3.744   2.601   1.480 -4.1129  0.0849  1.6860
 4471SOL     OW14311   1.126   1.116   5.096  0.7400  0.3062  0.2485
 4471SOL    HW114312   1.147   1.053   5.171  1.2401 -0.4625 -0.5189
 4471SOL    HW214313   1.035   1.154   5.109 -0.3824 -2.0218 -0.2057
 4472SOL     OW14314   4.842   3.537   6.800 -0.8553 -0.1174 -0.3382
 4472SOL    HW114315   4.919   3.483   6.766  0.2777  2.4256 -2.0737
 4472SOL    HW214316   4.876   3.611   6.858 -2.1944 -0.0936  0.4694
 4473SOL     OW14317   4.899   5.673   5.817 -0.0202  0.2996  0.4108
 4473SOL    HW114318   4.955   5.725   5.752  0.5566  1.6647  1.9520
 4473SOL    HW214319   4.816   5.641   5.770 -0.0413  1.9690 -0.7878
 4474SOL     OW14320   3.402   0.771   4.747  0.4693 -0.2090 -0.2587
 4474SOL    HW114321   3.351   0.686   4.753 -2.7210  1.4489 -1.4534
 4474SOL    HW214322   3.455   0.773   4.661  1.0485 -1.1675  0.0636
 4475SOL     OW14323   5.437   6.037   4.991  0.2499  0.4885 -0.3424
 4475SOL    HW114324   5.368   6.004   5.055  1.6830 -1.4096  0.3058
 4475SOL    HW214325   5.462   6.132   5.013 -1.3024  0.8196  0.0885
 4476SOL     OW14326   4.521   5.911   2.040 -0.6085 -0.0788 -0.1412
 4476SOL    HW114327   4.554   5.824   2.003 -2.0848 -0.0082 -1.7445
 4476SOL    HW214328   4.561   5.926   2.130  1.3646 -1.3691 -0.7337
 4477SOL     OW14329   1.554   2.621   1.420 -0.7533  0.4693 -0.2672
 4477SOL    HW114330   1.483   2.551   1.422  0.0913 -0.5195 -2.3825
 4477SOL    HW214331   1.516   2.706   1.384 -0.9531  0.0314 -1.1112
 4478SOL     OW14332   5.158   6.273   1.683  0.6445  0.5124  0.0546
 4478SOL    HW114333   5.250   6.288   1.719  0.7999 -1.0624  0.3710
 4478SOL    HW214334   5.099   6.351   1.707  1.4032  0.6773  1.4601
 4479SOL     OW14335   5.169   6.631   1.189 -0.1737 -0.0151 -0.1405
 4479SOL    HW114336   5.269   6.636   1.189 -0.0040 -2.1843  1.0943
 4479SOL    HW214337   5.137   6.601   1.100  0.1700  1.5288 -0.8221
 4480SOL     OW14338   4.295   6.055   0.540  0.1357  0.3021 -0.5574
 4480SOL    HW114339   4.310   6.087   0.634  0.6192 -0.2286 -0.4468
 4480SOL    HW214340   4.221   6.107   0.498  0.1430  0.7733  0.0065
 4481SOL     OW14341   2.353   5.511   5.409 -0.5382 -0.0562 -0.9805
 4481SOL    HW114342   2.274   5.470   5.455 -0.9721 -0.1098 -1.7745
 4481SOL    HW214343   2.431   5.449   5.415 -0.6530 -0.1566 -0.5074
 4482SOL     OW14344   0.119   5.820   2.962  0.2572 -0.4260  0.0445
 4482SOL    HW114345   0.187   5.850   3.028  0.6584 -2.7101  0.7636
 4482SOL    HW214346   0.162   5.811   2.872  0.2672  0.5082 -0.0546
 4483SOL     OW14347   6.696   0.041   2.185  0.3443  0.1860 -0.1963
 4483SOL    HW114348   6.626   0.111   2.178 -0.3452 -0.6004 -1.4025
 4483SOL    HW214349   6.781   0.082   2.220  0.0067  1.6324 -1.0073
 4484SOL     OW14350   5.608   2.762   5.600 -0.2825 -0.2422 -0.1242
 4484SOL    HW114351   5.671   2.778   5.524  0.9604 -2.4609  0.3412
 4484SOL    HW214352   5.553   2.681   5.581 -2.9480  1.5164 -0.4059
 4485SOL     OW14353   3.473   0.288   4.967 -0.4700 -0.1904 -0.2491
 4485SOL    HW114354   3.560   0.244   4.989 -0.8504 -0.5466  0.5616
 4485SOL    HW214355   3.407   0.270   5.040 -0.8409  1.1548 -0.2365
 4486SOL     OW14356   1.596   3.868   0.839 -0.2939 -0.2280 -0.0093
 4486SOL    HW114357   1.636   3.878   0.748  1.0736  1.6878  0.7460
 4486SOL    HW214358   1.600   3.771   0.866  3.1787 -0.3130 -0.3406
 4487SOL     OW14359   1.789   6.207   5.908 -0.7152  0.1434 -0.0088
 4487SOL    HW114360   1.695   6.216   5.875 -0.4987 -1.2935 -1.1469
 4487SOL    HW214361   1.794   6.132   5.974 -0.3096 -0.1292 -0.3360
 4488SOL     OW14362   3.606   1.890   1.194  0.1398 -0.1992 -0.0520
 4488SOL    HW114363   3.654   1.964   1.240  2.3737 -1.4413 -0.2257
 4488SOL    HW214364   3.601   1.810   1.254 -2.2857  0.0386  0.1570
 4489SOL     OW14365   5.746   6.754   1.930 -0.1515  0.0999  0.3947
 4489SOL    HW114366   5.731   6.795   1.840 -0.1879 -0.3415  0.1949
 4489SOL    HW214367   5.672   6.780   1.991 -0.1043  0.4378  0.3094
 4490SOL     OW14368   3.291   0.127   4.493 -0.1086  0.1164  0.4140
 4490SOL    HW114369   3.225   0.136   4.568 -1.4837  0.6772 -0.8218
 4490SOL    HW214370   3.271   0.195   4.423 -0.4834 -2.0163 -1.6584
 4491SOL     OW14371   1.352   5.645   5.367  0.0994  0.2545 -0.4499
 4491SOL    HW114372   1.410   5.712   5.319 -0.3370 -0.4412 -1.9990
 4491SOL    HW214373   1.398   5.556   5.368  0.1677  0.2897  0.5863
 4492SOL     OW14374   5.817   4.381   2.771 -0.0968 -0.3609  0.2893
 4492SOL    HW114375   5.914   4.378   2.748 -0.0106  1.7270  0.1936
 4492SOL    HW214376   5.807   4.399   2.869 -0.3603  0.0876  0.1850
 4493SOL     OW14377   1.807   6.013   6.100  0.0584  0.2192  0.2834
 4493SOL    HW114378   1.903   6.003   6.127  0.7231  1.1535 -1.5438
 4493SOL    HW214379   1.758   5.928   6.118  0.9115  0.0823  2.2923
 4494SOL     OW14380   3.414   5.521   5.969 -0.4538  0.3663 -0.0335
 4494SOL    HW114381   3.496   5.578   5.974  0.9636 -1.5711  0.1313
 4494SOL    HW214382   3.363   5.529   6.055 -0.2508  1.3143  0.0080
 4495SOL     OW14383   3.200   0.158   5.783 -0.0831  0.4558  0.1281
 4495SOL    HW114384   3.291   0.196   5.800 -0.0943  0.2544  0.6643
 4495SOL    HW214385   3.135   0.198   5.847  0.1334 -1.3242  1.5572
 4496SOL     OW14386   3.330   4.903   2.049 -0.8899  0.1684  0.1986
 4496SOL    HW114387   3.368   4.992   2.073 -1.2776  0.8976 -1.7266
 4496SOL    HW214388   3.400   4.848   2.004 -0.7045 -0.4538  1.2196
 4497SOL     OW14389   1.656   1.702   5.253 -0.6954 -0.0954 -0.3589
 4497SOL    HW114390   1.643   1.624   5.314 -1.1820  0.9908  0.9863
 4497SOL    HW214391   1.584   1.703   5.184 -0.7939 -0.7233 -0.2686
 4498SOL     OW14392   0.497   4.722   6.831  0.0591  0.5026 -0.3266
 4498SOL    HW114393   0.516   4.813   6.865  1.2951  0.6696 -1.3794
 4498SOL    HW214394   0.560   4.701   6.755  0.7567 -1.7372  0.7824
 4499SOL     OW14395   0.186   4.118   6.814 -0.4095  0.4866  0.2521
 4499SOL    HW114396   0.153   4.176   6.888 -2.2135  1.1584 -1.0217
 4499SOL    HW214397   0.286   4.114   6.817 -0.4368  0.1893  2.9039
 4500SOL     OW14398   4.988   0.734   1.826 -0.0273 -0.2056  0.0456
 4500SOL    HW114399   5.037   0.799   1.885 -0.4018 -0.1177  0.2672
 4500SOL    HW214400   4.940   0.785   1.754  1.8140 -0.4241 -1.4064
 4501SOL     OW14401   1.766   4.291   1.478  0.3687 -0.4708  0.2588
 4501SOL    HW114402   1.802   4.260   1.566 -0.5765 -0.1119  0.7881
 4501SOL    HW214403   1.672   4.259   1.467  0.3368 -0.1722 -0.4483
 4502SOL     OW14404   3.676   6.626   5.057  0.0346  0.4518 -0.6570
 4502SOL    HW114405   3.598   6.655   5.003 -3.0033 -1.6388  2.2292
 4502SOL    HW214406   3.680   6.680   5.141 -1.2820 -2.4177  1.3737
 4503SOL     OW14407   2.728   0.668   1.664 -0.6966 -0.9359  0.4978
 4503SOL    HW114408   2.764   0.664   1.757 -0.5132  1.5448  0.6132
 4503SOL    HW214409   2.734   0.578   1.621  1.5873 -1.5854  2.0072
 4504SOL     OW14410   6.685   1.387   5.747  0.0437 -0.5335 -0.3319
 4504SOL    HW114411   6.691   1.352   5.654  0.2374 -0.1838 -0.4522
 4504SOL    HW214412   6.592   1.419   5.765  0.6891  2.2523 -1.4544
 4505SOL     OW14413   2.655   6.335   1.059  0.5883 -0.2807  0.4220
 4505SOL    HW114414   2.672   6.386   0.975  0.1202 -1.5196 -0.4651
 4505SOL    HW214415   2.556   6.322   1.071  0.7033 -1.2520  0.4289
 4506SOL     OW14416   1.855   6.825   0.866  0.0013  0.0711 -0.2372
 4506SOL    HW114417   1.758   6.850   0.872  0.1467  0.4845  0.4860
 4506SOL    HW214418   1.902   6.854   0.949  0.6222 -0.7007 -0.3092
 4507SOL     OW14419   1.486   6.590   2.912 -0.5879  0.1363 -0.4736
 4507SOL    HW114420   1.576   6.596   2.869 -0.5619 -1.1714 -0.6419
 4507SOL    HW214421   1.420   6.552   2.846 -0.8790 -0.4734  0.1559
 4508SOL     OW14422   3.143   3.326   0.063  0.0133 -0.0697  0.8130
 4508SOL    HW114423   3.151   3.258  -0.009 -1.0075 -1.5855  2.0611
 4508SOL    HW214424   3.119   3.414   0.023  0.9077 -0.5307 -0.7970
 4509SOL     OW14425   1.993   5.396   3.736  0.0334  0.4454 -0.4311
 4509SOL    HW114426   2.060   5.382   3.664  0.5335  0.7911 -0.0400
 4509SOL    HW214427   1.911   5.439   3.698  0.6176  1.3980 -0.6484
 4510SOL     OW14428   4.570   3.651   6.930  0.0815 -0.2073 -0.4108
 4510SOL    HW114429   4.606   3.574   6.878  0.0336 -1.0469  0.7549
 4510SOL    HW214430   4.643   3.692   6.984  0.5709  1.8628 -2.4873
 4511SOL     OW14431   0.604   5.590   6.069 -0.1006  0.2555 -0.4246
 4511SOL    HW114432   0.652   5.568   5.984 -0.1231 -1.1961 -0.0968
 4511SOL    HW214433   0.527   5.650   6.050  1.2450  1.8369 -1.0901
 4512SOL     OW14434   2.885   3.556   4.475 -0.1182  0.6591  0.1450
 4512SOL    HW114435   2.822   3.487   4.511  1.6598 -1.1857 -0.1510
 4512SOL    HW214436   2.964   3.565   4.536 -0.5693  2.9045  0.4868
 4513SOL     OW14437   6.749   2.325   4.340 -0.0276  0.1664 -0.2147
 4513SOL    HW114438   6.814   2.385   4.295 -0.3742  1.0658  0.4640
 4513SOL    HW214439   6.663   2.373   4.355 -0.2165 -0.3891  0.6020
 4514SOL     OW14440   2.173   0.741   4.319  0.6872  0.4723 -0.5772
 4514SOL    HW114441   2.084   0.737   4.273  1.0046  1.8583 -1.3869
 4514SOL    HW214442   2.162   0.719   4.415 -0.3930 -0.2066 -0.8343
 4515SOL     OW14443   0.399   0.466   0.515  0.1164  0.1991 -0.4489
 4515SOL    HW114444   0.458   0.426   0.585  0.2650  0.1967 -0.5755
 4515SOL    HW214445   0.344   0.539   0.555 -0.5865 -0.5130 -0.0744
 4516SOL     OW14446   0.058   3.264   4.547 -0.1885 -0.2316  0.3219
 4516SOL    HW114447   0.108   3.249   4.461 -0.3394 -2.6796  0.5851
 4516SOL    HW214448  -0.032   3.303   4.526  0.3952  0.7519 -0.4635
 4517SOL     OW14449   0.435   0.547   4.783 -0.3621  0.4153 -0.0555
 4517SOL    HW114450   0.351   0.496   4.764  0.3155 -0.1009 -1.8239
 4517SOL    HW214451   0.500   0.533   4.709  1.2212  0.9877  1.1777
 4518SOL     OW14452   1.286   6.548   6.112  0.8611  0.2022 -0.4387
 4518SOL    HW114453   1.291   6.644   6.141  1.4557  0.1362 -0.3095
 4518SOL    HW214454   1.196   6.511   6.135  1.3813  0.0749  1.5680
 4519SOL     OW14455   1.462   4.010   4.810 -0.4847  0.2277 -0.5440
 4519SOL    HW114456   1.518   4.034   4.890 -1.1965 -0.1932  0.0952
 4519SOL    HW214457   1.487   4.068   4.733  1.2801 -0.3786 -0.4658
 4520SOL     OW14458   3.718   3.909   4.877  0.0237 -0.7346 -0.5547
 4520SOL    HW114459   3.683   3.998   4.848  4.0298  1.1872 -0.0551
 4520SOL    HW214460   3.725   3.906   4.977  2.5855 -0.3710 -0.6641
 4521SOL     OW14461   5.599   3.751   2.967  0.1261  0.1359 -0.0865
 4521SOL    HW114462   5.627   3.711   2.880  1.8077 -2.6511  1.5713
 4521SOL    HW214463   5.500   3.764   2.968 -0.1189 -1.2888 -1.8496
 4522SOL     OW14464   5.997   4.403   6.814  0.2961 -0.1329  0.2373
 4522SOL    HW114465   5.906   4.434   6.786  0.9008  0.6139 -0.9555
 4522SOL    HW214466   6.024   4.325   6.759  0.5622 -0.0703  0.2801
 4523SOL     OW14467   0.882   2.263   6.557  0.1453  0.2319  0.3767
 4523SOL    HW114468   0.832   2.245   6.473 -1.0508  0.0503  1.1099
 4523SOL    HW214469   0.821   2.253   6.636  1.2036  0.5269  1.2659
 4524SOL     OW14470   3.490   4.779   5.584  0.5639 -0.5935  0.0862
 4524SOL    HW114471   3.477   4.708   5.515  0.5964  1.4975 -2.1894
 4524SOL    HW214472   3.415   4.845   5.578  1.1333  0.2144  1.3675
 4525SOL     OW14473   3.333   2.190   6.330  0.6224  0.1992 -0.0288
 4525SOL    HW114474   3.368   2.196   6.424  1.3773 -0.6595 -0.2452
 4525SOL    HW214475   3.253   2.129   6.329 -0.9117  2.1244  0.4567
 4526SOL     OW14476   5.611   2.813   3.302  0.3660 -0.4186 -0.6165
 4526SOL    HW114477   5.590   2.799   3.205  0.3300  2.5597 -1.1517
 4526SOL    HW214478   5.651   2.904   3.314 -1.7878  0.2940  2.4200
 4527SOL     OW14479   5.711   0.743   2.475  0.1545  0.4716  0.2092
 4527SOL    HW114480   5.715   0.704   2.567  1.3467 -1.2752 -0.5428
 4527SOL    HW214481   5.796   0.724   2.427 -1.8137 -2.1930 -2.6126
 4528SOL     OW14482   2.025   0.353   6.865  0.0988  0.1218  0.0341
 4528SOL    HW114483   2.105   0.297   6.845  1.0053  1.2895  0.3131
 4528SOL    HW214484   2.032   0.441   6.819  0.6855  1.6143  2.7194
 4529SOL     OW14485   2.949   6.616   2.903  0.0655  0.1876 -0.3370
 4529SOL    HW114486   2.972   6.706   2.863 -1.8813  0.8810  0.0234
 4529SOL    HW214487   2.936   6.626   3.001 -0.0267 -0.5348 -0.2765
 4530SOL     OW14488   5.373   4.264   4.129 -0.0082  0.1961 -0.0783
 4530SOL    HW114489   5.472   4.261   4.116 -0.1323  0.8238 -1.4075
 4530SOL    HW214490   5.345   4.190   4.189  1.2137 -0.2436 -0.0134
 4531SOL     OW14491   4.573   6.549   4.993 -0.0364  0.3288 -0.3591
 4531SOL    HW114492   4.549   6.645   5.009 -1.3218  0.0142 -0.3270
 4531SOL    HW214493   4.634   6.543   4.914  2.0220  1.3848  1.0592
 4532SOL     OW14494   0.619   5.328   0.528  0.0609  0.2649  0.4885
 4532SOL    HW114495   0.684   5.376   0.469 -1.3131 -0.7308 -1.9804
 4532SOL    HW214496   0.634   5.230   0.521 -1.0489  0.0680  0.6973
 4533SOL     OW14497   6.270   4.058   6.478  0.6636 -0.5772 -0.1643
 4533SOL    HW114498   6.294   3.972   6.523  1.4239  0.2870  1.1459
 4533SOL    HW214499   6.346   4.123   6.488 -0.0144  0.3476 -0.8781
 4534SOL     OW14500   2.027   4.337   1.387  0.3563 -0.1919 -0.0954
 4534SOL    HW114501   2.032   4.253   1.334 -1.7229  0.0492 -0.7608
 4534SOL    HW214502   1.938   4.344   1.431  1.0703  0.9190  1.2814
 4535SOL     OW14503   5.864   3.619   1.093 -0.4027  0.3981  0.3015
 4535SOL    HW114504   5.878   3.650   0.999 -0.6416  1.3082  0.5531
 4535SOL    HW214505   5.830   3.525   1.093 -0.9834  0.6007 -0.5410
 4536SOL     OW14506   6.035   2.922   6.304 -0.1502 -0.1696  0.7051
 4536SOL    HW114507   6.124   2.875   6.301  0.1023  0.3093  0.5834
 4536SOL    HW214508   6.033   2.984   6.382 -0.6702 -0.7432  1.1553
 4537SOL     OW14509   3.390   4.450   0.171 -0.0039  0.4831 -0.7044
 4537SOL    HW114510   3.355   4.433   0.263 -2.0080  2.6146 -0.9765
 4537SOL    HW214511   3.471   4.394   0.155  0.4492  0.0990  2.3626
 4538SOL     OW14512   6.031   3.215   5.669  0.2409 -0.0252 -0.0980
 4538SOL    HW114513   6.084   3.247   5.590 -0.9888 -0.4790 -1.1428
 4538SOL    HW214514   5.935   3.206   5.644 -0.5534  1.7174  2.0183
 4539SOL     OW14515   6.689   3.509   1.165 -0.5191 -0.1961 -0.1190
 4539SOL    HW114516   6.663   3.604   1.147 -2.2391 -0.3951  1.0307
 4539SOL    HW214517   6.760   3.480   1.101  1.4562  2.4472  0.7050
 4540SOL     OW14518   3.315   4.088   2.805 -0.0044 -0.1829  0.0953
 4540SOL    HW114519   3.405   4.060   2.838 -1.1529 -0.7312  3.0374
 4540SOL    HW214520   3.317   4.094   2.705  2.9697 -1.1942 -0.0075
 4541SOL     OW14521   3.012   5.963   3.501  0.0277 -0.3124  0.3331
 4541SOL    HW114522   3.025   6.035   3.568  1.3649 -1.0000  0.8622
 4541SOL    HW214523   3.100   5.919   3.482 -0.3522 -0.3328 -1.6681
 4542SOL     OW14524   0.882   4.868   4.765  0.0830  0.3664  0.0096
 4542SOL    HW114525   0.981   4.869   4.775  0.0579  1.7690  0.2176
 4542SOL    HW214526   0.857   4.894   4.672 -0.0809 -0.7009 -0.2586
 4543SOL     OW14527   5.008   4.720   3.412 -0.5674 -0.3657  0.5184
 4543SOL    HW114528   4.941   4.790   3.386  0.5089 -0.0699 -1.6660
 4543SOL    HW214529   4.963   4.631   3.414 -1.0749 -0.1734 -0.9185
 4544SOL     OW14530   3.071   5.661   6.118  0.2660  0.5470  0.2555
 4544SOL    HW114531   3.003   5.614   6.061 -0.8176  2.3672 -0.0266
 4544SOL    HW214532   3.032   5.676   6.209  1.5230 -1.2235  1.1461
 4545SOL     OW14533   1.605   0.382   2.466  0.2165 -0.0832 -0.4220
 4545SOL    HW114534   1.680   0.319   2.445  0.9866  0.8276 -0.4610
 4545SOL    HW214535   1.641   0.463   2.511 -0.8582  0.0101  0.3210
 4546SOL     OW14536   5.780   5.248   2.088 -0.2631 -0.4001  0.2460
 4546SOL    HW114537   5.835   5.177   2.043 -1.0351 -0.4077 -0.7179
 4546SOL    HW214538   5.834   5.291   2.160  0.5651 -1.2734  0.1643
 4547SOL     OW14539   1.268   1.881   2.913  0.0852 -0.1174 -0.7351
 4547SOL    HW114540   1.345   1.847   2.967 -0.0290 -1.5870 -1.4419
 4547SOL    HW214541   1.298   1.898   2.819 -0.4234 -0.6317 -0.9958
 4548SOL     OW14542   2.981   3.200   3.635  0.1568  0.3803  0.0009
 4548SOL    HW114543   2.983   3.110   3.592  0.6104 -0.2701  1.3417
 4548SOL    HW214544   2.912   3.257   3.590  0.3530 -0.3793 -1.3278
 4549SOL     OW14545   2.571   4.556   0.351  0.3105 -0.2179 -0.2185
 4549SOL    HW114546   2.582   4.656   0.348  2.9689 -0.3882  1.0182
 4549SOL    HW214547   2.483   4.534   0.393  0.6196  1.6694  1.6190
 4550SOL     OW14548   4.405   4.564   3.329  0.1231 -0.0783 -0.0497
 4550SOL    HW114549   4.456   4.640   3.368 -0.0579 -0.3127  0.6500
 4550SOL    HW214550   4.341   4.598   3.260  1.2159  0.2229 -0.9569
 4551SOL     OW14551   0.841   2.545   6.728 -0.0988  0.2575 -0.8348
 4551SOL    HW114552   0.785   2.475   6.773 -2.2505  1.7589 -1.0297
 4551SOL    HW214553   0.824   2.543   6.630  1.5033 -0.3316 -1.1321
 4552SOL     OW14554   2.308   5.118   3.642 -0.0791 -0.5720  0.0077
 4552SOL    HW114555   2.392   5.082   3.603  0.1050  0.1496 -0.2681
 4552SOL    HW214556   2.326   5.206   3.687 -0.4849 -0.8950  0.8406
 4553SOL     OW14557   0.745   1.837   3.661 -0.3099  0.1867 -0.0416
 4553SOL    HW114558   0.706   1.927   3.642 -2.2113 -0.4303  0.6104
 4553SOL    HW214559   0.832   1.826   3.613 -1.1563  1.5050 -1.9887
 4554SOL     OW14560   0.552   1.021   2.196 -0.7935  0.0320 -0.3347
 4554SOL    HW114561   0.465   0.997   2.152 -0.6138 -1.5198  0.0956
 4554SOL    HW214562   0.587   0.942   2.246  0.3343  0.9671  0.4052
 4555SOL     OW14563   0.264   0.960   3.697 -0.2770  0.0098  0.0537
 4555SOL    HW114564   0.188   1.014   3.734 -0.7752  0.2990 -1.3089
 4555SOL    HW214565   0.228   0.881   3.648  0.3225 -0.0573 -0.2924
 4556SOL     OW14566   5.246   1.275   2.938  0.5316  0.3533  0.1642
 4556SOL    HW114567   5.239   1.197   2.999 -0.2977  0.0844 -0.2623
 4556SOL    HW214568   5.282   1.354   2.988  1.1244 -0.2194  0.6612
 4557SOL     OW14569   2.424   5.964   2.523 -0.5065  0.1893  0.4871
 4557SOL    HW114570   2.505   5.907   2.509 -1.3108 -0.3406 -2.9298
 4557SOL    HW214571   2.391   5.952   2.616  1.6968 -1.7881  1.1119
 4558SOL     OW14572   4.056   1.669   6.770 -0.0891 -0.0339 -0.3795
 4558SOL    HW114573   4.055   1.638   6.675  1.1105  0.2376 -0.4945
 4558SOL    HW214574   4.026   1.594   6.829 -1.3264 -0.0506 -0.9938
 4559SOL     OW14575   1.455   3.598   6.133 -0.2140  0.0691 -0.4388
 4559SOL    HW114576   1.438   3.660   6.056 -1.2125  0.4006  0.0293
 4559SOL    HW214577   1.368   3.573   6.175 -0.1861 -3.8284 -2.2559
 4560SOL     OW14578   4.888   6.922   6.991 -0.0888 -0.2819 -0.6577
 4560SOL    HW114579   4.953   6.998   6.986 -0.7383  0.3055 -0.2533
 4560SOL    HW214580   4.899   6.873   7.077  0.9780 -1.2555 -1.3126
 4561SOL     OW14581   4.386   5.207   0.899 -0.1384  0.1580  0.4805
 4561SOL    HW114582   4.309   5.143   0.902 -0.5416  0.6064  0.1078
 4561SOL    HW214583   4.361   5.291   0.948  0.1385  0.2769  0.4191
 4562SOL     OW14584   3.350   0.753   2.711  0.1637 -0.5767 -0.6439
 4562SOL    HW114585   3.282   0.680   2.718  0.3647 -0.6837  0.2630
 4562SOL    HW214586   3.344   0.812   2.792  1.3723 -0.7850 -0.3876
 4563SOL     OW14587   2.729   1.635   6.463  0.2818  0.0374  0.3821
 4563SOL    HW114588   2.729   1.545   6.506 -0.2074  0.8432  2.1670
 4563SOL    HW214589   2.639   1.653   6.424  0.1606  0.0097  0.6419
 4564SOL     OW14590   4.364   4.719   2.077 -0.3340 -0.1647 -0.1094
 4564SOL    HW114591   4.437   4.671   2.126 -0.2448 -0.7317 -0.7827
 4564SOL    HW214592   4.339   4.667   1.995 -3.2069 -1.3579  1.3619
 4565SOL     OW14593   5.447   6.323   0.461 -0.8723  0.0230  0.0448
 4565SOL    HW114594   5.451   6.410   0.413 -0.6600 -0.8219 -1.5741
 4565SOL    HW214595   5.518   6.262   0.425 -0.5387 -0.5775  1.6467
 4566SOL     OW14596   2.766   1.299   0.056  0.2304  0.5393  0.5898
 4566SOL    HW114597   2.706   1.220   0.062  1.3901 -0.3167  1.3729
 4566SOL    HW214598   2.715   1.381   0.081 -0.3890 -0.2996  2.2507
 4567SOL     OW14599   5.075   0.790   1.278 -0.1979  0.1469 -0.2484
 4567SOL    HW114600   4.978   0.767   1.287  0.5112 -2.7277  1.0093
 4567SOL    HW214601   5.116   0.734   1.206  0.4713  1.7751 -1.1962
 4568SOL     OW14602   6.843   3.583   5.677  0.1035  0.3285  0.1959
 4568SOL    HW114603   6.936   3.592   5.641 -0.3227  0.7040 -0.8486
 4568SOL    HW214604   6.817   3.487   5.679  0.5688  0.2087  0.6432
 4569SOL     OW14605   6.328   3.008   2.733  0.1617  0.5676  0.0881
 4569SOL    HW114606   6.375   2.920   2.729 -0.6588  0.1316 -0.0390
 4569SOL    HW214607   6.351   3.055   2.818  1.2039  0.5814 -0.1808
 4570SOL     OW14608   4.759   0.087   3.788  0.2593 -0.3024 -0.4544
 4570SOL    HW114609   4.690   0.143   3.833 -0.2611 -2.6894  1.9549
 4570SOL    HW214610   4.715   0.027   3.722  0.4232  0.0521 -0.8918
 4571SOL     OW14611   2.169   5.633   4.596 -0.4903 -0.1664 -0.2596
 4571SOL    HW114612   2.218   5.718   4.580 -0.9571  0.0827 -0.3912
 4571SOL    HW214613   2.223   5.574   4.657  0.1066 -0.0355 -0.6545
 4572SOL     OW14614   5.998   2.502   1.634 -0.0825 -0.0473 -0.0126
 4572SOL    HW114615   5.933   2.549   1.693  0.1078  0.5966 -0.3019
 4572SOL    HW214616   6.009   2.554   1.549 -1.0225 -1.3981 -1.0152
 4573SOL     OW14617   3.391   2.455   1.276 -0.1401  0.4126  0.1815
 4573SOL    HW114618   3.432   2.381   1.330  0.8453 -1.0259 -2.3479
 4573SOL    HW214619   3.460   2.526   1.260  0.5877 -0.6475 -1.6816
 4574SOL     OW14620   5.178   6.208   6.698 -0.1645  0.2564 -0.0354
 4574SOL    HW114621   5.098   6.166   6.654  1.3134 -2.5617 -0.2148
 4574SOL    HW214622   5.250   6.222   6.631  0.1194  1.2583  0.4517
 4575SOL     OW14623   2.742   4.788   3.521 -0.4576  0.3569  0.2230
 4575SOL    HW114624   2.763   4.738   3.605 -1.0744 -0.7598 -0.2669
 4575SOL    HW214625   2.826   4.813   3.474 -0.1313 -0.0095  0.6079
 4576SOL     OW14626   6.432   2.784   0.625  0.6301 -0.0571 -0.1953
 4576SOL    HW114627   6.405   2.840   0.547  0.6384 -0.6792 -0.6521
 4576SOL    HW214628   6.354   2.730   0.657  0.9429 -0.7619 -0.5938
 4577SOL     OW14629   2.200   4.501   4.482 -0.0408  0.3367  0.4164
 4577SOL    HW114630   2.231   4.453   4.400 -0.0517 -0.7522  1.0327
 4577SOL    HW214631   2.157   4.436   4.545 -0.2297  1.1915  1.1938
 4578SOL     OW14632   0.397   0.191   4.232  0.1721 -0.0721 -0.1470
 4578SOL    HW114633   0.473   0.192   4.297 -1.2438  0.9275  1.5915
 4578SOL    HW214634   0.338   0.112   4.250  0.0866 -0.1145 -0.6038
 4579SOL     OW14635   3.388   1.054   5.203  0.3193 -0.0917  0.0419
 4579SOL    HW114636   3.301   1.022   5.164  0.1616  0.6052 -0.1893
 4579SOL    HW214637   3.460   0.987   5.184 -0.0703 -0.4534 -0.1677
 4580SOL     OW14638   0.723   6.472   5.185  0.2101 -0.1505 -0.1354
 4580SOL    HW114639   0.679   6.516   5.106 -2.1715 -0.1480  1.1131
 4580SOL    HW214640   0.821   6.469   5.170  0.0179  1.5259 -2.2741
 4581SOL     OW14641   4.439   0.323   4.149 -0.4164 -0.2133  0.1440
 4581SOL    HW114642   4.367   0.317   4.079  1.5060 -0.8984 -1.8736
 4581SOL    HW214643   4.430   0.246   4.213 -1.5068 -0.2388 -0.0194
 4582SOL     OW14644   3.658   5.270   5.596  0.7771 -0.3608  0.0219
 4582SOL    HW114645   3.633   5.174   5.606 -0.8687 -0.0532 -0.8484
 4582SOL    HW214646   3.576   5.324   5.580  1.7408  1.1263 -0.0612
 4583SOL     OW14647   1.752   0.341   3.726  0.3686  0.4229  0.0520
 4583SOL    HW114648   1.654   0.342   3.706  0.0942  0.0251  1.3073
 4583SOL    HW214649   1.776   0.258   3.776  1.1240  1.0776  0.8222
 4584SOL     OW14650   6.021   3.548   5.196  0.1903  0.4349  0.2076
 4584SOL    HW114651   5.941   3.586   5.242  0.8495 -1.3075  3.0408
 4584SOL    HW214652   6.059   3.473   5.251  1.2085 -1.7602 -3.1221
 4585SOL     OW14653   0.704   5.952   4.945 -0.8132  0.4041 -0.2996
 4585SOL    HW114654   0.785   5.894   4.944 -0.0703  1.4037 -1.6920
 4585SOL    HW214655   0.672   5.964   5.039  0.7012  0.0737  0.2770
 4586SOL     OW14656   6.643   3.854   6.513  0.3459 -0.8837  0.5365
 4586SOL    HW114657   6.728   3.810   6.485 -0.1740 -2.1117  0.8303
 4586SOL    HW214658   6.661   3.950   6.535  1.5570 -1.0039  0.1351
 4587SOL     OW14659   5.067   6.490   0.125  0.3772  0.3162  0.4757
 4587SOL    HW114660   5.069   6.420   0.053  0.7803  0.1488  0.6511
 4587SOL    HW214661   5.083   6.580   0.084 -0.8171  0.3977  0.1487
 4588SOL     OW14662   5.526   5.844   0.008 -0.4630  0.8590 -0.7484
 4588SOL    HW114663   5.602   5.891  -0.035 -0.3959  0.6929 -0.8128
 4588SOL    HW214664   5.446   5.846  -0.053  0.5771 -2.2806 -2.4295
 4589SOL     OW14665   3.792   2.004   0.054 -0.1660  0.0993 -0.2996
 4589SOL    HW114666   3.845   2.084   0.027 -0.7793  0.1531 -1.3813
 4589SOL    HW214667   3.753   2.020   0.145  1.9359 -0.0974  0.6968
 4590SOL     OW14668   4.516   6.273   4.293  0.8382  0.1774  0.4485
 4590SOL    HW114669   4.568   6.233   4.218  0.2610 -1.0924  0.6953
 4590SOL    HW214670   4.578   6.303   4.365  1.2651 -0.6708  0.4334
 4591SOL     OW14671   0.152   6.224   5.171  0.7430  0.1905 -0.1801
 4591SOL    HW114672   0.124   6.128   5.175  1.1348 -0.1918 -3.6529
 4591SOL    HW214673   0.071   6.282   5.162  0.5551  0.1558  1.0925
 4592SOL     OW14674   6.086   5.821   0.602  0.1007 -0.0125 -0.5161
 4592SOL    HW114675   5.989   5.830   0.626 -0.1363 -1.4534 -0.8613
 4592SOL    HW214676   6.123   5.738   0.643  1.3155  0.7272 -0.0633
 4593SOL     OW14677   5.883   3.281   5.954 -0.0079 -0.7289  0.2604
 4593SOL    HW114678   5.977   3.270   5.987 -0.4709 -3.8186  0.8259
 4593SOL    HW214679   5.885   3.313   5.860  1.5040  1.4015  0.9309
 4594SOL     OW14680   0.387   0.677   1.507  0.0517  1.3462 -0.5843
 4594SOL    HW114681   0.304   0.672   1.452  1.1956  0.7999 -2.3530
 4594SOL    HW214682   0.408   0.587   1.545  0.5919  1.1609 -1.3179
 4595SOL     OW14683   2.725   6.311   5.729  0.1379 -0.3995 -0.2922
 4595SOL    HW114684   2.698   6.271   5.642 -0.1324  0.1495 -0.4621
 4595SOL    HW214685   2.817   6.281   5.753 -0.4237 -1.9326  0.0667
 4596SOL     OW14686   3.366   6.837   6.426 -0.1043 -0.4968  0.0898
 4596SOL    HW114687   3.387   6.855   6.523  0.5969  0.4054 -0.2128
 4596SOL    HW214688   3.340   6.741   6.415 -2.2696 -0.1499  1.5126
 4597SOL     OW14689   0.098   5.267   5.388 -0.3368 -0.2294  0.2122
 4597SOL    HW114690   0.165   5.210   5.435  1.9088  1.0099 -1.3095
 4597SOL    HW214691   0.031   5.209   5.343  1.3551 -1.6662 -0.5513
 4598SOL     OW14692   3.646   2.107   6.800  0.2862 -0.5340 -0.1490
 4598SOL    HW114693   3.594   2.141   6.878 -1.9061 -1.2560 -1.2177
 4598SOL    HW214694   3.665   2.009   6.813  2.1642 -0.1293  0.5853
 4599SOL     OW14695   6.850   4.985   2.014  0.9898 -0.7803  0.1778
 4599SOL    HW114696   6.900   4.919   1.958  0.7993 -0.5929 -0.2196
 4599SOL    HW214697   6.753   4.983   1.991  0.8267 -1.0486  0.8545
 4600SOL     OW14698   3.744   6.950   2.352  0.0432  0.1796 -0.1626
 4600SOL    HW114699   3.689   6.946   2.435  1.8264 -3.0342  1.0470
 4600SOL    HW214700   3.759   7.045   2.326 -4.1634  1.2351  0.6038
 4601SOL     OW14701   1.950   0.124   0.856 -0.7491  0.8159 -0.2749
 4601SOL    HW114702   1.982   0.037   0.821 -1.9154  0.5085 -0.6425
 4601SOL    HW214703   1.973   0.133   0.953  0.1631  0.5017 -0.4621
 4602SOL     OW14704   6.374   6.200   4.543 -0.1797 -0.4306 -0.0874
 4602SOL    HW114705   6.454   6.141   4.551  0.1434  0.1202  0.8557
 4602SOL    HW214706   6.292   6.148   4.566  0.0544 -0.6459  0.2747
 4603SOL     OW14707   0.870   0.612   1.727  0.5489  0.5384 -0.2458
 4603SOL    HW114708   0.948   0.635   1.786 -0.4841  0.3984  1.2350
 4603SOL    HW214709   0.872   0.514   1.707  0.0240  0.2693  0.9350
 4604SOL     OW14710   3.430   5.949   4.235 -0.0402  0.5226  0.7533
 4604SOL    HW114711   3.441   6.039   4.191 -1.1250 -0.2643 -1.2366
 4604SOL    HW214712   3.352   5.952   4.298 -0.7282  0.7227 -0.0884
 4605SOL     OW14713   2.925   1.730   6.613 -0.2384  0.6403 -0.2010
 4605SOL    HW114714   2.849   1.699   6.557  0.4553 -0.6372 -0.4732
 4605SOL    HW214715   2.957   1.655   6.671  0.3532  1.3635  0.4356
 4606SOL     OW14716   6.897   5.806   6.578  0.6984 -0.2556  0.2465
 4606SOL    HW114717   6.855   5.731   6.527  2.0864 -1.4229  0.7521
 4606SOL    HW214718   6.829   5.877   6.595 -0.2592 -0.6692 -1.6066
 4607SOL     OW14719   6.961   2.151   3.647  0.4472  0.4042  0.4795
 4607SOL    HW114720   7.059   2.131   3.651  0.3108 -0.1289  1.7600
 4607SOL    HW214721   6.922   2.142   3.739 -0.7887  0.6959 -0.0008
 4608SOL     OW14722   2.011   6.849   0.036 -0.1141  0.8029  0.4414
 4608SOL    HW114723   2.071   6.769   0.032 -1.3570 -0.1783  0.6155
 4608SOL    HW214724   2.066   6.932   0.044  1.2129 -0.0218  0.1853
 4609SOL     OW14725   2.656   5.071   2.453  0.1271 -0.1464  0.2041
 4609SOL    HW114726   2.656   5.014   2.535 -1.4211 -0.7395 -0.1713
 4609SOL    HW214727   2.638   5.013   2.373  2.9375  0.1712 -0.8044
 4610SOL     OW14728   2.036   2.441   6.974 -0.3102  0.5846  0.3678
 4610SOL    HW114729   2.045   2.367   6.907 -1.1463  0.6308  0.1943
 4610SOL    HW214730   1.995   2.405   7.058 -1.0846  0.9223  0.1414
 4611SOL     OW14731   5.657   0.906   6.294  0.1112 -0.8616 -0.0110
 4611SOL    HW114732   5.697   0.979   6.350 -1.5506  0.5061 -0.5205
 4611SOL    HW214733   5.722   0.878   6.224  0.0643  1.7494 -1.2214
 4612SOL     OW14734   6.850   3.101   4.960 -0.9294 -0.7490  0.2180
 4612SOL    HW114735   6.923   3.142   5.016 -0.5546 -2.7678  1.3218
 4612SOL    HW214736   6.840   3.153   4.875  2.3253 -0.8034 -0.3244
 4613SOL     OW14737   5.105   0.614   4.776  0.5859  0.3451 -0.5547
 4613SOL    HW114738   5.169   0.626   4.700 -1.1360  2.1026 -1.8259
 4613SOL    HW214739   5.017   0.654   4.752 -0.5570 -0.6021  1.7412
 4614SOL     OW14740   5.596   4.093   0.995  0.1456 -0.3849  0.8019
 4614SOL    HW114741   5.571   4.000   1.022 -0.4196 -0.0983  1.2957
 4614SOL    HW214742   5.514   4.149   0.991  0.4122 -0.0440 -0.0703
 4615SOL     OW14743   0.718   4.370   6.822 -0.4766  0.8674 -0.2299
 4615SOL    HW114744   0.632   4.352   6.774 -1.3713  0.5290  1.4326
 4615SOL    HW214745   0.748   4.288   6.869  2.3810  0.0568 -3.1004
 4616SOL     OW14746   3.045   5.042   6.812 -0.7670  0.2374 -0.5067
 4616SOL    HW114747   2.966   5.017   6.869 -0.3607  1.7037  0.7425
 4616SOL    HW214748   3.015   5.053   6.717 -2.1561  1.0884  0.0011
 4617SOL     OW14749   1.878   5.950   2.566  0.5381 -0.0938 -0.0654
 4617SOL    HW114750   1.902   5.885   2.494 -0.6956  0.4620 -1.0168
 4617SOL    HW214751   1.913   6.041   2.542  2.3507 -0.3796  1.3077
 4618SOL     OW14752   0.845   1.035   1.740  0.2949 -0.2958 -0.0191
 4618SOL    HW114753   0.749   1.009   1.754  0.0987 -0.3455 -1.2737
 4618SOL    HW214754   0.886   0.973   1.672  0.4097  1.4044 -1.5672
 4619SOL     OW14755   3.329   0.101   2.063  0.3873  0.2006 -0.1797
 4619SOL    HW114756   3.344   0.106   2.162  1.1265  1.0027 -0.3232
 4619SOL    HW214757   3.298   0.009   2.039  0.2967 -0.0281  0.7846
 4620SOL     OW14758   3.200   5.290   5.634 -0.4552  0.0896 -0.4148
 4620SOL    HW114759   3.216   5.332   5.724 -0.6021  0.2985 -0.4840
 4620SOL    HW214760   3.145   5.352   5.579  0.6842  0.5225 -1.1006
 4621SOL     OW14761   5.059   5.430   6.553  0.0467 -0.5279  0.0799
 4621SOL    HW114762   5.072   5.455   6.457 -3.0677 -2.1007 -0.8848
 4621SOL    HW214763   5.132   5.470   6.608  1.2308  1.5037 -2.7369
 4622SOL     OW14764   3.228   6.766   7.013  0.5335  0.0655 -0.0088
 4622SOL    HW114765   3.229   6.720   6.924  1.9881 -0.4095  0.2207
 4622SOL    HW214766   3.144   6.819   7.023  0.4867  0.3825 -1.8008
 4623SOL     OW14767   0.101   0.190   2.475 -0.7375  0.1556 -0.0453
 4623SOL    HW114768   0.106   0.145   2.564 -1.3821 -1.3478 -0.7193
 4623SOL    HW214769   0.186   0.238   2.456 -0.7653  0.8643  1.5594
 4624SOL     OW14770   5.296   0.447   3.597  0.5523 -0.4617 -0.1246
 4624SOL    HW114771   5.343   0.503   3.529 -1.6963 -0.2093 -1.5880
 4624SOL    HW214772   5.246   0.506   3.660  3.0688 -0.6636  2.2488
 4625SOL     OW14773   2.440   5.730   0.045  0.0464  0.0251  0.1513
 4625SOL    HW114774   2.483   5.720   0.135  0.6988 -3.0379 -0.4004
 4625SOL    HW214775   2.445   5.826   0.017  1.2301  0.8004  2.6679
 4626SOL     OW14776   3.081   3.036   2.581  0.1750 -0.0915 -0.2021
 4626SOL    HW114777   3.078   3.038   2.681 -0.6158  1.8398 -0.2277
 4626SOL    HW214778   3.030   2.957   2.547 -0.0616 -0.4275  0.9200
 4627SOL     OW14779   0.671   5.226   4.102  0.2803  0.6333 -0.0859
 4627SOL    HW114780   0.663   5.253   4.198 -0.3279 -0.2779  0.1254
 4627SOL    HW214781   0.591   5.259   4.051 -0.4898 -0.7484  0.1822
 4628SOL     OW14782   1.198   5.534   6.593 -0.3051  0.0555  0.0938
 4628SOL    HW114783   1.206   5.513   6.690  1.8303  1.1681  0.2094
 4628SOL    HW214784   1.120   5.596   6.579  0.9718  2.1470  1.5822
 4629SOL     OW14785   3.896   0.997   0.424  0.3422  0.0479 -0.5445
 4629SOL    HW114786   3.964   0.931   0.391 -0.0756 -0.6376 -0.0590
 4629SOL    HW214787   3.855   0.963   0.508  0.6683  1.3003  0.1431
 4630SOL     OW14788   6.069   0.604   1.806 -0.2566  0.1748 -0.3188
 4630SOL    HW114789   6.162   0.600   1.841 -0.2436 -1.6721 -0.4679
 4630SOL    HW214790   6.069   0.640   1.713  0.1117  1.6874  0.2494
 4631SOL     OW14791   3.617   0.540   1.891  0.3445 -0.4817  0.1339
 4631SOL    HW114792   3.674   0.460   1.910  0.5942  0.0557  1.8169
 4631SOL    HW214793   3.542   0.544   1.957 -0.6976 -0.2568 -1.0231
 4632SOL     OW14794   5.086   6.029   2.682 -0.2355  0.7722 -0.5250
 4632SOL    HW114795   5.092   6.075   2.594 -1.3004  0.5348 -0.7411
 4632SOL    HW214796   5.065   6.096   2.753 -0.1288  0.8597 -0.5772
 4633SOL     OW14797   6.852   6.948   6.512 -0.0348 -0.1465 -0.7601
 4633SOL    HW114798   6.854   6.849   6.495  1.6292 -0.4183  0.7547
 4633SOL    HW214799   6.943   6.986   6.496  0.0197  0.6493  1.2440
 4634SOL     OW14800   6.387   5.465   5.878 -0.1323  0.3857  0.5734
 4634SOL    HW114801   6.319   5.538   5.868 -1.1273 -0.4359  1.1199
 4634SOL    HW214802   6.457   5.493   5.944 -0.7754  0.6606  1.1510
 4635SOL     OW14803   3.526   1.150   1.962  0.0188  0.2579  0.2324
 4635SOL    HW114804   3.535   1.073   2.025  1.3014  1.5866  1.7857
 4635SOL    HW214805   3.607   1.209   1.970 -1.6506  2.6633  0.3834
 4636SOL     OW14806   1.321   0.351   4.616  0.4857 -0.1053 -0.8786
 4636SOL    HW114807   1.333   0.346   4.715 -1.2518 -1.9751 -0.6907
 4636SOL    HW214808   1.394   0.406   4.576  2.1086 -0.5606  1.2758
 4637SOL     OW14809   0.152   1.305   1.243 -0.2875 -0.0820 -0.2878
 4637SOL    HW114810   0.244   1.308   1.280 -0.3978 -1.0404  0.0838
 4637SOL    HW214811   0.090   1.354   1.304 -0.2513 -0.5896  0.1617
 4638SOL     OW14812   1.157   3.351   5.106 -0.0009  0.2084  0.2392
 4638SOL    HW114813   1.208   3.417   5.051  0.6068  0.5694  1.2261
 4638SOL    HW214814   1.127   3.393   5.191 -0.5066 -0.4902  0.4195
 4639SOL     OW14815   2.510   0.076   6.583  0.2493 -0.4745  0.9230
 4639SOL    HW114816   2.486   0.139   6.656 -1.0051 -1.6668  1.5727
 4639SOL    HW214817   2.534   0.128   6.501  1.1072  0.8658  1.9800
 4640SOL     OW14818   1.533   4.898   0.361 -0.1953  0.2631  0.4421
 4640SOL    HW114819   1.510   4.927   0.268 -0.2886  0.1393  0.4261
 4640SOL    HW214820   1.491   4.961   0.426  1.5797  1.6074  0.3832
 4641SOL     OW14821   1.463   1.897   1.183  0.1452  0.1921 -0.2841
 4641SOL    HW114822   1.404   1.896   1.102  0.2963 -0.5089 -0.3852
 4641SOL    HW214823   1.550   1.940   1.160 -0.4322  1.5746 -0.0435
 4642SOL     OW14824   0.521   5.033   6.721 -0.8108 -0.5700  0.2401
 4642SOL    HW114825   0.609   5.034   6.673 -1.0107 -0.8798 -0.1407
 4642SOL    HW214826   0.450   4.997   6.660 -0.9052 -1.8230  1.0474
 4643SOL     OW14827   1.401   6.968   1.729  0.0318  0.1207  0.4582
 4643SOL    HW114828   1.328   7.036   1.722 -1.0494 -1.0283  0.2971
 4643SOL    HW214829   1.370   6.890   1.783  0.9778 -0.5982  0.0010
 4644SOL     OW14830   2.181   0.415   1.556 -0.3460 -0.2826  0.1434
 4644SOL    HW114831   2.128   0.468   1.623  1.2231  0.9578  0.4550
 4644SOL    HW214832   2.178   0.318   1.581 -0.1179  0.1041  1.8126
 4645SOL     OW14833   0.673   2.137   4.240  0.0235 -0.6253  0.3992
 4645SOL    HW114834   0.684   2.236   4.237 -0.3784 -0.6045 -1.3334
 4645SOL    HW214835   0.590   2.113   4.290 -2.1293  0.1572 -2.5650
 4646SOL     OW14836   3.383   2.413   6.208  0.3491  0.1301  0.2370
 4646SOL    HW114837   3.355   2.402   6.113  0.3361 -0.5078  0.3114
 4646SOL    HW214838   3.363   2.330   6.259  0.2770  0.4988  0.8217
 4647SOL     OW14839   4.110   0.416   1.740 -0.4537 -0.3037  0.1886
 4647SOL    HW114840   4.062   0.329   1.734  0.0984 -0.5524 -0.9071
 4647SOL    HW214841   4.051   0.489   1.706  0.2490 -0.7610 -2.2125
 4648SOL     OW14842   6.842   6.313   6.715 -0.0348  0.0047  0.0828
 4648SOL    HW114843   6.937   6.287   6.731  0.3863  1.0265 -0.5974
 4648SOL    HW214844   6.798   6.336   6.802  0.9773  1.5375  0.2280
 4649SOL     OW14845   2.970   5.422   6.227 -0.3083  0.0573 -0.1409
 4649SOL    HW114846   2.934   5.455   6.139  1.0321  0.0646 -0.7116
 4649SOL    HW214847   3.070   5.415   6.221 -0.3912 -2.9849  0.2985
 4650SOL     OW14848   3.195   0.264   5.525  0.1517  0.1059  0.0278
 4650SOL    HW114849   3.173   0.226   5.615  0.5182 -1.5584 -0.5479
 4650SOL    HW214850   3.117   0.252   5.464  1.2769 -2.6742 -1.0380
 4651SOL     OW14851   2.753   3.364   5.655  0.3515  0.2090 -0.1218
 4651SOL    HW114852   2.842   3.355   5.611  0.5604 -2.0329  0.6428
 4651SOL    HW214853   2.685   3.311   5.603 -0.0952  0.2574  0.4106
 4652SOL     OW14854   0.260   6.229   0.204  0.8696  0.1873  0.0178
 4652SOL    HW114855   0.282   6.186   0.291  0.1060  0.7259  0.4848
 4652SOL    HW214856   0.257   6.159   0.132  2.1998 -0.1602  0.2714
 4653SOL     OW14857   5.132   5.511   0.631 -0.1900 -0.0389 -0.3096
 4653SOL    HW114858   5.107   5.455   0.710  0.4397 -0.7519 -0.6118
 4653SOL    HW214859   5.191   5.459   0.570 -0.5831  0.5378 -1.2081
 4654SOL     OW14860   3.327   5.788   1.695 -0.6026  0.1071 -0.7422
 4654SOL    HW114861   3.231   5.763   1.686 -0.3667 -1.0116 -0.3318
 4654SOL    HW214862   3.335   5.887   1.710 -1.7512  0.0591  0.3165
 4655SOL     OW14863   0.605   6.992   2.379  0.7694  0.1464 -0.1878
 4655SOL    HW114864   0.668   6.918   2.401 -0.2756 -0.7418 -0.0920
 4655SOL    HW214865   0.545   6.963   2.304  0.2962  0.8618 -0.0940
 4656SOL     OW14866   4.409   1.426   2.990  0.2989  0.1250 -0.4948
 4656SOL    HW114867   4.493   1.375   3.010  0.5384  1.2028  1.5869
 4656SOL    HW214868   4.432   1.508   2.939  0.3191 -0.2663 -1.1242
 4657SOL     OW14869   2.194   2.764   1.701  0.1563  0.2507  0.4130
 4657SOL    HW114870   2.111   2.710   1.715  1.5448 -1.8310  1.1207
 4657SOL    HW214871   2.265   2.733   1.764  2.0162  0.7467 -1.3130
 4658SOL     OW14872   3.051   7.015   4.304  0.1948 -0.2643 -0.0774
 4658SOL    HW114873   3.145   7.037   4.278  0.2770 -0.8917 -0.3287
 4658SOL    HW214874   3.029   6.922   4.274 -0.6281  0.0057 -0.3394
 4659SOL     OW14875   6.298   1.390   5.041  0.1255 -0.5206 -0.6993
 4659SOL    HW114876   6.212   1.427   5.008  0.0468  0.4223  0.5058
 4659SOL    HW214877   6.367   1.397   4.969 -0.7321 -1.0835 -1.5962
 4660SOL     OW14878   3.910   4.880   5.787  0.1865 -0.2771 -0.2765
 4660SOL    HW114879   3.833   4.940   5.767  0.0396  0.7572  2.8622
 4660SOL    HW214880   3.902   4.845   5.880  2.7685 -1.3394 -0.3661
 4661SOL     OW14881   5.055   5.706   2.296 -0.0620  0.8246 -0.0960
 4661SOL    HW114882   5.005   5.733   2.213 -0.4129  1.1052  0.2043
 4661SOL    HW214883   5.032   5.768   2.370 -1.5059 -0.7409  0.8319
 4662SOL     OW14884   1.766   5.046   3.495  0.1094 -0.7369 -0.4447
 4662SOL    HW114885   1.811   5.014   3.579 -2.2482  2.2931  2.2386
 4662SOL    HW214886   1.824   5.116   3.452 -0.8960  1.7354  1.9104
 4663SOL     OW14887   5.063   5.703   6.429  0.0213  0.4445 -0.5468
 4663SOL    HW114888   5.060   5.709   6.529  1.0783 -1.6642 -0.3438
 4663SOL    HW214889   4.982   5.655   6.396 -1.0372  2.3376 -0.8916
 4664SOL     OW14890   0.431   4.355   1.516  0.1482  0.7772  0.7830
 4664SOL    HW114891   0.373   4.355   1.435  1.0980 -1.3325  0.0371
 4664SOL    HW214892   0.385   4.308   1.590  0.3313  0.3487  0.6278
 4665SOL     OW14893   2.381   0.423   2.129 -0.5111 -0.5057  0.1257
 4665SOL    HW114894   2.307   0.470   2.176 -1.3065 -0.4032 -1.1670
 4665SOL    HW214895   2.375   0.441   2.031 -0.3680 -2.6243 -0.3382
 4666SOL     OW14896   3.430   3.750   6.306 -0.2526 -0.5896 -0.0590
 4666SOL    HW114897   3.375   3.778   6.385 -0.1734 -0.2559 -0.1214
 4666SOL    HW214898   3.526   3.746   6.332 -0.1525  0.1282 -0.2976
 4667SOL     OW14899   0.677   6.483   1.920  0.5547 -0.4806  0.8161
 4667SOL    HW114900   0.764   6.528   1.902 -0.0985  0.5127 -0.0530
 4667SOL    HW214901   0.672   6.455   2.016  1.7653 -0.4454  0.8990
 4668SOL     OW14902   6.213   3.984   1.596  0.3145  0.2645 -0.6217
 4668SOL    HW114903   6.220   4.055   1.526  0.0764 -0.2115 -1.1387
 4668SOL    HW214904   6.172   3.902   1.556  0.9598 -0.3038 -0.1354
 4669SOL     OW14905   1.338   3.815   3.845 -0.3650 -0.2529 -0.8971
 4669SOL    HW114906   1.277   3.810   3.765  0.1253  0.0829 -1.3012
 4669SOL    HW214907   1.284   3.804   3.928 -0.7058 -1.9487 -1.3163
 4670SOL     OW14908   0.190   4.690   2.009  0.4291 -0.1877 -0.3976
 4670SOL    HW114909   0.093   4.708   2.018  0.4582  2.5606 -3.5900
 4670SOL    HW214910   0.204   4.615   1.944  0.3935  0.8967 -1.6929
 4671SOL     OW14911   2.802   4.807   3.096 -0.0065  0.2794 -0.0232
 4671SOL    HW114912   2.769   4.713   3.085  1.3868 -0.1390 -0.9025
 4671SOL    HW214913   2.852   4.815   3.183 -1.1918  0.5705  0.6641
 4672SOL     OW14914   2.686   0.214   5.622  0.1174 -0.1953 -0.1481
 4672SOL    HW114915   2.758   0.179   5.682 -0.0109  2.1409  1.5008
 4672SOL    HW214916   2.613   0.146   5.614  0.3741 -0.8030  1.9990
 4673SOL     OW14917   5.883   0.296   6.747 -0.5501  0.3271 -0.1428
 4673SOL    HW114918   5.864   0.352   6.666 -1.6276  0.2900  0.0755
 4673SOL    HW214919   5.820   0.320   6.820 -1.8734 -2.0058 -0.4416
 4674SOL     OW14920   6.862   3.010   4.373  0.2484 -0.4394 -0.5491
 4674SOL    HW114921   6.788   2.951   4.343 -0.6345 -0.5202  1.6683
 4674SOL    HW214922   6.869   3.008   4.472  3.8596 -1.1851 -0.6781
 4675SOL     OW14923   6.862   5.346   1.693  0.0139  0.4740  0.0582
 4675SOL    HW114924   6.820   5.320   1.780 -0.3266  0.4197 -0.1234
 4675SOL    HW214925   6.957   5.372   1.709 -0.5352  2.1940  0.7134
 4676SOL     OW14926   4.555   3.913   0.206 -0.5858 -0.1610  0.2084
 4676SOL    HW114927   4.567   3.983   0.276 -3.2878 -0.3135  0.9220
 4676SOL    HW214928   4.477   3.855   0.229 -2.3821  0.5317 -3.4925
 4677SOL     OW14929   5.541   3.116   6.526  0.3705 -0.0137 -0.3064
 4677SOL    HW114930   5.536   3.074   6.436  0.9265  0.1202 -0.4050
 4677SOL    HW214931   5.466   3.182   6.537  1.0687  0.9502 -1.1818
 4678SOL     OW14932   1.340   6.188   0.207  0.2614  0.3870  0.0806
 4678SOL    HW114933   1.309   6.277   0.174 -1.8034 -0.4891 -0.5501
 4678SOL    HW214934   1.301   6.116   0.149 -0.0341 -1.0195  1.9159
 4679SOL     OW14935   6.521   6.022   0.450 -0.4121  0.4226  0.0880
 4679SOL    HW114936   6.425   6.012   0.478 -0.5366  0.3079 -0.3755
 4679SOL    HW214937   6.547   5.945   0.393 -0.4647  1.1571 -0.9563
 4680SOL     OW14938   3.970   3.762   5.498 -0.1948 -0.1769 -0.0088
 4680SOL    HW114939   4.037   3.832   5.523  1.3513 -1.4842 -0.3229
 4680SOL    HW214940   4.009   3.671   5.515 -0.8198 -1.0485 -2.7354
 4681SOL     OW14941   4.520   4.817   3.866  0.0492  0.0159 -0.0957
 4681SOL    HW114942   4.566   4.886   3.923 -0.4984  0.6340 -0.3953
 4681SOL    HW214943   4.498   4.857   3.777  0.2460 -0.7274 -0.4799
 4682SOL     OW14944   0.157   3.077   2.811 -0.3959  0.7157 -0.2090
 4682SOL    HW114945   0.164   3.108   2.906  2.7332 -2.7907  0.9286
 4682SOL    HW214946   0.216   3.133   2.753  1.8377 -0.2783  0.9862
 4683SOL     OW14947   0.053   3.750   5.171  0.8091  0.2398  0.0133
 4683SOL    HW114948   0.084   3.845   5.184  2.3702 -0.4054  1.3221
 4683SOL    HW214949   0.132   3.689   5.171 -0.3074 -1.2543  1.0326
 4684SOL     OW14950   5.540   4.871   6.894 -0.2806 -0.6945 -0.1350
 4684SOL    HW114951   5.549   4.772   6.883 -0.7555 -0.5546 -2.4171
 4684SOL    HW214952   5.446   4.893   6.919 -0.7485 -0.7517 -1.7117
 4685SOL     OW14953   2.942   3.540   3.742 -0.1417  0.0032 -0.1429
 4685SOL    HW114954   3.041   3.524   3.746  0.0989  1.3799 -0.2075
 4685SOL    HW214955   2.909   3.519   3.650 -0.1436 -1.6460  0.2139
 4686SOL     OW14956   0.156   4.831   1.660  0.2708 -0.2512 -0.4660
 4686SOL    HW114957   0.063   4.828   1.698  0.6195  0.3289  0.4761
 4686SOL    HW214958   0.204   4.911   1.697  0.5372  0.5272 -2.4162
 4687SOL     OW14959   5.247   4.227   0.986 -0.2767 -0.8415  0.0501
 4687SOL    HW114960   5.187   4.255   1.060 -0.3155 -0.6212 -0.0631
 4687SOL    HW214961   5.209   4.147   0.939 -1.3856  0.3459 -1.1418
 4688SOL     OW14962   5.675   3.971   4.750 -0.7074  0.4012  0.1435
 4688SOL    HW114963   5.766   3.992   4.785  0.1864 -1.2740 -1.0319
 4688SOL    HW214964   5.609   4.035   4.788  0.9167  1.5179  1.1996
 4689SOL     OW14965   6.605   6.829   0.195  0.3544  0.1177  0.3420
 4689SOL    HW114966   6.611   6.929   0.205  1.5520  0.0491  0.4077
 4689SOL    HW214967   6.693   6.788   0.217 -0.0578 -0.9445  0.0577
 4690SOL     OW14968   5.207   5.604   6.707 -0.0042 -0.1487  0.5231
 4690SOL    HW114969   5.306   5.607   6.693 -0.4071 -0.4814 -4.1096
 4690SOL    HW214970   5.171   5.697   6.715  0.4974  0.2018 -0.8628
 4691SOL     OW14971   1.046   1.064   6.276 -0.2065  0.5752 -0.2184
 4691SOL    HW114972   1.020   0.984   6.330  0.5762  1.2458  1.2018
 4691SOL    HW214973   1.065   1.036   6.182  2.5521 -1.4079  0.7939
 4692SOL     OW14974   4.421   2.053   6.931 -0.1828 -0.7881 -0.2569
 4692SOL    HW114975   4.425   1.954   6.927 -2.0081 -0.8607 -2.2656
 4692SOL    HW214976   4.347   2.081   6.992  1.6407 -0.5426  1.9673
 4693SOL     OW14977   6.796   5.173   2.254 -0.6816 -0.1951  0.3292
 4693SOL    HW114978   6.801   5.096   2.190 -2.3591  2.5390 -3.4691
 4693SOL    HW214979   6.851   5.249   2.220 -2.3451  1.7151  1.6456
 4694SOL     OW14980   6.971   5.459   2.669  0.6599 -0.0025 -0.1821
 4694SOL    HW114981   6.919   5.383   2.709 -0.4182  0.8852  0.1565
 4694SOL    HW214982   6.908   5.526   2.631  1.6378 -0.0241 -1.9357
 4695SOL     OW14983   0.590   5.381   4.362  0.1973 -0.5268 -0.6912
 4695SOL    HW114984   0.574   5.318   4.438 -0.5006  1.1619  0.6081
 4695SOL    HW214985   0.502   5.410   4.324  0.5253 -0.5993 -1.5206
 4696SOL     OW14986   6.899   1.116   3.540  0.0317  0.0021 -0.3185
 4696SOL    HW114987   6.880   1.068   3.454 -0.4069 -0.1060 -0.1656
 4696SOL    HW214988   6.851   1.070   3.615 -0.2822  0.5921 -0.1489
 4697SOL     OW14989   4.315   2.624   0.560 -0.0307 -0.0779  0.4472
 4697SOL    HW114990   4.399   2.677   0.553 -0.4508  0.6310  0.6831
 4697SOL    HW214991   4.245   2.678   0.607 -1.0389 -0.1556 -0.9204
 4698SOL     OW14992   4.690   5.529   5.176 -0.3804  0.1495 -0.4717
 4698SOL    HW114993   4.619   5.536   5.246 -0.8879  1.4757 -1.0771
 4698SOL    HW214994   4.649   5.498   5.090 -0.2688  1.0494 -0.8585
 4699SOL     OW14995   0.403   2.945   2.980  0.1702  0.0140 -0.5545
 4699SOL    HW114996   0.478   2.916   2.920  0.4523  0.1694 -0.2857
 4699SOL    HW214997   0.360   2.865   3.021 -0.8011 -0.1627 -1.8714
 4700SOL     OW14998   3.677   0.388   2.588  0.2685  0.1979 -0.0585
 4700SOL    HW114999   3.599   0.429   2.541  0.2604  0.5871  0.2907
 4700SOL    HW215000   3.646   0.315   2.648  0.2265  0.0272 -0.2859
 4701SOL     OW15001   5.925   0.449   5.302 -0.3612 -0.0997  0.5766
 4701SOL    HW115002   5.903   0.463   5.206  1.2990 -0.3827  0.1199
 4701SOL    HW215003   5.925   0.351   5.322 -2.9024  0.0272  1.4570
 4702SOL     OW15004   0.902   4.831   2.794  0.0317 -0.3449 -0.3522
 4702SOL    HW115005   0.928   4.795   2.884  1.2919 -1.5335 -1.1467
 4702SOL    HW215006   0.806   4.811   2.776 -0.2804  0.0575  0.7893
 4703SOL     OW15007   2.868   3.851   5.107 -0.1685  0.5147 -0.6175
 4703SOL    HW115008   2.919   3.765   5.107  0.7649  1.0601 -0.7206
 4703SOL    HW215009   2.792   3.844   5.172  0.2755 -0.1646 -0.1527
 4704SOL     OW15010   3.453   0.578   1.651  0.7518  0.4376  0.8519
 4704SOL    HW115011   3.520   0.562   1.578  1.5021  2.4721  1.0420
 4704SOL    HW215012   3.498   0.568   1.740 -0.0061 -1.3796  1.0741
 4705SOL     OW15013   4.296   2.017   5.870 -0.4695  0.1627 -0.0577
 4705SOL    HW115014   4.274   1.987   5.777 -0.7843 -0.9675  0.3649
 4705SOL    HW215015   4.236   2.092   5.896  0.6305  1.5430 -1.3088
 4706SOL     OW15016   5.613   3.749   2.467 -0.0269 -0.3555  0.0134
 4706SOL    HW115017   5.601   3.708   2.376  0.8777  0.5662 -0.5502
 4706SOL    HW215018   5.526   3.788   2.497 -0.2522 -0.3317 -0.6423
 4707SOL     OW15019   2.305   0.731   2.463 -0.3204 -1.0748 -0.1536
 4707SOL    HW115020   2.383   0.727   2.526  0.3498 -3.5357 -1.0281
 4707SOL    HW215021   2.229   0.778   2.508  0.8245 -0.8560  1.6807
 4708SOL     OW15022   3.852   1.506   4.986 -0.8861  0.3106  0.0485
 4708SOL    HW115023   3.905   1.428   4.953 -1.0210  0.3935 -0.3722
 4708SOL    HW215024   3.914   1.580   5.010 -0.8353  0.6761 -1.1488
 4709SOL     OW15025   5.188   4.078   2.211 -0.1801 -0.1391  0.6296
 4709SOL    HW115026   5.232   4.161   2.246  0.5732  0.1822 -1.0019
 4709SOL    HW215027   5.098   4.101   2.175 -0.4166 -0.2391  1.1438
 4710SOL     OW15028   3.779   2.464   1.618  0.0925  0.0155 -0.5095
 4710SOL    HW115029   3.872   2.450   1.650  0.0973 -0.4853 -0.7332
 4710SOL    HW215030   3.715   2.459   1.695  0.1531 -0.6714 -0.4975
 4711SOL     OW15031   4.513   5.933   0.782  0.2746 -0.0622  0.1729
 4711SOL    HW115032   4.426   5.961   0.741 -0.9167 -1.7827  1.3780
 4711SOL    HW215033   4.527   5.982   0.868  0.3215 -0.0547  0.1612
 4712SOL     OW15034   3.434   6.167   6.445  1.0840 -0.3965 -0.0803
 4712SOL    HW115035   3.442   6.145   6.542  0.6935  1.2940  0.3815
 4712SOL    HW215036   3.522   6.204   6.412  0.2883  2.3983  0.6252
 4713SOL     OW15037   0.566   0.935   4.041  0.3727  0.3373  0.4879
 4713SOL    HW115038   0.486   0.920   4.099 -0.1771  0.6787 -0.1623
 4713SOL    HW215039   0.555   1.022   3.992  1.4280  0.6916  0.8530
 4714SOL     OW15040   3.167   3.716   1.158 -0.1527  0.2185  0.0055
 4714SOL    HW115041   3.228   3.769   1.100  1.6303 -2.3885 -0.6387
 4714SOL    HW215042   3.085   3.692   1.107 -0.7346  1.7660  0.1338
 4715SOL     OW15043   2.597   1.559   5.463 -0.0320  0.0099 -0.6359
 4715SOL    HW115044   2.560   1.501   5.536  1.3305 -0.8060 -0.5764
 4715SOL    HW215045   2.696   1.552   5.461 -0.0192  0.2202 -2.4238
 4716SOL     OW15046   5.148   6.093   5.992  0.1194 -0.2843  0.2140
 4716SOL    HW115047   5.169   6.156   5.917  1.6486  0.5298  1.2581
 4716SOL    HW215048   5.215   6.107   6.065 -1.0059 -1.4436  1.4936
 4717SOL     OW15049   3.615   6.053   0.585  0.3350  0.6766 -0.3359
 4717SOL    HW115050   3.567   6.118   0.526 -2.0950 -1.4114 -0.8566
 4717SOL    HW215051   3.557   6.030   0.663  1.1038 -0.8489 -0.1812
 4718SOL     OW15052   1.301   4.785   1.078 -0.2186 -0.2152  0.0106
 4718SOL    HW115053   1.261   4.814   1.165 -1.3201 -1.4478 -0.0625
 4718SOL    HW215054   1.386   4.735   1.095 -0.9942 -1.4079  0.4717
 4719SOL     OW15055   2.316   0.217   6.126  0.1572 -0.0208 -0.2657
 4719SOL    HW115056   2.236   0.278   6.117 -0.1955 -0.6308 -1.4663
 4719SOL    HW215057   2.374   0.227   6.045  0.7117 -0.4203  0.0801
 4720SOL     OW15058   6.999   6.414   0.463 -0.7920 -0.6184 -0.1832
 4720SOL    HW115059   7.026   6.327   0.505 -0.5617  0.4283  1.9396
 4720SOL    HW215060   6.909   6.441   0.498 -0.6271  0.2643 -0.4259
 4721SOL     OW15061   4.446   6.563   3.638 -0.7311 -0.5759 -0.0029
 4721SOL    HW115062   4.451   6.506   3.556 -1.1540 -0.7159  0.0686
 4721SOL    HW215063   4.385   6.640   3.621 -1.0874 -0.7911  0.2940
 4722SOL     OW15064   2.673   3.788   0.510  0.0310 -0.5640 -1.0211
 4722SOL    HW115065   2.672   3.724   0.432 -0.0218 -3.2423  1.0444
 4722SOL    HW215066   2.584   3.790   0.554  0.0704  0.8951 -0.9441
 4723SOL     OW15067   6.834   1.406   4.631  0.1236 -0.0398  0.8393
 4723SOL    HW115068   6.785   1.427   4.546  2.6121  2.8994 -0.0405
 4723SOL    HW215069   6.790   1.453   4.707  0.4479  1.0668  0.3650
 4724SOL     OW15070   1.440   0.472   1.545  0.1725  0.2075  0.3944
 4724SOL    HW115071   1.451   0.569   1.566 -0.9997  0.4154  0.0839
 4724SOL    HW215072   1.486   0.452   1.458 -0.2350  0.6494  0.0758
 4725SOL     OW15073   4.233   1.976   5.004 -0.6805 -0.4862 -0.6008
 4725SOL    HW115074   4.306   2.020   5.057 -0.6028 -1.0018 -0.2740
 4725SOL    HW215075   4.272   1.936   4.921 -0.2626 -2.2973  0.4291
 4726SOL     OW15076   3.344   3.063   1.868  0.0020 -0.1048  0.3554
 4726SOL    HW115077   3.325   3.141   1.809 -2.0276 -0.8732 -0.0526
 4726SOL    HW215078   3.317   3.085   1.962 -0.0798 -0.1394  0.3398
 4727SOL     OW15079   2.071   1.619   0.750 -0.1495 -0.9556  0.3384
 4727SOL    HW115080   2.122   1.591   0.669 -1.4551  0.7747 -1.1568
 4727SOL    HW215081   2.017   1.541   0.784 -0.6068 -1.3780 -1.2623
 4728SOL     OW15082   5.604   2.832   0.433 -0.1552 -0.0672 -0.2522
 4728SOL    HW115083   5.599   2.931   0.447 -0.6888 -0.0721 -0.3822
 4728SOL    HW215084   5.593   2.812   0.336 -0.8763 -0.3091 -0.1209
 4729SOL     OW15085   3.818   5.018   4.275  0.1476 -0.0540  0.2518
 4729SOL    HW115086   3.862   4.938   4.234 -1.1327 -1.0849  0.8174
 4729SOL    HW215087   3.874   5.051   4.351  1.4056  0.5053 -0.8584
 4730SOL     OW15088   5.119   1.544   2.244  0.5043  0.4090 -0.2813
 4730SOL    HW115089   5.138   1.460   2.192  1.2808  0.8746 -0.7737
 4730SOL    HW215090   5.156   1.535   2.337  1.4740  0.5717 -0.6406
 4731SOL     OW15091   5.236   4.682   5.070 -0.3298 -0.0219 -0.2520
 4731SOL    HW115092   5.181   4.662   5.150 -1.7697 -0.8576 -1.4091
 4731SOL    HW215093   5.284   4.599   5.041 -1.7116 -0.3850 -1.6292
 4732SOL     OW15094   3.348   5.370   4.607 -0.2036  0.5827  0.6071
 4732SOL    HW115095   3.282   5.427   4.657 -1.2492  1.2657 -1.4325
 4732SOL    HW215096   3.432   5.421   4.591 -0.7330  1.2028 -0.2763
 4733SOL     OW15097   0.400   1.867   5.240  0.2875 -0.0144  0.0951
 4733SOL    HW115098   0.493   1.832   5.247  0.5233  0.4826 -0.4562
 4733SOL    HW215099   0.368   1.893   5.331  0.4352 -0.8135  0.3771
 4734SOL     OW15100   2.973   5.295   4.014  0.2367 -0.1149 -0.4035
 4734SOL    HW115101   2.930   5.212   3.979 -0.7532 -0.3438  1.2024
 4734SOL    HW215102   3.060   5.272   4.057  0.2714 -0.2241 -0.5325
 4735SOL     OW15103   3.056   0.627   4.797 -0.3551 -0.1372 -0.0531
 4735SOL    HW115104   2.989   0.592   4.732 -1.5534  1.1486  0.4626
 4735SOL    HW215105   3.082   0.720   4.771  0.1226 -0.0853  0.5952
 4736SOL     OW15106   0.264   0.101   5.163 -0.4509  0.3343  0.1803
 4736SOL    HW115107   0.280   0.195   5.133 -1.4197 -0.0947 -1.8130
 4736SOL    HW215108   0.268   0.039   5.085 -1.5430 -1.0751  1.1760
 4737SOL     OW15109   5.093   1.494   5.248  0.2058  0.7324 -0.0968
 4737SOL    HW115110   5.006   1.474   5.201  0.2210  0.2058  0.0845
 4737SOL    HW215111   5.089   1.585   5.288 -0.5200  0.4662  0.4636
 4738SOL     OW15112   3.138   2.530   5.400  0.5035  0.0862 -0.2320
 4738SOL    HW115113   3.166   2.489   5.313 -0.7052 -0.9106 -0.1774
 4738SOL    HW215114   3.111   2.458   5.463  1.6946  0.7739  1.1162
 4739SOL     OW15115   4.367   4.994   5.792  0.5078  0.1462 -0.1873
 4739SOL    HW115116   4.377   4.918   5.856  1.1415 -0.6568 -1.1934
 4739SOL    HW215117   4.449   5.051   5.794  0.0841  0.7480  0.4762
 4740SOL     OW15118   6.036   2.720   0.137  0.0509 -1.0044 -0.1564
 4740SOL    HW115119   6.131   2.747   0.123 -0.0265  1.1054  2.6436
 4740SOL    HW215120   5.976   2.797   0.116 -0.6459 -0.7569  2.4134
 4741SOL     OW15121   5.300   6.546   3.969 -0.6817  0.3370  0.4358
 4741SOL    HW115122   5.366   6.614   3.999 -1.0884  0.8907  0.1029
 4741SOL    HW215123   5.325   6.456   4.005 -0.2103  0.6834  0.9866
 4742SOL     OW15124   2.679   4.815   5.405 -0.2776 -0.7479  0.4494
 4742SOL    HW115125   2.639   4.885   5.465  0.1512 -2.6155  3.0770
 4742SOL    HW215126   2.610   4.745   5.386  0.1315 -1.1084  0.2907
 4743SOL     OW15127   5.282   2.166   1.527 -0.3069  0.5200  0.1741
 4743SOL    HW115128   5.208   2.220   1.488 -1.4552 -0.7113  0.5893
 4743SOL    HW215129   5.284   2.076   1.484  0.9978  0.5500  0.1282
 4744SOL     OW15130   2.983   1.654   1.531 -0.0356 -0.3490 -0.2260
 4744SOL    HW115131   3.029   1.743   1.534 -0.1469 -0.2409 -1.2068
 4744SOL    HW215132   2.888   1.667   1.501  0.1023 -0.8366 -0.9059
 4745SOL     OW15133   0.225   6.900   5.347  0.1417  0.1513  0.4217
 4745SOL    HW115134   0.174   6.827   5.300  0.8991 -0.5013  0.5916
 4745SOL    HW215135   0.224   6.982   5.291  0.1144 -0.2916 -0.2443
 4746SOL     OW15136   6.895   2.441   1.449 -0.0362  0.1612  0.5574
 4746SOL    HW115137   6.901   2.383   1.368  0.4901  0.9769 -0.0034
 4746SOL    HW215138   6.867   2.386   1.528  1.7780 -1.1398  0.3483
 4747SOL     OW15139   1.070   4.272   4.247  0.1176 -0.6538 -0.1320
 4747SOL    HW115140   1.017   4.196   4.209 -0.0281 -0.7981  0.3540
 4747SOL    HW215141   1.142   4.298   4.183  0.3721 -1.4142 -0.1562
 4748SOL     OW15142   0.979   5.356   6.347  0.3451 -0.1224 -0.3373
 4748SOL    HW115143   0.922   5.279   6.320 -0.0857  0.2013 -0.3586
 4748SOL    HW215144   0.938   5.441   6.314  0.9452  0.0964 -0.5274
 4749SOL     OW15145   6.081   0.928   4.196  0.7054 -0.4318 -0.3172
 4749SOL    HW115146   6.092   0.898   4.102 -0.8437 -1.5435 -0.1861
 4749SOL    HW215147   5.991   0.970   4.208  0.9552 -0.1278  0.6192
 4750SOL     OW15148   2.405   3.475   1.499 -0.5445  0.3997 -0.5284
 4750SOL    HW115149   2.324   3.453   1.554 -0.4186  0.8227 -0.1622
 4750SOL    HW215150   2.487   3.450   1.550 -0.4392  0.1941 -0.7980
 4751SOL     OW15151   1.779   2.812   2.605 -0.0554  0.3773  0.3247
 4751SOL    HW115152   1.821   2.742   2.661  0.4622  1.2896  1.1033
 4751SOL    HW215153   1.800   2.794   2.508  0.7620 -0.0800  0.5732
 4752SOL     OW15154   3.112   4.845   4.923 -0.0989  0.3791  0.6582
 4752SOL    HW115155   3.020   4.875   4.899 -0.1036  0.1330  0.3594
 4752SOL    HW215156   3.126   4.751   4.891  0.6686  0.8335 -0.3934
 4753SOL     OW15157   0.065   1.132   5.728  0.1481 -0.1478 -0.0367
 4753SOL    HW115158   0.138   1.086   5.678  0.6601  1.5141 -0.8524
 4753SOL    HW215159   0.100   1.166   5.815 -0.1562 -0.9926  0.4304
 4754SOL     OW15160   5.487   4.996   4.897  0.2892  0.0220  0.4708
 4754SOL    HW115161   5.563   4.936   4.872  0.5379  1.1147 -1.6762
 4754SOL    HW215162   5.423   5.001   4.820 -1.7786 -0.5571  2.0830
 4755SOL     OW15163   1.080   1.975   1.366  0.5101 -0.0273  0.1964
 4755SOL    HW115164   1.041   2.013   1.450  0.1139  2.1066 -0.8827
 4755SOL    HW215165   1.171   1.939   1.385 -0.3114 -1.4040  1.9079
 4756SOL     OW15166   5.262   2.488   5.920  0.2430 -0.2522  0.1112
 4756SOL    HW115167   5.270   2.557   5.992  0.4983  0.4413 -0.5654
 4756SOL    HW215168   5.169   2.489   5.882  0.5037  0.3619 -0.5217
 4757SOL     OW15169   5.616   0.442   5.793  0.0743 -0.7827 -0.0772
 4757SOL    HW115170   5.674   0.436   5.712  0.7590  0.2447  0.3089
 4757SOL    HW215171   5.654   0.385   5.866  2.0335  1.6627  0.9660
 4758SOL     OW15172   4.964   6.618   0.888 -0.2845  0.5213  0.2174
 4758SOL    HW115173   4.868   6.590   0.893 -1.1548  2.7001 -2.2434
 4758SOL    HW215174   5.021   6.538   0.869 -1.7438 -0.6081  0.4185
 4759SOL     OW15175   5.868   6.143   2.071 -0.2153  0.0461 -0.3278
 4759SOL    HW115176   5.927   6.065   2.053  0.3053  0.0055  1.4108
 4759SOL    HW215177   5.867   6.203   1.991  0.7747 -0.8370 -1.0285
 4760SOL     OW15178   5.110   3.265   3.306  0.6208  0.1867 -0.2690
 4760SOL    HW115179   5.061   3.344   3.271 -0.1723 -0.9592 -1.8753
 4760SOL    HW215180   5.209   3.279   3.293  0.5440  1.2179  0.1795
 4761SOL     OW15181   1.314   4.764   2.045  0.8241  0.2032 -0.3381
 4761SOL    HW115182   1.230   4.777   1.993  0.5828  0.1736  0.0387
 4761SOL    HW215183   1.308   4.679   2.098 -0.5221  1.9816  2.6628
 4762SOL     OW15184   3.412   5.331   0.617  0.2966  0.1426  0.0929
 4762SOL    HW115185   3.360   5.339   0.702 -0.6512  0.6265 -0.5075
 4762SOL    HW215186   3.400   5.239   0.580 -0.1363  0.2446 -0.0327
 4763SOL     OW15187   3.855   5.452   6.336  0.3028  0.6079 -0.3206
 4763SOL    HW115188   3.807   5.391   6.273  3.2869 -1.9557 -0.3707
 4763SOL    HW215189   3.928   5.500   6.288  1.8226 -0.4354  0.8430
 4764SOL     OW15190   3.655   2.911   3.574 -0.0139 -0.4103 -0.5487
 4764SOL    HW115191   3.556   2.900   3.566  0.0322 -1.2275 -0.1951
 4764SOL    HW215192   3.695   2.924   3.484 -0.5212  0.7584 -0.6217
 4765SOL     OW15193   1.324   1.002   2.195 -0.1664 -0.3100  0.0435
 4765SOL    HW115194   1.298   0.911   2.226 -1.4873 -0.3234 -1.0131
 4765SOL    HW215195   1.245   1.063   2.201  0.6372  0.7301  0.5322
 4766SOL     OW15196   1.472   1.727   0.466  0.1053  0.0030  0.1467
 4766SOL    HW115197   1.447   1.823   0.481  2.6783  0.9353 -0.9094
 4766SOL    HW215198   1.448   1.673   0.546  0.4831  1.9441  1.6536
 4767SOL     OW15199   5.725   1.239   2.914  0.2033 -0.0041 -0.1229
 4767SOL    HW115200   5.725   1.326   2.864 -1.5056  0.4658  0.6067
 4767SOL    HW215201   5.729   1.163   2.850  0.3656  0.6024 -0.8452
 4768SOL     OW15202   5.932   0.578   4.088  0.5368  0.2585  0.4748
 4768SOL    HW115203   5.854   0.585   4.150 -1.5416 -4.5444 -1.0922
 4768SOL    HW215204   5.906   0.611   3.997  0.8718  0.0497  0.3006
 4769SOL     OW15205   3.952   6.116   5.173  0.0678 -0.1137  0.1405
 4769SOL    HW115206   3.948   6.020   5.144 -0.8477 -0.8064  2.3685
 4769SOL    HW215207   4.013   6.125   5.251 -0.0221  1.1123  0.0886
 4770SOL     OW15208   5.868   5.813   4.265 -0.5293  0.0641 -0.0118
 4770SOL    HW115209   5.778   5.826   4.307 -0.6469 -0.5635 -0.0486
 4770SOL    HW215210   5.936   5.867   4.314 -1.0909  1.3752 -0.6277
 4771SOL     OW15211   4.074   6.723   3.990 -0.1302 -0.1403  0.0324
 4771SOL    HW115212   3.984   6.730   3.946  0.7835  0.9419 -1.7902
 4771SOL    HW215213   4.068   6.758   4.084 -1.4214  0.7912 -0.3659
 4772SOL     OW15214   5.169   4.394   3.221 -0.1995  0.1816 -0.1205
 4772SOL    HW115215   5.137   4.473   3.170  1.4367  0.8524 -0.1639
 4772SOL    HW215216   5.211   4.424   3.307  0.2126 -0.6383 -0.0224
 4773SOL     OW15217   3.319   2.073   2.679  0.1329  0.3987  0.1621
 4773SOL    HW115218   3.377   2.086   2.760  0.8105 -1.9327  0.1133
 4773SOL    HW215219   3.223   2.080   2.706  0.3623  0.4705  0.9993
 4774SOL     OW15220   1.884   1.345   5.550 -0.5755  0.2316 -0.0750
 4774SOL    HW115221   1.957   1.341   5.481  0.5611  0.9904  1.0305
 4774SOL    HW215222   1.910   1.411   5.622 -2.5327  0.7919  0.1666
 4775SOL     OW15223   1.577   6.632   6.673  0.4594  0.5338  0.3635
 4775SOL    HW115224   1.591   6.533   6.680  0.3411  0.4110 -0.8912
 4775SOL    HW215225   1.645   6.671   6.610  1.4854  1.5061  2.0073
 4776SOL     OW15226   6.827   1.662   5.821  0.0435 -0.1090 -0.1488
 4776SOL    HW115227   6.805   1.571   5.785  0.0045  0.3510 -1.3477
 4776SOL    HW215228   6.913   1.658   5.871  1.2894 -0.3724 -2.2092
 4777SOL     OW15229   4.134   3.686   4.894  0.1249  0.3182 -0.1605
 4777SOL    HW115230   4.068   3.644   4.832  0.0523 -0.6925  0.5786
 4777SOL    HW215231   4.224   3.689   4.850  0.1332 -0.6430 -0.2236
 4778SOL     OW15232   1.393   3.823   5.740  0.6038  0.0010  0.3903
 4778SOL    HW115233   1.376   3.823   5.838 -0.9617  2.1603  0.1825
 4778SOL    HW215234   1.447   3.904   5.715 -1.2325  0.9059 -0.8170
 4779SOL     OW15235   3.491   6.969   4.430  0.0492  0.5371  0.1454
 4779SOL    HW115236   3.422   7.038   4.453 -1.0689 -0.1848 -0.8980
 4779SOL    HW215237   3.582   7.007   4.443 -0.5197  1.4511  1.7803
 4780SOL     OW15238   0.054   2.825   2.810  0.0522  0.0225  0.4909
 4780SOL    HW115239   0.072   2.923   2.823  1.2405 -0.4038  2.3685
 4780SOL    HW215240   0.135   2.781   2.770 -0.3817 -0.2540 -0.1007
 4781SOL     OW15241   5.304   0.637   2.029  0.2171  0.2319 -0.9587
 4781SOL    HW115242   5.253   0.722   2.039  1.5131  0.8650  0.6502
 4781SOL    HW215243   5.341   0.630   1.936  1.1464  2.0507 -0.7638
 4782SOL     OW15244   6.558   1.573   6.324 -0.0096 -0.5867 -0.3620
 4782SOL    HW115245   6.603   1.486   6.345  0.7578  0.3971  2.5624
 4782SOL    HW215246   6.589   1.607   6.236  1.0837 -2.3921 -0.7112
 4783SOL     OW15247   2.120   5.528   2.120  0.0606  0.2726 -0.2148
 4783SOL    HW115248   2.072   5.472   2.052  2.1048 -2.1930  0.2406
 4783SOL    HW215249   2.168   5.602   2.074  0.7402 -0.8652 -1.4308
 4784SOL     OW15250   4.567   0.527   3.210 -0.2089 -0.2186  0.3140
 4784SOL    HW115251   4.516   0.464   3.269 -1.1944  0.1169 -0.1481
 4784SOL    HW215252   4.594   0.480   3.126 -1.2429  0.0366 -0.1834
 4785SOL     OW15253   3.667   1.335   1.160 -0.4211 -0.7645  0.1523
 4785SOL    HW115254   3.719   1.320   1.245  0.8683 -0.2717 -0.5238
 4785SOL    HW215255   3.678   1.256   1.100  0.5691 -0.1699 -0.4838
 4786SOL     OW15256   1.465   1.682   5.869  0.1130 -0.0346 -0.3446
 4786SOL    HW115257   1.515   1.600   5.843  0.9354  0.2388  0.3268
 4786SOL    HW215258   1.505   1.721   5.952  1.0947  2.1839 -1.7449
 4787SOL     OW15259   3.486   5.635   5.155 -0.0845  0.2016 -0.4714
 4787SOL    HW115260   3.563   5.651   5.216  0.9305 -1.3506 -1.2856
 4787SOL    HW215261   3.490   5.542   5.119 -1.5235  0.5633 -1.6978
 4788SOL     OW15262   0.674   4.380   1.264 -0.1413 -0.0334 -0.1357
 4788SOL    HW115263   0.764   4.338   1.277 -0.6529 -1.5731 -1.2680
 4788SOL    HW215264   0.607   4.335   1.322 -0.3342  0.6051  0.1490
 4789SOL     OW15265   3.670   3.424   2.948  0.0503  0.6733 -0.6051
 4789SOL    HW115266   3.694   3.372   3.031 -0.4187  1.1208 -0.1787
 4789SOL    HW215267   3.681   3.366   2.868 -0.0653  0.0409 -0.1696
 4790SOL     OW15268   1.066   6.022   3.860 -0.2631  0.4716  0.4055
 4790SOL    HW115269   1.056   6.017   3.760 -0.5929  0.8339  0.4182
 4790SOL    HW215270   1.004   6.091   3.896  1.0210  1.5075  0.6936
 4791SOL     OW15271   0.167   3.811   4.665 -0.3101  0.4060 -0.0020
 4791SOL    HW115272   0.067   3.821   4.657 -0.5232 -1.9126 -1.1254
 4791SOL    HW215273   0.191   3.789   4.759 -0.6830  2.2047  0.5539
 4792SOL     OW15274   2.968   2.314   5.694 -0.6526  0.7165 -0.3030
 4792SOL    HW115275   2.886   2.279   5.648 -0.2192 -0.7707  0.0074
 4792SOL    HW215276   3.048   2.265   5.661  0.3172  2.9066 -1.4389
 4793SOL     OW15277   0.380   4.077   2.349  0.0770 -0.0133 -0.4171
 4793SOL    HW115278   0.286   4.073   2.314 -0.1236 -1.5347  0.1932
 4793SOL    HW215279   0.425   4.160   2.316 -0.7307 -0.3818 -2.6131
 4794SOL     OW15280   5.189   4.732   4.819 -0.4440  0.8947  0.5759
 4794SOL    HW115281   5.106   4.677   4.810  0.5914 -0.7779  0.6250
 4794SOL    HW215282   5.211   4.745   4.915  0.2183 -0.1003  0.5726
 4795SOL     OW15283   4.955   5.633   4.084 -0.2952 -0.6206  0.0855
 4795SOL    HW115284   4.938   5.536   4.102 -0.3657 -0.4337  1.0733
 4795SOL    HW215285   5.054   5.648   4.074 -0.3280 -0.9006 -0.8095
 4796SOL     OW15286   0.783   0.050   0.761 -0.3912  0.8081  0.1087
 4796SOL    HW115287   0.779   0.124   0.829  2.1574  1.4182 -0.3148
 4796SOL    HW215288   0.879   0.028   0.741 -0.9967 -2.9638  0.5519
 4797SOL     OW15289   5.489   0.565   6.808  0.6102 -0.0837 -0.1478
 4797SOL    HW115290   5.433   0.572   6.891 -2.9103 -1.9888 -2.0798
 4797SOL    HW215291   5.463   0.638   6.744 -0.0608 -1.1854 -1.2004
 4798SOL     OW15292   5.956   3.639   4.162  0.7600 -0.0242 -0.0728
 4798SOL    HW115293   6.028   3.697   4.126  1.5636 -0.0692  1.4037
 4798SOL    HW215294   5.990   3.546   4.172  0.2328 -0.2271 -0.1177
 4799SOL     OW15295   0.383   2.012   0.797 -0.4799 -0.0477  0.1442
 4799SOL    HW115296   0.431   2.097   0.777 -0.9874  0.2028 -0.0304
 4799SOL    HW215297   0.429   1.936   0.751 -0.9047  0.3474 -0.9874
 4800SOL     OW15298   0.340   1.705   2.247 -0.2228 -0.4336  0.1549
 4800SOL    HW115299   0.416   1.725   2.309 -0.9119  3.1990  0.0469
 4800SOL    HW215300   0.333   1.777   2.178 -2.3082 -1.9434 -1.3330
 4801SOL     OW15301   0.299   6.170   3.285  0.3624  0.0373 -0.3385
 4801SOL    HW115302   0.298   6.270   3.284  1.1613  0.0967  1.4687
 4801SOL    HW215303   0.223   6.137   3.341  0.9393 -0.3058  0.2568
 4802SOL     OW15304   1.346   6.599   3.750 -0.0017  0.0754 -0.0628
 4802SOL    HW115305   1.251   6.571   3.764  0.3098 -0.9831 -0.0355
 4802SOL    HW215306   1.400   6.579   3.832  0.4687 -0.3062 -0.4579
 4803SOL     OW15307   0.922   6.602   3.213  0.4305 -0.3362 -0.2884
 4803SOL    HW115308   0.955   6.508   3.222 -0.2094 -0.4761  0.7683
 4803SOL    HW215309   0.990   6.656   3.164 -0.1813 -1.8663 -3.0729
 4804SOL     OW15310   1.953   1.870   0.514 -0.6250 -0.0419  0.4241
 4804SOL    HW115311   1.943   1.780   0.471  1.2456 -0.2770  0.3670
 4804SOL    HW215312   1.910   1.870   0.604 -2.2530 -0.3935 -0.3297
 4805SOL     OW15313   0.386   4.689   3.051 -0.1962 -0.5999  0.0228
 4805SOL    HW115314   0.458   4.757   3.033 -0.8697  0.3550  0.7590
 4805SOL    HW215315   0.357   4.647   2.966 -0.4303  0.7567 -0.5949
 4806SOL     OW15316   0.231   2.664   5.168 -0.2627  0.5912  0.1954
 4806SOL    HW115317   0.208   2.716   5.086  0.2819  0.3003 -0.1423
 4806SOL    HW215318   0.231   2.566   5.147 -2.4610  0.3302  1.0953
 4807SOL     OW15319   1.998   5.800   5.266 -0.2363  0.4390 -0.1471
 4807SOL    HW115320   2.051   5.880   5.236  0.9536 -0.5365 -0.7290
 4807SOL    HW215321   2.033   5.770   5.355  0.8647 -0.7591 -0.9473
 4808SOL     OW15322   0.882   5.288   6.017  0.4603  0.2485 -0.6740
 4808SOL    HW115323   0.911   5.207   5.966 -0.6856  0.1766 -1.2327
 4808SOL    HW215324   0.949   5.361   6.004  0.1181  0.2818 -2.4069
 4809SOL     OW15325   1.812   1.621   0.484  0.3485 -0.3964  0.1272
 4809SOL    HW115326   1.829   1.568   0.567  2.1383 -0.8634 -0.4918
 4809SOL    HW215327   1.719   1.658   0.486 -0.3824 -2.1803  1.3318
 4810SOL     OW15328   4.714   2.861   3.792  0.1623 -0.2370  0.5169
 4810SOL    HW115329   4.728   2.960   3.785  0.8058 -0.3017  0.7817
 4810SOL    HW215330   4.674   2.826   3.707 -0.7603  0.3562  0.6885
 4811SOL     OW15331   5.618   0.729   5.486 -0.3900 -0.2239 -0.1520
 4811SOL    HW115332   5.588   0.824   5.487  2.1033  0.7160 -2.7336
 4811SOL    HW215333   5.700   0.719   5.542  0.6100 -0.2921 -1.5686
 4812SOL     OW15334   3.059   1.299   6.931  0.8338  1.0336 -0.0598
 4812SOL    HW115335   2.972   1.334   6.966  0.8832 -0.1711  1.3621
 4812SOL    HW215336   3.045   1.255   6.843 -0.2554 -0.2319  0.7117
 4813SOL     OW15337   6.193   2.632   2.516 -0.0263  0.0615  0.5986
 4813SOL    HW115338   6.230   2.699   2.452 -2.6580  2.9929  1.8511
 4813SOL    HW215339   6.220   2.657   2.609 -0.0516 -1.3919  1.0162
 4814SOL     OW15340   0.571   3.478   6.608 -0.4782  0.1210  0.3829
 4814SOL    HW115341   0.507   3.402   6.610 -0.4742  0.1213  0.5075
 4814SOL    HW215342   0.524   3.562   6.635 -0.0645 -0.1398  1.9872
 4815SOL     OW15343   2.639   5.167   5.872  0.3815 -1.3894 -0.4020
 4815SOL    HW115344   2.641   5.127   5.964  2.4975 -1.4887 -0.4525
 4815SOL    HW215345   2.732   5.175   5.837 -0.1563  1.2998 -1.4148
 4816SOL     OW15346   0.291   6.430   4.502  0.3502 -0.0785  0.6660
 4816SOL    HW115347   0.339   6.502   4.451 -0.6755 -0.0398 -0.2882
 4816SOL    HW215348   0.252   6.469   4.585 -0.3174  0.5126  0.0863
 4817SOL     OW15349   0.442   1.455   1.889  0.1307  0.1772  0.3719
 4817SOL    HW115350   0.520   1.507   1.924 -0.3897  1.5420 -0.4078
 4817SOL    HW215351   0.414   1.387   1.957  1.9901 -0.3596  0.6530
 4818SOL     OW15352   2.308   3.656   0.426  0.4483  0.2103 -0.2563
 4818SOL    HW115353   2.397   3.701   0.430  0.8680 -0.6633  0.6278
 4818SOL    HW215354   2.268   3.654   0.518 -1.4569  2.4389 -0.9306
 4819SOL     OW15355   1.600   6.310   3.669  0.1603  0.7039 -0.2136
 4819SOL    HW115356   1.635   6.238   3.729 -0.9376  1.5751  1.5539
 4819SOL    HW215357   1.659   6.391   3.677  0.1191  0.7574 -0.4581
 4820SOL     OW15358   1.444   6.865   0.018 -0.1436  0.2474 -0.0058
 4820SOL    HW115359   1.513   6.930  -0.014 -0.4460  0.2443 -0.6880
 4820SOL    HW215360   1.420   6.802  -0.057 -2.8439  1.9293 -0.6944
 4821SOL     OW15361   5.335   5.952   0.725 -0.2582 -0.0592 -0.1141
 4821SOL    HW115362   5.355   5.923   0.631  2.0959  3.3171 -0.8489
 4821SOL    HW215363   5.265   6.024   0.723  0.2001  0.4112  0.6714
 4822SOL     OW15364   0.638   6.049   0.322 -0.1298 -0.1266  0.2572
 4822SOL    HW115365   0.598   6.018   0.408  0.8106 -0.6315  0.5182
 4822SOL    HW215366   0.734   6.071   0.336 -1.0230  4.6766  0.5614
 4823SOL     OW15367   6.033   3.813   3.495  0.4870  0.2057  0.5070
 4823SOL    HW115368   5.962   3.828   3.563  0.5643  0.7506  0.4705
 4823SOL    HW215369   5.992   3.785   3.409  0.4420 -1.5068  1.0415
 4824SOL     OW15370   4.189   4.301   5.899  0.3105 -0.1250 -0.5899
 4824SOL    HW115371   4.242   4.253   5.830 -0.5092 -1.3536 -0.3956
 4824SOL    HW215372   4.124   4.238   5.942  0.1641  0.8312  0.6619
 4825SOL     OW15373   5.048   1.599   0.881 -0.2009 -0.0358 -0.0003
 4825SOL    HW115374   5.004   1.651   0.808 -0.6482  0.2404  0.4565
 4825SOL    HW215375   5.019   1.635   0.970  2.1026  1.1673  0.3464
 4826SOL     OW15376   4.799   2.056   5.584  0.1701 -0.1524  0.1876
 4826SOL    HW115377   4.864   2.029   5.512 -1.1808  0.4976 -1.3426
 4826SOL    HW215378   4.827   2.015   5.671  1.4816 -1.5472 -0.8281
 4827SOL     OW15379   4.772   2.009   5.843  0.3888 -0.0445 -0.2220
 4827SOL    HW115380   4.688   1.955   5.839  0.9756 -0.9477 -0.7668
 4827SOL    HW215381   4.751   2.106   5.826 -1.0475  0.3971  3.3171
 4828SOL     OW15382   3.095   6.157   4.911  0.1835  0.3258  0.5234
 4828SOL    HW115383   3.170   6.223   4.913  0.7926 -0.3618  2.5091
 4828SOL    HW215384   3.120   6.078   4.855  0.0831  1.0284 -0.5380
 4829SOL     OW15385   1.454   2.282   2.290  1.0643 -0.0390  0.1820
 4829SOL    HW115386   1.460   2.206   2.355 -1.0964 -0.4466 -0.0331
 4829SOL    HW215387   1.411   2.361   2.334 -1.8633 -0.8097 -1.0350
 4830SOL     OW15388   5.414   5.010   1.642 -0.2205  0.8594 -0.4939
 4830SOL    HW115389   5.368   5.079   1.586 -1.2771 -0.1780 -0.9407
 4830SOL    HW215390   5.408   4.921   1.597 -0.2556  0.1799  0.8000
 4831SOL     OW15391   6.305   2.089   1.541  0.3806  0.0776 -0.4944
 4831SOL    HW115392   6.403   2.107   1.537  0.5366 -0.8081 -0.8015
 4831SOL    HW215393   6.289   1.991   1.538 -0.5377  0.2335 -0.9129
 4832SOL     OW15394   0.862   4.425   3.344  0.3911 -0.2410  0.2601
 4832SOL    HW115395   0.936   4.492   3.339  0.6007 -0.5498 -2.2213
 4832SOL    HW215396   0.855   4.389   3.437  2.8692  0.3418  0.7383
 4833SOL     OW15397   4.581   0.249   3.900  0.1736  0.1038 -0.0074
 4833SOL    HW115398   4.548   0.332   3.855  0.5209  0.3967  0.2673
 4833SOL    HW215399   4.555   0.252   3.997 -0.3866 -0.4207 -0.1381
 4834SOL     OW15400   6.978   6.097   2.929  0.0177 -0.1709  0.3951
 4834SOL    HW115401   7.076   6.113   2.929  0.3395 -1.9399  0.3057
 4834SOL    HW215402   6.959   6.006   2.966 -1.6052  0.2368  0.6290
 4835SOL     OW15403   0.109   0.879   5.348 -0.6782  0.3846  0.5240
 4835SOL    HW115404   0.030   0.875   5.410  0.5503 -1.0158  2.1039
 4835SOL    HW215405   0.083   0.925   5.264 -3.6204 -1.3401  0.3442
 4836SOL     OW15406   0.083   3.776   0.645 -0.2987  0.0688  0.2389
 4836SOL    HW115407   0.154   3.831   0.602  0.3619 -0.5675  0.5004
 4836SOL    HW215408   0.089   3.682   0.613 -0.8946 -0.0395  0.4246
 4837SOL     OW15409   1.624   6.478   0.981 -0.0926  0.2890  0.1093
 4837SOL    HW115410   1.630   6.424   1.065  0.2263 -2.3294 -1.4734
 4837SOL    HW215411   1.710   6.470   0.930 -0.5720  1.1118 -0.8677
 4838SOL     OW15412   0.143   6.832   2.132 -0.2646  0.5124 -0.3464
 4838SOL    HW115413   0.158   6.922   2.172  1.4829  0.4558 -0.7959
 4838SOL    HW215414   0.062   6.790   2.174 -3.3112  3.6271 -2.5564
 4839SOL     OW15415   1.976   6.039   0.627  0.4298 -0.2837  0.2715
 4839SOL    HW115416   1.981   6.128   0.581 -0.2423 -0.1916  0.3658
 4839SOL    HW215417   2.015   5.969   0.568 -2.2055 -0.5133 -1.3564
 4840SOL     OW15418   0.688   3.423   2.879 -0.1867 -0.6151  0.3593
 4840SOL    HW115419   0.630   3.471   2.945  2.4412  2.3909  0.7768
 4840SOL    HW215420   0.756   3.369   2.928  0.4317 -0.1080  0.0781
 4841SOL     OW15421   4.667   5.005   3.983  0.4148  0.1011 -0.1435
 4841SOL    HW115422   4.689   5.062   3.904  0.5137 -0.7284 -0.7326
 4841SOL    HW215423   4.735   5.020   4.054  1.8768 -1.0630 -1.2360
 4842SOL     OW15424   2.426   5.613   0.679  0.3359  0.0171 -0.0116
 4842SOL    HW115425   2.462   5.702   0.651 -0.5496 -0.3013 -2.3947
 4842SOL    HW215426   2.327   5.621   0.693  0.3360 -0.4665  0.2725
 4843SOL     OW15427   6.706   3.207   6.400 -0.3107 -0.2275 -0.2327
 4843SOL    HW115428   6.767   3.241   6.329 -1.1319  1.2202 -0.2810
 4843SOL    HW215429   6.759   3.188   6.483  0.6451 -1.8994 -1.1696
 4844SOL     OW15430   4.756   2.130   1.247 -0.4021  0.6803  0.1002
 4844SOL    HW115431   4.766   2.045   1.300  1.0810  0.3994 -0.5716
 4844SOL    HW215432   4.675   2.179   1.278 -0.8846 -0.6223  1.0094
 4845SOL     OW15433   6.406   1.378   1.356 -0.3773 -0.4127  0.0800
 4845SOL    HW115434   6.447   1.304   1.302  3.1127  1.7805 -0.6247
 4845SOL    HW215435   6.370   1.448   1.295  1.9594  1.2367  0.4461
 4846SOL     OW15436   4.110   1.365   5.218 -0.2848  0.0340 -0.0422
 4846SOL    HW115437   4.011   1.354   5.222 -0.0922 -1.5668  2.1205
 4846SOL    HW215438   4.136   1.447   5.269 -0.4549  0.2255 -0.2596
 4847SOL     OW15439   6.322   3.386   3.751  0.2141  0.0590 -0.2462
 4847SOL    HW115440   6.334   3.458   3.683 -2.3336  1.6066  0.7975
 4847SOL    HW215441   6.239   3.333   3.730 -0.3064  0.2018  1.2659
 4848SOL     OW15442   4.999   2.352   1.940  0.1278 -0.0972 -0.8505
 4848SOL    HW115443   4.989   2.288   1.865  2.5638  0.0591 -1.3876
 4848SOL    HW215444   4.994   2.303   2.027 -2.2488 -0.3415 -1.0567
 4849SOL     OW15445   4.968   1.811   3.511  0.6537  0.7492  0.0057
 4849SOL    HW115446   4.941   1.849   3.599  0.6661  2.0571 -0.5353
 4849SOL    HW215447   5.054   1.760   3.521  0.7927  1.1131  0.6997
 4850SOL     OW15448   4.910   6.089   4.353 -0.0506  0.3321  0.3088
 4850SOL    HW115449   4.986   6.099   4.288  0.3277  1.3708  0.8916
 4850SOL    HW215450   4.825   6.072   4.302  0.3877  0.2233 -0.4058
 4851SOL     OW15451   2.809   2.128   3.185  0.3744 -0.1743 -0.0339
 4851SOL    HW115452   2.802   2.182   3.101  0.4349  1.0092  0.7053
 4851SOL    HW215453   2.889   2.156   3.237 -0.7773  0.6088  1.4227
 4852SOL     OW15454   4.672   6.951   2.262  0.1770  0.4024 -0.1770
 4852SOL    HW115455   4.661   6.988   2.355 -1.0100 -0.0868 -0.1012
 4852SOL    HW215456   4.756   6.987   2.222  1.0326  0.1678  1.3049
 4853SOL     OW15457   6.025   0.143   4.592  0.2825  0.5111  0.5108
 4853SOL    HW115458   6.073   0.068   4.637  0.3920  0.7786  0.8374
 4853SOL    HW215459   5.927   0.134   4.609  0.3617  0.8512  1.1602
 4854SOL     OW15460   2.832   6.481   5.362 -0.5284  0.2332  0.0818
 4854SOL    HW115461   2.837   6.562   5.421 -2.1013  1.1521 -0.9615
 4854SOL    HW215462   2.869   6.503   5.272 -0.4663 -0.3851 -0.0494
 4855SOL     OW15463   2.883   3.694   2.581  0.2373 -0.0901  0.7211
 4855SOL    HW115464   2.785   3.674   2.571 -0.0787 -0.0673  3.2972
 4855SOL    HW215465   2.930   3.611   2.610  0.5327  0.4928  1.9720
 4856SOL     OW15466   6.284   2.547   5.833  0.1482  0.2740  0.1454
 4856SOL    HW115467   6.317   2.499   5.914 -0.0047  0.4468  0.3100
 4856SOL    HW215468   6.208   2.497   5.792  2.6901 -2.0617 -2.2386
 4857SOL     OW15469   6.685   6.187   4.582 -0.0012 -0.5531  0.2614
 4857SOL    HW115470   6.715   6.275   4.543 -1.7300 -0.1413 -0.2021
 4857SOL    HW215471   6.731   6.112   4.533 -0.0977  0.0385 -0.7671
 4858SOL     OW15472   3.536   6.532   3.963  0.7536  0.1530  0.0991
 4858SOL    HW115473   3.464   6.567   4.023  1.4254  2.1241 -0.1723
 4858SOL    HW215474   3.593   6.467   4.013 -0.1815 -0.1154  0.8318
 4859SOL     OW15475   5.874   1.312   2.116 -0.1468  0.7494 -0.2143
 4859SOL    HW115476   5.888   1.327   2.018  1.7326  1.8073  0.1787
 4859SOL    HW215477   5.917   1.226   2.143  1.5938  1.6747  0.1036
 4860SOL     OW15478   3.211   1.119   6.103  0.2313  0.1091 -0.1040
 4860SOL    HW115479   3.170   1.208   6.088  1.1009  0.4503 -0.5223
 4860SOL    HW215480   3.234   1.077   6.015 -0.3609 -0.6215  0.0809
 4861SOL     OW15481   5.288   6.022   3.724  0.6036 -0.1972 -0.0296
 4861SOL    HW115482   5.272   5.959   3.648 -1.9982  0.6088 -0.2470
 4861SOL    HW215483   5.259   5.979   3.810  1.8229 -0.4247  0.2929
 4862SOL     OW15484   2.201   2.047   3.990 -0.2327  0.2287  0.2233
 4862SOL    HW115485   2.288   2.006   4.017 -0.4033  0.6528  1.4482
 4862SOL    HW215486   2.165   1.998   3.910  1.1733  0.1170 -0.3746
 4863SOL     OW15487   5.605   2.363   4.226  0.0920  0.1349 -0.4497
 4863SOL    HW115488   5.567   2.415   4.149  0.0424 -1.6632 -1.7091
 4863SOL    HW215489   5.652   2.282   4.191 -1.9545 -2.0421  1.4437
 4864SOL     OW15490   1.363   6.288   3.030  0.0382 -0.3123 -0.1323
 4864SOL    HW115491   1.327   6.355   2.966 -0.6645 -1.1580 -0.6366
 4864SOL    HW215492   1.356   6.325   3.123  0.0775  0.4864 -0.4353
 4865SOL     OW15493   1.122   4.756   5.021 -0.8368  0.1391 -0.3059
 4865SOL    HW115494   1.139   4.797   4.932 -0.5842 -0.1607 -0.3988
 4865SOL    HW215495   1.209   4.734   5.065 -0.9535  0.5046  0.1207
 4866SOL     OW15496   3.402   6.010   0.872 -0.0587 -0.4228  0.2410
 4866SOL    HW115497   3.394   5.931   0.811  0.2835 -0.3692  0.1266
 4866SOL    HW215498   3.347   6.085   0.837  1.2142  0.0732 -0.7465
 4867SOL     OW15499   0.968   3.074   0.866 -0.4588 -0.5604 -0.5482
 4867SOL    HW115500   1.002   2.987   0.904  0.4924 -0.1277 -0.3726
 4867SOL    HW215501   0.975   3.146   0.935 -0.8683 -0.2568 -0.8198
 4868SOL     OW15502   4.627   6.234   5.456  0.0238  0.5261  0.4671
 4868SOL    HW115503   4.682   6.159   5.418 -0.4365 -0.7567  2.1800
 4868SOL    HW215504   4.593   6.291   5.382  0.8669 -0.6240 -0.8683
 4869SOL     OW15505   3.087   0.778   3.856 -0.2466  0.0843 -0.5110
 4869SOL    HW115506   3.096   0.679   3.867 -0.9497  0.0523 -0.1293
 4869SOL    HW215507   3.175   0.822   3.874 -0.1993 -0.3811  0.4757
 4870SOL     OW15508   4.249   6.332   6.165 -0.0167 -0.3757 -0.3118
 4870SOL    HW115509   4.261   6.245   6.117  0.3823 -0.1220 -0.6803
 4870SOL    HW215510   4.338   6.364   6.198 -0.0044  0.3639 -1.0214
 4871SOL     OW15511   4.596   6.835   1.031 -0.9445  0.4271 -0.0435
 4871SOL    HW115512   4.554   6.924   1.011  1.5985  1.6173 -0.5002
 4871SOL    HW215513   4.688   6.833   0.994 -1.5479 -3.2007 -1.7648
 4872SOL     OW15514   3.006   3.009   6.036  0.5541  0.1400  0.3121
 4872SOL    HW115515   3.090   2.959   6.014 -0.1885 -0.5963 -1.0055
 4872SOL    HW215516   2.983   2.994   6.132  0.3690 -2.1217 -0.0168
 4873SOL     OW15517   0.699   1.457   6.081 -0.1030 -0.4066  0.2907
 4873SOL    HW115518   0.647   1.448   6.166  0.2884 -1.4423  0.4400
 4873SOL    HW215519   0.794   1.478   6.102 -0.4011  1.3415  0.0231
 4874SOL     OW15520   5.794   3.027   3.206  0.2171 -0.1678 -0.0207
 4874SOL    HW115521   5.844   2.946   3.175  2.1046  0.7292  0.5211
 4874SOL    HW215522   5.851   3.079   3.269 -0.1972  2.5950 -1.7736
 4875SOL     OW15523   5.077   4.187   4.639  0.2238 -0.0727  0.3160
 4875SOL    HW115524   5.070   4.087   4.642 -0.6303 -0.0604 -0.7603
 4875SOL    HW215525   4.999   4.224   4.589 -0.7336  1.3057  2.6859
 4876SOL     OW15526   4.093   5.463   5.804 -0.1050 -0.2972  0.4008
 4876SOL    HW115527   3.995   5.441   5.795  0.1779 -1.1342 -0.9718
 4876SOL    HW215528   4.147   5.382   5.781  0.9569  1.0181 -2.1960
 4877SOL     OW15529   3.605   6.585   0.387 -0.6991 -0.3017  0.0758
 4877SOL    HW115530   3.537   6.641   0.340 -1.5715 -0.0860  1.5211
 4877SOL    HW215531   3.569   6.557   0.476 -0.0170 -2.6119 -0.3059
 4878SOL     OW15532   3.773   5.929   0.137 -0.4684  0.5726 -0.2536
 4878SOL    HW115533   3.677   5.939   0.110 -0.3259  0.2302 -0.9214
 4878SOL    HW215534   3.794   5.832   0.148 -0.3946  0.6861  0.6570
 4879SOL     OW15535   6.404   3.034   1.947  0.1942  0.7499 -0.0656
 4879SOL    HW115536   6.320   3.072   1.987 -0.7498  0.5578 -1.7792
 4879SOL    HW215537   6.426   3.085   1.864  0.5278 -0.6256 -0.8343
 4880SOL     OW15538   3.696   2.052   1.684 -0.4660 -0.4925 -0.0066
 4880SOL    HW115539   3.753   2.052   1.766 -0.9240  1.7755  0.3690
 4880SOL    HW215540   3.650   2.140   1.675 -0.1354 -0.5148 -2.9175
 4881SOL     OW15541   2.906   5.782   4.489  0.2833 -0.2115 -0.1327
 4881SOL    HW115542   2.964   5.703   4.507  0.1684 -0.0856  0.8537
 4881SOL    HW215543   2.836   5.758   4.422  0.4091 -0.8741 -0.0306
 4882SOL     OW15544   6.116   2.381   6.220 -0.0774 -0.3733 -0.0055
 4882SOL    HW115545   6.082   2.442   6.148  1.5699  0.2471 -0.2929
 4882SOL    HW215546   6.059   2.392   6.301  0.5282  2.0899  0.1755
 4883SOL     OW15547   2.911   5.223   4.744  0.4633  0.9360 -0.3091
 4883SOL    HW115548   2.926   5.151   4.676  1.2483 -0.3365  1.1216
 4883SOL    HW215549   2.998   5.247   4.786  0.0349  1.8636  0.0675
 4884SOL     OW15550   1.378   6.885   5.063  0.0784 -0.5955 -0.9230
 4884SOL    HW115551   1.369   6.913   4.967 -1.3094 -0.7328 -0.8654
 4884SOL    HW215552   1.387   6.786   5.068 -1.0186 -0.7147 -0.8935
 4885SOL     OW15553   1.848   2.858   5.617 -0.1610  0.0407  0.1447
 4885SOL    HW115554   1.814   2.789   5.553 -3.1536  1.2813  0.2132
 4885SOL    HW215555   1.811   2.840   5.708  1.1285  0.3342  0.7512
 4886SOL     OW15556   4.647   2.528   1.048 -0.2977  0.4443 -0.3468
 4886SOL    HW115557   4.567   2.473   1.021  0.5140 -0.1060 -1.8015
 4886SOL    HW215558   4.619   2.621   1.068 -1.1662  0.6158 -2.1588
 4887SOL     OW15559   4.848   3.464   6.368 -0.0118 -0.2234  0.0146
 4887SOL    HW115560   4.806   3.395   6.309 -0.7070  0.4184 -0.2513
 4887SOL    HW215561   4.857   3.550   6.318  1.2964 -0.2422  0.1872
 4888SOL     OW15562   2.932   1.778   1.872  0.4008 -0.1094  0.2179
 4888SOL    HW115563   2.833   1.777   1.886  0.5616  0.2099  1.5488
 4888SOL    HW215564   2.960   1.866   1.835  0.4194  0.6525  1.9600
 4889SOL     OW15565   5.698   4.485   1.837  0.1312 -0.0831 -0.2516
 4889SOL    HW115566   5.703   4.472   1.936  0.2261  0.2439 -0.2131
 4889SOL    HW215567   5.642   4.412   1.797 -0.1836 -0.0283  0.0793
 4890SOL     OW15568   6.277   2.651   4.436  0.3474 -0.0264 -0.2749
 4890SOL    HW115569   6.282   2.722   4.506  0.4184 -1.4071  1.1919
 4890SOL    HW215570   6.301   2.689   4.348 -0.3270  1.9255  0.3288
 4891SOL     OW15571   3.560   4.734   5.862  0.0795  0.0473 -0.0778
 4891SOL    HW115572   3.548   4.744   5.764  0.0458  3.1826  0.1493
 4891SOL    HW215573   3.635   4.670   5.880 -1.2331 -2.2081 -2.0044
 4892SOL     OW15574   0.754   0.043   2.046  0.0414 -0.0225  0.4833
 4892SOL    HW115575   0.755   0.043   1.946  1.0185 -0.8655  0.4766
 4892SOL    HW215576   0.663   0.020   2.079 -0.1091 -0.4693 -0.2298
 4893SOL     OW15577   5.656   5.253   1.485 -0.6126 -0.2414 -0.2362
 4893SOL    HW115578   5.587   5.291   1.423  0.0296 -1.2341 -1.6238
 4893SOL    HW215579   5.720   5.324   1.511 -1.4814  0.4275  0.1316
 4894SOL     OW15580   2.434   3.212   5.964 -0.4351 -0.1426  0.2159
 4894SOL    HW115581   2.460   3.265   6.045  2.0629  0.3293 -0.8120
 4894SOL    HW215582   2.487   3.127   5.961 -0.1218  0.0746 -1.1390
 4895SOL     OW15583   0.072   5.466   6.408 -0.2581  0.1919  0.0144
 4895SOL    HW115584  -0.026   5.452   6.399 -0.1772 -0.7474  0.4505
 4895SOL    HW215585   0.120   5.383   6.380  0.4213  0.6601 -0.2452
 4896SOL     OW15586   6.848   5.407   2.145 -0.4429 -0.1049 -0.5402
 4896SOL    HW115587   6.937   5.452   2.133 -0.9373  0.3757 -2.9098
 4896SOL    HW215588   6.785   5.471   2.191  0.4386 -0.5273  1.3490
 4897SOL     OW15589   0.919   3.803   6.514  0.5570  0.4073 -0.1023
 4897SOL    HW115590   0.868   3.888   6.506 -0.0661 -0.0184 -0.8961
 4897SOL    HW215591   0.863   3.727   6.479  1.5871 -0.1322 -0.6341
 4898SOL     OW15592   0.375   6.929   6.383  0.1116  0.5785  0.7370
 4898SOL    HW115593   0.475   6.931   6.382  0.1033  1.3420  0.7892
 4898SOL    HW215594   0.343   6.837   6.360  0.8074  0.5789 -0.2907
 4899SOL     OW15595   1.643   0.003   3.227  0.1604 -0.0827  0.1313
 4899SOL    HW115596   1.718  -0.014   3.163 -0.1647 -0.8002 -0.0641
 4899SOL    HW215597   1.675  -0.016   3.320 -0.3571 -2.4285 -0.1237
 4900SOL     OW15598   4.294   0.401   2.057 -0.2958 -0.3204  0.3251
 4900SOL    HW115599   4.281   0.496   2.028  0.6654 -0.1644  0.3640
 4900SOL    HW215600   4.358   0.356   1.994  1.4594 -0.1131  1.8888
 4901SOL     OW15601   0.810   4.315   3.615  0.4454  0.2893  0.0457
 4901SOL    HW115602   0.751   4.396   3.622 -0.9437 -0.5346 -1.5607
 4901SOL    HW215603   0.772   4.242   3.671  0.9165  0.2934  0.3738
 4902SOL     OW15604   5.626   6.803   6.734 -0.3910  0.5275  0.8111
 4902SOL    HW115605   5.690   6.874   6.704 -0.4246  0.3756  0.3822
 4902SOL    HW215606   5.645   6.781   6.830  1.2191 -0.6094  0.2647
 4903SOL     OW15607   0.317   2.622   4.449  0.4984  0.4872  0.0706
 4903SOL    HW115608   0.281   2.584   4.364 -1.9714 -0.1933  1.3049
 4903SOL    HW215609   0.253   2.691   4.483  0.7734 -0.1451  1.9853
 4904SOL     OW15610   2.148   4.633   5.576 -0.4985 -0.1235 -0.2811
 4904SOL    HW115611   2.245   4.638   5.554 -0.7611  1.5608 -1.3285
 4904SOL    HW215612   2.121   4.715   5.626 -1.4182 -0.4749 -0.1793
 4905SOL     OW15613   3.530   3.725   6.765  0.5693 -0.1426 -0.2461
 4905SOL    HW115614   3.548   3.713   6.863 -0.9453  3.5552  0.6559
 4905SOL    HW215615   3.585   3.801   6.730 -0.2994 -0.1898 -1.8149
 4906SOL     OW15616   0.984   2.848   6.829  0.1698  0.3305 -0.2110
 4906SOL    HW115617   1.044   2.814   6.756  0.1102 -1.8280  0.6581
 4906SOL    HW215618   0.890   2.850   6.796  0.0755 -1.1016 -0.0781
 4907SOL     OW15619   6.939   4.377   2.588  0.2464 -0.0181 -0.2341
 4907SOL    HW115620   6.888   4.463   2.584 -0.6316 -0.5713 -1.3426
 4907SOL    HW215621   7.021   4.384   2.531  1.1546  0.6598  1.0752
 4908SOL     OW15622   2.196   3.412   1.641  0.3404  0.2473  0.0403
 4908SOL    HW115623   2.097   3.406   1.651  0.5000 -1.3785  1.1257
 4908SOL    HW215624   2.236   3.444   1.727  0.8410 -0.4935  0.0907
 4909SOL     OW15625   3.917   4.737   6.910 -0.1525  0.6857 -0.0405
 4909SOL    HW115626   3.887   4.644   6.888 -0.4113  0.7513  0.0335
 4909SOL    HW215627   3.897   4.797   6.833 -1.3559  0.9818  0.4666
 4910SOL     OW15628   3.898   1.033   5.105 -0.4312 -0.6187  0.2655
 4910SOL    HW115629   3.989   1.054   5.069 -0.8888 -0.5479 -0.9037
 4910SOL    HW215630   3.892   0.935   5.124 -0.3761 -0.7623 -0.4452
 4911SOL     OW15631   5.469   4.883   0.687 -0.1259 -0.1855  0.4410
 4911SOL    HW115632   5.503   4.879   0.782 -0.7412 -1.5516  0.6345
 4911SOL    HW215633   5.383   4.934   0.684  0.3898  0.7014  0.4442
 4912SOL     OW15634   5.514   3.183   2.062 -0.1711 -0.5818  0.4894
 4912SOL    HW115635   5.524   3.199   1.963  0.9580  0.1813  0.7058
 4912SOL    HW215636   5.495   3.269   2.108  0.1739 -0.7968  1.0404
 4913SOL     OW15637   2.413   2.771   4.846  0.0326  0.1021 -0.3514
 4913SOL    HW115638   2.377   2.833   4.916  2.0809  2.6000 -1.3291
 4913SOL    HW215639   2.383   2.802   4.755 -0.0125 -1.1996 -0.8080
 4914SOL     OW15640   3.549   4.412   1.710  0.2291  0.1767  0.1187
 4914SOL    HW115641   3.621   4.344   1.724  0.2627  0.2230  0.1702
 4914SOL    HW215642   3.574   4.497   1.757 -0.1459 -0.0040  0.6460
 4915SOL     OW15643   0.862   5.964   1.716  0.0139 -0.5098  0.0081
 4915SOL    HW115644   0.839   5.869   1.696 -0.6921  0.0114 -1.9122
 4915SOL    HW215645   0.867   6.015   1.630  2.2497  0.7977  0.8445
 4916SOL     OW15646   3.223   5.497   1.181 -0.4235 -0.2999  0.1617
 4916SOL    HW115647   3.227   5.399   1.204 -0.2380 -0.1617  0.7360
 4916SOL    HW215648   3.225   5.551   1.266 -0.0818  0.2145 -0.1720
 4917SOL     OW15649   2.523   0.092   2.941  0.1855 -0.2698  0.8343
 4917SOL    HW115650   2.478   0.009   2.974 -2.3436 -0.5469 -2.6824
 4917SOL    HW215651   2.564   0.074   2.852  1.6796  1.7269  1.0454
 4918SOL     OW15652   3.131   1.684   0.112  0.4247  0.2673 -0.4808
 4918SOL    HW115653   3.168   1.777   0.105  0.8751  0.1586  0.4043
 4918SOL    HW215654   3.034   1.689   0.134  0.7291  0.5275  0.8695
 4919SOL     OW15655   5.658   3.841   0.444  0.2446  0.7305  0.9252
 4919SOL    HW115656   5.589   3.898   0.399 -0.6020 -1.2163 -0.3622
 4919SOL    HW215657   5.613   3.779   0.509  0.9926  0.5897  1.3174
 4920SOL     OW15658   2.482   2.479   1.841  0.4740 -0.1717  0.3343
 4920SOL    HW115659   2.550   2.422   1.887  0.5489 -0.7927 -0.5079
 4920SOL    HW215660   2.394   2.431   1.841  0.5883 -0.4041 -0.5705
 4921SOL     OW15661   0.582   6.003   3.576  0.6153  0.0291 -0.4820
 4921SOL    HW115662   0.493   5.972   3.608  0.3197 -0.4494 -1.6903
 4921SOL    HW215663   0.652   5.981   3.643 -0.0483 -0.4317  0.0623
 4922SOL     OW15664   0.275   0.566   5.111  0.3278  0.4936  0.0536
 4922SOL    HW115665   0.189   0.571   5.062  0.2126 -0.5124  0.1184
 4922SOL    HW215666   0.338   0.636   5.077 -0.8789  1.9847  0.7710
 4923SOL     OW15667   2.140   3.173   2.385  0.1757  0.1389 -0.3535
 4923SOL    HW115668   2.169   3.088   2.429 -1.0541  1.1599  2.6181
 4923SOL    HW215669   2.145   3.161   2.285 -0.2005 -3.4747 -0.0810
 4924SOL     OW15670   6.581   5.515   6.735 -0.1114 -0.3703  0.5975
 4924SOL    HW115671   6.505   5.494   6.674  0.7863 -0.4223 -0.5172
 4924SOL    HW215672   6.668   5.492   6.691  0.6113  0.5443  1.4840
 4925SOL     OW15673   3.058   3.532   0.485 -0.7658  0.6220 -0.0763
 4925SOL    HW115674   3.055   3.629   0.511 -3.6626  1.0235 -1.5273
 4925SOL    HW215675   2.976   3.486   0.519  0.2847 -1.2179  0.0796
 4926SOL     OW15676   6.389   3.316   1.682 -0.1328 -0.7962 -0.2756
 4926SOL    HW115677   6.300   3.310   1.636 -0.6729  1.3469  0.3788
 4926SOL    HW215678   6.437   3.397   1.650 -0.0385  0.1462  2.0679
 4927SOL     OW15679   3.043   0.095   2.808 -0.2723 -0.2604  0.5549
 4927SOL    HW115680   3.014   0.012   2.760  0.2692 -0.7825  1.1160
 4927SOL    HW215681   2.966   0.132   2.859 -0.4580 -0.5470  0.4878
 4928SOL     OW15682   6.921   2.314   1.175 -0.1481  0.0785  0.2457
 4928SOL    HW115683   6.946   2.217   1.167 -0.2401 -0.0067  0.9594
 4928SOL    HW215684   6.991   2.369   1.129  1.4014 -0.1665  2.1710
 4929SOL     OW15685   6.206   4.281   5.811 -0.1907  0.0006 -0.0409
 4929SOL    HW115686   6.235   4.308   5.903  1.8561 -0.4639 -0.5117
 4929SOL    HW215687   6.130   4.216   5.818 -0.0593 -0.0326  1.3103
 4930SOL     OW15688   5.000   6.091   2.190  0.2953  0.6550 -0.1099
 4930SOL    HW115689   4.996   6.045   2.101  0.7192 -0.8610  0.6128
 4930SOL    HW215690   5.077   6.155   2.191  0.9265 -0.0830 -0.4972
 4931SOL     OW15691   6.331   4.037   2.360  0.3046  0.1647  0.1447
 4931SOL    HW115692   6.286   4.009   2.445 -0.2465  1.0653  0.1613
 4931SOL    HW215693   6.430   4.023   2.368  0.3932  1.3086  1.3814
 4932SOL     OW15694   6.465   0.566   2.542 -0.3304 -0.2694  0.0543
 4932SOL    HW115695   6.487   0.609   2.629  1.0511 -1.8452  0.5539
 4932SOL    HW215696   6.546   0.565   2.483  0.3908 -3.7571  0.8356
 4933SOL     OW15697   2.680   2.888   0.575  0.2538  0.1147 -0.1995
 4933SOL    HW115698   2.736   2.970   0.585 -0.4989  0.6485 -0.2497
 4933SOL    HW215699   2.590   2.914   0.538 -0.1531 -0.6759  0.2208
 4934SOL     OW15700   0.293   6.106   6.258  0.0994  0.1791 -0.1084
 4934SOL    HW115701   0.275   6.150   6.346 -0.9571 -0.9205  0.2368
 4934SOL    HW215702   0.215   6.120   6.197  0.2018 -0.3283 -0.3569
 4935SOL     OW15703   4.241   1.919   3.876 -0.3647  0.6028  0.4342
 4935SOL    HW115704   4.220   1.941   3.972  1.8918 -1.0814  1.3990
 4935SOL    HW215705   4.222   1.822   3.859 -2.4887  1.2456 -1.4341
 4936SOL     OW15706   6.999   2.537   2.861 -0.0905 -0.3172 -0.6025
 4936SOL    HW115707   7.026   2.515   2.955  0.2741  0.1760 -0.5867
 4936SOL    HW215708   7.020   2.633   2.842  1.3675 -0.8255 -1.7230
 4937SOL     OW15709   2.359   1.306   6.279 -0.2934  0.2090  0.3147
 4937SOL    HW115710   2.265   1.272   6.271 -1.4669  2.9056  1.3371
 4937SOL    HW215711   2.407   1.255   6.351 -0.5361 -1.9474 -0.9716
 4938SOL     OW15712   6.445   2.817   6.732  0.1929 -0.1620 -0.5202
 4938SOL    HW115713   6.349   2.806   6.707  0.1023 -0.1648 -0.1825
 4938SOL    HW215714   6.451   2.864   6.820  0.5312  0.7779 -1.0399
 4939SOL     OW15715   4.456   2.090   2.476  0.3944  0.4245  0.0358
 4939SOL    HW115716   4.493   2.116   2.387  0.3005 -0.5414 -0.3077
 4939SOL    HW215717   4.530   2.054   2.534 -0.0413 -2.4319 -0.9975
 4940SOL     OW15718   0.920   3.671   3.718  0.2976 -0.3515 -0.4109
 4940SOL    HW115719   0.876   3.582   3.716 -1.2993  0.3473  0.8527
 4940SOL    HW215720   0.948   3.697   3.626 -0.9046 -1.3533 -1.0889
 4941SOL     OW15721   5.183   5.442   1.092 -0.5056 -0.3075 -0.5234
 4941SOL    HW115722   5.117   5.457   1.165 -2.7133 -0.6469 -2.3542
 4941SOL    HW215723   5.136   5.434   1.004  2.0491  0.3085 -2.0737
 4942SOL     OW15724   0.038   4.254   0.846 -0.0570 -0.2655  0.2544
 4942SOL    HW115725  -0.031   4.214   0.787 -1.3101  1.2151  0.6678
 4942SOL    HW215726  -0.005   4.312   0.915  1.6405  1.5892 -0.1455
 4943SOL     OW15727   1.931   4.601   2.073  0.1624  0.4582 -0.0746
 4943SOL    HW115728   1.937   4.502   2.090 -1.5323  0.4500  0.6372
 4943SOL    HW215729   1.847   4.621   2.023 -0.5341  1.7348  1.5168
 4944SOL     OW15730   6.236   4.336   4.533  0.1324 -0.9595 -0.1716
 4944SOL    HW115731   6.235   4.249   4.582 -2.1161 -0.2656  1.1760
 4944SOL    HW215732   6.256   4.410   4.597 -0.1695 -0.2870 -0.8362
 4945SOL     OW15733   6.595   4.149   2.145  0.3938 -0.5264 -0.0708
 4945SOL    HW115734   6.544   4.228   2.111 -0.2808 -0.6484  0.6291
 4945SOL    HW215735   6.660   4.119   2.076 -2.5527 -2.2579 -2.3156
 4946SOL     OW15736   2.757   5.858   5.145 -0.5320 -0.1972  0.3045
 4946SOL    HW115737   2.857   5.858   5.146 -0.5337  0.2037  1.1393
 4946SOL    HW215738   2.724   5.781   5.091  0.2278  0.0870 -0.5988
 4947SOL     OW15739   5.462   2.104   2.869  0.2969 -0.0429 -0.1711
 4947SOL    HW115740   5.513   2.177   2.915  0.6553 -0.5533  0.2549
 4947SOL    HW215741   5.374   2.140   2.838  0.2249  0.4233  0.5406
 4948SOL     OW15742   0.549   2.487   6.994 -0.3317  0.3461 -0.2575
 4948SOL    HW115743   0.467   2.542   7.013  1.2389  2.9717 -0.6174
 4948SOL    HW215744   0.547   2.457   6.898 -1.3289 -0.5121  0.0111
 4949SOL     OW15745   0.965   3.509   4.263 -0.1685 -0.9449 -0.1060
 4949SOL    HW115746   1.003   3.558   4.184  0.3775 -0.5096  0.4139
 4949SOL    HW215747   0.868   3.528   4.271 -0.0180 -0.1393 -0.0684
 4950SOL     OW15748   0.931   3.687   0.739  0.0535 -0.4629  0.2674
 4950SOL    HW115749   1.013   3.631   0.748 -0.3161 -0.9568  0.5713
 4950SOL    HW215750   0.947   3.777   0.781  0.1809 -0.8274  1.0017
 4951SOL     OW15751   5.945   2.113   1.345  0.3582 -0.0835  0.0222
 4951SOL    HW115752   5.888   2.038   1.378 -3.0050  2.0097 -0.5509
 4951SOL    HW215753   5.996   2.152   1.422 -1.5900  0.0192  1.3324
 4952SOL     OW15754   1.785   6.905   4.122  0.1802  0.5699  0.1113
 4952SOL    HW115755   1.702   6.860   4.153  0.4260  0.1168  0.1080
 4952SOL    HW215756   1.764   6.962   4.042 -0.0069 -0.0174 -0.2591
 4953SOL     OW15757   1.830   1.723   5.969  0.5255 -0.4449  0.3295
 4953SOL    HW115758   1.737   1.760   5.964  0.7137 -0.0975 -1.4893
 4953SOL    HW215759   1.885   1.762   5.894  1.5709 -2.1831  0.1435
 4954SOL     OW15760   4.853   2.630   4.560  0.3142  0.6240  0.6131
 4954SOL    HW115761   4.827   2.624   4.657 -1.2670 -0.6305  0.1538
 4954SOL    HW215762   4.888   2.542   4.530 -0.4167  0.6204 -0.2600
 4955SOL     OW15763   0.945   2.830   4.772  0.1727 -0.0915  0.3035
 4955SOL    HW115764   0.908   2.920   4.751  1.4060  0.2223 -0.5901
 4955SOL    HW215765   1.015   2.838   4.843 -0.0835 -0.4291  0.6035
 4956SOL     OW15766   2.764   0.238   6.498 -0.0121 -0.1163  0.4484
 4956SOL    HW115767   2.745   0.329   6.463 -1.2351 -0.7379 -0.6072
 4956SOL    HW215768   2.814   0.186   6.428  0.0204 -0.4871  0.7461
 4957SOL     OW15769   2.972   6.416   3.163  0.1893 -0.1768  0.0910
 4957SOL    HW115770   3.023   6.336   3.132 -0.4087 -0.0640 -1.2348
 4957SOL    HW215771   2.894   6.386   3.218  2.1191 -0.3235  2.9815
 4958SOL     OW15772   6.165   1.740   2.439  0.3394  0.3371 -0.5469
 4958SOL    HW115773   6.262   1.718   2.434  0.5873  0.0415  2.8375
 4958SOL    HW215774   6.112   1.655   2.434  0.5231  0.1168  0.8056
 4959SOL     OW15775   4.804   5.542   4.521 -0.5193  0.5118 -0.2676
 4959SOL    HW115776   4.785   5.444   4.520 -1.5616  0.6535  1.5034
 4959SOL    HW215777   4.718   5.593   4.511 -0.0480  1.2491 -0.6656
 4960SOL     OW15778   4.186   5.452   2.454 -0.2960 -0.4347  0.1756
 4960SOL    HW115779   4.228   5.380   2.400 -0.3390 -0.7439  0.5472
 4960SOL    HW215780   4.101   5.481   2.410 -0.0893 -0.3466 -0.1700
 4961SOL     OW15781   6.977   5.546   7.000 -0.3886 -0.4525 -0.0646
 4961SOL    HW115782   7.043   5.519   6.929 -1.1625  1.0547 -1.4129
 4961SOL    HW215783   6.916   5.469   7.019  0.1542 -1.0439 -0.6574
 4962SOL     OW15784   6.258   6.750   6.635  0.0658  0.2423  0.1278
 4962SOL    HW115785   6.283   6.760   6.539 -1.1601  1.4431 -0.0964
 4962SOL    HW215786   6.284   6.832   6.686  0.2245 -0.1634  0.7184
 4963SOL     OW15787   5.803   2.724   6.290  0.6875 -0.3076 -0.3948
 4963SOL    HW115788   5.768   2.713   6.197  2.3161  0.1452 -1.0817
 4963SOL    HW215789   5.875   2.793   6.292 -0.4647  0.9475  1.5333
 4964SOL     OW15790   1.313   5.680   3.325  0.0209  0.4873 -0.2130
 4964SOL    HW115791   1.242   5.741   3.361  0.5513  1.6404 -1.0517
 4964SOL    HW215792   1.312   5.684   3.225 -0.2344 -1.2610 -0.3058
 4965SOL     OW15793   0.806   5.004   6.609 -0.3068  0.4560 -0.1207
 4965SOL    HW115794   0.869   4.926   6.611 -1.0713 -0.2030  2.2274
 4965SOL    HW215795   0.858   5.089   6.614  0.5916 -0.0924  4.2690
 4966SOL     OW15796   5.271   4.646   2.032  0.4585 -0.1014  0.4439
 4966SOL    HW115797   5.276   4.554   1.992 -0.2060  0.6454 -1.5023
 4966SOL    HW215798   5.358   4.668   2.076  0.5551 -1.7239  1.1299
 4967SOL     OW15799   5.231   5.680   6.223 -0.2077  0.0661 -0.4891
 4967SOL    HW115800   5.187   5.710   6.138 -0.8288  0.3444 -0.0795
 4967SOL    HW215801   5.171   5.700   6.300  1.0044  1.2729  0.1841
 4968SOL     OW15802   6.534   1.206   4.263  0.2417 -0.5124  0.0412
 4968SOL    HW115803   6.475   1.125   4.271  0.3446 -0.4478  2.2122
 4968SOL    HW215804   6.479   1.288   4.283  0.4370 -0.1784 -0.7923
 4969SOL     OW15805   2.505   0.723   2.658  0.4795  0.4764 -0.5384
 4969SOL    HW115806   2.545   0.812   2.679  2.0240 -0.5341  1.0912
 4969SOL    HW215807   2.469   0.682   2.743 -0.6541 -0.2618 -1.3435
 4970SOL     OW15808   2.334   0.396   5.773 -0.9001 -0.3916  0.4521
 4970SOL    HW115809   2.311   0.312   5.724  0.9126 -0.8709  0.3347
 4970SOL    HW215810   2.264   0.466   5.755 -1.4853 -1.2881 -0.9293
 4971SOL     OW15811   2.012   5.714   6.588 -0.0374 -0.1905  0.1305
 4971SOL    HW115812   1.934   5.666   6.548  0.2166  0.8514 -1.7499
 4971SOL    HW215813   1.987   5.808   6.609  0.5810  0.0246 -0.0704
 4972SOL     OW15814   3.304   0.504   4.756 -0.1098 -0.6336 -0.4197
 4972SOL    HW115815   3.214   0.541   4.781 -0.2758 -0.6658 -0.9540
 4972SOL    HW215816   3.296   0.405   4.741  0.1539 -0.7473  0.1729
 4973SOL     OW15817   4.470   6.126   1.871  0.3869  0.2486  0.1753
 4973SOL    HW115818   4.555   6.178   1.865  1.1433 -1.1112 -1.6891
 4973SOL    HW215819   4.479   6.054   1.940 -0.2914  1.8247  1.9917
 4974SOL     OW15820   6.695   3.386   0.628  0.7196  0.2163  0.0797
 4974SOL    HW115821   6.636   3.307   0.609  0.2348  0.4599  0.5705
 4974SOL    HW215822   6.682   3.454   0.556 -0.9470  1.0372  1.0868
 4975SOL     OW15823   4.384   1.923   4.773  0.2533 -0.3727 -0.0034
 4975SOL    HW115824   4.370   1.838   4.723 -3.2046 -0.6519  1.1935
 4975SOL    HW215825   4.443   1.905   4.853  3.3904 -0.5113 -2.1578
 4976SOL     OW15826   6.335   6.155   2.071 -0.5516  0.0082  0.0736
 4976SOL    HW115827   6.383   6.170   2.157 -2.4677 -1.5673  1.4847
 4976SOL    HW215828   6.302   6.243   2.036  2.5393  1.0520 -0.5735
 4977SOL     OW15829   1.716   1.005   0.518  0.5016  0.1015  0.4034
 4977SOL    HW115830   1.803   0.972   0.479  0.1308  0.0402 -0.3931
 4977SOL    HW215831   1.730   1.031   0.614  1.5394  0.6719  0.1096
 4978SOL     OW15832   0.404   0.581   5.967 -0.0999  0.0334 -0.1950
 4978SOL    HW115833   0.398   0.679   5.981 -1.8063 -0.2292  1.3300
 4978SOL    HW215834   0.325   0.550   5.913  0.6226 -0.4790 -0.9977
 4979SOL     OW15835   5.256   1.903   1.853  0.2574  0.0876 -0.5650
 4979SOL    HW115836   5.345   1.863   1.873  0.2647  0.9403  1.3548
 4979SOL    HW215837   5.193   1.882   1.928 -0.0971  2.5318 -0.1067
 4980SOL     OW15838   3.405   0.033   0.898  0.3152 -0.3089  0.3344
 4980SOL    HW115839   3.432   0.045   0.803  1.2952 -1.0078  0.5000
 4980SOL    HW215840   3.452  -0.047   0.936 -0.9169 -0.7113  1.0869
 4981SOL     OW15841   6.253   2.946   0.959 -0.1809 -0.4237 -0.0378
 4981SOL    HW115842   6.271   3.029   1.012  0.0280 -0.7834  0.4650
 4981SOL    HW215843   6.194   2.968   0.882 -3.6044 -0.4975  2.3440
 4982SOL     OW15844   4.594   0.785   6.855 -0.1088  0.0612 -0.2980
 4982SOL    HW115845   4.676   0.791   6.911 -1.7126  0.5794  2.1719
 4982SOL    HW215846   4.604   0.844   6.774  2.3927 -0.9312 -0.7907
 4983SOL     OW15847   1.495   3.558   3.016  0.0904 -0.4067 -0.3193
 4983SOL    HW115848   1.571   3.509   3.059 -0.2685 -1.1062 -0.4585
 4983SOL    HW215849   1.530   3.617   2.943  0.6363  0.3429  0.5331
 4984SOL     OW15850   3.491   2.199   0.575 -0.2173 -0.0070 -0.4991
 4984SOL    HW115851   3.473   2.186   0.673  3.0481  3.4652  0.7905
 4984SOL    HW215852   3.543   2.120   0.541 -1.2453 -1.1942  0.5664
 4985SOL     OW15853   0.778   2.468   3.408  0.2361 -0.5047  0.0829
 4985SOL    HW115854   0.783   2.377   3.366 -0.4802  0.6998 -2.9222
 4985SOL    HW215855   0.827   2.534   3.350 -1.3912  1.4313  0.7968
 4986SOL     OW15856   0.218   1.322   5.140 -0.1624 -0.1365 -0.0490
 4986SOL    HW115857   0.136   1.270   5.118  0.0524 -1.3392  1.7523
 4986SOL    HW215858   0.205   1.418   5.115 -2.3333 -0.1935  0.6638
 4987SOL     OW15859   5.108   1.799   1.160 -0.4071 -0.5461 -0.3212
 4987SOL    HW115860   5.027   1.783   1.103 -1.2578  0.2467  0.6296
 4987SOL    HW215861   5.085   1.862   1.234  1.1594 -0.0891 -0.1797
 4988SOL     OW15862   5.700   3.912   1.564 -0.2784  0.1040 -0.4395
 4988SOL    HW115863   5.715   3.923   1.466  0.4692  1.1171 -0.2208
 4988SOL    HW215864   5.608   3.875   1.580 -1.2974  2.0665 -1.4304
 4989SOL     OW15865   3.383   3.237   2.099  0.1686  0.1789  0.7137
 4989SOL    HW115866   3.432   3.284   2.172  0.7587 -2.9429  2.4831
 4989SOL    HW215867   3.372   3.141   2.122 -1.9414 -0.4276 -2.1929
 4990SOL     OW15868   5.236   2.973   6.296 -0.0072  0.0413 -0.0347
 4990SOL    HW115869   5.323   2.967   6.246  0.6428  1.5889  0.8384
 4990SOL    HW215870   5.162   2.939   6.238  1.1713 -1.4746 -0.7437
 4991SOL     OW15871   4.815   0.889   2.529 -0.2620 -0.2881  0.2808
 4991SOL    HW115872   4.823   0.896   2.430  3.3657  1.5529  0.5505
 4991SOL    HW215873   4.837   0.797   2.559 -0.1002 -0.5140 -0.5303
 4992SOL     OW15874   3.432   3.965   4.262  0.2089 -0.1976  0.2331
 4992SOL    HW115875   3.336   3.983   4.287  0.6530  2.4803  0.2599
 4992SOL    HW215876   3.460   4.028   4.191  1.6564 -1.7553 -0.6477
 4993SOL     OW15877   5.126   6.427   0.685 -0.3746 -0.4768  0.0760
 4993SOL    HW115878   5.036   6.431   0.643 -1.3515  2.7242  2.1444
 4993SOL    HW215879   5.185   6.498   0.646 -0.2787  0.4459  1.8106
 4994SOL     OW15880   5.745   3.453   6.909  0.5012 -0.0355 -0.1631
 4994SOL    HW115881   5.775   3.536   6.956 -1.3841  0.4913  0.1927
 4994SOL    HW215882   5.664   3.416   6.954 -1.8570  0.8898 -3.2887
 4995SOL     OW15883   5.052   4.842   6.446  0.7003  0.4813  0.2908
 4995SOL    HW115884   5.048   4.935   6.481  1.6496  1.0550 -1.0488
 4995SOL    HW215885   5.040   4.843   6.347 -1.5888 -1.0649  0.4744
 4996SOL     OW15886   1.017   3.559   2.631  0.0134 -0.3421 -0.0431
 4996SOL    HW115887   0.934   3.613   2.619 -1.1596 -2.2286 -0.8349
 4996SOL    HW215888   1.001   3.488   2.699  0.4034 -1.7474 -1.3598
 4997SOL     OW15889   4.855   6.768   3.991 -0.3036 -0.2665  0.1539
 4997SOL    HW115890   4.791   6.767   3.914 -0.9993 -2.0398  0.7176
 4997SOL    HW215891   4.941   6.724   3.964 -0.4043 -0.5331  0.2619
 4998SOL     OW15892   4.658   6.325   3.093  0.0577  0.0250  0.0967
 4998SOL    HW115893   4.723   6.347   3.166 -0.2787 -0.5038  0.5610
 4998SOL    HW215894   4.571   6.370   3.112  0.9537  2.8770 -1.8189
 4999SOL     OW15895   1.439   0.141   0.925 -0.2766 -0.4527 -0.2032
 4999SOL    HW115896   1.432   0.068   0.992 -0.2417 -1.3461 -1.1504
 4999SOL    HW215897   1.356   0.145   0.870 -1.7783  2.5007  2.0365
 5000SOL     OW15898   3.792   5.431   3.133 -0.8939  0.9418 -0.8582
 5000SOL    HW115899   3.796   5.481   3.220  0.5632 -0.9726  0.2481
 5000SOL    HW215900   3.729   5.354   3.142  0.0443  0.1238 -1.1378
 5001SOL     OW15901   0.083   6.901   1.121  0.1643 -0.3906  0.3123
 5001SOL    HW115902   0.120   6.825   1.174  0.4470 -0.7922 -0.4360
 5001SOL    HW215903   0.010   6.867   1.061  2.5689 -0.8702 -2.6089
 5002SOL     OW15904   6.210   5.577   0.678 -0.3289  0.0979 -0.4153
 5002SOL    HW115905   6.260   5.604   0.596 -0.2098  0.8819 -0.0900
 5002SOL    HW215906   6.209   5.477   0.685  3.0057  0.0360  0.6903
 5003SOL     OW15907   5.546   3.753   0.093 -0.1977 -0.8062 -0.1173
 5003SOL    HW115908   5.622   3.714   0.145 -1.3648 -2.0970  0.6945
 5003SOL    HW215909   5.524   3.844   0.129  1.6106  0.0737 -1.0739
 5004SOL     OW15910   2.930   5.824   4.802  0.8507 -0.1047  0.3457
 5004SOL    HW115911   2.920   5.736   4.755  2.7529  1.5534 -3.7267
 5004SOL    HW215912   2.847   5.877   4.790  0.8570 -0.1871 -0.1076
 5005SOL     OW15913   3.978   3.854   3.222  0.4927 -0.5223 -0.1863
 5005SOL    HW115914   3.882   3.832   3.203  0.2232  0.8035 -0.4679
 5005SOL    HW215915   3.983   3.905   3.308  1.1631 -2.1175  0.7713
 5006SOL     OW15916   1.435   5.056   2.770  0.2332  0.7946 -0.0332
 5006SOL    HW115917   1.515   5.086   2.822  0.3307 -2.6394  2.0545
 5006SOL    HW215918   1.465   5.025   2.679  0.8996  1.4903 -0.0670
 5007SOL     OW15919   1.908   1.044   5.470 -0.4784  0.0899  0.0240
 5007SOL    HW115920   1.879   1.080   5.382 -0.2434  3.5337  1.2144
 5007SOL    HW215921   1.831   1.047   5.534 -1.4020 -4.7212 -0.5074
 5008SOL     OW15922   5.820   4.372   5.372 -0.4400  0.0747  0.4051
 5008SOL    HW115923   5.739   4.401   5.321  0.4538  1.5247 -0.2614
 5008SOL    HW215924   5.852   4.448   5.430  1.0469 -0.0979 -0.1459
 5009SOL     OW15925   6.529   6.008   5.247 -0.3498 -0.1280  0.2104
 5009SOL    HW115926   6.512   6.085   5.185  1.9756  0.3281  0.0409
 5009SOL    HW215927   6.593   6.037   5.318  1.9581 -2.2995 -0.8454
 5010SOL     OW15928   3.323   5.081   2.725  0.1156  0.1753 -0.4870
 5010SOL    HW115929   3.409   5.101   2.678 -0.8390  0.6667 -2.0833
 5010SOL    HW215930   3.336   5.001   2.784  1.0828 -1.2098 -2.4593
 5011SOL     OW15931   4.196   0.495   4.391 -0.4594 -0.1572 -0.6106
 5011SOL    HW115932   4.183   0.397   4.406  0.2998 -0.0902  0.6129
 5011SOL    HW215933   4.292   0.519   4.405 -0.7256  0.8407 -0.3792
 5012SOL     OW15934   0.557   1.030   1.838  0.2468  0.1813  0.1069
 5012SOL    HW115935   0.502   0.952   1.807  1.0392 -0.7736  1.0205
 5012SOL    HW215936   0.518   1.115   1.802  0.1726 -0.7292 -2.0717
 5013SOL     OW15937   2.436   2.178   3.378 -0.3928 -0.0051 -0.2194
 5013SOL    HW115938   2.395   2.269   3.384  0.7812  0.5206  0.1084
 5013SOL    HW215939   2.414   2.126   3.460  1.1173  0.9521  0.8465
 5014SOL     OW15940   1.736   1.640   4.646  0.0830  0.3429  0.4641
 5014SOL    HW115941   1.686   1.564   4.689  0.9414  0.4470  1.6962
 5014SOL    HW215942   1.748   1.620   4.549 -2.6212  0.4809  0.0360
 5015SOL     OW15943   0.178   2.832   4.575 -0.0261  0.1663  0.6557
 5015SOL    HW115944   0.203   2.872   4.486 -0.7168  0.6015  0.6436
 5015SOL    HW215945   0.157   2.906   4.639 -1.7113 -0.1542  0.5222
 5016SOL     OW15946   0.643   0.654   1.340  0.0329  0.2089  0.0012
 5016SOL    HW115947   0.720   0.593   1.321 -1.7454 -1.5632 -2.0328
 5016SOL    HW215948   0.584   0.613   1.409  0.4806  1.2183  1.0151
 5017SOL     OW15949   4.384   2.574   5.317 -0.8255 -0.3053 -0.0423
 5017SOL    HW115950   4.298   2.549   5.273 -2.1177  2.3318  0.7430
 5017SOL    HW215951   4.413   2.664   5.285  0.0668  0.1490  1.8640
 5018SOL     OW15952   5.039   1.385   3.817 -0.3155 -0.5608  0.2844
 5018SOL    HW115953   4.966   1.421   3.875 -0.0484  0.6514 -0.0992
 5018SOL    HW215954   5.006   1.379   3.723  0.2344  0.5886 -0.0079
 5019SOL     OW15955   0.404   4.037   3.286 -0.2191  0.4590 -0.4036
 5019SOL    HW115956   0.368   4.079   3.203 -0.4969  0.7637 -0.1326
 5019SOL    HW215957   0.353   4.071   3.365  0.8052  1.0685  0.0158
 5020SOL     OW15958   6.398   3.947   5.981  0.4238  0.2482  0.7527
 5020SOL    HW115959   6.409   3.885   5.904 -0.5116  1.0840 -0.1010
 5020SOL    HW215960   6.316   3.921   6.033  0.3689  0.4116  0.7478
 5021SOL     OW15961   2.397   5.310   5.856  0.2952 -0.6364 -0.8194
 5021SOL    HW115962   2.469   5.247   5.886 -0.0558 -0.9442 -0.6056
 5021SOL    HW215963   2.312   5.258   5.842 -0.5003  0.0726  1.1552
 5022SOL     OW15964   1.143   2.186   6.558  0.6925  0.0061 -0.1041
 5022SOL    HW115965   1.217   2.253   6.559  0.5421  0.1644  0.1999
 5022SOL    HW215966   1.056   2.232   6.539  0.8268 -0.3289 -1.6642
 5023SOL     OW15967   1.181   5.861   5.472  0.5669  0.1875  0.2052
 5023SOL    HW115968   1.268   5.834   5.431  0.8375  1.3434 -0.0199
 5023SOL    HW215969   1.137   5.929   5.414 -0.5165 -0.4033  0.3034
 5024SOL     OW15970   6.679   6.156   1.076  0.0108 -0.2042 -0.2934
 5024SOL    HW115971   6.759   6.191   1.028 -0.5637 -1.1241 -1.9962
 5024SOL    HW215972   6.624   6.100   1.014 -1.2625 -0.6958  1.2008
 5025SOL     OW15973   5.779   3.283   4.385  0.5196  0.0925 -0.3553
 5025SOL    HW115974   5.761   3.375   4.350  0.8961  0.4166  0.2933
 5025SOL    HW215975   5.731   3.216   4.328  1.3102  0.5802 -1.6368
 5026SOL     OW15976   1.401   3.808   6.423  0.1480  0.8938 -0.0820
 5026SOL    HW115977   1.355   3.890   6.459 -0.2756  0.7717 -0.3307
 5026SOL    HW215978   1.337   3.731   6.426  0.7497  0.4093  0.7528
 5027SOL     OW15979   4.986   2.708   1.751 -0.4547  0.4150 -0.2072
 5027SOL    HW115980   5.013   2.773   1.680  0.0192  0.8216  0.3293
 5027SOL    HW215981   5.066   2.655   1.779 -0.9774 -0.8713 -1.1052
 5028SOL     OW15982   3.093   6.709   2.200  0.4222  0.0988 -0.5369
 5028SOL    HW115983   3.070   6.612   2.205  2.2698 -0.3967 -1.0500
 5028SOL    HW215984   3.014   6.763   2.230 -0.1164 -1.5831  1.3138
 5029SOL     OW15985   2.199   2.452   6.092 -0.2990  0.6117 -0.9809
 5029SOL    HW115986   2.103   2.480   6.096 -0.5531 -0.2804 -0.6830
 5029SOL    HW215987   2.241   2.461   6.182 -0.9051 -1.7132 -0.4119
 5030SOL     OW15988   0.085   1.745   5.195 -0.4284 -0.1810 -0.1109
 5030SOL    HW115989   0.033   1.828   5.217 -0.5687  0.1390 -1.5340
 5030SOL    HW215990   0.029   1.665   5.215 -0.9619  0.1277 -0.3395
 5031SOL     OW15991   2.007   2.443   2.048  0.1641  0.6947 -0.0475
 5031SOL    HW115992   1.970   2.360   2.088 -2.3975  0.4745 -2.5551
 5031SOL    HW215993   2.081   2.419   1.984 -1.2069  0.1237 -1.5050
 5032SOL     OW15994   5.213   3.322   2.168 -0.7308  0.3775  0.2027
 5032SOL    HW115995   5.124   3.364   2.186 -0.4548  0.4231  1.5340
 5032SOL    HW215996   5.203   3.223   2.160 -1.0332  0.4649 -0.6661
 5033SOL     OW15997   3.875   2.557   0.449  0.2094 -0.3501  0.4969
 5033SOL    HW115998   3.963   2.536   0.493  0.5597  1.3879  0.6898
 5033SOL    HW215999   3.802   2.507   0.496  1.0720 -1.7620  0.3804
 5034SOL     OW16000   6.206   2.936   4.354 -0.0651  0.3056 -0.1755
 5034SOL    HW116001   6.251   2.919   4.442  0.1009  2.9735  0.3586
 5034SOL    HW216002   6.260   2.894   4.280  1.0396 -0.0626  0.8024
 5035SOL     OW16003   0.551   1.159   3.899 -0.2624 -0.0358  0.0447
 5035SOL    HW116004   0.477   1.225   3.888 -1.8022 -1.8199 -0.7553
 5035SOL    HW216005   0.639   1.206   3.893 -1.2908  1.8428 -1.0192
 5036SOL     OW16006   2.782   0.185   5.056 -0.0060 -0.3377  0.1854
 5036SOL    HW116007   2.750   0.135   4.976  0.9806 -0.6244 -0.0474
 5036SOL    HW216008   2.715   0.256   5.080 -0.4252 -0.3983 -0.7502
 5037SOL     OW16009   2.939   0.804   3.519  0.3569 -0.2779 -0.1512
 5037SOL    HW116010   2.876   0.813   3.597  0.4356 -0.3688 -0.0774
 5037SOL    HW216011   2.890   0.827   3.435  0.0860 -0.8339 -0.1479
 5038SOL     OW16012   1.528   5.448   3.882  0.2220 -0.1412  0.0875
 5038SOL    HW116013   1.455   5.410   3.939 -0.2723  0.4726 -0.1081
 5038SOL    HW216014   1.493   5.530   3.836  1.6002  1.2511  1.4207
 5039SOL     OW16015   0.104   0.448   4.057 -0.1385 -0.1658 -0.0177
 5039SOL    HW116016   0.018   0.410   4.091 -0.0676 -1.2750 -1.0097
 5039SOL    HW216017   0.145   0.384   3.991  1.0647  0.6899 -0.1327
 5040SOL     OW16018   1.660   4.524   0.745 -0.0902  0.0812  0.6803
 5040SOL    HW116019   1.624   4.617   0.744 -2.6080 -0.7964 -1.5755
 5040SOL    HW216020   1.715   4.511   0.828 -0.5551  3.1864  1.6230
 5041SOL     OW16021   1.455   0.578   6.303 -0.6631  0.2188  0.9890
 5041SOL    HW116022   1.505   0.505   6.350 -0.0910 -0.1865 -0.2151
 5041SOL    HW216023   1.366   0.544   6.273 -1.6737  0.9065  3.0293
 5042SOL     OW16024   1.332   0.502   3.619  0.1877  0.2085 -0.3879
 5042SOL    HW116025   1.273   0.499   3.538 -0.5245 -1.5450  0.1392
 5042SOL    HW216026   1.399   0.575   3.609  0.1584  0.0035 -2.6015
 5043SOL     OW16027   0.274   0.483   5.630 -0.7307 -0.5099  0.7055
 5043SOL    HW116028   0.255   0.530   5.544 -0.6661 -2.2127 -0.2879
 5043SOL    HW216029   0.366   0.507   5.661 -0.8388  0.2986  0.4297
 5044SOL     OW16030   0.188   2.926   6.942 -0.2578  0.0253 -0.4135
 5044SOL    HW116031   0.241   3.011   6.947  0.5492 -0.4509 -0.5847
 5044SOL    HW216032   0.189   2.880   7.031 -0.4680  0.0720 -0.3888
 5045SOL     OW16033   5.235   5.908   4.285 -0.6618  0.1857 -0.4544
 5045SOL    HW116034   5.188   5.909   4.374  1.3003  0.9756  0.6339
 5045SOL    HW216035   5.315   5.968   4.289  0.4679 -1.1075 -2.2143
 5046SOL     OW16036   3.366   2.940   2.223 -0.0444 -0.4488  0.1711
 5046SOL    HW116037   3.358   2.940   2.323  0.2174 -2.2479  0.2259
 5046SOL    HW216038   3.282   2.904   2.183  0.7378 -2.0516 -0.1115
 5047SOL     OW16039   1.745   3.270   1.343 -0.6015  0.3027  0.1582
 5047SOL    HW116040   1.745   3.347   1.278  1.4689 -1.5649 -2.2507
 5047SOL    HW216041   1.688   3.196   1.307  0.4455 -0.7025  0.5100
 5048SOL     OW16042   6.048   1.857   6.438  0.1275  0.4282  0.2767
 5048SOL    HW116043   5.958   1.823   6.412  0.5960  1.2534 -2.7913
 5048SOL    HW216044   6.038   1.947   6.481 -0.5214  0.4978  0.0003
 5049SOL     OW16045   1.148   0.299   3.878 -0.2264 -0.0938 -0.1336
 5049SOL    HW116046   1.234   0.249   3.890 -0.2111 -0.1026 -0.2797
 5049SOL    HW216047   1.158   0.392   3.913  0.5651  0.6507 -2.2276
 5050SOL     OW16048   6.442   1.059   2.645 -0.4278  0.0481  0.0834
 5050SOL    HW116049   6.358   1.016   2.677 -0.8770  1.5263  0.9546
 5050SOL    HW216050   6.480   1.117   2.717  1.7772 -1.1607 -0.0172
 5051SOL     OW16051   6.998   2.110   6.945 -0.6214 -0.6637  0.1116
 5051SOL    HW116052   7.014   2.158   6.858 -0.7851 -0.2141  0.3276
 5051SOL    HW216053   7.005   2.175   7.021 -2.5473 -0.5947  0.2969
 5052SOL     OW16054   1.134   1.469   2.586 -0.7207  0.8338  0.2253
 5052SOL    HW116055   1.087   1.551   2.618 -3.0291  0.0477 -0.8778
 5052SOL    HW216056   1.081   1.388   2.613  1.4469 -0.3236  1.2233
 5053SOL     OW16057   1.121   2.278   4.777 -0.3562  0.5656  0.5986
 5053SOL    HW116058   1.083   2.309   4.865 -1.7774  0.4322  0.0688
 5053SOL    HW216059   1.047   2.274   4.709  0.8530  1.4162 -0.8286
 5054SOL     OW16060   5.459   1.595   2.166 -0.6800  0.2590  0.0659
 5054SOL    HW116061   5.487   1.509   2.210 -0.1513 -0.4354 -1.5659
 5054SOL    HW216062   5.396   1.575   2.091 -0.7265  1.3273 -0.1902
 5055SOL     OW16063   0.250   5.351   0.099 -0.7859 -0.6713  0.2516
 5055SOL    HW116064   0.278   5.257   0.075  0.8577  0.0278 -0.7947
 5055SOL    HW216065   0.331   5.403   0.127 -1.3153  0.9752 -1.1197
 5056SOL     OW16066   5.981   4.558   1.970  0.2018 -0.3718 -0.8640
 5056SOL    HW116067   5.888   4.564   2.007  1.2978 -0.9077  2.1713
 5056SOL    HW216068   6.024   4.648   1.972  0.9467 -0.7176  1.2652
 5057SOL     OW16069   1.154   4.193   1.004 -0.5952  0.6055 -0.2595
 5057SOL    HW116070   1.142   4.179   1.102 -2.4846 -1.2242 -0.6953
 5057SOL    HW216071   1.142   4.290   0.983  0.5941  1.1644  1.3729
 5058SOL     OW16072   5.497   3.031   3.972  0.8163 -0.4872 -0.4040
 5058SOL    HW116073   5.531   3.036   3.878 -0.5523 -2.4377 -1.0596
 5058SOL    HW216074   5.531   2.948   4.016 -0.3065 -0.7060  0.0752
 5059SOL     OW16075   3.764   6.759   4.297 -0.1583 -0.2152 -0.0265
 5059SOL    HW116076   3.757   6.849   4.254 -0.9285 -0.5229 -0.5483
 5059SOL    HW216077   3.789   6.691   4.228  2.0879 -0.1634  0.6444
 5060SOL     OW16078   5.934   0.713   3.862 -0.4337  0.5545  0.1396
 5060SOL    HW116079   6.005   0.774   3.895 -1.0091  1.5955 -0.4988
 5060SOL    HW216080   5.877   0.760   3.794  0.0812 -1.1695 -1.6015
 5061SOL     OW16081   2.474   2.020   4.424 -0.0309  0.0907  0.9472
 5061SOL    HW116082   2.477   1.927   4.461  2.5402 -1.0505 -1.6795
 5061SOL    HW216083   2.435   2.017   4.332  1.2217  1.3643  0.3409
 5062SOL     OW16084   5.896   0.079   4.375 -0.3144  0.1722  0.1062
 5062SOL    HW116085   5.953   0.105   4.452  2.8674 -1.2326 -1.5599
 5062SOL    HW216086   5.954   0.066   4.294 -3.3214  0.5238 -2.2812
 5063SOL     OW16087   5.624   6.898   6.322  0.0060 -0.7306  0.0727
 5063SOL    HW116088   5.535   6.857   6.302  1.0390 -2.9770 -0.1798
 5063SOL    HW216089   5.697   6.838   6.289  1.6370  0.7533  0.8235
 5064SOL     OW16090   6.798   6.942   4.555  0.2331  0.5680 -0.0580
 5064SOL    HW116091   6.701   6.939   4.580  0.0731 -2.0076 -0.7083
 5064SOL    HW216092   6.810   6.903   4.465  2.0193 -0.2215  0.4826
 5065SOL     OW16093   0.318   3.347   5.988 -0.6202  0.0890 -0.3774
 5065SOL    HW116094   0.374   3.391   5.919 -0.1718  0.1487  0.0212
 5065SOL    HW216095   0.224   3.381   5.982 -0.3667  0.8110 -0.3206
 5066SOL     OW16096   5.212   2.036   3.100  0.0623 -0.1344 -0.0668
 5066SOL    HW116097   5.301   2.083   3.101  0.2183 -0.4383  0.2174
 5066SOL    HW216098   5.145   2.091   3.149  0.0872  0.1007 -0.2909
 5067SOL     OW16099   4.255   1.887   2.545  0.0781  0.4384 -0.3300
 5067SOL    HW116100   4.211   1.859   2.459  0.7989 -0.9580 -0.2671
 5067SOL    HW216101   4.321   1.960   2.527 -1.1172  1.4820 -0.6531
 5068SOL     OW16102   0.778   3.607   3.392 -0.0201 -0.3634  0.2351
 5068SOL    HW116103   0.851   3.545   3.362 -0.3871  0.2972 -2.2381
 5068SOL    HW216104   0.788   3.695   3.347 -3.3515 -0.8336 -1.7173
 5069SOL     OW16105   3.588   0.640   3.026 -0.0965  0.3355 -0.0127
 5069SOL    HW116106   3.645   0.559   3.010 -0.5724  0.2608 -1.3848
 5069SOL    HW216107   3.648   0.718   3.046  0.3498 -0.4420  1.9405
 5070SOL     OW16108   2.367   3.341   0.839 -0.4170  0.3393  0.3777
 5070SOL    HW116109   2.413   3.405   0.900  1.3071  2.2484 -2.6293
 5070SOL    HW216110   2.424   3.260   0.826 -0.7503 -0.0334  1.1688
 5071SOL     OW16111   5.441   2.800   4.724  0.4284 -0.4004 -0.5710
 5071SOL    HW116112   5.514   2.778   4.788 -0.2827  0.6792  0.6678
 5071SOL    HW216113   5.480   2.844   4.643  1.4125 -2.4414 -1.2608
 5072SOL     OW16114   6.824   5.927   3.769  0.4231 -0.0923  0.1148
 5072SOL    HW116115   6.750   5.928   3.836 -2.2107 -0.9935 -2.5484
 5072SOL    HW216116   6.876   5.842   3.778  0.2949 -0.0669  1.1738
 5073SOL     OW16117   6.560   1.353   0.563  0.4390  0.1163  0.3660
 5073SOL    HW116118   6.482   1.296   0.535  0.3919  0.9216 -1.2603
 5073SOL    HW216119   6.530   1.417   0.634  0.0236 -0.6212  0.8692
 5074SOL     OW16120   6.769   4.577   0.286 -1.0470  0.4802 -0.1616
 5074SOL    HW116121   6.866   4.600   0.280 -1.0730  0.6530  0.0730
 5074SOL    HW216122   6.758   4.477   0.286 -0.8367  0.4545  0.2695
 5075SOL     OW16123   1.091   4.480   4.894 -0.2467  0.0072  0.5091
 5075SOL    HW116124   1.023   4.408   4.906  1.4700 -1.9448 -0.6626
 5075SOL    HW216125   1.062   4.563   4.942 -2.6410 -1.2290  1.3326
 5076SOL     OW16126   1.452   0.898   5.226  0.2009  0.0291 -0.0834
 5076SOL    HW116127   1.365   0.886   5.275  0.3682  0.1300  0.2434
 5076SOL    HW216128   1.475   0.995   5.223  0.3209 -0.0011 -0.1343
 5077SOL     OW16129   6.110   3.429   1.823 -0.0656  0.7407  0.8165
 5077SOL    HW116130   6.106   3.501   1.753 -0.1511 -1.0900 -1.1706
 5077SOL    HW216131   6.025   3.427   1.875 -0.1746  1.8504  0.7069
 5078SOL     OW16132   1.434   0.551   0.113  0.6908  0.0514  0.0012
 5078SOL    HW116133   1.485   0.480   0.160  0.3804  0.5878  1.1773
 5078SOL    HW216134   1.375   0.598   0.178  0.7693  1.2804 -0.7940
 5079SOL     OW16135   1.369   6.596   0.783  0.5516 -0.2687 -0.4231
 5079SOL    HW116136   1.459   6.554   0.771  1.6535  1.8021  0.1559
 5079SOL    HW216137   1.299   6.525   0.786  2.3120 -2.0542  0.6599
 5080SOL     OW16138   0.691   4.402   4.114 -0.2141 -0.3847 -0.5626
 5080SOL    HW116139   0.786   4.433   4.110  0.1562 -1.2789  0.7431
 5080SOL    HW216140   0.660   4.380   4.021  1.2974 -1.3701 -0.8792
 5081SOL     OW16141   3.946   2.157   6.066  0.3191  0.1609 -0.0111
 5081SOL    HW116142   4.001   2.226   6.019  1.9938 -1.0670  0.0463
 5081SOL    HW216143   3.946   2.072   6.013  2.6954 -1.4412  2.3076
 5082SOL     OW16144   2.501   4.768   1.628 -0.1291 -0.1437 -0.3445
 5082SOL    HW116145   2.590   4.739   1.664  0.2863  1.7582  0.2575
 5082SOL    HW216146   2.514   4.808   1.537 -0.7756 -2.2121 -1.4198
 5083SOL     OW16147   1.337   4.126   5.814  0.2265  0.2937 -0.1222
 5083SOL    HW116148   1.306   4.093   5.725  0.5811 -1.0592  0.2313
 5083SOL    HW216149   1.264   4.111   5.882 -0.5719  2.5600 -0.4086
 5084SOL     OW16150   6.831   6.449   6.250  0.0047 -0.3993  0.0653
 5084SOL    HW116151   6.876   6.377   6.303  0.1458  0.8563  1.7539
 5084SOL    HW216152   6.778   6.409   6.175  0.9542 -2.1512  0.3041
 5085SOL     OW16153   6.132   3.415   0.156 -0.2316  0.3004 -0.0312
 5085SOL    HW116154   6.109   3.404   0.253 -4.8281  1.6871 -0.7612
 5085SOL    HW216155   6.141   3.512   0.135 -1.1932  0.1300 -1.3269
 5086SOL     OW16156   4.841   1.746   2.465  0.4083 -0.4777 -0.3239
 5086SOL    HW116157   4.924   1.779   2.421  0.6327 -0.6461 -0.0310
 5086SOL    HW216158   4.761   1.780   2.416  0.6202  0.6730  0.0903
 5087SOL     OW16159   1.166   1.426   4.873  0.5642  0.1271  0.1784
 5087SOL    HW116160   1.130   1.509   4.914  2.0455 -0.1643  2.2441
 5087SOL    HW216161   1.090   1.364   4.852 -0.5517  1.8843 -1.3092
 5088SOL     OW16162   1.292   0.064   2.373  0.3331  0.4621 -0.5002
 5088SOL    HW116163   1.279   0.028   2.466  2.3200  0.9474  0.0097
 5088SOL    HW216164   1.302  -0.011   2.308 -2.5310  0.0796 -0.6283
 5089SOL     OW16165   2.564   7.015   2.105 -0.8552 -0.4214  0.1275
 5089SOL    HW116166   2.531   6.932   2.149 -0.0794 -1.3329 -0.9677
 5089SOL    HW216167   2.497   7.045   2.037 -1.1071 -0.1762  0.4804
 5090SOL     OW16168   6.292   5.260   2.186  0.0528  0.3592 -0.6967
 5090SOL    HW116169   6.271   5.354   2.159  0.7613  1.0508  1.0218
 5090SOL    HW216170   6.374   5.259   2.244 -1.4436 -0.9757  1.5484
 5091SOL     OW16171   3.439   5.459   3.301 -0.0420 -0.1444 -0.2496
 5091SOL    HW116172   3.500   5.387   3.267  0.9389  0.6542 -0.2259
 5091SOL    HW216173   3.376   5.485   3.228 -0.3469 -0.9562 -0.2883
 5092SOL     OW16174   5.565   0.938   3.066 -0.1854 -0.1389 -0.0917
 5092SOL    HW116175   5.565   0.972   3.160 -0.0085 -0.4808  0.0348
 5092SOL    HW216176   5.518   0.850   3.064 -0.7300  0.1533 -0.4320
 5093SOL     OW16177   5.881   6.651   5.910 -0.4045  0.5316 -0.1657
 5093SOL    HW116178   5.966   6.616   5.951  0.3746  1.9544 -0.5059
 5093SOL    HW216179   5.873   6.616   5.817 -0.5914 -0.2160  0.1237
 5094SOL     OW16180   5.156   4.540   5.719  0.9966  0.2345  0.7382
 5094SOL    HW116181   5.192   4.579   5.634  0.8983  0.5144  0.8249
 5094SOL    HW216182   5.109   4.454   5.699  2.1509 -0.4092  0.6880
 5095SOL     OW16183   5.755   6.108   2.941 -0.3585 -0.2531 -0.0142
 5095SOL    HW116184   5.853   6.110   2.924 -0.4553 -1.1315 -0.7861
 5095SOL    HW216185   5.722   6.013   2.935 -1.2336  0.0174  0.3177
 5096SOL     OW16186   3.731   5.244   0.541 -0.0377 -0.0705 -0.1650
 5096SOL    HW116187   3.737   5.344   0.538  2.0349 -0.1090  0.9869
 5096SOL    HW216188   3.735   5.207   0.448 -2.0108  0.9175 -0.6953
 5097SOL     OW16189   3.777   3.995   6.895  0.1596 -0.0043 -0.1407
 5097SOL    HW116190   3.768   3.986   6.994  1.2896  0.0554 -0.0150
 5097SOL    HW216191   3.849   3.932   6.863  0.9613  1.1587 -0.6846
 5098SOL     OW16192   0.324   4.858   2.688  0.4974  0.1033  0.2937
 5098SOL    HW116193   0.378   4.880   2.769  0.6955  1.9274 -0.2833
 5098SOL    HW216194   0.253   4.927   2.676 -0.3157 -0.8373 -0.4005
 5099SOL     OW16195   6.832   2.341   1.941  0.3711 -0.6602  0.0087
 5099SOL    HW116196   6.852   2.274   2.013  0.2703  0.6190  1.2769
 5099SOL    HW216197   6.802   2.426   1.983 -2.0937 -0.6201 -1.6508
 5100SOL     OW16198   5.723   2.021   0.654 -0.0796  0.2371  0.2242
 5100SOL    HW116199   5.813   2.027   0.611  0.6660 -0.1290  1.6828
 5100SOL    HW216200   5.719   2.083   0.731  0.0684 -1.9733  2.1117
 5101SOL     OW16201   0.000   0.539   2.766 -0.1769 -0.1169  0.4506
 5101SOL    HW116202   0.066   0.610   2.791  1.3210 -1.7063  1.2559
 5101SOL    HW216203   0.014   0.513   2.671 -2.4421  2.3436 -0.6876
 5102SOL     OW16204   5.925   1.156   0.956  0.2825 -0.1966  0.2204
 5102SOL    HW116205   5.956   1.228   0.894 -0.3981  0.1891  0.3168
 5102SOL    HW216206   5.976   1.072   0.938 -0.6703 -0.4124 -1.6170
 5103SOL     OW16207   2.558   6.704   1.051  0.4744 -0.7184  0.1770
 5103SOL    HW116208   2.470   6.707   1.098  0.5538  0.4038  0.2758
 5103SOL    HW216209   2.630   6.733   1.114  0.5457  1.0926 -0.6788
 5104SOL     OW16210   5.157   2.575   3.784 -0.5566  0.4500  0.4560
 5104SOL    HW116211   5.249   2.574   3.745  0.2425  1.1777  2.2050
 5104SOL    HW216212   5.093   2.612   3.717  0.8124  2.0162 -0.0604
 5105SOL     OW16213   2.137   1.309   2.417  0.3394 -0.5928 -0.1616
 5105SOL    HW116214   2.049   1.290   2.462  0.1312  1.5184  0.4359
 5105SOL    HW216215   2.120   1.354   2.329  0.8133  0.1993  0.1466
 5106SOL     OW16216   2.147   4.990   5.653  0.1065 -0.2631  0.1800
 5106SOL    HW116217   2.208   5.020   5.580  0.7478  0.9476  1.1737
 5106SOL    HW216218   2.064   4.952   5.613  0.2391  0.7838 -1.1726
 5107SOL     OW16219   5.502   4.564   1.048  0.9472  0.0932 -0.0863
 5107SOL    HW116220   5.454   4.650   1.030 -0.0755 -0.8504 -2.2281
 5107SOL    HW216221   5.445   4.505   1.104  0.9703  0.2022  0.0518
 5108SOL     OW16222   5.976   5.835   2.798  0.3350  0.2445  0.3814
 5108SOL    HW116223   5.880   5.860   2.808  0.3978  0.7405 -0.1893
 5108SOL    HW216224   6.027   5.912   2.760  1.0151  0.0803  0.9266
 5109SOL     OW16225   3.847   6.983   0.362  0.0091 -0.1837  0.8028
 5109SOL    HW116226   3.798   7.066   0.337 -0.1735 -0.6033 -0.2878
 5109SOL    HW216227   3.929   7.007   0.413  0.1642  0.6987  0.1721
 5110SOL     OW16228   3.999   4.258   0.929 -0.6232  0.0043  0.5457
 5110SOL    HW116229   3.981   4.164   0.958 -3.3988  0.3633  0.2547
 5110SOL    HW216230   4.029   4.312   1.007  0.5630 -0.9965  0.8058
 5111SOL     OW16231   6.949   1.810   6.684 -0.2148  0.2486 -0.3108
 5111SOL    HW116232   7.016   1.838   6.615 -1.5998  2.0360 -0.9945
 5111SOL    HW216233   6.880   1.751   6.641 -0.9710  1.2065 -0.4531
 5112SOL     OW16234   0.178   6.649   1.744  0.2428 -0.1113 -0.2810
 5112SOL    HW116235   0.240   6.652   1.823  1.0936  1.2219 -0.9517
 5112SOL    HW216236   0.094   6.601   1.768  1.0501 -0.9188  1.0187
 5113SOL     OW16237   5.734   5.388   1.840 -0.1681  0.0802  0.0904
 5113SOL    HW116238   5.638   5.412   1.834 -0.1489  0.0258 -0.5400
 5113SOL    HW216239   5.749   5.325   1.916 -1.2282 -2.6420 -1.7831
 5114SOL     OW16240   2.452   4.383   5.914 -0.4681  0.9915 -0.4607
 5114SOL    HW116241   2.359   4.397   5.948 -0.6782  1.5389 -1.2306
 5114SOL    HW216242   2.450   4.328   5.830  0.1865 -1.9924  1.3182
 5115SOL     OW16243   3.113   3.988   2.582  0.5649 -0.1086 -0.2383
 5115SOL    HW116244   3.122   3.889   2.594  3.4450  0.2297  1.2043
 5115SOL    HW216245   3.059   4.026   2.658 -0.3898 -0.5019 -0.6985
 5116SOL     OW16246   3.238   6.681   6.032  0.5176 -0.1071 -0.1489
 5116SOL    HW116247   3.259   6.738   5.952 -0.8702 -1.3201 -1.4576
 5116SOL    HW216248   3.154   6.712   6.075  1.7240  1.0975  1.4550
 5117SOL     OW16249   6.690   6.454   1.435  0.1624  0.4564 -0.5881
 5117SOL    HW116250   6.629   6.421   1.362  1.9403 -0.5323 -1.7018
 5117SOL    HW216251   6.785   6.437   1.409  0.9595  2.1325  1.0034
 5118SOL     OW16252   6.841   1.986   1.940 -0.0792  0.1533  0.2756
 5118SOL    HW116253   6.772   1.964   1.870 -1.5934  0.0359  1.7492
 5118SOL    HW216254   6.926   1.939   1.919 -0.5462 -0.0161 -1.3890
 5119SOL     OW16255   0.774   0.239   0.157  0.0742 -0.3334 -0.0698
 5119SOL    HW116256   0.839   0.307   0.122  0.4398  0.2399  1.6276
 5119SOL    HW216257   0.699   0.228   0.091  0.2504  1.3638 -0.6124
 5120SOL     OW16258   2.816   5.356   0.302 -0.4679 -0.1305  0.3877
 5120SOL    HW116259   2.884   5.291   0.268 -0.2897  0.3163 -0.1215
 5120SOL    HW216260   2.858   5.412   0.374  0.2222  1.1926 -0.9723
 5121SOL     OW16261   5.139   2.424   2.487  0.0822  0.2716  0.5652
 5121SOL    HW116262   5.223   2.463   2.449  0.6554 -0.7821  0.7120
 5121SOL    HW216263   5.155   2.397   2.582 -0.1700 -0.6696  0.3538
 5122SOL     OW16264   5.778   2.636   4.534 -0.3603  0.6030 -0.0971
 5122SOL    HW116265   5.816   2.703   4.471  0.0467 -1.0760 -1.7349
 5122SOL    HW216266   5.843   2.618   4.608  1.2604 -0.7299 -1.7507
 5123SOL     OW16267   5.281   0.860   1.759 -0.5722 -0.0794  0.1040
 5123SOL    HW116268   5.258   0.956   1.743  1.0989  0.1725 -1.0906
 5123SOL    HW216269   5.287   0.812   1.671  1.0469 -0.6378  0.4827
 5124SOL     OW16270   1.698   3.964   6.555  0.0373 -0.4886  0.0312
 5124SOL    HW116271   1.765   3.898   6.587  1.5089  1.1135  0.4135
 5124SOL    HW216272   1.686   3.954   6.457 -0.9052 -2.2763  0.2898
 5125SOL     OW16273   4.836   6.625   6.268  0.3229 -0.5331  0.0571
 5125SOL    HW116274   4.770   6.635   6.194  0.4846  0.9263  0.0880
 5125SOL    HW216275   4.789   6.637   6.356  0.3542 -1.0296  0.1421
 5126SOL     OW16276   2.326   5.134   4.582  0.0829 -1.0446  0.0185
 5126SOL    HW116277   2.239   5.091   4.607  0.7881 -1.9156  1.0455
 5126SOL    HW216278   2.399   5.065   4.582  1.2434  0.1127  1.7313
 5127SOL     OW16279   0.210   0.804   4.478  0.0116 -0.1112  0.5378
 5127SOL    HW116280   0.266   0.858   4.415 -0.2287 -0.2641  0.1945
 5127SOL    HW216281   0.119   0.843   4.484  0.2562  0.3516  1.3788
 5128SOL     OW16282   0.904   3.939   5.959  0.3098 -0.2080 -0.0141
 5128SOL    HW116283   0.811   3.944   5.997  0.2319  0.8105 -0.2913
 5128SOL    HW216284   0.900   3.949   5.859  0.7770  0.9142  0.0605
 5129SOL     OW16285   0.700   3.852   3.085 -0.5512 -0.4986 -0.3696
 5129SOL    HW116286   0.639   3.776   3.063 -1.6707  0.6558 -1.3757
 5129SOL    HW216287   0.662   3.937   3.050  1.4320  0.3402 -0.6343
 5130SOL     OW16288   6.336   1.474   0.721 -0.2057  0.4295 -0.1775
 5130SOL    HW116289   6.298   1.487   0.629 -0.2503  0.3139 -0.1757
 5130SOL    HW216290   6.299   1.390   0.761  0.5287 -0.0290 -0.4282
 5131SOL     OW16291   2.199   6.379   5.044  0.2186  0.1751  0.2048
 5131SOL    HW116292   2.196   6.436   4.962 -1.9307 -1.2452 -0.7987
 5131SOL    HW216293   2.278   6.318   5.039  0.5392  0.6240 -0.4248
 5132SOL     OW16294   4.819   1.835   4.635  0.3326 -0.5739  0.6757
 5132SOL    HW116295   4.734   1.783   4.624  0.4481 -0.8755  1.1313
 5132SOL    HW216296   4.889   1.797   4.575 -0.4874  1.1938 -1.5192
 5133SOL     OW16297   4.488   6.119   0.992  0.3113  0.1140 -0.5238
 5133SOL    HW116298   4.573   6.170   0.991 -0.7711  2.0036 -1.7748
 5133SOL    HW216299   4.446   6.125   1.083 -0.6495  3.0793 -1.0530
 5134SOL     OW16300   6.461   3.691   0.210 -0.1855  0.1675 -0.8673
 5134SOL    HW116301   6.509   3.779   0.215 -0.5443  0.4028 -1.4774
 5134SOL    HW216302   6.385   3.690   0.275 -1.0337  0.8441 -1.8289
 5135SOL     OW16303   1.832   3.287   5.119  0.5815 -0.1012 -0.0074
 5135SOL    HW116304   1.756   3.276   5.055  0.4763 -0.6560  0.2041
 5135SOL    HW216305   1.798   3.328   5.204  1.1664  3.1309 -1.1956
 5136SOL     OW16306   1.317   1.387   4.648  0.4323 -0.1924  0.2667
 5136SOL    HW116307   1.254   1.439   4.705 -0.9912 -0.4504 -1.0033
 5136SOL    HW216308   1.380   1.450   4.601  0.8467  0.0998  1.1953
 5137SOL     OW16309   1.467   5.680   1.546 -0.2398 -0.1267 -0.8579
 5137SOL    HW116310   1.478   5.584   1.522 -0.2043 -0.3605  0.0353
 5137SOL    HW216311   1.399   5.689   1.619 -0.4150  0.5496 -1.0953
 5138SOL     OW16312   4.142   1.559   4.847 -0.0800 -0.2740 -0.9032
 5138SOL    HW116313   4.224   1.600   4.807  0.7196 -0.4916  0.4531
 5138SOL    HW216314   4.140   1.461   4.828 -1.1209  0.0447 -2.6903
 5139SOL     OW16315   5.695   2.640   3.504  0.0711 -0.0970  0.4560
 5139SOL    HW116316   5.650   2.699   3.438  1.0085  0.2981  0.1604
 5139SOL    HW216317   5.650   2.550   3.504  0.6224 -0.4060 -1.3759
 5140SOL     OW16318   5.204   6.589   3.389  0.4303  0.2049 -0.4828
 5140SOL    HW116319   5.252   6.640   3.461  0.7049  1.0706 -1.2604
 5140SOL    HW216320   5.269   6.529   3.341  0.2634 -0.3127 -0.0709
 5141SOL     OW16321   2.048   5.767   5.530  0.0331 -0.0124 -0.4740
 5141SOL    HW116322   2.122   5.708   5.561  0.5345  0.1397 -1.3656
 5141SOL    HW216323   1.960   5.726   5.554  0.3912 -0.5202 -0.0137
 5142SOL     OW16324   5.584   0.561   5.223 -0.0364 -0.4205  0.5082
 5142SOL    HW116325   5.601   0.597   5.315  1.5362  2.5610 -0.8045
 5142SOL    HW216326   5.651   0.600   5.159 -1.9012 -1.3157 -2.1511
 5143SOL     OW16327   1.077   4.010   2.063 -0.3556  0.2205 -0.0564
 5143SOL    HW116328   1.088   4.084   2.130  0.0408  1.6993 -1.6785
 5143SOL    HW216329   1.006   3.948   2.094 -0.4321  1.0589  1.5650
 5144SOL     OW16330   1.089   0.549   0.786  0.3821 -0.3795 -0.1187
 5144SOL    HW116331   1.163   0.521   0.725  1.0270  1.0172 -0.0132
 5144SOL    HW216332   1.107   0.515   0.878  0.2085 -1.1653 -0.3706
 5145SOL     OW16333   3.058   0.498   1.078  0.7881  0.2091 -0.0373
 5145SOL    HW116334   3.067   0.551   1.163  0.4046 -0.4961  0.4607
 5145SOL    HW216335   3.017   0.409   1.099 -1.9643  1.0658 -1.3515
 5146SOL     OW16336   0.643   4.712   2.693 -0.2646 -0.3162  0.7854
 5146SOL    HW116337   0.631   4.615   2.713 -0.1310 -0.6773 -0.7687
 5146SOL    HW216338   0.561   4.762   2.723 -0.2302 -0.8648  1.8152
 5147SOL     OW16339   2.170   5.176   5.837 -0.1914  0.3955 -0.1389
 5147SOL    HW116340   2.109   5.162   5.914 -0.7356  0.0726 -0.6179
 5147SOL    HW216341   2.156   5.103   5.769 -0.1704  1.0134 -0.8241
 5148SOL     OW16342   1.020   0.531   0.253  0.1383  0.2897 -0.0763
 5148SOL    HW116343   1.005   0.491   0.163  0.5805  0.3674 -0.1820
 5148SOL    HW216344   0.979   0.471   0.322 -0.6964  0.5128 -0.3655
 5149SOL     OW16345   0.522   6.416   6.837 -0.2897 -0.2515  0.2044
 5149SOL    HW116346   0.528   6.475   6.918  1.1115  0.7042 -0.5394
 5149SOL    HW216347   0.559   6.326   6.858  2.5882  0.7792  0.0099
 5150SOL     OW16348   5.299   5.263   4.541 -0.2651 -0.0198  0.0384
 5150SOL    HW116349   5.379   5.230   4.491 -0.1430  0.0674  0.1746
 5150SOL    HW216350   5.266   5.189   4.601  1.1994  0.6823  1.8388
 5151SOL     OW16351   7.013   2.457   2.486 -0.5324 -0.2771 -0.2640
 5151SOL    HW116352   7.042   2.522   2.416 -1.2033  0.1005 -0.2022
 5151SOL    HW216353   6.917   2.474   2.510 -2.2129 -3.9084 -3.3330
 5152SOL     OW16354   3.390   1.830   2.171 -0.2354 -0.1345 -0.9424
 5152SOL    HW116355   3.449   1.858   2.096  1.9435 -0.4131  0.5852
 5152SOL    HW216356   3.351   1.912   2.214  0.9060  0.2196 -0.5454
 5153SOL     OW16357   4.807   3.447   6.024 -0.3769 -0.0580 -0.3468
 5153SOL    HW116358   4.851   3.417   5.939  1.3762 -0.3950  0.6283
 5153SOL    HW216359   4.786   3.368   6.080  2.4669  0.2748  1.3764
 5154SOL     OW16360   5.844   4.316   0.122  0.3645 -0.2466  0.2254
 5154SOL    HW116361   5.942   4.296   0.113  1.4203  1.5943  4.6585
 5154SOL    HW216362   5.825   4.408   0.090  0.2250 -0.3815 -0.0777
 5155SOL     OW16363   2.273   6.197   6.509 -0.2914  0.0159  0.1367
 5155SOL    HW116364   2.268   6.296   6.497  0.4447  0.1554  0.8877
 5155SOL    HW216365   2.184   6.157   6.487 -1.0118  0.9938  1.1375
 5156SOL     OW16366   3.967   1.568   4.565 -0.3997  0.4314  0.0313
 5156SOL    HW116367   3.897   1.538   4.630  0.0430  1.1510  0.8662
 5156SOL    HW216368   3.938   1.652   4.519 -0.1006  0.7293  0.3762
 5157SOL     OW16369   5.468   3.810   3.687 -0.0155  0.2040  0.7167
 5157SOL    HW116370   5.443   3.716   3.708 -1.6125  0.3258 -0.3952
 5157SOL    HW216371   5.469   3.823   3.587  0.6660  1.2412  0.8431
 5158SOL     OW16372   0.448   5.185   5.636  0.4422 -0.2582 -0.7160
 5158SOL    HW116373   0.487   5.204   5.727  1.4968 -4.1274 -0.1844
 5158SOL    HW216374   0.357   5.227   5.630  1.0181  1.5335  1.4350
 5159SOL     OW16375   5.334   6.445   0.211 -0.0679 -0.1874  0.0899
 5159SOL    HW116376   5.237   6.426   0.203  0.0259 -1.6054  1.7006
 5159SOL    HW216377   5.362   6.510   0.140 -2.6779  2.2637  1.1357
 5160SOL     OW16378   5.747   0.974   0.764  0.1624 -0.2442 -0.6996
 5160SOL    HW116379   5.748   1.048   0.832 -1.5621 -0.7237 -0.1049
 5160SOL    HW216380   5.809   0.902   0.792 -1.1762 -0.8405  0.8946
 5161SOL     OW16381   5.512   4.391   6.461  0.4598  0.0070  0.0966
 5161SOL    HW116382   5.418   4.396   6.495  1.0342  1.7577  1.6387
 5161SOL    HW216383   5.525   4.458   6.388  0.2809 -0.9417 -0.8309
 5162SOL     OW16384   0.474   4.683   1.810 -0.7511  0.1883 -0.4325
 5162SOL    HW116385   0.456   4.773   1.851 -1.4074  1.1816 -2.6883
 5162SOL    HW216386   0.400   4.620   1.834 -1.2676  0.8215 -0.3128
 5163SOL     OW16387   2.509   5.769   4.830 -0.4887  0.4671  0.5351
 5163SOL    HW116388   2.472   5.800   4.918  1.9348  0.4543  1.6329
 5163SOL    HW216389   2.579   5.833   4.798  0.2308 -0.6761 -0.2647
 5164SOL     OW16390   3.681   5.080   2.672  0.2087 -0.6658  0.3707
 5164SOL    HW116391   3.778   5.058   2.686  0.5749 -0.2655 -1.3070
 5164SOL    HW216392   3.668   5.112   2.578 -1.6917 -1.4461  0.3378
 5165SOL     OW16393   1.535   2.842   3.450 -0.2085  0.0512  0.1507
 5165SOL    HW116394   1.590   2.844   3.366  0.0748  0.5477  0.3441
 5165SOL    HW216395   1.445   2.880   3.431  0.6313  2.4489  0.6012
 5166SOL     OW16396   3.360   6.579   4.205 -0.2235  0.3575  0.2084
 5166SOL    HW116397   3.279   6.526   4.229 -0.1608  0.2932  0.2781
 5166SOL    HW216398   3.442   6.530   4.234 -0.1299  0.0606 -0.5531
 5167SOL     OW16399   1.076   5.652   2.342 -0.0344 -0.0699 -0.2603
 5167SOL    HW116400   1.169   5.654   2.378  0.2044 -0.2933 -0.8596
 5167SOL    HW216401   1.040   5.559   2.347  0.1203 -0.1640 -0.9090
 5168SOL     OW16402   5.909   1.361   6.697 -0.0252  0.2230 -0.9407
 5168SOL    HW116403   5.973   1.430   6.662  1.6300 -0.1403  1.1237
 5168SOL    HW216404   5.904   1.369   6.797 -2.8854 -0.1159 -0.9785
 5169SOL     OW16405   0.418   5.645   1.704  0.5113  0.0439 -0.0258
 5169SOL    HW116406   0.473   5.712   1.753  0.9530  1.6153 -2.5052
 5169SOL    HW216407   0.342   5.692   1.659  0.0918 -1.3314 -0.7934
 5170SOL     OW16408   2.607   2.482   0.145 -0.0051 -0.2772 -0.0750
 5170SOL    HW116409   2.682   2.428   0.105 -0.1595 -0.9884  0.5755
 5170SOL    HW216410   2.610   2.574   0.107  0.7480 -0.5063 -0.6207
 5171SOL     OW16411   2.254   5.817   1.294 -0.1208  0.1019  0.9387
 5171SOL    HW116412   2.334   5.781   1.245 -0.9590  0.7338 -1.0285
 5171SOL    HW216413   2.230   5.907   1.256 -1.4983  0.1117  1.7712
 5172SOL     OW16414   3.898   2.894   5.768 -0.1490  0.5191  0.1478
 5172SOL    HW116415   3.864   2.969   5.824  1.6752 -0.3963  2.6980
 5172SOL    HW216416   3.949   2.930   5.690 -0.7417  1.8981  0.3762
 5173SOL     OW16417   2.599   0.586   6.449  0.4871  0.8509  0.1281
 5173SOL    HW116418   2.635   0.517   6.386  0.9245  1.3847 -0.2172
 5173SOL    HW216419   2.673   0.645   6.480  0.3262  0.4235  1.3786
 5174SOL     OW16420   4.159   4.773   6.402  0.1551  0.2742  0.3273
 5174SOL    HW116421   4.172   4.674   6.399  1.0837  0.4089 -0.6824
 5174SOL    HW216422   4.077   4.798   6.351 -0.0860  0.0290  0.5944
 5175SOL     OW16423   2.955   2.939   0.179 -0.3713  0.6776  0.1230
 5175SOL    HW116424   2.908   2.862   0.222  2.8517 -1.9933 -0.7479
 5175SOL    HW216425   3.025   2.974   0.241  0.1626  0.9272 -0.6169
 5176SOL     OW16426   2.170   6.444   0.184 -0.2916 -0.0647  0.1421
 5176SOL    HW116427   2.237   6.396   0.241 -0.9744 -1.0529  0.1222
 5176SOL    HW216428   2.218   6.500   0.117  0.5296 -1.3612 -0.3902
 5177SOL     OW16429   1.962   2.174   3.318 -0.2463  0.0393  0.2285
 5177SOL    HW116430   1.900   2.238   3.272  0.4673  0.5845  0.0167
 5177SOL    HW216431   2.041   2.156   3.260 -0.0553 -0.4177  0.6246
 5178SOL     OW16432   0.448   0.397   6.755 -0.4044 -0.2273  0.2347
 5178SOL    HW116433   0.351   0.387   6.775 -0.7147 -0.8962 -1.4107
 5178SOL    HW216434   0.469   0.352   6.668  1.5447 -0.8007  0.9344
 5179SOL     OW16435   4.381   5.510   1.041  0.1276  0.0829 -0.5063
 5179SOL    HW116436   4.408   5.578   0.971  0.2321  0.5032 -0.0622
 5179SOL    HW216437   4.310   5.549   1.100 -0.1292 -0.3580 -0.5196
 5180SOL     OW16438   3.815   5.501   1.760  0.4810 -0.0631  0.1474
 5180SOL    HW116439   3.861   5.417   1.733 -0.1435  0.5878 -3.3539
 5180SOL    HW216440   3.789   5.554   1.679 -2.6850  1.6313  2.0308
 5181SOL     OW16441   2.438   0.083   1.306 -0.1771  0.0768  0.4117
 5181SOL    HW116442   2.404   0.176   1.322 -0.8279  0.0986 -1.0059
 5181SOL    HW216443   2.535   0.088   1.279 -0.2344  0.3547  0.2512
 5182SOL     OW16444   4.391   5.120   3.851 -0.3529  0.1047 -0.1938
 5182SOL    HW116445   4.331   5.201   3.844  1.1314  1.1242 -2.7982
 5182SOL    HW216446   4.470   5.142   3.908  0.3707  0.7735 -1.4135
 5183SOL     OW16447   0.489   5.897   1.036  0.1132 -0.2415  0.2232
 5183SOL    HW116448   0.548   5.850   1.101  2.1518  2.3032  0.3505
 5183SOL    HW216449   0.394   5.892   1.068  0.7507 -0.9939  2.1649
 5184SOL     OW16450   0.756   4.616   4.755  0.0420  0.8000  0.6711
 5184SOL    HW116451   0.657   4.624   4.742  0.1700  2.1200  0.3527
 5184SOL    HW216452   0.793   4.706   4.780  1.5341  0.9458 -1.8062
 5185SOL     OW16453   2.542   3.048   1.198  0.7999 -0.8408 -0.0762
 5185SOL    HW116454   2.449   3.012   1.198  0.5197 -0.1737  0.7736
 5185SOL    HW216455   2.592   3.014   1.119 -0.6617  0.0415 -1.4416
 5186SOL     OW16456   4.286   1.551   6.994  0.0589 -0.5090  0.1992
 5186SOL    HW116457   4.199   1.513   6.963  0.3550  0.9783 -2.9114
 5186SOL    HW216458   4.341   1.480   7.037 -1.0035 -2.6118 -1.7198
 5187SOL     OW16459   2.621   4.669   4.796 -0.1412 -0.0723  0.2729
 5187SOL    HW116460   2.707   4.652   4.843 -0.1656  1.4527  0.9251
 5187SOL    HW216461   2.545   4.637   4.853 -0.0428 -0.9214 -0.0625
 5188SOL     OW16462   3.056   4.011   6.952 -0.1829  0.1673  0.2410
 5188SOL    HW116463   3.075   4.060   7.037 -1.2183  1.3702 -0.1776
 5188SOL    HW216464   3.109   4.051   6.878  2.1428 -2.0650  0.5836
 5189SOL     OW16465   5.768   6.031   4.495 -0.1034  0.6018  0.1473
 5189SOL    HW116466   5.717   5.974   4.560  0.0580 -0.9121 -1.0023
 5189SOL    HW216467   5.723   6.029   4.406  1.3068  0.1670 -0.5878
 5190SOL     OW16468   4.642   5.118   5.178 -0.4996 -0.5493 -0.2652
 5190SOL    HW116469   4.718   5.136   5.116 -1.5563  1.5555 -1.0577
 5190SOL    HW216470   4.668   5.047   5.244  2.3274  0.4992 -0.1259
 5191SOL     OW16471   2.762   5.672   6.518 -0.5739  0.0869 -0.7292
 5191SOL    HW116472   2.829   5.722   6.463  0.1221  0.2507  0.2261
 5191SOL    HW216473   2.742   5.585   6.474  0.4926 -0.0869 -0.9140
 5192SOL     OW16474   0.556   6.593   6.554 -0.2479  0.1707  0.0170
 5192SOL    HW116475   0.535   6.636   6.642 -1.2116 -0.2513  0.0045
 5192SOL    HW216476   0.554   6.494   6.564  0.1768  0.1219 -0.3621
 5193SOL     OW16477   0.852   0.912   2.540  0.4328  0.4713 -0.2757
 5193SOL    HW116478   0.814   0.853   2.469 -1.3618  1.0723  0.1456
 5193SOL    HW216479   0.803   0.898   2.626  1.4334  1.0081  0.4108
 5194SOL     OW16480   1.669   5.157   4.094 -0.3016  0.3353  0.1442
 5194SOL    HW116481   1.619   5.155   4.007 -1.0839 -0.6726  0.5877
 5194SOL    HW216482   1.676   5.251   4.127 -1.6081  0.5508 -0.1250
 5195SOL     OW16483   4.205   0.029   2.814  0.0633  0.2162  0.3256
 5195SOL    HW116484   4.120   0.064   2.775  1.6603  2.2188 -1.6323
 5195SOL    HW216485   4.246   0.098   2.874  1.7581  0.5923 -1.1657
 5196SOL     OW16486   5.418   2.897   2.499 -0.3094 -0.4779  0.7495
 5196SOL    HW116487   5.407   2.851   2.411  0.2853  0.3997  0.2013
 5196SOL    HW216488   5.476   2.978   2.488 -1.9267  0.8550  1.5107
 5197SOL     OW16489   4.166   6.370   6.852  0.5522  0.1091 -0.2404
 5197SOL    HW116490   4.082   6.414   6.819 -0.2453 -1.3580 -0.2596
 5197SOL    HW216491   4.187   6.402   6.944  1.7364  2.8175 -1.3515
 5198SOL     OW16492   6.219   6.894   0.726  0.0730 -0.1914 -0.2363
 5198SOL    HW116493   6.154   6.863   0.796 -0.4858 -0.2668 -0.7792
 5198SOL    HW216494   6.171   6.907   0.640  1.0337 -1.7392 -1.0641
 5199SOL     OW16495   6.931   1.199   0.261 -0.1720  0.3700  0.4631
 5199SOL    HW116496   6.936   1.233   0.167  1.4657 -1.4655 -0.1893
 5199SOL    HW216497   6.896   1.271   0.321 -2.7202  1.1212 -1.7350
 5200SOL     OW16498   2.095   4.435   5.900  0.0981 -0.0990 -0.0306
 5200SOL    HW116499   2.047   4.513   5.940 -0.1949  0.3392 -1.1907
 5200SOL    HW216500   2.102   4.448   5.801  2.0147 -0.4853  0.0181
 5201SOL     OW16501   3.924   3.224   2.931  0.7095  0.2983 -0.2665
 5201SOL    HW116502   3.957   3.293   2.866 -2.4130  0.2004 -2.1688
 5201SOL    HW216503   3.860   3.266   2.995  0.3405 -0.4497 -0.1282
 5202SOL     OW16504   3.521   1.861   0.773  0.2218  0.3443  0.3737
 5202SOL    HW116505   3.550   1.825   0.684  0.0262 -1.4249  0.9770
 5202SOL    HW216506   3.427   1.834   0.791  0.4575  0.1268  1.3738
 5203SOL     OW16507   1.752   5.654   4.693 -0.0725  0.2261  0.4685
 5203SOL    HW116508   1.668   5.681   4.741 -0.6779  0.9042 -0.8971
 5203SOL    HW216509   1.831   5.691   4.741 -0.3243 -2.1614  2.9820
 5204SOL     OW16510   2.167   6.969   3.837  0.4300 -0.2810  0.0706
 5204SOL    HW116511   2.246   6.942   3.782 -0.3663  0.2219 -1.3899
 5204SOL    HW216512   2.085   6.926   3.800 -0.2142  0.5359  0.5047
 5205SOL     OW16513   5.541   3.181   4.640  0.0712 -0.7724 -0.4439
 5205SOL    HW116514   5.625   3.235   4.642  0.4071 -1.3046  0.7311
 5205SOL    HW216515   5.562   3.086   4.616  0.1219 -1.3760  1.8190
 5206SOL     OW16516   6.593   5.169   6.948 -0.3402  0.8300 -1.0063
 5206SOL    HW116517   6.619   5.079   6.982  0.2468  1.0228 -0.9220
 5206SOL    HW216518   6.627   5.181   6.854 -0.5223  0.9136 -1.0619
 5207SOL     OW16519   2.724   5.390   4.033 -0.0854 -0.2411  0.6281
 5207SOL    HW116520   2.819   5.363   4.016  0.0116 -0.1895  1.0713
 5207SOL    HW216521   2.708   5.395   4.132 -0.1688  1.0777  0.5652
 5208SOL     OW16522   1.332   3.733   3.151  0.5994  0.0428 -0.5066
 5208SOL    HW116523   1.390   3.803   3.193  0.2884 -0.1189  0.2080
 5208SOL    HW216524   1.385   3.683   3.081  1.4906 -0.4375  0.4799
 5209SOL     OW16525   3.655   6.832   1.640  0.4750 -0.0242 -0.0843
 5209SOL    HW116526   3.572   6.778   1.650  0.0155  0.7643  0.5179
 5209SOL    HW216527   3.716   6.813   1.717  0.9337 -0.7212 -0.6091
 5210SOL     OW16528   2.050   0.578   1.736  0.3124 -0.0201  0.2839
 5210SOL    HW116529   2.028   0.675   1.749  0.4345  0.3439 -1.8776
 5210SOL    HW216530   1.966   0.524   1.743  0.2149  0.2320  1.3097
 5211SOL     OW16531   6.490   5.056   4.904 -0.0626 -0.3872 -0.2828
 5211SOL    HW116532   6.566   5.120   4.897 -0.5431  0.1932 -0.3327
 5211SOL    HW216533   6.500   5.000   4.987 -1.6284  2.4430  1.9812
 5212SOL     OW16534   4.116   1.918   4.148  0.2145 -0.2081 -0.2302
 5212SOL    HW116535   4.095   2.015   4.141 -2.6662 -0.6795  0.6241
 5212SOL    HW216536   4.187   1.904   4.217  1.7322  1.3302 -1.3877
 5213SOL     OW16537   1.927   2.688   1.750  0.1718 -0.0979  0.2666
 5213SOL    HW116538   1.888   2.681   1.842 -0.8672 -1.7749 -0.2543
 5213SOL    HW216539   1.881   2.623   1.689  2.2447 -0.5270 -0.9470
 5214SOL     OW16540   2.934   5.768   2.220 -0.1999 -0.5109 -0.4086
 5214SOL    HW116541   2.906   5.720   2.136 -1.2085 -1.4532  0.4389
 5214SOL    HW216542   2.983   5.704   2.279  1.0599  0.3169 -0.5215
 5215SOL     OW16543   3.987   3.067   6.907 -0.3579  0.3291  0.8745
 5215SOL    HW116544   4.027   3.141   6.961 -0.7548  2.9170 -2.1030
 5215SOL    HW216545   4.059   3.017   6.860 -0.1707 -0.4514  1.9554
 5216SOL     OW16546   5.285   0.499   4.325  0.3837 -0.4493 -0.4686
 5216SOL    HW116547   5.332   0.428   4.377  1.0112  0.4342  0.2028
 5216SOL    HW216548   5.307   0.489   4.228  1.9672 -0.0842 -0.1741
 5217SOL     OW16549   5.320   6.488   4.543 -0.3705 -0.0977  0.2534
 5217SOL    HW116550   5.295   6.402   4.498 -1.1994 -0.4788  1.4243
 5217SOL    HW216551   5.346   6.555   4.473  0.8564 -1.4533 -0.6499
 5218SOL     OW16552   4.626   5.717   3.654 -0.3885  0.5848 -0.3333
 5218SOL    HW116553   4.543   5.673   3.618  0.0467  0.7318 -1.5860
 5218SOL    HW216554   4.657   5.668   3.735  0.0957 -1.4897 -1.6965
 5219SOL     OW16555   1.620   4.754   5.740 -0.3059 -0.4256  0.2890
 5219SOL    HW116556   1.610   4.683   5.809  0.3839 -0.8549 -0.0453
 5219SOL    HW216557   1.608   4.714   5.649  1.4752 -0.4063  0.0168
 5220SOL     OW16558   5.929   1.080   1.583 -0.0590  0.7655 -0.2038
 5220SOL    HW116559   5.948   1.173   1.551  0.5958  1.3418  1.7046
 5220SOL    HW216560   5.937   1.016   1.507  2.9082  1.8209 -0.9084
 5221SOL     OW16561   5.241   0.870   5.053 -0.5130  0.5023 -0.2887
 5221SOL    HW116562   5.185   0.790   5.033 -1.9031  1.2310  0.5497
 5221SOL    HW216563   5.185   0.940   5.098  1.1756  1.0998  0.9777
 5222SOL     OW16564   4.653   1.209   6.611 -0.0740  0.1738 -0.2808
 5222SOL    HW116565   4.736   1.197   6.557  0.4077  0.3739  0.4001
 5222SOL    HW216566   4.658   1.155   6.694 -2.1455 -2.6556 -1.8076
 5223SOL     OW16567   6.736   1.432   0.912 -0.2076  0.6278  0.3429
 5223SOL    HW116568   6.688   1.515   0.883 -2.8520 -0.5290  1.0905
 5223SOL    HW216569   6.670   1.366   0.946  2.0758 -0.6147  2.7449
 5224SOL     OW16570   5.045   4.351   0.460 -0.0406  0.0839 -0.2326
 5224SOL    HW116571   5.049   4.408   0.543  1.2217 -0.5828  0.1828
 5224SOL    HW216572   4.985   4.395   0.393 -1.9912  0.1122  1.4085
 5225SOL     OW16573   4.328   1.358   5.552  0.1770  0.3891 -0.4116
 5225SOL    HW116574   4.319   1.280   5.489  0.3353  0.8155 -0.9756
 5225SOL    HW216575   4.425   1.379   5.565  0.1316  0.5765 -0.3741
 5226SOL     OW16576   4.083   5.578   3.286 -0.0844 -0.5286  0.5124
 5226SOL    HW116577   4.141   5.498   3.298 -1.5266 -1.5763  0.7987
 5226SOL    HW216578   4.087   5.635   3.368 -1.6762 -2.1369  1.7929
 5227SOL     OW16579   2.578   3.342   1.697  0.2947  0.7121  0.3586
 5227SOL    HW116580   2.573   3.248   1.664  0.9412  0.6277  0.4793
 5227SOL    HW216581   2.499   3.362   1.755 -1.2165  1.0779 -1.7309
 5228SOL     OW16582   5.962   1.845   0.171 -0.5228 -0.0469 -0.3378
 5228SOL    HW116583   5.979   1.941   0.194 -0.3164  0.1706 -1.3433
 5228SOL    HW216584   5.997   1.786   0.244 -0.4300  0.6238  0.1718
 5229SOL     OW16585   2.954   4.663   0.702  0.0062 -0.1869  0.0798
 5229SOL    HW116586   2.925   4.567   0.710  0.3696 -0.2816  0.2836
 5229SOL    HW216587   3.042   4.667   0.655 -0.1491  0.0699 -0.1887
 5230SOL     OW16588   0.173   1.039   1.270 -0.5069 -0.1012  0.2895
 5230SOL    HW116589   0.149   1.135   1.255 -0.8342 -0.0003  1.3519
 5230SOL    HW216590   0.206   1.027   1.363  0.0930 -0.9245 -0.0157
 5231SOL     OW16591   3.209   3.276   2.522  0.3797  0.4957  0.3002
 5231SOL    HW116592   3.192   3.179   2.539 -0.8009  0.2337 -1.9786
 5231SOL    HW216593   3.170   3.302   2.434  1.7720  2.7740  0.2679
 5232SOL     OW16594   1.808   6.574   4.931 -0.4403 -0.2840 -0.3414
 5232SOL    HW116595   1.738   6.614   4.990  0.8765  0.0552  1.0275
 5232SOL    HW216596   1.764   6.522   4.858 -2.1108 -0.2688  0.6168
 5233SOL     OW16597   4.832   2.844   4.988  0.4985  0.1709 -0.2883
 5233SOL    HW116598   4.841   2.942   4.969  0.6207  0.4305  1.0208
 5233SOL    HW216599   4.920   2.809   5.019  0.3024 -0.2258 -0.1813
 5234SOL     OW16600   4.552   5.057   1.835 -0.0287  0.3050  0.0001
 5234SOL    HW116601   4.632   5.003   1.808  1.2957  1.7002  0.9074
 5234SOL    HW216602   4.505   5.012   1.911  0.1965 -0.2837 -0.2056
 5235SOL     OW16603   5.363   1.726   6.408 -0.0029  0.2309  0.0968
 5235SOL    HW116604   5.295   1.753   6.477  0.8834  2.4068  0.2221
 5235SOL    HW216605   5.448   1.701   6.454  0.0807  0.0668 -0.1473
 5236SOL     OW16606   1.646   2.632   4.149  0.3077  0.5212  0.0207
 5236SOL    HW116607   1.623   2.704   4.214  0.7359  0.6080  0.0810
 5236SOL    HW216608   1.677   2.551   4.199 -2.7750 -0.7280  0.1187
 5237SOL     OW16609   3.084   5.255   2.325 -0.2474 -0.6417 -0.0243
 5237SOL    HW116610   3.183   5.244   2.327 -0.1345  0.2822 -0.0145
 5237SOL    HW216611   3.052   5.282   2.416 -0.2167  1.1968 -0.5191
 5238SOL     OW16612   1.903   2.917   6.914 -0.0015  0.3931  0.8869
 5238SOL    HW116613   1.906   2.818   6.900  0.6896  0.2800  1.7589
 5238SOL    HW216614   1.837   2.957   6.850 -3.1606 -1.0784  2.9340
 5239SOL     OW16615   0.610   0.507   6.239 -0.1533  0.1077 -0.0348
 5239SOL    HW116616   0.701   0.465   6.243 -0.2080  0.1151  2.2540
 5239SOL    HW216617   0.544   0.439   6.206  0.5547 -0.0600 -1.1808
 5240SOL     OW16618   6.098   3.515   4.952  0.0385 -0.3448 -0.1863
 5240SOL    HW116619   6.048   3.573   4.888  0.3310 -0.9175 -0.9540
 5240SOL    HW216620   6.070   3.537   5.045 -0.2320  0.6651 -0.4844
 5241SOL     OW16621   2.422   6.894   6.896 -0.4148  0.2160 -0.4286
 5241SOL    HW116622   2.439   6.797   6.878 -1.0385  0.1145 -0.5228
 5241SOL    HW216623   2.455   6.949   6.820  1.9886  0.3005  0.5852
 5242SOL     OW16624   0.440   3.031   0.285 -0.3407 -0.4765  0.5655
 5242SOL    HW116625   0.496   3.025   0.368  1.9686 -2.2387 -0.9951
 5242SOL    HW216626   0.458   3.117   0.238 -0.9150  0.0966  1.3847
 5243SOL     OW16627   6.176   5.228   4.674  0.5015 -0.1010  0.4461
 5243SOL    HW116628   6.129   5.172   4.606  1.4218 -0.6690  0.2690
 5243SOL    HW216629   6.141   5.322   4.669  2.0431  0.4407 -2.3505
 5244SOL     OW16630   1.153   6.461   6.835 -0.4540 -0.4431  0.0202
 5244SOL    HW116631   1.140   6.408   6.752 -0.5229 -1.0091  0.3815
 5244SOL    HW216632   1.131   6.557   6.818  2.2409  0.0262 -1.3961
 5245SOL     OW16633   2.700   1.644   0.712 -0.3431  0.2293  0.1796
 5245SOL    HW116634   2.799   1.654   0.719  0.0784 -3.2887  1.5054
 5245SOL    HW216635   2.678   1.589   0.631 -1.0683 -0.2177  0.6711
 5246SOL     OW16636   1.699   3.564   0.433  0.1328  0.0840  0.5844
 5246SOL    HW116637   1.681   3.641   0.371 -0.8412  0.1217  0.8956
 5246SOL    HW216638   1.789   3.525   0.413  0.4277  0.9922  0.0960
 5247SOL     OW16639   6.477   2.255   4.641  0.2223  0.2441  0.0215
 5247SOL    HW116640   6.527   2.324   4.693  2.7537 -1.3943 -0.0656
 5247SOL    HW216641   6.499   2.164   4.676 -2.0505 -0.6506 -0.6618
 5248SOL     OW16642   1.760   3.045   0.101 -0.2299 -0.2465  0.3774
 5248SOL    HW116643   1.801   2.964   0.059  0.1081 -0.0331  0.2905
 5248SOL    HW216644   1.711   3.018   0.184  0.2767 -0.4732  0.6063
 5249SOL     OW16645   4.212   4.522   6.435 -0.3897  0.0930 -0.5621
 5249SOL    HW116646   4.263   4.532   6.520 -0.6833 -2.5476 -0.0175
 5249SOL    HW216647   4.272   4.485   6.364 -0.4525  1.1811 -1.2078
 5250SOL     OW16648   5.261   2.845   1.194 -0.2831  0.0406  0.4123
 5250SOL    HW116649   5.247   2.746   1.205 -0.1599 -0.0207  0.0345
 5250SOL    HW216650   5.179   2.886   1.155 -0.2902  0.0721  0.4596
 5251SOL     OW16651   1.255   0.104   3.571 -0.1429 -0.3538  0.1019
 5251SOL    HW116652   1.168   0.146   3.595  0.7236  0.8288  1.3748
 5251SOL    HW216653   1.272   0.025   3.630 -0.4769 -0.7632 -0.3457
 5252SOL     OW16654   2.272   2.810   4.624 -0.6028 -0.0582  0.2887
 5252SOL    HW116655   2.224   2.898   4.624 -0.3453  0.0999 -0.8368
 5252SOL    HW216656   2.240   2.755   4.547  0.3784 -0.2990  0.0412
 5253SOL     OW16657   5.618   6.356   0.134 -0.1664 -0.0557 -0.1550
 5253SOL    HW116658   5.581   6.269   0.165  0.5780 -0.2412  0.2204
 5253SOL    HW216659   5.545   6.409   0.090 -1.0809 -0.0546  1.3159
 5254SOL     OW16660   2.146   5.249   0.057  0.0384  0.1718  0.4242
 5254SOL    HW116661   2.221   5.289   0.109 -0.1515  1.3929 -0.2090
 5254SOL    HW216662   2.177   5.166   0.012  0.3744 -0.5672  1.9621
 5255SOL     OW16663   6.888   1.883   4.811  0.1635  0.0257 -0.6327
 5255SOL    HW116664   6.931   1.922   4.893  0.8540 -0.6801 -0.6466
 5255SOL    HW216665   6.929   1.924   4.730 -0.6703  0.8837 -0.6459
 5256SOL     OW16666   6.927   4.680   5.671  0.3638  0.6403  0.3327
 5256SOL    HW116667   7.014   4.630   5.679  0.1486 -0.3094 -2.2268
 5256SOL    HW216668   6.851   4.619   5.690  0.1867  0.8707  0.3694
 5257SOL     OW16669   6.348   2.532   6.363 -0.1290 -0.3749 -0.1765
 5257SOL    HW116670   6.265   2.584   6.386  0.0721  0.2226 -0.7661
 5257SOL    HW216671   6.327   2.467   6.290 -0.6086 -1.8140  1.1870
 5258SOL     OW16672   2.619   6.267   4.547 -0.0688  0.1882  0.5506
 5258SOL    HW116673   2.599   6.172   4.523 -2.1013  0.5746  0.4538
 5258SOL    HW216674   2.663   6.272   4.636 -2.7049 -0.7533  2.0111
 5259SOL     OW16675   1.772   4.365   6.756 -0.6882  0.3210  0.3315
 5259SOL    HW116676   1.769   4.458   6.720  1.6570 -0.0354 -0.9662
 5259SOL    HW216677   1.742   4.301   6.685  0.9811 -0.1424  0.0039
 5260SOL     OW16678   6.872   6.984   6.227 -0.5217 -0.4062  0.3512
 5260SOL    HW116679   6.886   7.082   6.233 -2.2331 -0.0861 -0.3458
 5260SOL    HW216680   6.877   6.944   6.319  0.2479  0.3050  0.6324
 5261SOL     OW16681   0.329   1.359   2.759  0.0591  0.7703  0.4354
 5261SOL    HW116682   0.416   1.395   2.794  0.8796 -1.4304  0.8280
 5261SOL    HW216683   0.268   1.339   2.836  0.8309 -1.5338  0.5210
 5262SOL     OW16684   3.783   0.819   3.836  0.1114  0.2660  0.0523
 5262SOL    HW116685   3.863   0.879   3.831  0.4870 -0.2719 -0.4887
 5262SOL    HW216686   3.784   0.755   3.759  0.5110 -1.4127  1.3982
 5263SOL     OW16687   5.897   3.989   2.783  0.0191 -0.0664 -0.5854
 5263SOL    HW116688   5.906   3.891   2.801  0.8310  0.1295  0.1696
 5263SOL    HW216689   5.919   4.040   2.866  0.9668  0.7923 -1.3307
 5264SOL     OW16690   6.187   6.523   0.952 -0.6281  0.0496  0.0138
 5264SOL    HW116691   6.209   6.476   0.867  0.3525 -0.6322  0.6180
 5264SOL    HW216692   6.270   6.566   0.988 -0.9928  0.1998  0.7023
 5265SOL     OW16693   2.625   5.706   5.834  0.0305  0.5194 -0.4506
 5265SOL    HW116694   2.625   5.670   5.741 -1.2535  1.1904 -0.7262
 5265SOL    HW216695   2.570   5.789   5.838  0.0164  0.4674  0.9247
 5266SOL     OW16696   6.285   3.829   6.615  0.0067 -0.6855  0.3441
 5266SOL    HW116697   6.360   3.854   6.677 -0.4070  1.0803  0.1826
 5266SOL    HW216698   6.210   3.789   6.668  0.1490 -0.3379  0.8160
 5267SOL     OW16699   4.577   4.357   3.407 -0.2298  0.4399  0.0762
 5267SOL    HW116700   4.512   4.429   3.381 -1.4148 -0.0688  1.4673
 5267SOL    HW216701   4.611   4.312   3.325 -0.5164  1.6757 -0.7578
 5268SOL     OW16702   0.786   4.750   3.964  0.1183  0.2286  0.5623
 5268SOL    HW116703   0.882   4.722   3.956  0.1052  0.3108  0.1475
 5268SOL    HW216704   0.780   4.849   3.973  0.0657  0.2278  0.5364
 5269SOL     OW16705   4.002   5.229   3.136  0.0426 -0.0959  0.4064
 5269SOL    HW116706   4.071   5.253   3.205  0.2564  0.5295 -0.0203
 5269SOL    HW216707   3.934   5.302   3.130  0.3052  0.0880 -0.4009
 5270SOL     OW16708   5.833   2.318   3.637 -0.2875  0.6390 -0.8318
 5270SOL    HW116709   5.752   2.342   3.690 -1.6550 -1.7481 -1.6905
 5270SOL    HW216710   5.913   2.367   3.673 -2.0340  2.9185  0.1659
 5271SOL     OW16711   5.766   1.548   0.378 -0.0817 -0.2524  0.2643
 5271SOL    HW116712   5.701   1.512   0.311  1.9735 -0.3878 -1.7639
 5271SOL    HW216713   5.727   1.629   0.422 -1.4390 -0.0433 -1.2317
 5272SOL     OW16714   6.738   5.020   1.630  0.1345  0.0810 -0.3585
 5272SOL    HW116715   6.711   5.115   1.644 -1.1556 -0.3166 -0.0364
 5272SOL    HW216716   6.739   5.000   1.532  0.8789  0.5426 -0.4545
 5273SOL     OW16717   6.205   3.332   0.650  0.4307 -0.0068 -0.2864
 5273SOL    HW116718   6.139   3.395   0.608  1.8998  3.8192  2.6168
 5273SOL    HW216719   6.155   3.262   0.701 -1.5454  2.1051  0.9112
 5274SOL     OW16720   0.480   0.711   4.995 -0.3515  0.4470 -0.7506
 5274SOL    HW116721   0.438   0.795   4.961  0.2614  0.6627 -0.9965
 5274SOL    HW216722   0.506   0.653   4.918  0.4854  0.6656 -0.6532
 5275SOL     OW16723   6.810   1.474   0.118  0.5568  0.3745 -0.1983
 5275SOL    HW116724   6.766   1.541   0.177  0.5253 -0.4400  0.7336
 5275SOL    HW216725   6.899   1.509   0.088  0.2440  1.1059 -0.2856
 5276SOL     OW16726   1.214   5.372   5.185 -0.1363  0.2211 -0.0682
 5276SOL    HW116727   1.161   5.294   5.150 -1.8690  1.3960 -0.1878
 5276SOL    HW216728   1.174   5.457   5.152  1.9759  1.1800 -0.2811
 5277SOL     OW16729   2.476   3.708   1.717 -0.1766  0.5303 -0.0598
 5277SOL    HW116730   2.394   3.653   1.735 -1.1583  0.9020 -2.8617
 5277SOL    HW216731   2.557   3.657   1.745 -1.2536 -0.8106  0.7377
 5278SOL     OW16732   0.919   4.090   2.518 -0.3553  0.3967 -0.6378
 5278SOL    HW116733   0.988   4.018   2.529 -0.3373 -0.7672 -5.7974
 5278SOL    HW216734   0.832   4.048   2.491 -0.2253  2.1236 -4.2768
 5279SOL     OW16735   5.635   3.289   1.777 -0.7735  0.1903 -0.0317
 5279SOL    HW116736   5.684   3.338   1.850 -1.5808 -0.8916  1.2862
 5279SOL    HW216737   5.562   3.347   1.742 -1.2802  0.2073  1.0265
 5280SOL     OW16738   3.404   0.986   3.254  0.2082 -0.3363 -0.7177
 5280SOL    HW116739   3.356   1.065   3.216 -0.1748 -0.3498 -0.2622
 5280SOL    HW216740   3.387   0.980   3.352  1.0681 -0.3920 -0.5631
 5281SOL     OW16741   1.392   4.507   0.893  0.1581  0.1555 -0.5807
 5281SOL    HW116742   1.294   4.501   0.913  0.4043  1.3138  1.3108
 5281SOL    HW216743   1.410   4.474   0.801 -1.6890 -2.3288 -0.1676
 5282SOL     OW16744   4.525   1.493   5.239  0.3970  0.6166  0.3592
 5282SOL    HW116745   4.576   1.577   5.220  0.5886 -0.1247 -2.8916
 5282SOL    HW216746   4.458   1.478   5.167 -2.2488 -0.1722  2.8287
 5283SOL     OW16747   2.454   1.511   4.053  0.3826 -0.2870  0.2648
 5283SOL    HW116748   2.459   1.555   3.964  1.1453 -0.2196  0.3323
 5283SOL    HW216749   2.434   1.413   4.041  2.4993 -0.7347 -0.1367
 5284SOL     OW16750   6.712   6.033   5.821  0.0407  0.2022 -0.2063
 5284SOL    HW116751   6.670   6.090   5.892  0.4537 -1.1572  1.2048
 5284SOL    HW216752   6.736   6.090   5.742 -0.1466  1.8456  0.8617
 5285SOL     OW16753   3.122   6.835   1.349  0.4011  0.3797  0.3877
 5285SOL    HW116754   3.170   6.855   1.263  1.8946  0.8107  1.2882
 5285SOL    HW216755   3.035   6.790   1.328  0.2956  1.2847 -1.3871
 5286SOL     OW16756   6.275   5.808   2.579 -0.0553 -0.0128 -0.1483
 5286SOL    HW116757   6.196   5.854   2.538  0.0237 -1.1368 -1.6344
 5286SOL    HW216758   6.331   5.876   2.627 -0.6970  1.2020 -1.0461
 5287SOL     OW16759   2.979   5.106   1.852 -0.1238  0.5429 -0.1379
 5287SOL    HW116760   2.970   5.069   1.944  0.0987 -1.9170 -1.0346
 5287SOL    HW216761   3.006   5.033   1.789  2.6224  2.6849 -1.6959
 5288SOL     OW16762   0.518   0.246   7.011  0.3821 -0.3391 -0.0670
 5288SOL    HW116763   0.441   0.182   7.011 -1.3497  1.6098  1.2953
 5288SOL    HW216764   0.510   0.308   6.932  0.0770  0.3939  0.5343
 5289SOL     OW16765   6.987   5.811   0.070  0.1114  0.4300  0.4719
 5289SOL    HW116766   6.985   5.824   0.170  2.2990  0.1865  0.5960
 5289SOL    HW216767   6.987   5.714   0.049  0.0183  0.4766  0.2557
 5290SOL     OW16768   4.906   0.658   2.608  0.1465  0.4608  0.2914
 5290SOL    HW116769   4.868   0.575   2.649 -0.5786 -0.1399 -1.5004
 5290SOL    HW216770   4.996   0.639   2.571 -1.0118 -0.3294 -2.3827
 5291SOL     OW16771   6.973   6.400   5.068  0.3182  0.2214 -0.3736
 5291SOL    HW116772   6.874   6.382   5.070  0.5255 -0.8759  0.2677
 5291SOL    HW216773   7.001   6.418   4.974 -0.7106  1.8807 -0.4099
 5292SOL     OW16774   3.689   1.824   6.775 -0.0412 -0.5467  0.2637
 5292SOL    HW116775   3.730   1.771   6.849  1.4492 -0.6079 -0.5644
 5292SOL    HW216776   3.702   1.775   6.688  0.2827  0.5853 -0.3431
 5293SOL     OW16777   1.380   2.670   6.597 -0.1962  0.4119 -0.2491
 5293SOL    HW116778   1.381   2.663   6.697 -1.5552 -1.1986 -0.3082
 5293SOL    HW216779   1.289   2.698   6.567  0.2854  1.1615 -1.0509
 5294SOL     OW16780   0.801   1.052   5.129  0.4735  0.1474 -0.6077
 5294SOL    HW116781   0.723   1.078   5.185  2.1395  2.2156  0.9287
 5294SOL    HW216782   0.770   1.025   5.038 -2.0531  0.0939  0.2159
 5295SOL     OW16783   0.427   3.043   5.609 -0.2694  0.1788 -0.0752
 5295SOL    HW116784   0.378   3.018   5.525 -0.1009 -1.3091  0.2330
 5295SOL    HW216785   0.360   3.061   5.682 -0.3905  0.3791 -0.2330
 5296SOL     OW16786   5.697   5.915   6.040  0.3331  0.1315 -0.0200
 5296SOL    HW116787   5.793   5.943   6.049  0.5805 -1.2067  2.1640
 5296SOL    HW216788   5.684   5.868   5.953  0.9471  2.6998 -1.6375
 5297SOL     OW16789   1.206   6.493   1.006 -0.2088 -0.2867  0.2070
 5297SOL    HW116790   1.295   6.528   0.979 -0.3916  0.0159 -0.0161
 5297SOL    HW216791   1.180   6.533   1.094  0.4102 -1.3143  0.8697
 5298SOL     OW16792   6.925   2.274   5.460 -0.3336  0.1620  0.6006
 5298SOL    HW116793   6.844   2.241   5.507  1.2739 -0.8430  2.8289
 5298SOL    HW216794   7.005   2.220   5.488  1.3119  1.8111 -0.6476
 5299SOL     OW16795   6.308   1.028   1.603  0.3148 -0.0434 -0.2479
 5299SOL    HW116796   6.271   1.091   1.535  0.3919 -0.8658 -1.0639
 5299SOL    HW216797   6.353   1.080   1.676  0.1130  0.8471 -0.7502
 5300SOL     OW16798   2.209   3.927   2.960  0.1626 -0.4979  0.4977
 5300SOL    HW116799   2.290   3.903   2.908 -0.9789 -1.4332 -0.9073
 5300SOL    HW216800   2.135   3.952   2.898 -0.5273  0.7565  1.7553
 5301SOL     OW16801   4.537   2.825   0.016 -0.1235  1.4710  0.3261
 5301SOL    HW116802   4.617   2.774   0.048 -1.3900 -0.2835  0.8765
 5301SOL    HW216803   4.456   2.793   0.065 -1.4451  1.9202 -1.4810
 5302SOL     OW16804   0.424   6.261   6.058  0.2127  0.4118 -0.3110
 5302SOL    HW116805   0.388   6.180   6.105 -1.0418  0.8595 -0.4666
 5302SOL    HW216806   0.476   6.233   5.978 -0.1308 -0.2464 -0.3095
 5303SOL     OW16807   6.415   2.137   5.563  0.1695  0.2190  0.4733
 5303SOL    HW116808   6.358   2.187   5.628 -0.7100  0.2470 -0.2978
 5303SOL    HW216809   6.429   2.044   5.596 -0.3734  0.1946  0.6550
 5304SOL     OW16810   4.423   0.144   4.375  0.6724 -0.2171 -0.5538
 5304SOL    HW116811   4.468   0.170   4.461  0.2158 -0.5795 -0.1972
 5304SOL    HW216812   4.466   0.060   4.340  1.2287  0.2376 -0.9788
 5305SOL     OW16813   0.489   2.058   2.847 -0.2920 -0.2112  0.3165
 5305SOL    HW116814   0.415   2.050   2.779 -1.8610  0.2088  1.8917
 5305SOL    HW216815   0.520   2.153   2.851 -0.1434 -0.2521  0.1244
 5306SOL     OW16816   1.940   1.821   5.734  0.4333 -0.6158 -0.0780
 5306SOL    HW116817   2.008   1.894   5.739  0.2905 -0.5637  1.3893
 5306SOL    HW216818   1.899   1.819   5.642  0.0613  1.4847  0.0120
 5307SOL     OW16819   6.941   0.662   1.129  0.1711  0.0180 -0.0636
 5307SOL    HW116820   6.973   0.750   1.094 -0.0630 -0.9941 -3.0243
 5307SOL    HW216821   7.011   0.593   1.113 -0.3295 -0.6821  0.7019
 5308SOL     OW16822   6.067   4.107   1.762  0.7340  0.3579 -0.1642
 5308SOL    HW116823   6.084   4.205   1.774  2.5711 -0.1388  2.2529
 5308SOL    HW216824   6.143   4.067   1.710  2.1409 -0.3172  2.2375
 5309SOL     OW16825   2.160   3.940   4.685 -0.6589  0.3072  0.0421
 5309SOL    HW116826   2.108   3.965   4.604  0.0504  1.1553 -0.1727
 5309SOL    HW216827   2.174   4.021   4.742  0.7816  0.1969 -0.1221
 5310SOL     OW16828   4.866   6.711   2.092  0.8069 -0.1073  0.1826
 5310SOL    HW116829   4.784   6.764   2.075  2.4472  2.0991 -1.4908
 5310SOL    HW216830   4.881   6.702   2.191 -2.1245 -1.8540  0.5651
 5311SOL     OW16831   1.821   5.521   6.533  0.0468  0.2774 -0.2812
 5311SOL    HW116832   1.728   5.554   6.549 -0.0019 -0.6107  1.5478
 5311SOL    HW216833   1.825   5.422   6.550  1.4001  0.3689  0.0638
 5312SOL     OW16834   3.586   4.795   1.586 -0.0073  0.5193 -0.5755
 5312SOL    HW116835   3.506   4.773   1.531 -0.6114  0.6380  0.2450
 5312SOL    HW216836   3.578   4.751   1.676  0.1216  1.7433  0.0523
 5313SOL     OW16837   0.580   5.613   2.724  0.7669  0.3339  0.7417
 5313SOL    HW116838   0.678   5.634   2.725  0.4146  2.1421  0.1519
 5313SOL    HW216839   0.528   5.697   2.736 -0.7456 -0.4368 -0.1668
 5314SOL     OW16840   3.480   5.506   5.502  0.4738 -0.2403  0.2154
 5314SOL    HW116841   3.390   5.488   5.464  1.0190 -1.0705 -0.7544
 5314SOL    HW216842   3.484   5.599   5.539 -0.3564  0.2918 -0.9923
 5315SOL     OW16843   4.567   6.117   4.701  0.0850  0.1355  0.1763
 5315SOL    HW116844   4.584   6.139   4.797  3.3724 -1.8097  0.1911
 5315SOL    HW216845   4.582   6.199   4.645 -0.6722  0.9921  1.1794
 5316SOL     OW16846   0.111   0.549   5.931  0.3550  0.2341  1.0058
 5316SOL    HW116847   0.129   0.465   5.983  1.4708 -0.7071 -0.8137
 5316SOL    HW216848   0.122   0.531   5.833  0.6235  2.5109  0.5625
 5317SOL     OW16849   0.584   5.087   3.674 -0.2203  0.3993 -0.1349
 5317SOL    HW116850   0.605   5.105   3.578  1.2063 -0.4785 -0.0228
 5317SOL    HW216851   0.573   4.988   3.688 -0.0088  0.4826  0.6708
 5318SOL     OW16852   4.065   5.176   0.106 -0.2993  0.1802  0.0331
 5318SOL    HW116853   4.155   5.203   0.070  0.7087 -2.6523  0.2007
 5318SOL    HW216854   4.058   5.202   0.202  0.4212  0.2560  0.0704
 5319SOL     OW16855   4.722   4.166   2.919 -0.3997 -0.5422  0.3980
 5319SOL    HW116856   4.789   4.095   2.899 -1.0269 -1.6044  1.8470
 5319SOL    HW216857   4.710   4.224   2.839  0.8021 -1.5128 -0.5296
 5320SOL     OW16858   1.334   3.942   4.256 -0.1919  0.0264  0.2923
 5320SOL    HW116859   1.372   4.019   4.203  0.3577 -0.5991 -0.2508
 5320SOL    HW216860   1.409   3.882   4.284 -0.6880 -0.7109  0.0591
 5321SOL     OW16861   1.852   5.746   6.342 -0.5420  0.4567  0.0858
 5321SOL    HW116862   1.878   5.651   6.322  0.9803  1.1187 -1.3283
 5321SOL    HW216863   1.783   5.775   6.276 -0.4985  0.5499  0.0820
 5322SOL     OW16864   5.081   6.263   6.995  0.3664  0.5737  0.3361
 5322SOL    HW116865   5.133   6.207   7.059  0.4932  0.1376 -0.1348
 5322SOL    HW216866   5.122   6.255   6.904  0.4260  1.4953  0.2749
 5323SOL     OW16867   2.104   0.817   0.950  0.1284 -0.0026 -0.1821
 5323SOL    HW116868   2.094   0.869   0.866 -0.3465  0.0644 -0.0899
 5323SOL    HW216869   2.161   0.868   1.014 -1.2937  0.9882  0.3566
 5324SOL     OW16870   1.682   4.566   4.578 -0.4924 -0.0105 -0.2892
 5324SOL    HW116871   1.611   4.568   4.649  0.3452  0.1548  0.5698
 5324SOL    HW216872   1.688   4.656   4.534  0.1974  0.4563  0.6992
 5325SOL     OW16873   4.749   2.495   5.725  0.0807  0.1247 -0.1120
 5325SOL    HW116874   4.715   2.401   5.718  0.5236  0.0482 -1.5783
 5325SOL    HW216875   4.849   2.494   5.716  0.2641  0.5968  1.5560
 5326SOL     OW16876   3.196   2.595   5.870  0.1283 -0.6151 -0.2659
 5326SOL    HW116877   3.215   2.497   5.878 -1.7101 -0.9815  0.0126
 5326SOL    HW216878   3.128   2.610   5.799  0.6587  0.5198 -0.5587
 5327SOL     OW16879   1.307   2.157   2.108  0.3568  0.4953 -0.1739
 5327SOL    HW116880   1.359   2.221   2.166  0.2065  0.2610  0.2240
 5327SOL    HW216881   1.209   2.171   2.124  0.2794 -2.1276  2.5369
 5328SOL     OW16882   5.238   4.463   3.991  0.0244 -0.1940 -0.3083
 5328SOL    HW116883   5.214   4.554   4.023 -0.1504  0.0219 -1.0402
 5328SOL    HW216884   5.262   4.405   4.070 -2.2733 -0.2545  0.4111
 5329SOL     OW16885   1.422   2.072   2.447  0.2377  0.4176 -0.8402
 5329SOL    HW116886   1.385   2.139   2.512 -0.5951  0.0920 -0.9577
 5329SOL    HW216887   1.346   2.027   2.400  0.7469 -1.0529 -0.3184
 5330SOL     OW16888   2.007   3.484   4.842  0.2181 -0.2941  0.4466
 5330SOL    HW116889   2.027   3.582   4.844 -0.7215 -0.0534 -0.5326
 5330SOL    HW216890   1.969   3.456   4.930 -1.0574  0.5945  0.2117
 5331SOL     OW16891   5.144   1.385   3.403 -0.1169  0.0110  0.2617
 5331SOL    HW116892   5.242   1.383   3.387  0.0872 -0.1879  1.4208
 5331SOL    HW216893   5.117   1.474   3.440 -0.6340  0.6040 -1.4520
 5332SOL     OW16894   6.602   0.245   2.599 -0.8574 -0.0301  0.1373
 5332SOL    HW116895   6.504   0.246   2.579 -0.4619  0.5344 -1.9427
 5332SOL    HW216896   6.648   0.318   2.548  0.7262 -0.5790  0.7165
 5333SOL     OW16897   6.871   4.402   1.728 -1.1647 -0.0771  0.2862
 5333SOL    HW116898   6.795   4.430   1.785 -1.0148  2.5130 -0.6705
 5333SOL    HW216899   6.879   4.463   1.649  0.9595 -1.2157 -0.4813
 5334SOL     OW16900   5.234   6.231   5.107  0.0834 -0.0630  0.1754
 5334SOL    HW116901   5.163   6.283   5.155 -1.4507  0.2212 -2.2442
 5334SOL    HW216902   5.312   6.291   5.089 -0.6838  0.7788 -0.4899
 5335SOL     OW16903   6.662   3.635   4.319  0.2874  0.2719 -0.1135
 5335SOL    HW116904   6.566   3.605   4.320  0.4196 -0.1832 -0.4337
 5335SOL    HW216905   6.717   3.565   4.274  0.5131  1.2781 -1.4831
 5336SOL     OW16906   3.296   1.212   3.118 -0.3283 -0.2317  0.0648
 5336SOL    HW116907   3.219   1.189   3.058  0.7759 -2.6340 -0.5248
 5336SOL    HW216908   3.381   1.208   3.066  0.3399  1.4488  0.9484
 5337SOL     OW16909   4.715   1.465   1.469  0.6037 -0.1473  0.0937
 5337SOL    HW116910   4.695   1.396   1.538  3.0392 -0.2437  0.8006
 5337SOL    HW216911   4.715   1.556   1.512 -0.9552  0.1717 -0.4933
 5338SOL     OW16912   4.370   5.740   5.221  0.2265 -0.1348 -0.1512
 5338SOL    HW116913   4.415   5.829   5.211 -0.1324  0.0413 -0.2160
 5338SOL    HW216914   4.368   5.693   5.133 -0.9735  0.4707 -0.4716
 5339SOL     OW16915   4.837   6.867   0.935  0.2396  0.2854 -0.2185
 5339SOL    HW116916   4.891   6.782   0.930 -0.8197 -0.3644 -3.2350
 5339SOL    HW216917   4.899   6.945   0.945  1.7293 -0.5446 -2.1332
 5340SOL     OW16918   6.497   6.970   3.390  0.0890  0.1312  0.0105
 5340SOL    HW116919   6.486   6.902   3.463 -1.0347 -0.3676 -0.5857
 5340SOL    HW216920   6.583   6.953   3.341  0.1866 -0.3860  0.3499
 5341SOL     OW16921   3.845   4.146   6.237 -0.2100 -0.4154 -0.1034
 5341SOL    HW116922   3.919   4.143   6.303 -0.0634  0.6506 -0.2047
 5341SOL    HW216923   3.761   4.111   6.278  0.4738 -2.2503 -0.1853
 5342SOL     OW16924   3.679   4.072   0.583  0.1634  0.1485 -0.1909
 5342SOL    HW116925   3.683   3.975   0.562 -0.1880  0.4350 -1.6477
 5342SOL    HW216926   3.634   4.085   0.672 -1.9437 -0.9073 -1.0450
 5343SOL     OW16927   6.263   4.699   4.543 -0.2598  0.0949  0.0249
 5343SOL    HW116928   6.260   4.616   4.599  1.3109 -0.0905 -0.0946
 5343SOL    HW216929   6.206   4.770   4.585 -1.5701 -1.0075  0.1641
 5344SOL     OW16930   4.604   2.911   5.648  0.1484 -0.1161  0.2714
 5344SOL    HW116931   4.607   2.883   5.744  0.4461  1.5583  0.7889
 5344SOL    HW216932   4.698   2.915   5.612  0.0945 -0.0349  0.1391
 5345SOL     OW16933   2.237   6.766   4.979  0.3854 -0.0068 -0.0496
 5345SOL    HW116934   2.235   6.751   5.078 -0.5961 -3.6525 -0.4692
 5345SOL    HW216935   2.146   6.792   4.948  0.2567 -0.6083 -0.1821
 5346SOL     OW16936   3.854   0.122   1.306 -0.7058 -0.4661 -0.2671
 5346SOL    HW116937   3.826   0.070   1.386 -1.9329 -0.8655 -0.9213
 5346SOL    HW216938   3.791   0.199   1.292  0.2712  0.3801 -0.1050
 5347SOL     OW16939   3.374   1.873   6.742 -0.2488  0.1649  0.0957
 5347SOL    HW116940   3.404   1.778   6.742 -0.7901 -0.0251 -1.5510
 5347SOL    HW216941   3.443   1.930   6.698 -0.0985  0.4819  0.7348
 5348SOL     OW16942   1.560   3.674   2.700  0.7099  0.1659 -0.9806
 5348SOL    HW116943   1.466   3.709   2.693  0.2349 -0.9122 -0.2658
 5348SOL    HW216944   1.613   3.708   2.623 -0.3583  0.5095 -1.5949
 5349SOL     OW16945   3.047   0.832   0.209 -0.2149  0.7837  0.1698
 5349SOL    HW116946   2.980   0.905   0.224 -0.7551  0.4486 -0.5656
 5349SOL    HW216947   3.056   0.778   0.292 -1.0382  0.6930  0.2100
 5350SOL     OW16948   0.155   2.435   0.355  0.2545 -0.4413 -0.4127
 5350SOL    HW116949   0.105   2.477   0.431  0.6371  0.6181 -0.7161
 5350SOL    HW216950   0.100   2.363   0.314 -1.3373  1.1336 -1.1720
 5351SOL     OW16951   3.909   1.305   3.589  0.1547 -0.0037  0.4954
 5351SOL    HW116952   3.907   1.388   3.532 -0.5224  0.9139  1.8075
 5351SOL    HW216953   3.954   1.232   3.538  0.1771  0.9646 -0.9648
 5352SOL     OW16954   3.666   6.680   2.982 -0.6766 -0.1824  0.3384
 5352SOL    HW116955   3.568   6.696   2.972 -0.3819  1.0951 -0.8507
 5352SOL    HW216956   3.695   6.708   3.073 -1.1798  0.7874  0.2144
 5353SOL     OW16957   1.593   6.751   3.087  0.0274 -0.3007  0.2109
 5353SOL    HW116958   1.542   6.837   3.089 -0.1080 -0.3831  2.4196
 5353SOL    HW216959   1.547   6.688   3.024 -0.5317  0.8286 -0.5614
 5354SOL     OW16960   3.596   5.699   6.052  0.1768  0.2975 -0.3392
 5354SOL    HW116961   3.560   5.734   6.139  0.0662 -0.7371  0.0462
 5354SOL    HW216962   3.648   5.771   6.006 -2.1275  1.7750 -0.7992
 5355SOL     OW16963   6.530   6.939   4.603 -0.3290  0.6837  0.4889
 5355SOL    HW116964   6.507   6.849   4.567  1.0233  0.8492 -0.9112
 5355SOL    HW216965   6.457   6.970   4.664 -0.3100 -1.7944  1.9033
 5356SOL     OW16966   3.582   6.267   2.762  0.3842  0.0740  0.0988
 5356SOL    HW116967   3.601   6.211   2.682  2.2129 -1.8834  1.7692
 5356SOL    HW216968   3.653   6.253   2.830 -0.6179  2.3430  1.7613
 5357SOL     OW16969   0.825   4.373   1.857  0.3189 -0.3330 -0.0443
 5357SOL    HW116970   0.766   4.402   1.781 -0.0567  0.6118  0.5990
 5357SOL    HW216971   0.812   4.275   1.873 -2.1815  0.0913  1.0019
 5358SOL     OW16972   4.565   2.523   6.417  0.6176  0.0236 -0.3974
 5358SOL    HW116973   4.614   2.470   6.348 -1.0666 -1.1307 -0.7582
 5358SOL    HW216974   4.476   2.551   6.381  0.7358  1.6236  0.4232
 5359SOL     OW16975   3.405   6.308   2.153  0.0392  0.2578 -0.1385
 5359SOL    HW116976   3.469   6.252   2.101 -0.2680  0.1233 -0.3722
 5359SOL    HW216977   3.334   6.343   2.092  0.0730  0.6798  0.0555
 5360SOL     OW16978   5.764   3.833   4.054 -0.3146  0.1073 -0.3509
 5360SOL    HW116979   5.826   3.755   4.048  1.2737  0.8538  3.4979
 5360SOL    HW216980   5.816   3.918   4.043 -1.7671  0.7829 -2.9405
 5361SOL     OW16981   4.982   3.473   3.661  0.5590 -0.0978 -0.2011
 5361SOL    HW116982   4.993   3.556   3.607  1.8481  0.4848  0.9063
 5361SOL    HW216983   5.071   3.441   3.692 -0.0354 -1.1553  0.4951
 5362SOL     OW16984   0.308   1.042   1.507 -0.8197  0.2756  0.2351
 5362SOL    HW116985   0.396   0.997   1.499 -1.4511 -1.0741  0.6064
 5362SOL    HW216986   0.318   1.140   1.487  0.4257 -0.1669 -1.5267
 5363SOL     OW16987   0.336   0.735   0.627  0.3729  0.1239  0.0473
 5363SOL    HW116988   0.240   0.748   0.603  0.2030 -0.8893  0.1412
 5363SOL    HW216989   0.356   0.782   0.713  0.0097  0.4839 -0.0602
 5364SOL     OW16990   4.215   1.582   1.153  0.2292 -0.1686 -0.4701
 5364SOL    HW116991   4.179   1.489   1.148 -2.9888  0.8421  1.3466
 5364SOL    HW216992   4.148   1.646   1.116  2.3162  1.5392 -1.5711
 5365SOL     OW16993   1.486   0.894   3.018  0.0023  0.2433  0.2078
 5365SOL    HW116994   1.398   0.929   3.051  0.1796  0.2680  0.6545
 5365SOL    HW216995   1.517   0.819   3.076  0.9448  1.1412  0.8927
 5366SOL     OW16996   4.092   5.989   2.371  0.1096 -0.2947  0.1772
 5366SOL    HW116997   4.018   5.995   2.438 -2.4037 -0.4314 -2.3885
 5366SOL    HW216998   4.118   5.894   2.358  0.4953 -0.2820  0.8282
 5367SOL     OW16999   1.725   0.065   2.963 -0.1710 -0.6280  0.4281
 5367SOL    HW117000   1.629   0.089   2.981 -0.3706 -1.2034  0.1498
 5367SOL    HW217001   1.737   0.049   2.865  0.6709  1.4487  0.1300
 5368SOL     OW17002   0.306   5.475   2.275 -0.4158 -0.0288  0.2587
 5368SOL    HW117003   0.331   5.532   2.197  0.1184 -1.2692 -0.5182
 5368SOL    HW217004   0.340   5.382   2.260 -1.3493 -0.5860  1.4332
 5369SOL     OW17005   3.858   4.543   0.194  0.2804  0.2334 -0.0260
 5369SOL    HW117006   3.898   4.481   0.262  1.9341 -0.5398 -1.6233
 5369SOL    HW217007   3.930   4.579   0.135 -1.1548  0.2988 -1.8326
 5370SOL     OW17008   3.806   1.778   3.379 -0.2403 -0.1011  0.1946
 5370SOL    HW117009   3.846   1.843   3.444 -0.1267 -0.5320  0.5525
 5370SOL    HW217010   3.712   1.805   3.359 -0.9001 -1.0135  1.9585
 5371SOL     OW17011   0.785   5.758   2.105  0.3674 -0.0380  0.1855
 5371SOL    HW117012   0.802   5.663   2.081  1.7346  0.3948 -0.7279
 5371SOL    HW217013   0.781   5.767   2.204  0.7012 -0.9733  0.2964
 5372SOL     OW17014   0.243   0.043   3.320 -0.0838 -0.4002 -0.0786
 5372SOL    HW117015   0.151   0.081   3.309 -0.4744 -0.6539  1.9043
 5372SOL    HW217016   0.236  -0.053   3.347  0.8497 -1.2499 -2.5747
 5373SOL     OW17017   2.104   3.579   0.901  0.4166 -0.0319  0.1934
 5373SOL    HW117018   2.075   3.486   0.924  0.9197 -0.0678  0.7329
 5373SOL    HW217019   2.198   3.593   0.932  0.2562  0.7429  0.3714
 5374SOL     OW17020   0.625   2.881   1.346 -0.0421  0.4210 -0.0170
 5374SOL    HW117021   0.548   2.902   1.285  0.2557  1.6410  0.0097
 5374SOL    HW217022   0.675   2.965   1.367 -0.3130  0.0976  2.1718
 5375SOL     OW17023   0.862   0.857   5.340 -0.2994  0.2580 -0.0855
 5375SOL    HW117024   0.900   0.784   5.282 -2.4143 -0.5141 -0.6039
 5375SOL    HW217025   0.836   0.934   5.282 -1.1140  0.0570  0.0015
 5376SOL     OW17026   6.752   5.486   4.897 -0.3014  0.7805 -0.4543
 5376SOL    HW117027   6.736   5.584   4.912  0.1511  0.6680  0.8329
 5376SOL    HW217028   6.678   5.433   4.937  0.4701  0.5152  0.6554
 5377SOL     OW17029   6.489   4.017   0.997  0.6658 -0.3439 -0.0559
 5377SOL    HW117030   6.392   4.023   1.019  0.4908  1.1515 -1.0533
 5377SOL    HW217031   6.540   4.085   1.049  1.3622 -1.7612  1.1894
 5378SOL     OW17032   3.560   2.869   5.988  0.2116 -0.1444  0.0967
 5378SOL    HW117033   3.560   2.770   5.974 -2.7405 -0.1413 -0.6844
 5378SOL    HW217034   3.550   2.890   6.085 -1.6753 -0.7110  0.0528
 5379SOL     OW17035   0.712   5.963   5.841  0.5841  0.2729 -0.2530
 5379SOL    HW117036   0.725   5.883   5.782  1.2269 -1.0255  1.5604
 5379SOL    HW217037   0.760   6.041   5.802  1.4674 -0.6867 -1.1589
 5380SOL     OW17038   4.499   3.805   1.153 -0.0205 -0.5311 -0.5448
 5380SOL    HW117039   4.441   3.886   1.158  0.5293 -0.1208 -0.7152
 5380SOL    HW217040   4.442   3.723   1.159 -0.4912 -0.1386  0.6387
 5381SOL     OW17041   0.068   4.310   5.984 -0.2125 -0.3937  0.3299
 5381SOL    HW117042   0.010   4.350   5.914  0.4334  1.2646  0.6803
 5381SOL    HW217043   0.152   4.276   5.942 -0.8900 -1.7032 -0.0122
 5382SOL     OW17044   4.230   6.129   6.510  0.1020 -0.1351 -0.0386
 5382SOL    HW117045   4.211   6.031   6.502 -0.6202  0.1282 -2.1700
 5382SOL    HW217046   4.329   6.144   6.514  0.2182 -1.0264  2.6552
 5383SOL     OW17047   2.079   0.904   4.721  0.1989 -0.7320 -0.1251
 5383SOL    HW117048   2.114   0.850   4.797  1.7791  0.0333 -0.2850
 5383SOL    HW217049   2.154   0.934   4.664 -0.8785 -0.3938 -1.4104
 5384SOL     OW17050   4.236   1.565   5.355 -0.3950 -0.6798  0.4850
 5384SOL    HW117051   4.304   1.627   5.316 -0.1092 -0.9564  0.5362
 5384SOL    HW217052   4.277   1.512   5.429 -1.1652  0.4337  1.7460
 5385SOL     OW17053   3.807   4.096   4.164 -0.0012 -0.8115  0.3591
 5385SOL    HW117054   3.777   4.157   4.091 -0.4576 -0.7716  0.5739
 5385SOL    HW217055   3.857   4.019   4.125  0.6514 -0.2602  0.0955
 5386SOL     OW17056   1.027   2.477   2.756  0.2627  0.5983 -0.3191
 5386SOL    HW117057   0.963   2.542   2.714  1.9785  2.4677 -0.1719
 5386SOL    HW217058   1.002   2.464   2.852 -1.0614 -0.2851 -0.7509
 5387SOL     OW17059   2.968   3.785   0.518  0.1211  0.0241 -0.1346
 5387SOL    HW117060   2.978   3.850   0.442  2.3620  2.0488  1.7176
 5387SOL    HW217061   2.872   3.774   0.540 -0.5586 -0.2176 -2.8616
 5388SOL     OW17062   1.842   1.657   6.803 -0.1664 -0.0190 -0.1347
 5388SOL    HW117063   1.880   1.681   6.892 -0.7092  1.0105 -0.1685
 5388SOL    HW217064   1.769   1.720   6.780 -0.7277 -0.9098 -0.8567
 5389SOL     OW17065   1.097   4.114   3.868 -0.4610 -0.0730 -0.2695
 5389SOL    HW117066   1.189   4.093   3.900  0.5715  2.6518 -1.1645
 5389SOL    HW217067   1.075   4.056   3.790  0.2006 -1.1967  0.3492
 5390SOL     OW17068   3.298   2.079   2.197 -0.5505  0.0199 -0.6249
 5390SOL    HW117069   3.212   2.096   2.245 -1.5314  0.6367 -2.4803
 5390SOL    HW217070   3.333   2.166   2.160  1.1659 -0.1375  0.5029
 5391SOL     OW17071   0.508   2.125   6.856 -0.2375 -0.1843  0.0979
 5391SOL    HW117072   0.423   2.173   6.835 -0.8223 -0.7977  1.0279
 5391SOL    HW217073   0.497   2.070   6.938  0.9088 -0.6731 -0.0479
 5392SOL     OW17074   4.415   6.867   0.706 -0.3100  0.3906 -0.2341
 5392SOL    HW117075   4.395   6.893   0.612  0.8546  0.9577 -0.3408
 5392SOL    HW217076   4.504   6.903   0.733 -0.8289  0.6653  1.2587
 5393SOL     OW17077   3.731   2.102   2.748 -0.0143 -0.1403  0.8975
 5393SOL    HW117078   3.762   2.021   2.699  1.5325  0.3980  0.9352
 5393SOL    HW217079   3.760   2.184   2.699 -0.5324  0.3971  1.4749
 5394SOL     OW17080   0.884   2.994   3.543 -0.2026 -0.1318 -0.0137
 5394SOL    HW117081   0.824   2.989   3.623 -0.5292 -0.2884 -0.2656
 5394SOL    HW217082   0.835   3.036   3.467  0.4726  1.0799  0.1946
 5395SOL     OW17083   1.034   1.981   5.253 -0.0412  0.1463  0.0391
 5395SOL    HW117084   1.096   1.914   5.294  0.9325 -0.9100 -2.8831
 5395SOL    HW217085   0.946   1.938   5.234 -0.5720  0.6977  1.1830
 5396SOL     OW17086   5.912   1.060   2.256  0.5847 -0.0252 -0.4174
 5396SOL    HW117087   5.891   0.975   2.208 -1.1006  0.1396 -0.0596
 5396SOL    HW217088   6.009   1.083   2.245  0.9438 -1.7050 -0.9534
 5397SOL     OW17089   3.606   2.026   0.309 -0.0679 -0.4138  0.8838
 5397SOL    HW117090   3.572   2.118   0.291  1.2182  0.2882  1.8728
 5397SOL    HW217091   3.541   1.959   0.273  0.2243  0.8163 -2.2780
 5398SOL     OW17092   3.554   2.623   0.834 -0.2477 -0.3935  0.3440
 5398SOL    HW117093   3.455   2.630   0.847 -0.2264 -0.0297  0.3272
 5398SOL    HW217094   3.601   2.661   0.913 -0.1197 -0.6225  0.3791
 5399SOL     OW17095   4.098   6.952   5.838 -0.0367 -0.4487 -0.1327
 5399SOL    HW117096   4.195   6.956   5.865  0.0933  4.1619 -0.5240
 5399SOL    HW217097   4.041   6.962   5.919 -0.1103 -0.4773 -0.1813
 5400SOL     OW17098   6.494   3.135   3.749 -0.0743 -0.0042  0.1657
 5400SOL    HW117099   6.440   3.205   3.795  1.1867  2.0573 -1.3383
 5400SOL    HW217100   6.446   3.107   3.665  0.1242  0.1354  0.0069
 5401SOL     OW17101   6.039   4.473   4.413 -0.9431  0.4142 -0.2405
 5401SOL    HW117102   5.979   4.417   4.470 -1.0632 -0.5325 -1.2705
 5401SOL    HW217103   6.134   4.457   4.440 -0.9421 -0.6672 -0.8261
 5402SOL     OW17104   0.533   0.257   6.168  0.2434 -0.1577 -0.4485
 5402SOL    HW117105   0.617   0.204   6.177  0.5818  0.3723 -0.4393
 5402SOL    HW217106   0.459   0.211   6.216  0.4809 -0.7324 -0.6290
 5403SOL     OW17107   5.720   2.216   3.129  0.4622  0.0698 -0.1454
 5403SOL    HW117108   5.743   2.257   3.041  1.2127 -0.0851 -0.0223
 5403SOL    HW217109   5.756   2.123   3.134 -1.2856 -0.6584 -0.4426
 5404SOL     OW17110   0.159   5.779   3.942 -0.0178 -0.4231  0.4162
 5404SOL    HW117111   0.211   5.695   3.932  0.0268 -0.4233  0.6556
 5404SOL    HW217112   0.152   5.824   3.853  0.1204 -0.5828  0.3241
 5405SOL     OW17113   6.080   4.160   2.650  0.3380  0.6877  0.6416
 5405SOL    HW117114   6.022   4.084   2.680  1.1786  0.1749  0.9924
 5405SOL    HW217115   6.157   4.172   2.713  3.3739 -1.7784 -2.2059
 5406SOL     OW17116   3.643   1.128   0.979  0.0949  0.6677  0.2082
 5406SOL    HW117117   3.625   1.047   1.035  1.3501  1.4227  1.8104
 5406SOL    HW217118   3.618   1.110   0.884 -2.4102 -0.5843  1.0184
 5407SOL     OW17119   5.411   0.434   4.941  0.0028 -0.4219  0.9457
 5407SOL    HW117120   5.510   0.427   4.947  0.0632  0.5128  1.0967
 5407SOL    HW217121   5.371   0.342   4.941  0.8934 -0.8170  0.2996
 5408SOL     OW17122   2.466   6.388   6.225 -0.5447  0.2230 -0.1836
 5408SOL    HW117123   2.478   6.481   6.191  1.7546 -0.4142 -1.3724
 5408SOL    HW217124   2.414   6.335   6.158 -0.9476  0.3762  0.0041
 5409SOL     OW17125   3.112   0.301   3.169  0.4455 -0.6453  0.1376
 5409SOL    HW117126   3.078   0.326   3.259 -0.5484  0.5311 -0.5202
 5409SOL    HW217127   3.145   0.384   3.123  1.8221 -1.3789 -0.2250
 5410SOL     OW17128   6.607   0.256   0.683 -0.1620 -0.0267 -0.1344
 5410SOL    HW117129   6.647   0.254   0.774  1.4659 -0.4526 -0.8269
 5410SOL    HW217130   6.593   0.350   0.654  1.1520  0.1632 -0.1975
 5411SOL     OW17131   4.860   2.898   2.815  0.0918 -0.7039  0.1402
 5411SOL    HW117132   4.770   2.855   2.805  0.3852 -1.3936  0.4225
 5411SOL    HW217133   4.912   2.851   2.887  0.1902  0.5150  0.8819
 5412SOL     OW17134   4.665   6.980   0.748  0.2319 -0.1694 -0.1100
 5412SOL    HW117135   4.730   6.975   0.672  0.5788 -2.1136  0.2402
 5412SOL    HW217136   4.708   6.941   0.830 -0.7978  0.1233  0.5839
 5413SOL     OW17137   0.364   6.122   1.762  0.1955 -0.4764  0.0728
 5413SOL    HW117138   0.411   6.148   1.677 -0.0320 -2.4510 -0.7270
 5413SOL    HW217139   0.340   6.204   1.813  2.0311  0.7001 -0.8370
 5414SOL     OW17140   6.830   0.301   0.532  0.8849 -0.1074  0.8722
 5414SOL    HW117141   6.875   0.390   0.542  0.8747 -0.1668  1.4671
 5414SOL    HW217142   6.746   0.300   0.587 -0.7551  0.5858 -1.4429
 5415SOL     OW17143   0.073   3.745   1.926 -0.2040  0.0466  0.3696
 5415SOL    HW117144   0.008   3.695   1.868 -0.7073  0.7393  0.3206
 5415SOL    HW217145   0.155   3.765   1.873 -1.1843  1.8509 -0.5953
 5416SOL     OW17146   1.721   4.559   1.886  0.2001 -0.3673 -0.0510
 5416SOL    HW117147   1.684   4.647   1.916  0.3803  0.2604 -1.5639
 5416SOL    HW217148   1.777   4.573   1.804 -0.5162 -2.0005 -0.8614
 5417SOL     OW17149   4.515   2.196   3.521  0.0505  0.5322 -0.3071
 5417SOL    HW117150   4.590   2.135   3.493 -0.4659  0.2820 -1.1856
 5417SOL    HW217151   4.428   2.158   3.490 -0.2001  2.2561 -1.8954
 5418SOL     OW17152   6.493   5.860   4.401 -0.2544 -0.6839  0.2184
 5418SOL    HW117153   6.479   5.821   4.492  0.7593  0.9295  1.1091
 5418SOL    HW217154   6.584   5.899   4.395 -0.7092  0.2554 -1.1113
 5419SOL     OW17155   1.965   5.076   3.731  0.2257  0.1044  0.1560
 5419SOL    HW117156   2.031   5.026   3.787  0.6107  0.3505 -0.0733
 5419SOL    HW217157   1.955   5.169   3.768  0.3578  0.2140 -0.0818
 5420SOL     OW17158   5.546   4.947   3.122  0.2023 -0.5612  0.5567
 5420SOL    HW117159   5.619   5.015   3.113  0.7089 -1.2317 -0.6711
 5420SOL    HW217160   5.518   4.916   3.031 -1.0743 -0.8990  1.0407
 5421SOL     OW17161   2.246   1.229   0.051  0.5994 -0.0662 -0.3431
 5421SOL    HW117162   2.188   1.252  -0.026  0.6177 -1.2798 -0.7328
 5421SOL    HW217163   2.196   1.171   0.115  0.9018  0.1140  0.0620
 5422SOL     OW17164   6.663   3.558   6.094  0.3415 -0.2219 -0.2454
 5422SOL    HW117165   6.746   3.590   6.047 -0.0046 -0.2717 -0.8927
 5422SOL    HW217166   6.641   3.621   6.169  0.9643 -0.2094 -0.0664
 5423SOL     OW17167   2.986   3.729   2.293  0.0252  0.4524  0.4674
 5423SOL    HW117168   3.053   3.785   2.244 -1.4527  0.9518 -1.0639
 5423SOL    HW217169   2.934   3.787   2.356 -0.2711  0.4432  0.2314
 5424SOL     OW17170   4.438   2.474   2.756  0.3978 -0.6379  0.1469
 5424SOL    HW117171   4.381   2.446   2.833  1.2403  0.9980  1.4419
 5424SOL    HW217172   4.403   2.434   2.672 -0.0395 -3.2201  1.4611
 5425SOL     OW17173   5.145   5.917   4.548 -0.1912  0.1686 -0.3300
 5425SOL    HW117174   5.176   5.925   4.643  0.0484 -3.6033  0.0395
 5425SOL    HW217175   5.046   5.915   4.545 -0.2866  2.2192 -0.4713
 5426SOL     OW17176   2.132   0.393   5.477 -0.2820 -0.5735  0.0978
 5426SOL    HW117177   2.158   0.321   5.543  0.5809 -0.1844  0.1892
 5426SOL    HW217178   2.213   0.429   5.433 -0.7493  0.0632 -0.2610
 5427SOL     OW17179   6.632   1.084   5.612  0.3452 -0.0517  0.3422
 5427SOL    HW117180   6.654   1.170   5.566 -0.2883  0.3549  0.7901
 5427SOL    HW217181   6.567   1.032   5.557  0.6320 -0.1876  0.1312
 5428SOL     OW17182   6.248   6.196   3.928  0.3042 -0.2093  0.3642
 5428SOL    HW117183   6.294   6.112   3.956 -1.0516 -0.9097  0.5825
 5428SOL    HW217184   6.173   6.216   3.991 -0.8018 -0.0639 -0.9521
 5429SOL     OW17185   6.705   0.099   5.615  0.3941  0.1495 -0.1663
 5429SOL    HW117186   6.698   0.184   5.563 -0.6097 -0.6777 -1.4199
 5429SOL    HW217187   6.628   0.039   5.593  0.6702 -0.7856  1.2720
 5430SOL     OW17188   4.388   1.799   5.307 -0.6618 -0.1706 -0.2039
 5430SOL    HW117189   4.376   1.896   5.290  1.2191 -0.0761 -1.2569
 5430SOL    HW217190   4.473   1.783   5.356 -1.4947 -1.2323  0.9841
 5431SOL     OW17191   1.675   2.221   6.892  0.2930 -0.3212 -0.0118
 5431SOL    HW117192   1.632   2.262   6.972  0.3850 -1.7301  0.7956
 5431SOL    HW217193   1.724   2.138   6.920  3.2816  0.9816 -0.9039
 5432SOL     OW17194   2.989   4.291   6.521 -0.2434 -0.0943  0.4466
 5432SOL    HW117195   3.010   4.306   6.424  0.5147  1.9504  0.8594
 5432SOL    HW217196   2.890   4.293   6.535 -0.3224  1.0215 -0.1262
 5433SOL     OW17197   4.446   0.689   1.467 -0.3894  0.2600  0.3624
 5433SOL    HW117198   4.525   0.674   1.526 -1.2284 -0.4684  1.3252
 5433SOL    HW217199   4.476   0.692   1.372  1.3559  3.7962  0.8519
 5434SOL     OW17200   1.332   6.189   0.646 -0.4874 -0.1519 -0.6798
 5434SOL    HW117201   1.378   6.155   0.729 -2.1963 -0.0924  0.3373
 5434SOL    HW217202   1.346   6.288   0.639 -2.5998  0.3696  1.1482
 5435SOL     OW17203   5.283   5.589   4.661 -0.2601 -0.2227  0.8569
 5435SOL    HW117204   5.295   5.490   4.655  0.6498 -0.0237 -2.2280
 5435SOL    HW217205   5.187   5.610   4.679 -1.1267 -1.7074 -1.5437
 5436SOL     OW17206   0.029   5.776   5.805 -0.1407  0.4244 -0.3827
 5436SOL    HW117207   0.078   5.689   5.807 -1.9238 -0.5999  1.8405
 5436SOL    HW217208   0.090   5.849   5.836  0.7753 -0.3391 -0.3477
 5437SOL     OW17209   6.893   6.279   1.364 -0.4381  0.9117  0.4167
 5437SOL    HW117210   6.840   6.196   1.379 -0.8389  1.5277  2.8978
 5437SOL    HW217211   6.990   6.260   1.384  0.2768  0.0452 -3.1488
 5438SOL     OW17212   0.569   0.532   4.301  0.2313  0.4533  0.3728
 5438SOL    HW117213   0.483   0.491   4.273  0.1060  1.3799 -0.7135
 5438SOL    HW217214   0.551   0.610   4.360  0.1837  1.6833 -1.1892
 5439SOL     OW17215   5.008   3.306   7.008  0.4854  0.1538 -0.0013
 5439SOL    HW117216   4.929   3.366   7.017  0.5903  0.2348  0.3994
 5439SOL    HW217217   4.982   3.213   7.034  0.5948  0.2398  0.4288
 5440SOL     OW17218   6.579   3.654   5.008  0.2294  0.1661 -0.5242
 5440SOL    HW117219   6.520   3.584   5.047  0.5317 -0.5116 -1.2568
 5440SOL    HW217220   6.674   3.637   5.034  0.0552  1.7155  1.3363
 5441SOL     OW17221   5.185   0.646   1.081 -0.3705  0.4455  0.0696
 5441SOL    HW117222   5.178   0.687   0.990  1.3589  1.4877  0.3540
 5441SOL    HW217223   5.234   0.559   1.074 -0.3235  0.4790 -0.0190
 5442SOL     OW17224   0.914   6.219   0.588  0.2825  0.4766  0.1531
 5442SOL    HW117225   0.906   6.152   0.661 -0.2299 -0.0599 -0.3912
 5442SOL    HW217226   0.913   6.173   0.500  1.0191  1.1112 -0.1972
 5443SOL     OW17227   6.328   4.232   0.656  0.3962 -0.6348 -0.2151
 5443SOL    HW117228   6.246   4.199   0.610  1.6526 -2.4552 -1.2687
 5443SOL    HW217229   6.383   4.154   0.687  0.1658  0.4994  3.4824
 5444SOL     OW17230   0.757   3.573   6.423 -0.1094  0.2338  0.7520
 5444SOL    HW117231   0.788   3.499   6.363 -2.0465  0.6129 -0.8061
 5444SOL    HW217232   0.705   3.535   6.500  0.8471 -0.1336  1.2351
 5445SOL     OW17233   3.786   6.328   0.373  0.2393  0.0421  0.2310
 5445SOL    HW117234   3.823   6.308   0.464  0.0478  0.4830  0.4127
 5445SOL    HW217235   3.712   6.395   0.382  1.7832  1.9285 -0.4594
 5446SOL     OW17236   3.423   0.339   1.068  0.1162  0.3920  0.3006
 5446SOL    HW117237   3.361   0.262   1.056  1.0803 -0.4880  0.7771
 5446SOL    HW217238   3.370   0.422   1.084 -1.0405  0.4150 -2.9347
 5447SOL     OW17239   2.646   5.942   6.145  0.0422 -0.0789  0.0373
 5447SOL    HW117240   2.598   5.903   6.066 -1.6856  0.3944  0.7971
 5447SOL    HW217241   2.737   5.971   6.118 -0.7882  0.8194 -2.0140
 5448SOL     OW17242   5.835   7.007   6.749 -0.1308 -0.2687  0.2188
 5448SOL    HW117243   5.771   7.043   6.817  1.2739 -0.9010  1.9730
 5448SOL    HW217244   5.854   7.077   6.680 -1.3973  0.4859  0.6051
 5449SOL     OW17245   6.051   1.097   0.635 -0.1382  0.7313  0.0524
 5449SOL    HW117246   5.955   1.098   0.605  0.0392  0.6015 -0.5348
 5449SOL    HW217247   6.059   1.147   0.721 -0.5418  1.7467 -0.4855
 5450SOL     OW17248   1.972   3.345   3.682  0.4199 -0.3492  0.3846
 5450SOL    HW117249   1.925   3.258   3.695 -0.4319  0.1730  0.8632
 5450SOL    HW217250   1.963   3.374   3.587  0.2203 -0.5013  0.3576
 5451SOL     OW17251   3.381   5.573   3.918  0.6221 -0.5016  0.5114
 5451SOL    HW117252   3.427   5.630   3.850  1.0025 -1.8243 -0.3820
 5451SOL    HW217253   3.433   5.575   4.004  1.2741 -0.4336  0.1228
 5452SOL     OW17254   3.085   0.620   0.399  0.1484  0.1816 -0.1090
 5452SOL    HW117255   3.085   0.617   0.499  0.8251 -2.5298 -0.1255
 5452SOL    HW217256   3.153   0.555   0.364 -1.7314 -0.6920 -2.3508
 5453SOL     OW17257   5.537   2.428   5.016  0.1139 -0.3074 -0.2627
 5453SOL    HW117258   5.521   2.330   5.033 -0.1285  0.0111  1.5536
 5453SOL    HW217259   5.522   2.447   4.919  0.4788 -2.1260 -0.7207
 5454SOL     OW17260   4.919   6.473   6.541  0.7122  0.2248  0.0589
 5454SOL    HW117261   4.876   6.448   6.628  1.3638  0.5016  0.4675
 5454SOL    HW217262   4.905   6.399   6.475  0.2808 -0.0250  0.4215
 5455SOL     OW17263   2.851   0.322   4.727  0.2036 -0.3529 -0.0631
 5455SOL    HW117264   2.922   0.297   4.793  0.9430  0.1595 -0.6449
 5455SOL    HW217265   2.782   0.378   4.773  1.3507  1.0488  0.0333
 5456SOL     OW17266   3.465   1.203   4.444 -0.6772 -0.2365  0.0049
 5456SOL    HW117267   3.404   1.169   4.514 -0.0581  0.0246  0.6844
 5456SOL    HW217268   3.412   1.244   4.369 -1.3843 -1.6018 -0.2675
 5457SOL     OW17269   2.921   4.829   5.569  0.5366  0.1639 -0.0605
 5457SOL    HW117270   2.967   4.741   5.557  1.6959  0.9392 -1.8616
 5457SOL    HW217271   2.838   4.831   5.513 -0.1879 -0.2193  0.9788
 5458SOL     OW17272   6.948   1.649   2.186  0.3064 -0.3538 -0.2315
 5458SOL    HW117273   7.028   1.611   2.140  1.1268  0.9568  0.0919
 5458SOL    HW217274   6.972   1.677   2.279 -0.6553 -0.4087  0.0483
 5459SOL     OW17275   4.075   0.869   3.711  0.3083 -0.1187  0.0419
 5459SOL    HW117276   4.082   0.809   3.791 -0.6707 -0.5964 -0.2235
 5459SOL    HW217277   4.147   0.939   3.716  0.7385 -0.6058  0.9422
 5460SOL     OW17278   4.041   0.794   5.026  0.7786 -0.2154 -0.0565
 5460SOL    HW117279   4.098   0.728   5.074  0.3969 -0.7812 -0.3776
 5460SOL    HW217280   3.973   0.746   4.970 -2.0473  0.3757  2.5952
 5461SOL     OW17281   0.926   4.033   3.178  0.0449  0.0691 -0.5602
 5461SOL    HW117282   0.951   4.069   3.089  0.6069 -1.7309 -1.1620
 5461SOL    HW217283   0.852   3.966   3.168 -0.1112  0.0847  0.3625
 5462SOL     OW17284   0.581   3.214   2.687 -0.2243 -0.3815  0.0134
 5462SOL    HW117285   0.615   3.279   2.754 -0.2132 -0.5069  0.1291
 5462SOL    HW217286   0.658   3.162   2.649 -0.0339  0.6857 -1.1623
 5463SOL     OW17287   4.396   5.157   2.995  0.4217 -0.0477  0.1151
 5463SOL    HW117288   4.388   5.094   3.072 -1.9803 -0.4429 -0.3685
 5463SOL    HW217289   4.311   5.209   2.986  1.1356  0.9062 -1.5029
 5464SOL     OW17290   3.540   2.075   3.911  0.1885 -0.2882  0.5533
 5464SOL    HW117291   3.639   2.080   3.928  0.2313 -0.2665  0.3049
 5464SOL    HW217292   3.495   2.032   3.989  0.0484  2.1789  1.9180
 5465SOL     OW17293   4.946   2.423   4.402 -0.1472  0.4031  0.0078
 5465SOL    HW117294   4.967   2.493   4.334  0.6836  0.3461  0.1971
 5465SOL    HW217295   4.850   2.396   4.393 -0.0247  0.3117 -1.2174
 5466SOL     OW17296   3.624   1.220   5.440  0.1944  0.0516 -0.5292
 5466SOL    HW117297   3.714   1.202   5.399  0.0613 -0.5673 -0.5661
 5466SOL    HW217298   3.620   1.179   5.531 -0.2761 -0.5042 -0.7922
 5467SOL     OW17299   2.565   0.456   4.651 -0.5505 -0.5358 -0.1891
 5467SOL    HW117300   2.526   0.518   4.583  2.3492  0.0099 -1.5218
 5467SOL    HW217301   2.548   0.361   4.625 -1.1157 -0.3164 -0.6242
 5468SOL     OW17302   6.085   6.616   2.545 -0.1849 -0.2152  0.0833
 5468SOL    HW117303   6.024   6.623   2.465  0.4384  0.3874 -0.3463
 5468SOL    HW217304   6.160   6.680   2.535  0.0081 -0.2782  1.0751
 5469SOL     OW17305   0.756   1.703   2.576  0.3310 -0.7932  0.3305
 5469SOL    HW117306   0.854   1.721   2.571  0.2797 -0.8970 -2.4997
 5469SOL    HW217307   0.717   1.751   2.654  2.5449 -0.4457  1.2929
 5470SOL     OW17308   0.925   4.406   6.602  0.3440  0.0392  0.3342
 5470SOL    HW117309   0.844   4.385   6.656 -0.9108  0.5177 -1.2601
 5470SOL    HW217310   0.992   4.456   6.658  0.5986 -2.3735  2.3283
 5471SOL     OW17311   3.237   6.393   6.207 -0.0873  0.0750 -0.0378
 5471SOL    HW117312   3.203   6.409   6.299  0.1236 -0.8278  0.2026
 5471SOL    HW217313   3.238   6.480   6.156  1.7833  1.0132  1.4654
 5472SOL     OW17314   6.729   6.547   0.036 -0.2488 -0.2572  0.1328
 5472SOL    HW117315   6.671   6.477  -0.004  0.5823 -0.7271 -0.2922
 5472SOL    HW217316   6.796   6.505   0.097 -0.7791  0.3423  1.1502
 5473SOL     OW17317   5.972   5.563   4.378 -0.3066 -0.0437 -0.4059
 5473SOL    HW117318   5.943   5.659   4.378  1.1330  0.4231 -0.2447
 5473SOL    HW217319   5.952   5.522   4.289  1.4463  1.1958 -1.4291
 5474SOL     OW17320   6.419   4.044   4.210 -0.2815  0.7809  0.5883
 5474SOL    HW117321   6.511   4.037   4.249  0.6785  2.7328 -1.1400
 5474SOL    HW217322   6.380   4.133   4.232  0.5667  2.2779 -3.1536
 5475SOL     OW17323   6.799   2.922   2.605  0.0631 -0.3958  0.1221
 5475SOL    HW117324   6.860   2.873   2.542 -2.6266 -0.5769 -2.5579
 5475SOL    HW217325   6.797   2.875   2.693  1.8391 -1.7715 -0.5005
 5476SOL     OW17326   1.596   0.900   1.940 -0.1483  0.5617 -0.4293
 5476SOL    HW117327   1.637   0.811   1.920  0.3649  0.9468 -1.0998
 5476SOL    HW217328   1.668   0.967   1.957 -0.4904  1.1977 -1.4207
 5477SOL     OW17329   4.659   2.817   0.713  0.1103 -0.1015 -0.0863
 5477SOL    HW117330   4.642   2.811   0.615  1.0516  2.9049 -0.5338
 5477SOL    HW217331   4.573   2.805   0.762 -0.3929 -1.5290 -1.2446
 5478SOL     OW17332   3.514   4.947   6.890  0.1550  0.1814 -0.2439
 5478SOL    HW117333   3.584   4.876   6.900  0.3197  0.4008  0.2290
 5478SOL    HW217334   3.540   5.009   6.815  1.8116  1.7409  1.5066
 5479SOL     OW17335   0.002   5.831   0.331 -0.5431 -0.5136  0.5743
 5479SOL    HW117336  -0.072   5.785   0.379  0.7592 -1.2838  1.9020
 5479SOL    HW217337   0.088   5.817   0.380  0.1736  2.0778  0.2018
 5480SOL     OW17338   0.265   2.282   6.816  0.0848  0.0233 -0.0933
 5480SOL    HW117339   0.262   2.252   6.911  0.3593 -0.4736 -0.2369
 5480SOL    HW217340   0.177   2.323   6.791 -1.3202 -3.0603 -0.6615
 5481SOL     OW17341   3.086   4.021   0.631  0.2748 -0.0734 -0.4460
 5481SOL    HW117342   3.162   3.962   0.605 -0.2427 -0.3916 -1.3086
 5481SOL    HW217343   3.018   4.021   0.558 -0.8702 -0.3292  0.5902
 5482SOL     OW17344   6.037   4.051   5.555 -0.8057 -0.4552  0.2148
 5482SOL    HW117345   6.059   4.105   5.473 -1.6859  1.0558  0.9254
 5482SOL    HW217346   6.012   3.958   5.528 -1.1493  0.0277 -1.2440
 5483SOL     OW17347   0.653   3.896   3.365  0.2059 -0.0153  0.1077
 5483SOL    HW117348   0.671   3.917   3.269 -0.2637 -0.9894 -0.2056
 5483SOL    HW217349   0.555   3.891   3.381  0.2672  0.8062  0.7949
 5484SOL     OW17350   4.200   0.401   6.369  0.4495  0.2209 -0.2500
 5484SOL    HW117351   4.124   0.405   6.306  0.3352 -1.0450 -0.2267
 5484SOL    HW217352   4.197   0.479   6.431 -1.0908 -0.0534  0.0477
 5485SOL     OW17353   2.859   6.352   2.405 -0.0646  0.2634  0.3769
 5485SOL    HW117354   2.817   6.293   2.336 -0.5082  0.3393  0.5781
 5485SOL    HW217355   2.936   6.305   2.447 -0.7002 -0.3680  0.8637
 5486SOL     OW17356   4.448   0.820   6.261  0.4588  0.5503 -0.3722
 5486SOL    HW117357   4.398   0.876   6.326 -1.1886 -0.1702 -0.9444
 5486SOL    HW217358   4.516   0.765   6.309 -0.2209  0.5696  0.6430
 5487SOL     OW17359   5.009   2.201   2.785 -0.2379  0.1265  0.3537
 5487SOL    HW117360   4.927   2.204   2.727 -1.0610 -2.3510  1.2287
 5487SOL    HW217361   5.019   2.109   2.823  1.0496  1.2582  3.0356
 5488SOL     OW17362   6.803   0.597   0.681  0.2295 -0.3733 -0.4482
 5488SOL    HW117363   6.798   0.690   0.646 -2.3923  0.3297  1.4834
 5488SOL    HW217364   6.740   0.538   0.630 -1.3496 -0.0334  1.0342
 5489SOL     OW17365   1.598   2.488   5.248  0.5296 -0.0893 -0.0998
 5489SOL    HW117366   1.678   2.430   5.233  1.2654  0.8254  0.1617
 5489SOL    HW217367   1.607   2.571   5.193  0.3312  0.5552  0.8230
 5490SOL     OW17368   6.999   1.236   1.755  0.2615 -0.0321  0.1469
 5490SOL    HW117369   6.954   1.320   1.784 -0.1335 -0.1018 -0.2421
 5490SOL    HW217370   6.936   1.159   1.764  0.8481 -0.4115  1.1700
 5491SOL     OW17371   6.114   4.569   2.289  0.2529  0.5270  0.0538
 5491SOL    HW117372   6.087   4.642   2.351 -1.4259  0.1605 -0.2104
 5491SOL    HW217373   6.088   4.480   2.328  1.4073  0.1127 -0.0665
 5492SOL     OW17374   3.703   2.811   1.941 -0.3196  0.0333  0.0535
 5492SOL    HW117375   3.648   2.837   2.021 -0.1761  0.0148  0.1571
 5492SOL    HW217376   3.652   2.745   1.886 -0.6826  0.5245 -0.2032
 5493SOL     OW17377   4.186   5.292   0.357 -0.0864  0.7987  0.5388
 5493SOL    HW117378   4.164   5.389   0.365  1.1675  1.0154  1.7356
 5493SOL    HW217379   4.173   5.247   0.445  1.4325  0.3763  0.5749
 5494SOL     OW17380   2.321   4.084   6.188 -0.0698 -0.0020  0.8344
 5494SOL    HW117381   2.388   4.047   6.123 -1.0825  1.6097 -1.2564
 5494SOL    HW217382   2.254   4.013   6.210 -0.7703 -0.1405 -1.4166
 5495SOL     OW17383   2.158   2.687   2.419  0.0917  0.3505 -0.1211
 5495SOL    HW117384   2.198   2.652   2.335 -1.2693 -0.9296 -0.2813
 5495SOL    HW217385   2.060   2.702   2.406 -0.0159  0.7640  1.0447
 5496SOL     OW17386   3.067   3.200   5.474  0.5101 -0.1171 -0.1629
 5496SOL    HW117387   3.001   3.180   5.402 -0.4176 -0.9889  0.8867
 5496SOL    HW217388   3.064   3.297   5.497  0.9220  0.1953 -1.3794
 5497SOL     OW17389   2.327   6.824   2.860 -0.3039  0.4074 -0.0845
 5497SOL    HW117390   2.357   6.759   2.791  0.3156  0.9561 -0.3409
 5497SOL    HW217391   2.293   6.774   2.940 -0.8131 -0.2299 -0.6782
 5498SOL     OW17392   1.221   3.766   1.431 -0.5238 -0.0076  0.1567
 5498SOL    HW117393   1.173   3.819   1.501 -1.5444  1.0245 -1.2531
 5498SOL    HW217394   1.302   3.816   1.401  0.6189 -1.0298  1.4377
 5499SOL     OW17395   3.034   1.486   1.135 -0.3408 -0.0521  0.3696
 5499SOL    HW117396   3.030   1.584   1.115 -2.6186 -0.5197 -2.0757
 5499SOL    HW217397   3.055   1.472   1.232  1.0713  2.7865  0.5511
 5500SOL     OW17398   1.008   1.876   1.121 -0.4334 -0.1696 -0.0412
 5500SOL    HW117399   1.012   1.915   1.213 -1.2053 -1.0677  0.3875
 5500SOL    HW217400   0.933   1.920   1.070 -0.3311 -0.0282 -0.0702
 5501SOL     OW17401   1.945   6.441   5.917  0.1144  0.6900 -0.3181
 5501SOL    HW117402   1.895   6.355   5.929 -0.2078  0.9636  0.4024
 5501SOL    HW217403   2.025   6.441   5.977  0.7902  0.4047 -1.2016
 5502SOL     OW17404   1.186   1.445   0.799  0.0971  0.7793 -0.2069
 5502SOL    HW117405   1.100   1.495   0.803 -0.0205  0.4911  1.4417
 5502SOL    HW217406   1.168   1.350   0.774 -0.2942  0.2972  1.7550
 5503SOL     OW17407   0.643   1.695   4.279 -0.5434 -0.0607  0.0800
 5503SOL    HW117408   0.669   1.754   4.202  1.0029 -1.8492 -0.8269
 5503SOL    HW217409   0.619   1.604   4.245  1.7047 -1.3855  1.7968
 5504SOL     OW17410   5.757   0.642   6.903 -0.3815 -0.0146 -0.4481
 5504SOL    HW117411   5.768   0.735   6.937  0.3256 -0.3096  0.1396
 5504SOL    HW217412   5.678   0.638   6.841  0.5693  1.3410 -1.8190
 5505SOL     OW17413   1.641   5.920   5.538 -0.6726 -0.1601 -0.2487
 5505SOL    HW117414   1.708   5.994   5.534  0.6650 -1.3872 -3.4781
 5505SOL    HW217415   1.638   5.883   5.631 -0.1450  2.7489  1.0292
 5506SOL     OW17416   2.550   1.866   1.588  0.0886  0.0346  0.4434
 5506SOL    HW117417   2.597   1.792   1.541 -1.4697 -2.2453  2.2197
 5506SOL    HW217418   2.533   1.839   1.683 -3.1399  1.4141  0.3863
 5507SOL     OW17419   5.812   4.944   3.583 -0.2081 -0.1610  0.0580
 5507SOL    HW117420   5.826   4.847   3.560  0.4664 -0.1248  0.2746
 5507SOL    HW217421   5.792   4.953   3.680  0.0195 -0.0638  0.0976
 5508SOL     OW17422   2.731   0.806   4.029  0.5207 -0.6306  0.0689
 5508SOL    HW117423   2.776   0.818   4.117 -1.9867  2.4569  1.0927
 5508SOL    HW217424   2.688   0.715   4.026  0.4198 -0.6959  2.1317
 5509SOL     OW17425   2.384   4.812   3.962 -0.2779 -0.2010 -0.5427
 5509SOL    HW117426   2.443   4.735   3.938 -1.0776 -0.9984 -0.0377
 5509SOL    HW217427   2.410   4.849   4.051 -0.4062 -0.4226 -0.4120
 5510SOL     OW17428   1.996   3.799   6.877 -0.7150 -0.2792 -0.1531
 5510SOL    HW117429   2.041   3.888   6.874 -1.7899  0.3278  1.0468
 5510SOL    HW217430   2.061   3.730   6.908 -0.5177  0.5375  1.3250
 5511SOL     OW17431   0.470   0.334   4.013 -0.5417  0.1204 -0.3082
 5511SOL    HW117432   0.461   0.304   4.108 -1.0177 -2.0826 -0.9855
 5511SOL    HW217433   0.385   0.315   3.964  0.3945 -0.7573 -1.6628
 5512SOL     OW17434   1.933   5.947   1.608  0.0564 -0.1903  0.3496
 5512SOL    HW117435   2.022   5.912   1.578  0.3194  0.3944  0.4357
 5512SOL    HW217436   1.862   5.880   1.587  0.2974 -0.0162 -1.1279
 5513SOL     OW17437   3.394   2.856   3.596 -0.5775 -0.3211 -0.1177
 5513SOL    HW117438   3.330   2.779   3.600 -2.2767  1.0605  0.6664
 5513SOL    HW217439   3.400   2.899   3.687  1.3828 -0.3297 -0.2147
 5514SOL     OW17440   3.713   0.617   0.697  0.1132  0.3729  0.0101
 5514SOL    HW117441   3.664   0.548   0.644 -2.5863  2.2565 -0.1156
 5514SOL    HW217442   3.747   0.575   0.781  1.3408 -1.7948 -1.4618
 5515SOL     OW17443   5.576   1.392   4.213 -0.5663 -0.4361  0.5311
 5515SOL    HW117444   5.598   1.401   4.310 -0.7448  1.0227  0.4725
 5515SOL    HW217445   5.503   1.326   4.201  0.1317 -1.3630  1.2794
 5516SOL     OW17446   5.771   2.432   0.384  0.5851 -0.1289  0.5658
 5516SOL    HW117447   5.865   2.460   0.363  0.7612 -0.4285  0.9480
 5516SOL    HW217448   5.742   2.476   0.469  0.3735 -0.0338  0.4465
 5517SOL     OW17449   0.208   4.950   6.826 -0.0922 -0.6083 -0.2777
 5517SOL    HW117450   0.111   4.942   6.803  0.2733  0.6267 -2.5189
 5517SOL    HW217451   0.262   4.897   6.761  0.7749 -0.9110  0.6725
 5518SOL     OW17452   6.510   0.045   4.227  0.4579  0.4527 -0.7301
 5518SOL    HW117453   6.528  -0.053   4.238  1.0996  0.0635 -4.0889
 5518SOL    HW217454   6.419   0.067   4.263  1.1758 -0.8492  2.1031
 5519SOL     OW17455   3.163   6.872   3.004  0.0685  0.0625 -0.0059
 5519SOL    HW117456   3.199   6.863   3.097  0.3183 -1.5458 -0.2399
 5519SOL    HW217457   3.066   6.897   3.008 -0.1069 -0.7091  0.6999
 5520SOL     OW17458   2.360   4.940   0.487 -0.3801  0.2710  0.2596
 5520SOL    HW117459   2.382   4.909   0.580 -0.8500  1.8391  0.9342
 5520SOL    HW217460   2.280   4.889   0.453 -1.2279  0.7954  1.3868
 5521SOL     OW17461   0.204   6.437   2.610 -0.0742  0.5729 -0.2892
 5521SOL    HW117462   0.134   6.467   2.546 -0.0123 -0.9094 -1.0992
 5521SOL    HW217463   0.162   6.414   2.698 -0.4785  0.5601 -0.4850
 5522SOL     OW17464   6.128   4.134   3.377  0.2372 -0.0191 -0.0816
 5522SOL    HW117465   6.179   4.157   3.459 -2.2151  1.7180  1.0447
 5522SOL    HW217466   6.031   4.124   3.398 -0.2146 -1.7019 -2.4111
 5523SOL     OW17467   6.615   1.684   0.829  0.0177 -0.0404 -0.6942
 5523SOL    HW117468   6.699   1.729   0.858 -0.4598  0.6217 -0.3118
 5523SOL    HW217469   6.590   1.714   0.737  0.0344 -0.0052 -0.6869
 5524SOL     OW17470   6.727   3.158   2.048  0.0665 -0.6240  0.5406
 5524SOL    HW117471   6.753   3.166   2.144 -0.4377  0.2699  0.6137
 5524SOL    HW217472   6.644   3.213   2.031 -0.2259 -1.2930 -0.2585
 5525SOL     OW17473   6.321   2.883   4.603 -0.0569  0.3451 -0.5789
 5525SOL    HW117474   6.379   2.898   4.684  0.6039  0.5465 -1.0801
 5525SOL    HW217475   6.229   2.917   4.621  0.6465  2.4060 -0.6737
 5526SOL     OW17476   0.124   0.737   1.348  0.1168 -0.0995  0.0617
 5526SOL    HW117477   0.132   0.834   1.326 -1.3747  0.5183  1.9960
 5526SOL    HW217478   0.099   0.686   1.265 -0.9125  1.4532 -0.6247
 5527SOL     OW17479   2.355   4.404   5.450 -0.0600  0.0326  0.1357
 5527SOL    HW117480   2.406   4.465   5.511 -0.5007  1.4020 -0.8091
 5527SOL    HW217481   2.261   4.396   5.481  0.1046 -0.5434  0.5062
 5528SOL     OW17482   1.050   2.130   0.246 -0.0406 -0.1928 -0.7070
 5528SOL    HW117483   1.120   2.166   0.308 -0.3068 -1.4698  0.3772
 5528SOL    HW217484   1.007   2.206   0.196  0.8487  0.7649 -0.0522
 5529SOL     OW17485   1.061   1.845   3.772  0.2023 -0.1371  0.8597
 5529SOL    HW117486   1.136   1.890   3.723  0.8680 -1.4396  0.6333
 5529SOL    HW217487   1.016   1.911   3.833  1.1892  0.7941  0.6069
 5530SOL     OW17488   0.723   2.726   0.464  0.7342 -0.7437  0.2496
 5530SOL    HW117489   0.694   2.640   0.507 -1.9725 -0.4202 -0.7418
 5530SOL    HW217490   0.672   2.740   0.379  1.6307  1.5130  0.0035
 5531SOL     OW17491   2.301   1.033   3.571  0.2678 -0.2686  0.2524
 5531SOL    HW117492   2.305   1.108   3.637  0.4914 -1.2848  1.4331
 5531SOL    HW217493   2.347   0.953   3.609 -0.8227 -1.3218 -0.5513
 5532SOL     OW17494   1.462   5.980   6.256  0.0563  0.3121 -0.7657
 5532SOL    HW117495   1.500   5.921   6.185  0.7154  2.6363 -2.4824
 5532SOL    HW217496   1.522   5.978   6.336 -0.1108 -1.5319 -0.6505
 5533SOL     OW17497   1.460   5.920   2.084 -0.1077 -0.1436 -0.4762
 5533SOL    HW117498   1.444   5.845   2.018  1.0094 -1.0035  0.2030
 5533SOL    HW217499   1.503   5.997   2.037 -1.6162  0.2521 -1.2672
 5534SOL     OW17500   6.810   4.073   3.526 -0.3420 -0.6649 -0.3159
 5534SOL    HW117501   6.887   4.010   3.540 -0.3529 -0.6946 -0.3884
 5534SOL    HW217502   6.724   4.023   3.535 -0.3552 -1.1515 -2.5015
 5535SOL     OW17503   4.659   2.347   4.220 -0.3441 -0.1018  0.5287
 5535SOL    HW117504   4.611   2.262   4.197 -0.2528  0.4847 -2.2534
 5535SOL    HW217505   4.596   2.411   4.263 -0.8691 -0.9408  1.0306
 5536SOL     OW17506   3.515   5.732   3.749  0.1839  0.3298  0.2505
 5536SOL    HW117507   3.584   5.683   3.696 -1.3859 -0.0912 -1.4890
 5536SOL    HW217508   3.558   5.810   3.796  2.3735 -1.5807  1.6232
 5537SOL     OW17509   0.343   5.388   5.356  0.2927 -0.4196 -0.2755
 5537SOL    HW117510   0.248   5.359   5.347  0.5116 -1.0436 -0.6252
 5537SOL    HW217511   0.350   5.453   5.432 -0.2645 -1.0618  0.3535
 5538SOL     OW17512   6.229   0.297   0.540  0.1407  0.1096 -0.0183
 5538SOL    HW117513   6.200   0.336   0.453 -0.1492  0.7709  0.3730
 5538SOL    HW217514   6.160   0.232   0.572 -0.0899  0.3900  0.0597
 5539SOL     OW17515   3.857   5.831   1.919  0.9543 -0.5592  0.5660
 5539SOL    HW117516   3.778   5.770   1.917  0.2284  0.3770 -0.7592
 5539SOL    HW217517   3.940   5.779   1.896  0.5640 -1.3194  0.8445
 5540SOL     OW17518   2.174   2.151   4.545  0.3246  1.0614 -0.1469
 5540SOL    HW117519   2.204   2.057   4.560 -0.5838  0.7704 -0.0826
 5540SOL    HW217520   2.231   2.213   4.599  0.9726  0.5582 -0.2379
 5541SOL     OW17521   1.825   6.530   4.353  0.4045 -0.0568  0.0483
 5541SOL    HW117522   1.741   6.476   4.363 -0.0720  0.6329 -0.1469
 5541SOL    HW217523   1.831   6.595   4.429 -0.1570  1.0998 -0.8639
 5542SOL     OW17524   5.222   2.446   4.471 -0.9175 -0.4351  0.1279
 5542SOL    HW117525   5.135   2.402   4.491 -0.6533 -0.3621  1.5738
 5542SOL    HW217526   5.265   2.475   4.557 -0.8139  2.1373 -0.7065
 5543SOL     OW17527   2.145   1.108   1.636  0.2598 -0.1405  0.8106
 5543SOL    HW117528   2.229   1.105   1.690  0.2854 -0.2586  0.7648
 5543SOL    HW217529   2.130   1.019   1.593  0.6499  0.1695  0.0048
 5544SOL     OW17530   4.445   6.708   1.184  0.8639  0.2425 -0.5400
 5544SOL    HW117531   4.524   6.757   1.149 -0.1275  1.0514 -1.7603
 5544SOL    HW217532   4.370   6.714   1.118 -0.2721 -0.3661  0.6295
 5545SOL     OW17533   5.498   3.840   1.017  0.1966 -0.8190 -0.0130
 5545SOL    HW117534   5.477   3.832   1.114  2.0230 -1.1090  0.4010
 5545SOL    HW217535   5.558   3.764   0.990 -0.6461 -1.0031 -1.4912
 5546SOL     OW17536   4.719   3.394   1.483  0.3168  0.2828 -0.3864
 5546SOL    HW117537   4.694   3.472   1.540  0.4418 -0.9762  1.4549
 5546SOL    HW217538   4.816   3.375   1.494 -0.0194 -1.0681  0.4007
 5547SOL     OW17539   6.223   0.098   2.917 -0.1822 -0.1254  0.6345
 5547SOL    HW117540   6.140   0.100   2.974 -0.7429  1.1314 -0.1693
 5547SOL    HW217541   6.300   0.132   2.971 -0.4719 -0.0167  0.9935
 5548SOL     OW17542   2.801   4.105   5.618 -0.9295  0.2992 -0.5292
 5548SOL    HW117543   2.732   4.033   5.623 -0.1502 -0.4994 -1.1971
 5548SOL    HW217544   2.795   4.151   5.530 -1.1862  0.8266 -0.2426
 5549SOL     OW17545   3.528   4.966   1.770  0.2745  0.3368  0.2851
 5549SOL    HW117546   3.528   4.902   1.846 -0.8301 -0.2916 -0.2276
 5549SOL    HW217547   3.548   4.917   1.685  4.7378  1.4635  0.4180
 5550SOL     OW17548   3.665   6.730   1.311  0.0060 -0.1493  0.2271
 5550SOL    HW117549   3.638   6.816   1.268 -0.1321  1.3569  3.0722
 5550SOL    HW217550   3.587   6.690   1.358  0.8042  0.0351  1.7923
 5551SOL     OW17551   4.741   1.977   1.847  0.0329  0.4421 -0.4495
 5551SOL    HW117552   4.681   1.899   1.870  1.2366  0.1662  2.0653
 5551SOL    HW217553   4.697   2.062   1.875  0.1443  0.3612 -0.0133
 5552SOL     OW17554   6.431   6.190   5.025  0.1428  0.1594  0.2054
 5552SOL    HW117555   6.352   6.251   5.029 -1.3266 -1.5807 -0.8520
 5552SOL    HW217556   6.449   6.166   4.930 -1.7746 -3.9515  0.6436
 5553SOL     OW17557   6.072   2.872   2.922  0.1432 -0.0277 -0.0783
 5553SOL    HW117558   6.093   2.970   2.924  0.2160 -0.0508  0.3507
 5553SOL    HW217559   6.003   2.851   2.990 -0.2677 -0.1908 -0.5362
 5554SOL     OW17560   1.449   1.469   1.834  0.6243 -0.5770 -0.1561
 5554SOL    HW117561   1.460   1.567   1.848 -1.2913 -0.2951 -0.2795
 5554SOL    HW217562   1.504   1.440   1.756  2.2704  0.1064  0.6976
 5555SOL     OW17563   1.833   2.567   3.748 -0.1906 -0.5163  0.4749
 5555SOL    HW117564   1.924   2.603   3.729  0.3667 -2.5308 -1.0243
 5555SOL    HW217565   1.842   2.476   3.789 -1.5400 -0.6446  0.5081
 5556SOL     OW17566   6.021   6.754   1.988  0.4091 -0.2275 -0.1851
 5556SOL    HW117567   6.063   6.784   1.903  0.0963  0.6256 -0.0541
 5556SOL    HW217568   5.922   6.766   1.982  0.5130  1.5110  0.9115
 5557SOL     OW17569   1.003   5.413   3.770  0.2579 -0.6030 -0.0336
 5557SOL    HW117570   1.041   5.489   3.717  0.5252  0.5867  1.7796
 5557SOL    HW217571   1.030   5.326   3.728  3.2960  0.2233 -0.0000
 5558SOL     OW17572   2.081   4.146   2.054  0.1448 -0.7639  0.5956
 5558SOL    HW117573   2.080   4.243   2.032 -1.5382 -0.6982  0.8035
 5558SOL    HW217574   2.005   4.101   2.008  1.0037 -2.0317  0.3618
 5559SOL     OW17575   1.509   1.179   2.249 -0.2842  0.0175 -0.2223
 5559SOL    HW117576   1.444   1.106   2.230 -1.3085  0.9372 -0.3397
 5559SOL    HW217577   1.501   1.208   2.344 -1.3890  1.3884 -0.6989
 5560SOL     OW17578   6.666   2.557   2.040 -0.2327 -0.1955 -0.3669
 5560SOL    HW117579   6.690   2.617   2.116 -1.7424 -0.2403  0.1807
 5560SOL    HW217580   6.677   2.607   1.954  2.3881 -0.4357 -0.2407
 5561SOL     OW17581   2.635   6.193   5.986 -0.2619  0.0999 -1.0497
 5561SOL    HW117582   2.570   6.231   5.920 -2.3204  2.1477  1.9309
 5561SOL    HW217583   2.705   6.261   6.007  0.2780 -0.4755 -0.9337
 5562SOL     OW17584   5.177   3.924   4.979 -0.2099  0.1382 -0.1273
 5562SOL    HW117585   5.171   3.975   5.065 -0.1744  1.0766 -0.6699
 5562SOL    HW217586   5.151   3.829   4.995 -1.7245  0.6557  0.6127
 5563SOL     OW17587   0.659   1.681   5.763  0.4237 -0.1613  0.0441
 5563SOL    HW117588   0.697   1.685   5.856  0.1298 -0.5007  0.1822
 5563SOL    HW217589   0.728   1.644   5.701  0.8366  0.6499  0.0076
 5564SOL     OW17590   1.927   1.039   6.927 -0.0120 -0.0919  0.1521
 5564SOL    HW117591   1.945   1.130   6.966 -0.2489 -0.4947  1.2353
 5564SOL    HW217592   1.837   1.039   6.883  0.3782  0.4484 -0.6745
 5565SOL     OW17593   2.567   4.491   0.015 -0.6824 -0.4440  0.1835
 5565SOL    HW117594   2.548   4.493   0.113  1.8961 -0.0572  0.7370
 5565SOL    HW217595   2.552   4.582  -0.024  1.5028  0.2827  0.9426
 5566SOL     OW17596   0.921   3.911   1.116 -0.5288  0.1119  0.1358
 5566SOL    HW117597   0.924   3.934   1.019 -1.2731  1.6153  0.4479
 5566SOL    HW217598   0.960   3.985   1.170  1.2655 -1.3300  0.9376
 5567SOL     OW17599   6.745   5.221   4.871  0.4198  0.1925 -0.0758
 5567SOL    HW117600   6.781   5.304   4.913  0.6758  0.0377  0.0118
 5567SOL    HW217601   6.805   5.143   4.893 -1.2387 -0.5526  2.1591
 5568SOL     OW17602   5.657   3.119   0.384 -0.3311  0.0278  0.6803
 5568SOL    HW117603   5.752   3.093   0.401 -0.2884  0.6362  1.4054
 5568SOL    HW217604   5.611   3.138   0.471 -1.5583 -1.7155  0.4629
 5569SOL     OW17605   5.166   4.689   6.642 -0.5079  0.5245 -0.3437
 5569SOL    HW117606   5.263   4.704   6.622 -0.3982 -1.1638 -1.2754
 5569SOL    HW217607   5.111   4.752   6.588 -0.0481 -1.4267 -3.3402
 5570SOL     OW17608   2.939   6.360   3.470 -0.0094 -0.2616  0.0766
 5570SOL    HW117609   2.961   6.455   3.445 -0.1837 -0.4016 -0.6465
 5570SOL    HW217610   3.018   6.303   3.450  0.2875 -0.1925  1.0183
 5571SOL     OW17611   1.061   0.834   0.829  0.3210  0.6389 -0.2441
 5571SOL    HW117612   1.070   0.745   0.785  2.0703 -0.1335  1.5633
 5571SOL    HW217613   0.967   0.846   0.862  0.6417 -1.6918  1.7627
 5572SOL     OW17614   4.037   5.132   5.057 -0.6233 -0.4343 -0.0560
 5572SOL    HW117615   3.983   5.216   5.054  0.6258  0.3940 -0.0939
 5572SOL    HW217616   4.126   5.148   5.014  0.6294 -1.0316  2.1593
 5573SOL     OW17617   2.168   1.934   2.158  0.1635 -0.3600 -0.1790
 5573SOL    HW117618   2.180   1.993   2.238 -0.2815 -2.2779  1.3888
 5573SOL    HW217619   2.257   1.908   2.122  0.3830 -0.0295  0.1101
 5574SOL     OW17620   3.248   4.842   2.296  0.0125 -0.2184  0.1327
 5574SOL    HW117621   3.154   4.876   2.298  0.1244  0.0908  0.4086
 5574SOL    HW217622   3.288   4.856   2.206 -0.0972 -0.0377  0.1128
 5575SOL     OW17623   5.633   0.444   4.225 -0.3783 -0.6622 -0.5029
 5575SOL    HW117624   5.538   0.431   4.196 -1.4815  2.1883  1.4260
 5575SOL    HW217625   5.656   0.541   4.219  2.4132 -1.2694 -0.7574
 5576SOL     OW17626   2.477   2.751   5.784 -0.4701 -0.2048  0.0777
 5576SOL    HW117627   2.506   2.693   5.860  0.7045 -1.1180 -1.0118
 5576SOL    HW217628   2.459   2.695   5.704 -1.1705  0.7828 -0.4811
 5577SOL     OW17629   1.987   2.649   4.821  0.0707  0.6979 -0.3353
 5577SOL    HW117630   1.994   2.624   4.917 -2.4335 -0.9953 -0.5105
 5577SOL    HW217631   1.958   2.745   4.814  1.8168  1.3423  0.4849
 5578SOL     OW17632   4.004   0.955   6.876 -0.1584  0.2171  0.1537
 5578SOL    HW117633   3.977   0.894   6.802 -1.9134  1.0348  0.0749
 5578SOL    HW217634   3.935   0.953   6.948  1.8580 -1.1594  2.2053
 5579SOL     OW17635   5.328   1.343   6.386  0.0431 -0.5910 -0.1458
 5579SOL    HW117636   5.331   1.258   6.332  0.5035 -0.4923 -0.2755
 5579SOL    HW217637   5.333   1.320   6.483  3.5510 -0.6017 -0.2005
 5580SOL     OW17638   4.262   5.694   0.139  0.2521 -0.1320 -0.4454
 5580SOL    HW117639   4.179   5.688   0.082 -0.5785 -0.1592  0.7359
 5580SOL    HW217640   4.237   5.686   0.235  1.3030  2.7817  0.1472
 5581SOL     OW17641   4.530   0.657   1.200  0.2540 -0.6432  0.5243
 5581SOL    HW117642   4.499   0.699   1.114  2.6248 -0.0679 -0.1047
 5581SOL    HW217643   4.509   0.559   1.197 -1.1524 -0.3568  0.0214
 5582SOL     OW17644   4.149   5.738   1.646 -0.2429  0.5001 -0.1152
 5582SOL    HW117645   4.077   5.772   1.586 -1.4984 -2.4439 -0.4439
 5582SOL    HW217646   4.228   5.709   1.591 -1.0068 -1.2775 -0.3548
 5583SOL     OW17647   4.296   6.010   4.788  0.1341 -0.0440 -0.2881
 5583SOL    HW117648   4.369   5.971   4.844 -0.4726 -0.1444  0.4378
 5583SOL    HW217649   4.337   6.068   4.717  0.9196 -0.1586  0.0572
 5584SOL     OW17650   0.689   4.176   4.620  0.2196 -0.5273 -0.2538
 5584SOL    HW117651   0.758   4.213   4.682 -0.7222  2.0988 -0.6561
 5584SOL    HW217652   0.704   4.212   4.527 -1.0630 -0.7119 -0.5591
 5585SOL     OW17653   4.336   1.993   0.713  0.2744 -0.7816 -0.0904
 5585SOL    HW117654   4.279   1.949   0.783 -0.6025 -1.1628 -1.0273
 5585SOL    HW217655   4.412   2.041   0.758 -0.2667 -1.0134  1.1203
 5586SOL     OW17656   4.203   2.498   1.629 -0.0253 -0.2337  0.2203
 5586SOL    HW117657   4.159   2.588   1.625 -0.4733 -0.4157  0.8390
 5586SOL    HW217658   4.266   2.488   1.552 -0.4405  0.3630 -0.2075
 5587SOL     OW17659   0.496   0.660   2.230  0.5928  0.6603  0.0310
 5587SOL    HW117660   0.493   0.560   2.228  1.4669  0.4901  3.0147
 5587SOL    HW217661   0.402   0.696   2.225  0.1341 -0.3965  0.7299
 5588SOL     OW17662   1.957   5.542   4.873  0.1427  0.4956 -0.0141
 5588SOL    HW117663   1.980   5.637   4.855 -0.3970  0.4424 -1.0511
 5588SOL    HW217664   2.039   5.485   4.861  0.1768  0.6764 -0.6655
 5589SOL     OW17665   4.573   4.207   5.273 -0.4580  0.1488  0.1464
 5589SOL    HW117666   4.500   4.141   5.291 -0.9633  0.6835  0.0849
 5589SOL    HW217667   4.533   4.297   5.257  0.2018  0.3882 -0.1783
 5590SOL     OW17668   6.192   5.659   3.614  0.1967  0.3177  0.1485
 5590SOL    HW117669   6.203   5.562   3.591 -1.1765  0.4594 -1.3105
 5590SOL    HW217670   6.132   5.668   3.693  0.9267 -0.0351  0.7543
 5591SOL     OW17671   0.929   6.624   5.547 -0.1122  0.7982  0.1935
 5591SOL    HW117672   0.924   6.524   5.545  3.0612  0.5452  0.3486
 5591SOL    HW217673   0.858   6.659   5.608  0.6009 -1.5816  2.5979
 5592SOL     OW17674   5.410   3.454   1.722  0.1225  0.1886  0.6104
 5592SOL    HW117675   5.325   3.404   1.740 -0.1063 -0.6246 -2.2169
 5592SOL    HW217676   5.394   3.552   1.733 -1.0458  0.0120  0.6359
 5593SOL     OW17677   3.987   1.535   6.522  0.0503 -0.0767  0.6052
 5593SOL    HW117678   4.007   1.537   6.424 -0.4973  0.8429  0.5039
 5593SOL    HW217679   4.008   1.444   6.558 -0.1345 -0.5504 -0.4439
 5594SOL     OW17680   3.752   0.215   0.291 -0.3813  0.4194 -0.6634
 5594SOL    HW117681   3.656   0.237   0.279 -0.5080 -1.1581 -3.8102
 5594SOL    HW217682   3.808   0.292   0.258 -0.6317  0.3793 -1.1970
 5595SOL     OW17683   5.937   2.749   0.826 -0.6218  0.4012  0.5264
 5595SOL    HW117684   5.919   2.653   0.804  0.6108  0.5812 -1.5373
 5595SOL    HW217685   5.899   2.771   0.916 -2.3276 -1.5827  0.3488
 5596SOL     OW17686   3.461   3.355   3.634 -0.4411  0.3586  0.0222
 5596SOL    HW117687   3.385   3.292   3.650  0.2448 -1.0337 -1.8640
 5596SOL    HW217688   3.532   3.309   3.581  1.0956  2.0743  0.4849
 5597SOL     OW17689   6.318   4.493   5.514  0.0339  0.2291 -0.0489
 5597SOL    HW117690   6.389   4.459   5.576  0.6192  0.1422 -0.7557
 5597SOL    HW217691   6.297   4.588   5.537 -0.2504 -0.0151  0.7240
 5598SOL     OW17692   4.300   0.817   2.530 -0.4385 -0.4092  0.2872
 5598SOL    HW117693   4.383   0.872   2.536 -1.1348  0.7509 -0.4200
 5598SOL    HW217694   4.293   0.777   2.439 -1.7003  1.2517 -0.3913
 5599SOL     OW17695   2.877   1.652   5.458  0.5530 -0.0178  0.3295
 5599SOL    HW117696   2.973   1.671   5.477  0.6819 -0.9006  0.6200
 5599SOL    HW217697   2.820   1.720   5.504  1.0405  0.5809  0.0537
 5600SOL     OW17698   1.141   5.925   1.791  0.3229 -0.3520  0.2005
 5600SOL    HW117699   1.167   6.000   1.852  0.2739 -1.1913  1.2880
 5600SOL    HW217700   1.042   5.923   1.781  0.2787 -0.6316  0.6616
 5601SOL     OW17701   5.376   2.128   4.019  0.3593 -0.1755 -0.4538
 5601SOL    HW117702   5.471   2.115   4.047 -0.1759 -0.0163  1.6300
 5601SOL    HW217703   5.368   2.212   3.965  1.2670  0.3025  0.1357
 5602SOL     OW17704   1.311   0.682   1.184 -0.5492  0.1703 -0.3893
 5602SOL    HW117705   1.408   0.661   1.196 -0.6161  0.0154 -0.0992
 5602SOL    HW217706   1.265   0.604   1.140 -0.4168  0.5073 -1.1409
 5603SOL     OW17707   6.818   6.571   2.762  0.0820  0.3152 -0.1000
 5603SOL    HW117708   6.885   6.498   2.775  1.5074  1.6053  0.0173
 5603SOL    HW217709   6.772   6.590   2.849  0.3759  0.2114  0.0781
 5604SOL     OW17710   1.493   0.459   1.021 -0.1771 -0.6413  0.0634
 5604SOL    HW117711   1.533   0.518   0.951  0.2532 -0.5683  0.3667
 5604SOL    HW217712   1.540   0.370   1.020 -1.7694 -1.5197 -1.3700
 5605SOL     OW17713   3.048   1.239   6.603 -0.1634 -0.2476  0.1356
 5605SOL    HW117714   3.108   1.174   6.557  0.0761  0.6167 -0.7936
 5605SOL    HW217715   2.954   1.203   6.603  0.1673 -1.1519  0.7396
 5606SOL     OW17716   3.212   0.492   1.533 -0.4103 -0.1382  0.0491
 5606SOL    HW117717   3.284   0.524   1.594 -0.8035  0.7652  0.0558
 5606SOL    HW217718   3.124   0.497   1.580 -0.4881 -1.1794  0.0202
 5607SOL     OW17719   4.173   4.666   1.775  0.6330  0.1281  0.7447
 5607SOL    HW117720   4.143   4.667   1.680 -1.0777  0.0296  1.2423
 5607SOL    HW217721   4.128   4.740   1.825  3.3101  1.7119  1.0234
 5608SOL     OW17722   3.387   1.243   3.955  0.5844  0.5781 -0.4192
 5608SOL    HW117723   3.373   1.234   3.857 -1.2301 -0.6932 -0.1008
 5608SOL    HW217724   3.312   1.295   3.995  0.8387  0.3466  0.3917
 5609SOL     OW17725   4.550   1.918   4.984  1.0010  0.3508 -0.1075
 5609SOL    HW117726   4.600   1.981   4.925 -1.0913  0.3488 -2.0279
 5609SOL    HW217727   4.506   1.969   5.058  0.1043  1.0274 -1.0878
 5610SOL     OW17728   6.843   6.928   3.785 -0.1814  0.1574 -0.0972
 5610SOL    HW117729   6.838   6.867   3.706 -0.8843 -2.9948  2.1410
 5610SOL    HW217730   6.782   7.006   3.771 -0.7385 -0.5996 -2.3693
 5611SOL     OW17731   3.466   4.971   3.712 -0.1566 -0.4116 -0.1008
 5611SOL    HW117732   3.407   4.935   3.639 -1.0833  2.7551 -1.0881
 5611SOL    HW217733   3.562   4.961   3.685 -0.4574 -0.2774 -1.2894
 5612SOL     OW17734   2.744   4.492   1.595  0.1995 -0.0628  0.0802
 5612SOL    HW117735   2.770   4.444   1.511  0.0471 -0.3082  0.1730
 5612SOL    HW217736   2.807   4.467   1.668  0.6564  0.5629 -0.0941
 5613SOL     OW17737   5.522   5.990   3.947 -0.3870  0.1990 -0.0660
 5613SOL    HW117738   5.455   5.917   3.957 -1.1928  1.0155  0.7064
 5613SOL    HW217739   5.565   5.984   3.856 -1.0443 -0.7117 -0.3298
 5614SOL     OW17740   5.738   3.291   6.280 -0.2471  0.1795 -0.3925
 5614SOL    HW117741   5.762   3.282   6.377 -2.2163 -0.4069  0.0896
 5614SOL    HW217742   5.744   3.201   6.236 -1.1795  0.0789 -0.3344
 5615SOL     OW17743   5.952   3.825   5.905 -0.1758  0.2837 -0.3044
 5615SOL    HW117744   5.855   3.848   5.911  0.1807  1.6912  0.7011
 5615SOL    HW217745   5.967   3.765   5.827 -1.7989  0.3359 -0.6957
 5616SOL     OW17746   4.823   7.011   1.323 -0.2432  0.2094 -0.1095
 5616SOL    HW117747   4.790   6.919   1.343 -0.7227  0.4273  0.1181
 5616SOL    HW217748   4.921   7.017   1.345 -0.3202 -0.1061  0.3348
 5617SOL     OW17749   1.460   1.034   1.211  0.0817 -0.8411 -0.0784
 5617SOL    HW117750   1.461   0.988   1.299  1.0387 -0.9312 -0.1300
 5617SOL    HW217751   1.365   1.042   1.179 -0.2864 -0.7177  0.9916
 5618SOL     OW17752   1.790   1.402   3.713 -0.2842 -0.2706 -0.3473
 5618SOL    HW117753   1.861   1.408   3.783  0.0444 -0.4255 -0.6629
 5618SOL    HW217754   1.747   1.311   3.716 -0.3244 -0.2501 -0.2966
 5619SOL     OW17755   1.117   3.688   6.372  0.2464  0.7388 -0.3293
 5619SOL    HW117756   1.100   3.706   6.275 -0.5147 -2.5124 -0.9131
 5619SOL    HW217757   1.039   3.717   6.426 -0.1774  0.7583 -0.9461
 5620SOL     OW17758   5.855   4.980   5.549  0.3830 -0.5197  0.0900
 5620SOL    HW117759   5.907   5.010   5.468 -0.3648  0.0250 -0.2003
 5620SOL    HW217760   5.806   5.058   5.588 -1.6571 -1.3325 -0.7052
 5621SOL     OW17761   4.095   1.464   3.212 -0.9802  0.1608  0.4966
 5621SOL    HW117762   4.125   1.378   3.170 -1.4120 -0.6311  1.7826
 5621SOL    HW217763   4.078   1.531   3.139  0.6994 -0.3682 -0.4595
 5622SOL     OW17764   2.065   2.681   0.498  0.2880  0.5316  0.1437
 5622SOL    HW117765   2.113   2.707   0.414  1.2899  0.4715  0.6885
 5622SOL    HW217766   2.079   2.583   0.515  1.7450  0.9322  1.4141
 5623SOL     OW17767   1.032   6.720   2.334  0.2512 -0.3171 -0.0125
 5623SOL    HW117768   0.985   6.633   2.322 -0.2531 -0.1275  0.5317
 5623SOL    HW217769   1.013   6.780   2.257 -2.2620  0.5872  1.2189
 5624SOL     OW17770   0.089   0.147   5.778 -0.0739  0.0536 -0.2275
 5624SOL    HW117771   0.135   0.068   5.818  0.2408 -0.2961 -1.2655
 5624SOL    HW217772   0.153   0.223   5.769 -0.4733  0.5889  1.1446
 5625SOL     OW17773   4.623   5.414   1.127  0.0880 -0.1885 -0.2812
 5625SOL    HW117774   4.530   5.427   1.094 -0.3807  0.9601  1.3395
 5625SOL    HW217775   4.684   5.475   1.076  0.0064 -1.0255 -1.4256
 5626SOL     OW17776   6.619   4.933   2.498  0.0040  0.2127  0.0103
 5626SOL    HW117777   6.555   4.873   2.545  0.1926  0.9095  1.1940
 5626SOL    HW217778   6.660   4.996   2.564  1.6334  0.0302 -0.7708
 5627SOL     OW17779   7.015   5.285   2.973 -0.2278  0.1584  0.4030
 5627SOL    HW117780   7.095   5.226   2.989  0.3747  0.9272  0.2885
 5627SOL    HW217781   6.975   5.262   2.884 -0.0665 -0.1495  0.4063
 5628SOL     OW17782   0.532   3.847   0.570 -0.3595 -0.3906  0.2190
 5628SOL    HW117783   0.611   3.897   0.534 -0.7160  2.0385  2.5175
 5628SOL    HW217784   0.561   3.757   0.601  1.5933  0.5238  1.2088
 5629SOL     OW17785   1.843   1.886   2.771 -0.2746 -0.2748  0.3757
 5629SOL    HW117786   1.743   1.880   2.767 -0.3001 -0.0288 -3.1243
 5629SOL    HW217787   1.882   1.795   2.762 -0.2198 -0.2462  0.3229
 5630SOL     OW17788   1.835   7.013   5.896  0.2339  0.5437 -0.2315
 5630SOL    HW117789   1.772   7.077   5.939  0.7704  0.6947  0.3529
 5630SOL    HW217790   1.785   6.951   5.837 -0.0827  3.1808 -3.0075
 5631SOL     OW17791   2.680   1.150   0.825 -0.3310 -0.2313  0.2755
 5631SOL    HW117792   2.770   1.191   0.809 -0.1104 -1.5955 -2.4546
 5631SOL    HW217793   2.609   1.220   0.813  0.2847  0.8005  2.2266
 5632SOL     OW17794   3.772   3.379   4.650  0.0446  0.0791 -0.3440
 5632SOL    HW117795   3.724   3.464   4.626 -0.5110 -0.0235  0.3695
 5632SOL    HW217796   3.740   3.305   4.590 -0.6874  0.0175  0.1015
 5633SOL     OW17797   2.354   1.722   5.374  0.2461  0.0189  0.1435
 5633SOL    HW117798   2.361   1.817   5.406 -0.1037  0.1885 -0.2640
 5633SOL    HW217799   2.437   1.672   5.397 -0.1591  0.0133  1.6946
 5634SOL     OW17800   2.468   6.394   2.786  0.2502  0.0801 -0.2669
 5634SOL    HW117801   2.383   6.342   2.791 -0.2001  0.6525 -1.6056
 5634SOL    HW217802   2.535   6.342   2.733  1.4351 -1.2285  2.3181
 5635SOL     OW17803   1.029   5.378   2.306 -0.8551 -0.5480  0.0267
 5635SOL    HW117804   1.051   5.381   2.209 -1.1072 -2.9311 -0.1554
 5635SOL    HW217805   0.993   5.287   2.330 -0.7186 -0.0530  2.3678
 5636SOL     OW17806   4.928   4.545   0.634  0.2279  0.0612 -0.1813
 5636SOL    HW117807   4.841   4.501   0.654  0.7632 -1.3147 -0.7627
 5636SOL    HW217808   4.978   4.560   0.719  0.8519 -2.2616 -0.0829
 5637SOL     OW17809   1.844   0.242   2.379  0.1680 -0.0441 -0.1085
 5637SOL    HW117810   1.917   0.251   2.447 -0.3120  0.3812  0.3559
 5637SOL    HW217811   1.883   0.251   2.287  0.8025 -0.5133  0.1070
 5638SOL     OW17812   5.434   3.048   4.939 -0.1841  0.2802 -0.4605
 5638SOL    HW117813   5.340   3.021   4.914  0.0752  0.5696 -1.8404
 5638SOL    HW217814   5.478   3.091   4.860  1.6545 -1.2586 -0.3575
 5639SOL     OW17815   1.674   4.770   2.351 -0.1165  0.0728 -0.1113
 5639SOL    HW117816   1.594   4.827   2.334 -1.3467 -1.3666  0.5840
 5639SOL    HW217817   1.659   4.679   2.313  1.5354 -0.0098 -0.6401
 5640SOL     OW17818   2.929   5.405   3.752  0.1011  0.2377 -0.1517
 5640SOL    HW117819   2.943   5.428   3.849 -0.7821 -0.4509  0.1465
 5640SOL    HW217820   3.016   5.377   3.712  0.5770  1.0298  0.3010
 5641SOL     OW17821   2.313   4.361   0.190 -0.2573  0.2523 -0.2075
 5641SOL    HW117822   2.293   4.357   0.092 -3.1324 -0.0009  0.3032
 5641SOL    HW217823   2.285   4.450   0.226  2.6625  1.1430  0.1042
 5642SOL     OW17824   0.998   5.656   0.043  0.4174 -0.1790  0.4599
 5642SOL    HW117825   0.989   5.663   0.142 -1.3818  1.5134  0.2371
 5642SOL    HW217826   0.917   5.695  -0.001  1.6905  0.2242 -1.7060
 5643SOL     OW17827   0.182   3.822   4.173 -0.3527  0.0445  0.0150
 5643SOL    HW117828   0.262   3.825   4.233  0.3368 -1.9299 -0.7447
 5643SOL    HW217829   0.194   3.888   4.098 -1.1329  2.3843  1.8268
 5644SOL     OW17830   0.985   5.103   5.329  0.4591  0.0155  0.2324
 5644SOL    HW117831   1.037   5.072   5.249 -1.0883  1.5132 -1.4464
 5644SOL    HW217832   1.048   5.130   5.401  1.9634 -0.1702 -0.9574
 5645SOL     OW17833   6.675   3.917   5.792  0.1477  0.3536 -0.4890
 5645SOL    HW117834   6.585   3.956   5.774  0.8279  2.1383 -0.2104
 5645SOL    HW217835   6.715   3.883   5.707 -0.6843 -0.2523 -0.6491
 5646SOL     OW17836   4.575   1.349   0.380  0.5679 -0.4959 -0.2054
 5646SOL    HW117837   4.674   1.342   0.395  0.2849 -1.2892  1.4917
 5646SOL    HW217838   4.554   1.441   0.345  1.8313 -0.0974  0.0043
 5647SOL     OW17839   4.026   2.243   1.584 -0.2307 -0.0812  0.4118
 5647SOL    HW117840   3.978   2.243   1.672  0.1555 -0.3239  0.6232
 5647SOL    HW217841   4.056   2.336   1.562 -0.2438 -0.0354  0.5841
 5648SOL     OW17842   2.598   0.560   3.977  0.3963 -0.2191 -0.3870
 5648SOL    HW117843   2.673   0.495   3.959 -0.2879 -0.5024 -2.4978
 5648SOL    HW217844   2.530   0.516   4.036  1.0141 -0.6121  0.0474
 5649SOL     OW17845   5.170   6.947   4.485 -0.3072  0.1162  0.5784
 5649SOL    HW117846   5.122   6.873   4.533  0.0929 -0.0327  0.7499
 5649SOL    HW217847   5.123   6.966   4.398 -0.7069  0.0085  0.7708
 5650SOL     OW17848   3.787   6.717   3.905 -0.1882  0.7065 -0.1577
 5650SOL    HW117849   3.788   6.647   3.976 -0.7899 -0.0459 -0.8783
 5650SOL    HW217850   3.752   6.803   3.943  0.5772  0.6366  0.7333
 5651SOL     OW17851   5.704   3.446   6.059 -0.3818 -0.1677  0.2369
 5651SOL    HW117852   5.706   3.410   6.152  0.1437 -1.1974 -0.1658
 5651SOL    HW217853   5.755   3.386   5.998 -4.2088 -1.9443 -1.5634
 5652SOL     OW17854   2.983   2.047   6.051 -0.1359 -0.4325 -0.6826
 5652SOL    HW117855   2.934   1.981   5.994  0.0564 -0.0483 -1.3141
 5652SOL    HW217856   3.078   2.054   6.019 -0.2944  0.5349 -0.9794
 5653SOL     OW17857   4.772   2.893   6.597  0.4497  0.1672 -0.3609
 5653SOL    HW117858   4.694   2.918   6.539 -0.6938 -2.4967 -0.1206
 5653SOL    HW217859   4.840   2.845   6.543 -0.3482 -1.7973  0.2788
 5654SOL     OW17860   1.714   2.160   1.084 -0.7665 -0.2838 -0.3881
 5654SOL    HW117861   1.619   2.188   1.097 -0.2884  1.0258  0.4529
 5654SOL    HW217862   1.720   2.060   1.092 -1.7610 -0.2395  1.6667
 5655SOL     OW17863   1.193   1.189   5.703  0.0415 -0.0303 -0.6229
 5655SOL    HW117864   1.282   1.145   5.718 -0.0762 -0.3550 -0.8676
 5655SOL    HW217865   1.121   1.122   5.718 -0.2480  0.6459  1.2674
 5656SOL     OW17866   0.947   6.626   1.963 -0.2491 -0.1468  0.4073
 5656SOL    HW117867   0.993   6.660   1.880  0.7729 -1.1079  0.5650
 5656SOL    HW217868   0.933   6.702   2.026  3.4990 -0.1418  1.4629
 5657SOL     OW17869   6.049   3.253   3.757  0.2779 -0.2517 -0.6066
 5657SOL    HW117870   6.016   3.176   3.702  0.9341 -2.4132  1.7946
 5657SOL    HW217871   5.977   3.284   3.818  1.3700 -2.5606  2.0784
 5658SOL     OW17872   1.088   4.858   1.930 -0.0281 -0.3108  0.0431
 5658SOL    HW117873   1.073   4.952   1.961  2.8080  0.3396 -0.2629
 5658SOL    HW217874   1.022   4.797   1.975 -0.6849  1.5511  1.7613
 5659SOL     OW17875   4.910   1.351   5.926  0.0965 -0.0877 -0.0100
 5659SOL    HW117876   4.985   1.388   5.980 -1.0549  3.1873 -0.3644
 5659SOL    HW217877   4.851   1.295   5.985  0.2446  1.2876  1.5387
 5660SOL     OW17878   4.405   5.440   0.605 -0.2377 -0.0599  0.0458
 5660SOL    HW117879   4.378   5.344   0.609  0.7129 -0.4563 -2.0737
 5660SOL    HW217880   4.505   5.447   0.603 -0.3132  0.8967 -1.0500
 5661SOL     OW17881   6.915   2.217   6.150  0.4803  0.1582  0.0838
 5661SOL    HW117882   6.999   2.254   6.110  0.1255  0.8893 -0.0087
 5661SOL    HW217883   6.932   2.187   6.244  0.8622  0.2094  0.0327
 5662SOL     OW17884   4.211   0.718   3.228 -0.6990  0.0459 -0.2433
 5662SOL    HW117885   4.197   0.643   3.293  0.8014  0.3301  0.4553
 5662SOL    HW217886   4.251   0.796   3.276 -3.0061  1.6561 -0.7667
 5663SOL     OW17887   5.206   5.201   0.451 -0.0062  0.1458  0.5073
 5663SOL    HW117888   5.259   5.272   0.403 -0.7436  0.5382  0.2602
 5663SOL    HW217889   5.217   5.114   0.403  0.1761  0.2873  0.2834
 5664SOL     OW17890   4.149   2.261   2.718  0.1851  0.5118  0.1909
 5664SOL    HW117891   4.161   2.293   2.812  0.2459  0.5208  0.1804
 5664SOL    HW217892   4.192   2.326   2.655  0.0509  0.5607  0.1503
 5665SOL     OW17893   4.941   4.543   6.415  0.1656 -0.6308 -0.2875
 5665SOL    HW117894   4.945   4.594   6.329 -0.2717 -0.9553 -0.5054
 5665SOL    HW217895   4.958   4.605   6.492 -0.5799 -0.1024 -0.5304
 5666SOL     OW17896   1.506   3.387   5.505  0.3466 -0.8570 -0.4530
 5666SOL    HW117897   1.442   3.464   5.502  0.5547 -0.7025 -1.0507
 5666SOL    HW217898   1.456   3.301   5.489  0.1349 -0.8343  0.0824
 5667SOL     OW17899   0.669   6.871   5.915  0.2069 -0.0858 -0.1032
 5667SOL    HW117900   0.678   6.831   6.006 -0.5677 -0.0098  0.0082
 5667SOL    HW217901   0.573   6.877   5.890  0.4393 -1.2632 -1.4377
 5668SOL     OW17902   6.047   2.208   1.584  0.6518 -0.3133  0.3585
 5668SOL    HW117903   6.044   2.308   1.586 -1.4832 -0.3139 -0.3308
 5668SOL    HW217904   6.141   2.178   1.573  1.4635  1.5859  1.5498
 5669SOL     OW17905   3.774   6.132   6.892 -0.5880  0.1040 -0.5489
 5669SOL    HW117906   3.825   6.117   6.977 -0.0535 -1.1158 -1.0452
 5669SOL    HW217907   3.831   6.103   6.814 -0.8987  1.5897 -1.3718
 5670SOL     OW17908   4.711   6.445   5.904  0.1730  0.1725 -0.1732
 5670SOL    HW117909   4.799   6.445   5.951  0.1320  0.0722 -0.0937
 5670SOL    HW217910   4.702   6.361   5.850 -0.3495 -0.3865  0.7414
 5671SOL     OW17911   2.049   1.567   4.516 -0.8155  0.0034 -0.2118
 5671SOL    HW117912   2.020   1.625   4.441  0.0719 -0.2878 -0.8020
 5671SOL    HW217913   2.071   1.475   4.482 -0.9802 -0.3096  0.4976
 5672SOL     OW17914   4.489   0.163   0.813  0.1136 -0.3809  0.2618
 5672SOL    HW117915   4.556   0.106   0.765 -0.8839 -2.3256  1.0789
 5672SOL    HW217916   4.433   0.213   0.747 -0.8332 -2.5243 -0.6444
 5673SOL     OW17917   0.361   6.711   2.013  0.4858  0.1615  0.6716
 5673SOL    HW117918   0.286   6.755   2.062 -0.2482 -0.8965  0.5188
 5673SOL    HW217919   0.377   6.620   2.049  2.5184  0.7767  1.5096
 5674SOL     OW17920   2.981   0.164   1.342  0.0201  0.0073 -0.0399
 5674SOL    HW117921   3.075   0.188   1.367 -0.6435  2.2030  0.5633
 5674SOL    HW217922   2.972   0.161   1.243  0.7366 -0.3574 -0.1026
 5675SOL     OW17923   4.866   4.572   5.133 -0.6821  0.6856 -0.4354
 5675SOL    HW117924   4.881   4.565   5.034 -0.4325  3.6106 -0.6803
 5675SOL    HW217925   4.787   4.631   5.150 -0.8975 -0.0082  1.1585
 5676SOL     OW17926   0.321   4.175   1.110  0.0804  0.0541 -0.3663
 5676SOL    HW117927   0.313   4.172   1.011  0.1449  0.2611 -0.3797
 5676SOL    HW217928   0.231   4.191   1.151  0.3131  1.9100 -0.4919
 5677SOL     OW17929   4.067   4.263   6.635 -0.4761  0.4368  0.6026
 5677SOL    HW117930   3.969   4.282   6.626 -0.2489  0.9489 -1.2668
 5677SOL    HW217931   4.120   4.346   6.620  0.3312 -0.4563 -2.1834
 5678SOL     OW17932   3.938   5.187   2.054  0.5403 -0.2997  0.5805
 5678SOL    HW117933   3.935   5.196   2.154 -1.4998  0.1452  0.5238
 5678SOL    HW217934   3.897   5.100   2.027 -1.6344  0.8379  0.0337
 5679SOL     OW17935   3.532   1.357   6.480 -0.4204 -0.1266  0.2694
 5679SOL    HW117936   3.619   1.310   6.492 -0.9199 -0.5548  2.7338
 5679SOL    HW217937   3.472   1.301   6.422  0.0585 -1.0812  0.6761
 5680SOL     OW17938   2.371   4.810   1.970 -0.0708  0.2461 -0.5050
 5680SOL    HW117939   2.287   4.862   1.987  0.1526  0.0237  1.4457
 5680SOL    HW217940   2.347   4.719   1.935 -0.8591 -0.7818  2.4238
 5681SOL     OW17941   1.060   5.432   3.320 -0.6942 -0.0258  0.0577
 5681SOL    HW117942   1.098   5.461   3.408 -0.5154 -1.2129  0.3962
 5681SOL    HW217943   1.082   5.335   3.305 -2.2899 -0.3392 -0.4341
 5682SOL     OW17944   6.631   0.656   5.111 -0.4574 -0.7770 -0.1238
 5682SOL    HW117945   6.544   0.605   5.111  0.5026 -2.5451  1.1429
 5682SOL    HW217946   6.625   0.732   5.047 -2.6608 -1.3229 -0.6663
 5683SOL     OW17947   4.406   6.351   0.163  0.2574 -0.0676  0.1752
 5683SOL    HW117948   4.400   6.345   0.262  0.2306  0.0944  0.1833
 5683SOL    HW217949   4.335   6.413   0.129 -0.5636 -1.1138 -0.0545
 5684SOL     OW17950   3.772   2.892   2.451  0.1029  0.4882 -0.3024
 5684SOL    HW117951   3.713   2.877   2.371  0.1691  2.5236 -0.8013
 5684SOL    HW217952   3.724   2.863   2.534 -0.6954  0.0312 -0.9062
 5685SOL     OW17953   4.855   5.965   4.998 -0.5350  0.1388 -0.1931
 5685SOL    HW117954   4.791   5.918   4.937 -1.3324 -0.5021  1.0973
 5685SOL    HW217955   4.915   6.024   4.944  0.0785 -1.8522 -1.8353
 5686SOL     OW17956   0.427   5.581   0.911  0.1213 -0.2115 -0.5226
 5686SOL    HW117957   0.502   5.646   0.924 -1.3550  1.3959  0.3392
 5686SOL    HW217958   0.460   5.502   0.858  2.0771  1.0311 -1.2645
 5687SOL     OW17959   1.780   3.891   3.206 -0.0679  0.4727 -0.3072
 5687SOL    HW117960   1.793   3.860   3.111 -2.4898 -0.5963 -0.3611
 5687SOL    HW217961   1.826   3.828   3.268 -0.6121 -0.3011 -0.6702
 5688SOL     OW17962   6.766   3.766   2.153  0.7935  0.2082  0.5431
 5688SOL    HW117963   6.783   3.836   2.085  4.0729  0.1787  1.1678
 5688SOL    HW217964   6.729   3.684   2.109  3.8783 -0.2197 -1.4957
 5689SOL     OW17965   4.203   5.372   2.968 -0.0299  0.4289  0.0760
 5689SOL    HW117966   4.180   5.451   2.911  0.3331  0.9408  0.6213
 5689SOL    HW217967   4.119   5.321   2.990 -0.5914  1.8758  1.4726
 5690SOL     OW17968   5.231   4.571   4.439 -0.4346  0.7884  0.1367
 5690SOL    HW117969   5.152   4.632   4.439  0.3947  1.9726  2.4359
 5690SOL    HW217970   5.199   4.476   4.448 -1.6273  1.0949 -0.6436
 5691SOL     OW17971   5.851   4.101   3.456  0.3155  0.2310 -0.3653
 5691SOL    HW117972   5.865   4.044   3.537 -0.2541  0.8900  0.2035
 5691SOL    HW217973   5.765   4.076   3.412 -0.2885  1.1330  0.2935
 5692SOL     OW17974   5.362   4.711   0.404 -0.7298 -0.5852 -0.0249
 5692SOL    HW117975   5.328   4.629   0.357 -1.1229 -0.5424  0.1795
 5692SOL    HW217976   5.444   4.687   0.456 -0.6427 -0.7709 -0.2443
 5693SOL     OW17977   0.474   0.419   1.483  0.0842 -0.3398  0.3846
 5693SOL    HW117978   0.395   0.372   1.443  0.1609  0.5238 -0.8281
 5693SOL    HW217979   0.557   0.367   1.463  0.1022  0.0002 -0.4574
 5694SOL     OW17980   5.721   2.479   5.748 -0.0176  0.1822  0.3506
 5694SOL    HW117981   5.696   2.510   5.840 -1.3006  1.8358 -0.5048
 5694SOL    HW217982   5.643   2.433   5.706 -0.6096  2.3990 -1.1137
 5695SOL     OW17983   0.435   3.269   1.641 -0.0892 -0.6794 -0.3130
 5695SOL    HW117984   0.534   3.260   1.650  0.1466  1.2130 -0.4873
 5695SOL    HW217985   0.396   3.291   1.731  0.0407  1.2794 -0.6953
 5696SOL     OW17986   2.550   5.306   3.083 -0.4047 -0.2058  0.1048
 5696SOL    HW117987   2.611   5.380   3.055 -2.1079  0.3618 -2.3650
 5696SOL    HW217988   2.603   5.236   3.132  2.5884 -0.5455 -3.2525
 5697SOL     OW17989   5.944   0.193   0.067  0.3002  0.1308  0.1387
 5697SOL    HW117990   5.930   0.159   0.160  0.3492 -0.7600 -0.1753
 5697SOL    HW217991   5.971   0.289   0.071 -0.0818  0.2112  1.0253
 5698SOL     OW17992   0.963   4.765   6.903 -0.5967 -0.6124 -0.0742
 5698SOL    HW117993   0.943   4.861   6.921  2.3139  0.1033 -0.1900
 5698SOL    HW217994   0.890   4.708   6.941 -3.1966  1.6577 -1.3876
 5699SOL     OW17995   2.702   6.240   3.006  0.3492  0.3671  0.2389
 5699SOL    HW117996   2.686   6.295   3.088 -1.1367 -0.4216  0.5065
 5699SOL    HW217997   2.792   6.264   2.967  2.0039 -0.5883  3.1405
 5700SOL     OW17998   4.075   0.193   5.739  0.7110  0.3205 -0.3009
 5700SOL    HW117999   4.087   0.098   5.767  1.7076  0.0447 -1.5956
 5700SOL    HW218000   4.157   0.225   5.692  0.9176  2.2509  1.2420
 5701SOL     OW18001   2.950   1.277   0.253 -0.1203 -0.8233 -0.1036
 5701SOL    HW118002   2.932   1.180   0.272 -3.4896 -0.4669 -0.8942
 5701SOL    HW218003   2.887   1.310   0.183  1.2441  1.8795 -0.2024
 5702SOL     OW18004   3.178   1.468   3.156 -0.2806 -0.7442 -0.0404
 5702SOL    HW118005   3.211   1.377   3.133 -0.3343 -0.6645 -0.4451
 5702SOL    HW218006   3.250   1.519   3.202  0.7522 -0.0403 -2.2763
 5703SOL     OW18007   5.317   2.417   4.738  0.2795 -0.4203  0.2843
 5703SOL    HW118008   5.304   2.318   4.745  0.3349 -0.3279  2.3761
 5703SOL    HW218009   5.414   2.436   4.723  0.4639 -0.6752  1.0895
 5704SOL     OW18010   2.888   1.326   0.980  0.0669  0.0652  0.2863
 5704SOL    HW118011   2.893   1.250   1.045 -0.4421  0.5347  0.8843
 5704SOL    HW218012   2.949   1.400   1.011 -1.6186  1.0874  1.3153
 5705SOL     OW18013   3.886   0.337   4.374  0.0078 -0.0615  0.3096
 5705SOL    HW118014   3.913   0.361   4.467 -0.3828  0.0405  0.3951
 5705SOL    HW218015   3.951   0.271   4.337 -0.0131 -0.3381  0.7640
 5706SOL     OW18016   6.648   0.879   4.161 -0.0981 -0.5070 -0.3789
 5706SOL    HW118017   6.687   0.955   4.107 -1.4043  0.1123 -0.4879
 5706SOL    HW218018   6.573   0.838   4.110  2.3419 -3.8422 -1.6596
 5707SOL     OW18019   6.966   6.414   1.118  0.4237  0.0811 -0.2825
 5707SOL    HW118020   6.964   6.505   1.160 -1.4097 -0.2016  0.3653
 5707SOL    HW218021   6.932   6.347   1.184  0.4712 -0.8693 -1.2042
 5708SOL     OW18022   1.508   5.931   6.831 -0.3934 -0.0075  0.2240
 5708SOL    HW118023   1.548   5.910   6.920  0.4917  1.7917  0.2965
 5708SOL    HW218024   1.410   5.911   6.832 -0.9839  2.4439  2.5250
 5709SOL     OW18025   4.263   1.436   6.508  0.1512  0.3492 -0.0294
 5709SOL    HW118026   4.199   1.360   6.511 -2.1504  1.9235 -3.2395
 5709SOL    HW218027   4.305   1.448   6.598 -2.7673 -1.8738  1.8123
 5710SOL     OW18028   5.457   1.626   3.256 -0.0640 -0.2928 -0.1717
 5710SOL    HW118029   5.431   1.600   3.163  1.3300 -0.1997 -0.6090
 5710SOL    HW218030   5.552   1.600   3.272  0.7627  2.6146  0.0900
 5711SOL     OW18031   2.328   4.465   6.696 -0.3275  0.0557 -0.2121
 5711SOL    HW118032   2.335   4.481   6.794 -1.9805  1.1393 -0.2292
 5711SOL    HW218033   2.353   4.371   6.675  2.8339  0.5488  0.8533
 5712SOL     OW18034   3.221   6.763   5.282  0.1342 -0.0919 -0.2232
 5712SOL    HW118035   3.258   6.807   5.364  1.0913 -0.0376 -0.6645
 5712SOL    HW218036   3.289   6.698   5.247 -0.9887 -1.4459  0.0444
 5713SOL     OW18037   3.148   6.302   0.928 -0.2939  0.2420  0.0042
 5713SOL    HW118038   3.196   6.246   0.861  0.2545  0.8343 -0.1064
 5713SOL    HW218039   3.110   6.244   1.000 -0.8606 -0.3903 -0.8044
 5714SOL     OW18040   6.321   6.779   5.525  0.0606 -0.4582  0.1285
 5714SOL    HW118041   6.386   6.704   5.542  1.6176  0.9916  0.8218
 5714SOL    HW218042   6.234   6.757   5.570  0.4845 -1.8401  0.3418
 5715SOL     OW18043   1.202   2.963   0.170 -1.0354 -0.2432  0.1520
 5715SOL    HW118044   1.151   3.011   0.242  0.0366  1.5247 -0.2060
 5715SOL    HW218045   1.285   2.923   0.209 -0.5281  0.5906 -0.0475
 5716SOL     OW18046   6.088   2.090   6.548  0.8186  0.1433  0.3414
 5716SOL    HW118047   6.101   2.081   6.647  0.3760  2.9909  0.7517
 5716SOL    HW218048   6.155   2.155   6.511  0.5092 -0.3149 -1.0978
 5717SOL     OW18049   4.874   1.663   1.053  0.6383  0.4090 -0.4230
 5717SOL    HW118050   4.824   1.619   1.127 -2.3594 -3.1900 -4.1191
 5717SOL    HW218051   4.814   1.726   1.005  0.6850 -1.1291 -2.6677
 5718SOL     OW18052   1.266   6.837   6.138 -0.1768 -0.0935  0.2760
 5718SOL    HW118053   1.171   6.840   6.106  0.4923 -1.3804 -2.0964
 5718SOL    HW218054   1.321   6.904   6.087  0.5762 -0.8175  0.1150
 5719SOL     OW18055   3.350   3.497   6.571  0.1906  0.0860  0.4064
 5719SOL    HW118056   3.252   3.513   6.583 -0.1039 -0.9721 -0.4402
 5719SOL    HW218057   3.401   3.547   6.641 -1.0140 -0.3132  1.5971
 5720SOL     OW18058   1.239   6.175   2.799  0.0991 -0.1305 -0.0439
 5720SOL    HW118059   1.270   6.183   2.893 -1.4748 -1.4897  0.6495
 5720SOL    HW218060   1.264   6.085   2.763 -0.9563 -0.3593 -0.2438
 5721SOL     OW18061   0.005   0.817   4.793  0.1331 -0.5369 -0.4706
 5721SOL    HW118062   0.080   0.884   4.787  0.9026 -1.2180  0.8849
 5721SOL    HW218063  -0.078   0.863   4.823  0.5234 -0.0920 -0.0458
 5722SOL     OW18064   4.377   3.341   1.211 -0.2346  0.3572  0.0748
 5722SOL    HW118065   4.356   3.340   1.309  1.6071 -0.4479  0.5192
 5722SOL    HW218066   4.381   3.436   1.179 -0.0167  0.6821  1.0071
 5723SOL     OW18067   0.013   1.306   3.361 -0.1382 -0.0702  0.1314
 5723SOL    HW118068   0.018   1.273   3.455 -1.1948  0.5681  0.4257
 5723SOL    HW218069   0.060   1.394   3.354 -0.3537  0.0478  0.1472
 5724SOL     OW18070   3.439   0.121   1.460  0.1630  0.3127  0.3745
 5724SOL    HW118071   3.484   0.144   1.547 -1.4625 -0.3200  1.4430
 5724SOL    HW218072   3.441   0.022   1.447  0.2959  0.3955 -0.2643
 5725SOL     OW18073   4.365   0.000   5.255 -0.1814  0.3895 -0.3754
 5725SOL    HW118074   4.279  -0.026   5.297 -0.1663  3.9247  2.3776
 5725SOL    HW218075   4.436  -0.065   5.280 -1.6232 -1.5247 -1.0883
 5726SOL     OW18076   4.234   4.212   0.742  0.0886 -0.1349  0.3322
 5726SOL    HW118077   4.218   4.131   0.685  1.3732  0.2733 -0.6452
 5726SOL    HW218078   4.148   4.238   0.787 -0.7061 -1.1089 -0.5690
 5727SOL     OW18079   0.830   3.418   6.192 -0.0359  0.0900 -0.3190
 5727SOL    HW118080   0.927   3.426   6.213 -0.0818 -0.3337  0.0790
 5727SOL    HW218081   0.818   3.377   6.102  0.1613 -1.3435  0.2779
 5728SOL     OW18082   4.684   1.341   3.062 -0.6090  0.1754  0.2366
 5728SOL    HW118083   4.783   1.335   3.075 -0.5276 -1.3697 -0.9282
 5728SOL    HW218084   4.660   1.318   2.968 -2.1516 -0.2252  0.6869
 5729SOL     OW18085   1.464   3.325   4.167 -0.1388 -0.4958  0.2489
 5729SOL    HW118086   1.438   3.233   4.197 -0.6654 -0.6522 -0.6262
 5729SOL    HW218087   1.545   3.355   4.218  1.2526 -2.2439 -0.7725
 5730SOL     OW18088   4.921   0.046   2.180  0.1100 -0.2807  0.0949
 5730SOL    HW118089   4.918   0.141   2.150 -0.7390 -0.0258  0.9394
 5730SOL    HW218090   5.000  -0.000   2.139  0.1294  0.5930 -0.8806
 5731SOL     OW18091   6.836   2.191   2.705  0.0961  0.5868  0.1456
 5731SOL    HW118092   6.840   2.285   2.670  0.9901  0.3748 -0.3639
 5731SOL    HW218093   6.776   2.137   2.647 -0.3106  0.8106  0.3572
 5732SOL     OW18094   5.000   5.790   0.765 -0.3304 -0.2969 -0.2493
 5732SOL    HW118095   5.053   5.719   0.718 -1.3693 -2.0683  1.1312
 5732SOL    HW218096   4.903   5.780   0.742 -0.5411  0.4483  0.2784
 5733SOL     OW18097   4.942   5.124   0.507  0.1589 -0.2608 -0.4028
 5733SOL    HW118098   4.852   5.147   0.470  0.2726 -0.1756 -0.6326
 5733SOL    HW218099   5.012   5.172   0.454  0.2798  0.5049  0.4348
 5734SOL     OW18100   3.523   2.026   3.646  0.4624 -0.0379 -0.0295
 5734SOL    HW118101   3.507   1.927   3.653  0.7017 -0.1913 -1.3326
 5734SOL    HW218102   3.523   2.066   3.738  3.2402 -1.6961  0.8629
 5735SOL     OW18103   1.290   0.533   1.845  0.9167 -0.2559  0.0834
 5735SOL    HW118104   1.230   0.529   1.766  1.4546 -0.5210 -0.3179
 5735SOL    HW218105   1.243   0.580   1.920 -0.7087 -2.5405  0.5998
 5736SOL     OW18106   0.752   0.416   4.615  0.2584  0.2909  0.4733
 5736SOL    HW118107   0.714   0.364   4.692  0.9037 -0.7470  0.1148
 5736SOL    HW218108   0.847   0.389   4.600  0.2120  0.6381 -0.5464
 5737SOL     OW18109   1.380   6.749   6.803  0.2233  0.3248 -0.0812
 5737SOL    HW118110   1.455   6.709   6.751  0.6330  0.5832  0.3077
 5737SOL    HW218111   1.296   6.698   6.784  0.6807 -0.5619  0.2202
 5738SOL     OW18112   6.905   5.636   4.522 -0.0784  0.5966 -0.2627
 5738SOL    HW118113   6.827   5.629   4.583 -1.0516 -0.5438 -1.5736
 5738SOL    HW218114   6.938   5.544   4.498  1.7994  1.0529  0.4091
 5739SOL     OW18115   2.108   2.447   6.421  0.1560  0.4017 -0.2606
 5739SOL    HW118116   2.048   2.512   6.375 -0.5016  0.5122  0.7100
 5739SOL    HW218117   2.203   2.466   6.398 -0.0048  1.8486  0.1652
 5740SOL     OW18118   5.969   3.705   4.782  0.9146 -0.3138 -0.7040
 5740SOL    HW118119   5.886   3.757   4.765 -0.3235 -1.7358  0.6394
 5740SOL    HW218120   5.994   3.655   4.700  1.1675  1.0569 -1.4905
 5741SOL     OW18121   2.975   4.987   6.468  0.5965 -0.5402 -0.2457
 5741SOL    HW118122   2.954   4.903   6.418  0.0120  1.6601 -4.0643
 5741SOL    HW218123   3.072   5.007   6.461  0.5202 -0.2399 -0.4262
 5742SOL     OW18124   2.801   0.203   5.990 -0.3442  0.3013  0.0013
 5742SOL    HW118125   2.839   0.154   6.069  1.1129 -0.6847 -1.2676
 5742SOL    HW218126   2.844   0.293   5.983 -1.4796  0.9681  1.0876
 5743SOL     OW18127   4.770   0.383   1.064 -0.4137 -0.3096 -0.2487
 5743SOL    HW118128   4.671   0.396   1.060 -0.4114  0.2151  1.0515
 5743SOL    HW218129   4.811   0.450   1.126  0.8472 -0.0917 -1.2532
 5744SOL     OW18130   3.732   6.982   3.317 -0.2962 -0.8850 -0.4085
 5744SOL    HW118131   3.804   7.024   3.262 -0.1587 -1.3322 -0.5790
 5744SOL    HW218132   3.658   7.047   3.331 -0.0309 -0.5488 -0.5616
 5745SOL     OW18133   3.078   4.419   0.105  0.1047 -0.7700  0.5292
 5745SOL    HW118134   3.171   4.451   0.085 -0.0037 -0.9567 -0.3114
 5745SOL    HW218135   3.013   4.466   0.044 -0.3035 -0.9632  0.8092
 5746SOL     OW18136   2.747   2.400   1.643  0.1951  0.1334  0.0850
 5746SOL    HW118137   2.776   2.461   1.569  1.4022 -0.9350 -0.3452
 5746SOL    HW218138   2.766   2.443   1.731  1.5992  0.1526 -0.2053
 5747SOL     OW18139   6.592   5.726   0.777 -0.5466  0.2705  0.1670
 5747SOL    HW118140   6.622   5.650   0.834  2.4037 -1.1841 -2.9824
 5747SOL    HW218141   6.522   5.694   0.713 -2.5904  1.4564  1.6988
 5748SOL     OW18142   2.151   2.409   5.421  0.0870  0.3222 -0.0836
 5748SOL    HW118143   2.053   2.427   5.430 -0.0462  0.7813 -2.0513
 5748SOL    HW218144   2.173   2.390   5.325  2.0410  0.9841  0.1884
 5749SOL     OW18145   2.497   1.399   5.660 -0.3375  0.1300  0.2167
 5749SOL    HW118146   2.555   1.324   5.690 -1.7546 -1.7827 -1.5138
 5749SOL    HW218147   2.418   1.406   5.721 -0.1434  0.3102  0.4499
 5750SOL     OW18148   4.801   2.439   1.245  0.2672 -0.3739  0.7168
 5750SOL    HW118149   4.738   2.480   1.179  0.4025 -0.6214  0.4366
 5750SOL    HW218150   4.784   2.341   1.251  1.4280 -0.6533 -0.2518
 5751SOL     OW18151   6.807   0.604   6.891  0.0553 -0.3742  0.0983
 5751SOL    HW118152   6.714   0.622   6.860  0.0270  0.1898  0.4887
 5751SOL    HW218153   6.837   0.514   6.860  0.1419  0.2826 -1.8286
 5752SOL     OW18154   0.112   6.469   4.310  0.1416 -0.2372  0.1994
 5752SOL    HW118155   0.169   6.423   4.378 -0.9492 -1.6752  0.1813
 5752SOL    HW218156   0.084   6.403   4.240 -1.3281  0.4882  0.0630
 5753SOL     OW18157   3.813   1.433   3.828 -0.1686  0.1765  0.1011
 5753SOL    HW118158   3.906   1.459   3.853  0.2098 -0.9585 -0.0636
 5753SOL    HW218159   3.778   1.367   3.895 -0.6551  0.1799 -0.1431
 5754SOL     OW18160   1.562   4.398   4.241  0.8098  0.3420 -0.2762
 5754SOL    HW118161   1.620   4.353   4.309  1.6954  0.7583 -0.7399
 5754SOL    HW218162   1.615   4.468   4.194  0.3706 -0.2669 -1.7426
 5755SOL     OW18163   0.327   1.395   4.665 -0.3281 -0.3303 -0.4507
 5755SOL    HW118164   0.348   1.303   4.633  0.1807 -0.6020  0.6353
 5755SOL    HW218165   0.384   1.461   4.617 -0.2923 -0.6319 -0.8283
 5756SOL     OW18166   6.579   0.871   4.420 -0.2236  0.4220  0.1821
 5756SOL    HW118167   6.516   0.947   4.436 -1.6330 -0.9017  1.2615
 5756SOL    HW218168   6.625   0.883   4.332 -1.5484  1.7262 -0.3674
 5757SOL     OW18169   3.249   5.844   2.892  1.0777  0.6676 -0.2040
 5757SOL    HW118170   3.206   5.933   2.877 -0.8039  0.1074  1.4093
 5757SOL    HW218171   3.262   5.798   2.804 -0.1313  1.5664 -0.8792
 5758SOL     OW18172   5.443   5.389   1.170 -0.3288 -0.2652  0.0543
 5758SOL    HW118173   5.344   5.405   1.162 -0.1382  2.1158  1.5109
 5758SOL    HW218174   5.491   5.442   1.100  0.0883  2.7645  2.4107
 5759SOL     OW18175   5.321   6.487   0.911  0.2696 -0.0701 -0.0177
 5759SOL    HW118176   5.333   6.587   0.915 -0.3520 -0.0043  0.3792
 5759SOL    HW218177   5.239   6.466   0.859  0.3826 -0.3761 -0.0706
 5760SOL     OW18178   4.101   5.440   4.321 -0.1168 -0.2312  0.2125
 5760SOL    HW118179   4.045   5.387   4.258  0.7043 -0.7781 -0.0780
 5760SOL    HW218180   4.045   5.468   4.399 -1.3049  0.9709 -1.0210
 5761SOL     OW18181   2.627   6.609   2.317 -0.2549  1.2705 -0.8791
 5761SOL    HW118182   2.690   6.628   2.392 -1.5711  1.7423  0.1548
 5761SOL    HW218183   2.565   6.687   2.305 -0.9166  0.6534 -1.5694
 5762SOL     OW18184   1.560   5.668   6.693  0.2026 -0.2045  0.2327
 5762SOL    HW118185   1.539   5.584   6.741  2.0566 -1.0215 -0.2774
 5762SOL    HW218186   1.533   5.747   6.749  0.8990 -1.1200  1.9317
 5763SOL     OW18187   7.007   4.766   2.779 -0.1831 -0.0868 -0.0615
 5763SOL    HW118188   7.056   4.752   2.865  1.8789 -0.7688 -1.2714
 5763SOL    HW218189   6.931   4.701   2.772  2.0371 -2.8106 -0.4206
 5764SOL     OW18190   3.230   1.272   0.723  0.1149  0.1518  0.1207
 5764SOL    HW118191   3.242   1.360   0.676  0.1222  0.2096  0.2293
 5764SOL    HW218192   3.298   1.207   0.689  0.7140  0.4678  0.7024
 5765SOL     OW18193   6.639   0.355   5.380 -0.3657 -0.4441 -0.5306
 5765SOL    HW118194   6.565   0.359   5.448 -0.1794 -0.5622 -0.3206
 5765SOL    HW218195   6.712   0.417   5.408 -0.7795  0.3821 -1.2167
 5766SOL     OW18196   1.187   5.061   5.169 -0.4428  0.1589 -0.4825
 5766SOL    HW118197   1.179   5.036   5.072  1.2190 -0.1204 -0.5851
 5766SOL    HW218198   1.274   5.109   5.183  0.1797 -1.3428  1.1643
 5767SOL     OW18199   2.325   4.493   0.476  0.5665 -0.2877 -0.9771
 5767SOL    HW118200   2.354   4.511   0.570 -0.6327 -0.6799 -0.5096
 5767SOL    HW218201   2.262   4.415   0.475 -2.5147  1.9739 -1.5174
 5768SOL     OW18202   1.445   0.711   5.955 -0.0670  0.5220 -0.3535
 5768SOL    HW118203   1.389   0.654   5.895 -0.8966 -0.0423  0.9224
 5768SOL    HW218204   1.487   0.654   6.026  0.0634  1.3242  0.2290
 5769SOL     OW18205   0.408   4.168   2.637 -0.3537 -0.2798 -0.0204
 5769SOL    HW118206   0.414   4.122   2.548  1.3740 -2.2652  1.0287
 5769SOL    HW218207   0.424   4.266   2.625  1.6850 -0.7436 -1.7482
 5770SOL     OW18208   6.659   4.670   6.440 -0.0879 -0.3180  0.7534
 5770SOL    HW118209   6.597   4.597   6.413  0.4007 -0.9057  1.1920
 5770SOL    HW218210   6.720   4.692   6.364 -1.2931  0.7716  0.0684
 5771SOL     OW18211   4.461   4.475   5.979 -0.0447 -0.5335  0.0635
 5771SOL    HW118212   4.422   4.437   5.895 -0.7101 -2.1957  1.0665
 5771SOL    HW218213   4.518   4.405   6.023  1.0704  0.6340  0.5192
 5772SOL     OW18214   1.039   5.102   5.891 -0.1336  0.5180 -0.1482
 5772SOL    HW118215   1.077   5.153   5.968 -1.7448  1.3233  0.1528
 5772SOL    HW218216   1.097   5.022   5.872  1.0913  1.1132  0.9308
 5773SOL     OW18217   4.286   0.849   6.877 -0.5879  0.7622  0.0950
 5773SOL    HW118218   4.200   0.888   6.911 -1.2355 -1.0609  0.6682
 5773SOL    HW218219   4.338   0.810   6.953  1.2250  2.6125 -0.1163
 5774SOL     OW18220   1.666   0.007   0.022  0.1775  0.2810  0.0973
 5774SOL    HW118221   1.708   0.003  -0.068  0.6997 -0.2886  0.3602
 5774SOL    HW218222   1.691   0.093   0.067 -0.4248  0.7513 -0.4596
 5775SOL     OW18223   5.027   5.860   6.963  0.2706 -0.0573 -0.2623
 5775SOL    HW118224   5.051   5.855   7.060  1.6914 -1.5724 -0.6438
 5775SOL    HW218225   4.928   5.863   6.953  0.0788 -0.6165  1.2255
 5776SOL     OW18226   4.761   4.137   0.982 -0.3335 -0.1194 -0.0900
 5776SOL    HW118227   4.753   4.041   1.008  0.3735  0.2381  1.6298
 5776SOL    HW218228   4.692   4.191   1.030 -1.0187  0.1978 -1.3896
 5777SOL     OW18229   5.202   2.016   3.711 -0.1255  0.3002 -0.4463
 5777SOL    HW118230   5.106   2.014   3.686 -0.2605  1.2208 -0.0565
 5777SOL    HW218231   5.212   1.994   3.808  0.0629  0.1849 -0.4899
 5778SOL     OW18232   1.940   0.163   5.706  0.3392  0.4673  1.0156
 5778SOL    HW118233   1.908   0.136   5.797  1.2861 -2.9098  0.4986
 5778SOL    HW218234   1.907   0.097   5.638  2.8023  0.6455 -0.4852
 5779SOL     OW18235   6.144   4.005   0.434  0.6492 -0.0345  0.3916
 5779SOL    HW118236   6.172   4.022   0.340  1.0784  2.0558  0.8370
 5779SOL    HW218237   6.221   3.965   0.485 -0.2232 -3.1431 -0.5789
 5780SOL     OW18238   5.024   2.773   6.241  0.1556 -0.4673  0.1126
 5780SOL    HW118239   5.028   2.748   6.337 -0.5006 -0.6942  0.0850
 5780SOL    HW218240   5.091   2.719   6.189 -0.6444 -1.5526  0.1855
 5781SOL     OW18241   2.590   2.568   4.854 -0.1316  0.3550  0.3821
 5781SOL    HW118242   2.672   2.609   4.896  0.5006  0.0034 -0.4757
 5781SOL    HW218243   2.521   2.639   4.840  0.6433  1.0028 -0.3350
 5782SOL     OW18244   3.247   0.311   4.301 -0.0123  0.0372 -1.1049
 5782SOL    HW118245   3.164   0.359   4.328 -0.5441 -1.6338  0.4713
 5782SOL    HW218246   3.223   0.233   4.242  0.6070  0.3876 -1.8420
 5783SOL     OW18247   1.356   6.728   1.888 -0.0869 -0.1381 -0.5019
 5783SOL    HW118248   1.367   6.706   1.984 -1.9847  0.9105  0.0087
 5783SOL    HW218249   1.375   6.647   1.832  0.6688 -0.8534  0.7582
 5784SOL     OW18250   6.511   4.774   5.727 -0.0997  0.4078 -0.6703
 5784SOL    HW118251   6.515   4.822   5.639  1.9306 -2.0450 -2.0550
 5784SOL    HW218252   6.586   4.804   5.786  0.6187 -0.3318 -1.1789
 5785SOL     OW18253   5.255   2.214   5.573 -0.1248  0.9255 -0.3953
 5785SOL    HW118254   5.155   2.221   5.571 -0.3758 -0.0481  2.5457
 5785SOL    HW218255   5.283   2.124   5.540 -0.2738  0.9875 -0.6865
 5786SOL     OW18256   1.652   4.242   6.565 -0.6271  0.0583  0.3342
 5786SOL    HW118257   1.554   4.247   6.545 -1.3438  0.5598  3.4968
 5786SOL    HW218258   1.680   4.146   6.573 -0.7595 -0.0914 -0.8386
 5787SOL     OW18259   0.396   2.960   6.271 -0.5546 -0.3734 -0.0287
 5787SOL    HW118260   0.409   2.969   6.369  0.6072  0.5468 -0.2540
 5787SOL    HW218261   0.455   3.025   6.222 -0.9032 -0.9972 -1.3427
 5788SOL     OW18262   6.644   4.828   3.929 -0.1492 -0.2224 -0.4095
 5788SOL    HW118263   6.569   4.822   3.863  0.5480  0.9206 -1.3259
 5788SOL    HW218264   6.632   4.910   3.985 -0.9357 -1.3641  1.1809
 5789SOL     OW18265   1.801   6.623   1.819 -0.1540 -0.2468 -0.3859
 5789SOL    HW118266   1.878   6.576   1.862  0.3929  0.2782 -0.7790
 5789SOL    HW218267   1.776   6.575   1.734  0.7915  0.4814 -1.1027
 5790SOL     OW18268   2.381   4.511   4.860  0.5003 -0.4524  0.2469
 5790SOL    HW118269   2.294   4.540   4.820  0.7779  0.7468  0.4825
 5790SOL    HW218270   2.367   4.488   4.957  0.5205  0.1998  0.4123
 5791SOL     OW18271   1.898   5.119   0.049  0.2978 -0.1262  0.1966
 5791SOL    HW118272   1.858   5.165  -0.030  1.1604 -0.6371 -0.5546
 5791SOL    HW218273   1.994   5.145   0.059 -0.0887  0.7978  1.7606
 5792SOL     OW18274   5.424   4.347   2.896  0.4602 -0.4401 -0.0163
 5792SOL    HW118275   5.370   4.413   2.948 -1.1134 -0.3271 -1.6759
 5792SOL    HW218276   5.466   4.392   2.817 -2.1984 -1.6199 -2.2829
 5793SOL     OW18277   1.716   0.971   3.454  0.5336 -0.3291 -0.1762
 5793SOL    HW118278   1.770   1.030   3.394  0.5200  0.8021  0.8943
 5793SOL    HW218279   1.776   0.926   3.520  0.2259  0.7589  0.8744
 5794SOL     OW18280   3.937   0.841   5.348 -0.0337 -0.2868  0.2331
 5794SOL    HW118281   4.037   0.841   5.349  0.0173 -1.5948 -1.1494
 5794SOL    HW218282   3.903   0.779   5.418  0.1419 -0.2195  0.3778
 5795SOL     OW18283   5.045   2.318   6.225  0.0163 -0.2724  0.4725
 5795SOL    HW118284   5.056   2.258   6.146  1.8993 -0.4572  0.8291
 5795SOL    HW218285   5.054   2.265   6.309  0.6210  0.3279  0.7950
 5796SOL     OW18286   0.870   2.398   5.271 -0.5849 -0.1358 -0.1703
 5796SOL    HW118287   0.815   2.479   5.290 -0.1427  0.0763  0.2260
 5796SOL    HW218288   0.886   2.391   5.172  1.7212  1.8617 -0.0490
 5797SOL     OW18289   3.585   0.286   1.302 -0.0045  0.2144 -1.3230
 5797SOL    HW118290   3.528   0.315   1.226 -1.7487  1.1770  0.2832
 5797SOL    HW218291   3.533   0.226   1.362 -0.0613  2.5976  1.1828
 5798SOL     OW18292   0.269   4.026   4.546  0.7807 -0.5376  0.3384
 5798SOL    HW118293   0.303   4.009   4.454 -0.1382 -0.7681  0.0280
 5798SOL    HW218294   0.228   3.943   4.583 -0.8500  0.1072  0.0738
 5799SOL     OW18295   1.012   4.081   5.142 -0.6615  0.1887  0.1040
 5799SOL    HW118296   1.057   3.992   5.151 -1.2630 -0.1262  0.0846
 5799SOL    HW218297   0.915   4.071   5.167 -0.5455  1.0203  0.9153
 5800SOL     OW18298   0.632   5.611   1.504 -0.1518  0.0195 -0.8241
 5800SOL    HW118299   0.644   5.518   1.470 -0.1644  0.1427 -1.1723
 5800SOL    HW218300   0.539   5.622   1.541 -0.1448 -0.1090 -0.7692
 5801SOL     OW18301   2.557   2.953   1.742  0.0264  0.8589 -0.3858
 5801SOL    HW118302   2.573   2.859   1.774 -0.3183  0.2347 -1.9212
 5801SOL    HW218303   2.608   2.967   1.657  0.2649  2.1604 -0.0354
 5802SOL     OW18304   1.995   3.176   1.834  0.0866  0.3001 -1.1531
 5802SOL    HW118305   1.957   3.252   1.886 -0.5604 -0.3577 -0.6402
 5802SOL    HW218306   2.092   3.193   1.816  0.5512  0.2349  0.9315
 5803SOL     OW18307   2.226   4.226   3.012 -0.4659  0.1869 -0.6352
 5803SOL    HW118308   2.208   4.227   3.110  2.7346 -0.5653  0.0619
 5803SOL    HW218309   2.207   4.135   2.975 -0.1663  0.0207 -0.3814
 5804SOL     OW18310   6.890   0.741   5.168 -0.0882  0.1211 -0.5579
 5804SOL    HW118311   6.813   0.679   5.153  0.0607 -0.4263  0.7833
 5804SOL    HW218312   6.975   0.689   5.162  0.1195  0.5082 -0.9606
 5805SOL     OW18313   5.125   1.747   2.051 -0.2719 -0.1590  0.1012
 5805SOL    HW118314   5.143   1.669   2.110 -0.7920 -0.2791  0.1029
 5805SOL    HW218315   5.068   1.719   1.974 -0.6073  0.2475  0.1951
 5806SOL     OW18316   2.556   4.624   3.394  0.2753  0.7384  0.0898
 5806SOL    HW118317   2.631   4.676   3.436  1.0854 -0.4948  0.2158
 5806SOL    HW218318   2.592   4.572   3.316 -0.9253  1.8998 -1.3005
 5807SOL     OW18319   0.078   1.086   3.919  0.3602 -0.2495  0.5908
 5807SOL    HW118320   0.118   1.095   4.010  0.2330  0.2925  0.5954
 5807SOL    HW218321   0.031   0.998   3.912 -0.4201  0.0908  1.3670
 5808SOL     OW18322   0.826   6.581   1.468 -0.3129 -0.6469  0.0249
 5808SOL    HW118323   0.846   6.485   1.486  0.0698 -0.5725 -0.0041
 5808SOL    HW218324   0.911   6.631   1.451 -0.5426 -0.3862 -0.3798
 5809SOL     OW18325   4.612   6.565   0.537  0.1396 -0.2130  0.3062
 5809SOL    HW118326   4.583   6.600   0.448  1.8825 -1.7238 -0.9323
 5809SOL    HW218327   4.537   6.513   0.578 -0.4893  0.0009 -0.5287
 5810SOL     OW18328   3.426   4.011   2.285  0.8489  0.0555 -0.2553
 5810SOL    HW118329   3.470   3.993   2.373  0.7441 -2.0829 -0.5928
 5810SOL    HW218330   3.484   4.074   2.232  1.8448 -0.0970  0.6112
 5811SOL     OW18331   3.293   6.735   5.549 -0.2438  0.2398 -0.5099
 5811SOL    HW118332   3.324   6.684   5.629  0.3579  2.0152  0.4389
 5811SOL    HW218333   3.223   6.801   5.577 -1.2605 -0.2438 -1.7724
 5812SOL     OW18334   4.627   1.864   4.268 -0.3472  0.1411 -0.2955
 5812SOL    HW118335   4.592   1.952   4.298 -0.8474  0.1683 -0.9461
 5812SOL    HW218336   4.644   1.866   4.170  2.2013  0.3622  0.0835
 5813SOL     OW18337   0.618   0.267   2.306 -0.3000  0.2908 -0.2489
 5813SOL    HW118338   0.612   0.298   2.211 -0.4420  0.6247 -0.1329
 5813SOL    HW218339   0.625   0.167   2.308 -0.8251  0.2400 -0.5926
 5814SOL     OW18340   1.929   3.457   1.697 -0.3972  0.3254 -0.0898
 5814SOL    HW118341   1.907   3.482   1.791  0.8073 -0.0961  0.3146
 5814SOL    HW218342   1.845   3.460   1.642 -1.2805 -0.2599  1.1663
 5815SOL     OW18343   3.745   5.639   5.702  0.2910  0.5305  0.0188
 5815SOL    HW118344   3.819   5.656   5.637 -0.8734  0.2081 -1.4281
 5815SOL    HW218345   3.665   5.692   5.677  0.1730  1.3789  1.9465
 5816SOL     OW18346   1.880   2.291   3.817  0.0967 -0.8038 -0.4450
 5816SOL    HW118347   1.931   2.205   3.811 -0.0661 -1.0491  1.2289
 5816SOL    HW218348   1.785   2.272   3.840 -0.4197 -0.2516 -1.9671
 5817SOL     OW18349   2.438   6.011   6.897 -0.4776  0.4551 -0.3888
 5817SOL    HW118350   2.370   6.084   6.903 -0.2058  0.9293 -2.1918
 5817SOL    HW218351   2.456   5.991   6.800  1.0561 -0.4868  0.0575
 5818SOL     OW18352   6.115   1.800   2.176  0.3286  0.4716 -0.6228
 5818SOL    HW118353   6.175   1.843   2.109  0.8787 -0.2644 -0.6152
 5818SOL    HW218354   6.163   1.794   2.264  0.8041 -1.3626 -0.9551
 5819SOL     OW18355   5.970   2.795   6.763  0.4642 -0.0817  0.4669
 5819SOL    HW118356   5.962   2.750   6.674  1.2944  1.1255 -0.2436
 5819SOL    HW218357   5.902   2.868   6.770  0.6252  0.0487  0.6945
 5820SOL     OW18358   2.995   1.022   4.535 -0.1807 -1.0561 -0.0398
 5820SOL    HW118359   2.977   0.948   4.599 -1.2717 -1.6960 -1.0332
 5820SOL    HW218360   2.909   1.068   4.512  0.2235 -0.6724 -0.8368
 5821SOL     OW18361   5.594   4.948   0.949 -0.1507 -0.5975 -0.1481
 5821SOL    HW118362   5.624   4.868   1.001 -1.8640 -2.3053 -1.5656
 5821SOL    HW218363   5.619   5.032   0.997  3.9530 -1.8320  0.2323
 5822SOL     OW18364   4.832   5.375   6.833 -0.8938  0.5315 -0.0362
 5822SOL    HW118365   4.880   5.438   6.894 -1.4984  1.0384 -0.0700
 5822SOL    HW218366   4.770   5.318   6.887 -0.0335 -0.3394  0.0462
 5823SOL     OW18367   4.378   5.380   5.584  0.8083 -0.4582 -0.3240
 5823SOL    HW118368   4.411   5.286   5.590 -0.2706 -0.7631  2.0608
 5823SOL    HW218369   4.394   5.426   5.671  0.8825  1.4356 -1.2943
 5824SOL     OW18370   3.415   4.874   6.308 -0.8090  0.0891 -0.1465
 5824SOL    HW118371   3.465   4.804   6.257  0.4785  1.6374 -1.1256
 5824SOL    HW218372   3.453   4.881   6.400 -0.9375 -0.4557 -0.0445
 5825SOL     OW18373   3.610   2.336   1.404  0.0691 -0.8172 -0.2836
 5825SOL    HW118374   3.686   2.393   1.435  0.7126 -1.9306  0.2341
 5825SOL    HW218375   3.639   2.280   1.327 -0.6298 -0.2975 -0.9428
 5826SOL     OW18376   5.084   4.386   1.724  0.1255 -0.1095  0.0344
 5826SOL    HW118377   5.173   4.379   1.769 -0.2832 -1.5509  0.6613
 5826SOL    HW218378   5.012   4.357   1.787 -0.5240 -1.6813 -1.3533
 5827SOL     OW18379   0.030   6.936   2.787 -0.2469 -0.2607  0.2369
 5827SOL    HW118380   0.053   7.030   2.812 -2.3733  0.7410 -1.2296
 5827SOL    HW218381  -0.061   6.913   2.823 -0.0549 -1.5222 -0.0221
 5828SOL     OW18382   4.425   1.653   2.818 -0.2528  0.5563  0.1677
 5828SOL    HW118383   4.523   1.661   2.803 -0.1558 -0.9886 -0.1183
 5828SOL    HW218384   4.382   1.613   2.738 -0.7701 -0.9770  1.1720
 5829SOL     OW18385   1.793   2.279   5.229 -0.5732 -0.0771  0.2758
 5829SOL    HW118386   1.754   2.191   5.258  0.1503 -0.2334  0.7924
 5829SOL    HW218387   1.871   2.261   5.168  1.1728  0.1090  2.3387
 5830SOL     OW18388   5.329   3.471   0.297 -0.1334  0.3342  0.0791
 5830SOL    HW118389   5.311   3.386   0.247  0.2828 -0.0686  0.6045
 5830SOL    HW218390   5.421   3.468   0.336  0.3761  1.5521 -0.9383
 5831SOL     OW18391   0.532   5.027   4.438  0.3350 -0.1361 -0.2276
 5831SOL    HW118392   0.457   4.961   4.427  0.0296  0.5717 -3.9062
 5831SOL    HW218393   0.609   5.000   4.379  1.1879  1.4708  0.0800
 5832SOL     OW18394   3.488   3.240   0.238 -0.3520 -0.0542 -0.2814
 5832SOL    HW118395   3.394   3.218   0.262 -0.3951  0.6453  0.2377
 5832SOL    HW218396   3.526   3.169   0.180 -1.2473 -0.2660 -0.6130
 5833SOL     OW18397   3.081   3.990   2.898 -0.4398 -0.2646 -0.4078
 5833SOL    HW118398   3.174   4.018   2.871 -0.0418 -1.7603 -0.7275
 5833SOL    HW218399   3.073   3.992   2.997 -0.3397  0.6418 -0.4051
 5834SOL     OW18400   2.685   6.664   6.435  0.0671 -0.2992 -0.6795
 5834SOL    HW118401   2.754   6.618   6.379  1.1092  0.3481  0.0472
 5834SOL    HW218402   2.607   6.602   6.448 -0.0324 -0.6002 -2.4924
 5835SOL     OW18403   6.783   6.647   2.487  0.1795  0.8569 -0.1065
 5835SOL    HW118404   6.781   6.613   2.582 -1.0125  1.0225 -0.0674
 5835SOL    HW218405   6.859   6.711   2.477  1.3449 -0.3999  0.2994
 5836SOL     OW18406   0.995   3.346   2.115  0.1340  0.0907 -0.6368
 5836SOL    HW118407   0.895   3.347   2.110  0.1920  1.8361 -2.7749
 5836SOL    HW218408   1.024   3.372   2.207 -1.4027  1.4730 -0.4949
 5837SOL     OW18409   3.870   4.820   5.364 -0.3007 -0.1139 -0.4852
 5837SOL    HW118410   3.791   4.872   5.397  0.6728  0.4359  1.0865
 5837SOL    HW218411   3.854   4.723   5.378  0.1113  0.0995  1.8387
 5838SOL     OW18412   1.217   5.035   4.037 -0.0580  0.1374  0.2304
 5838SOL    HW118413   1.145   5.059   3.973  0.8797  1.1290 -0.4921
 5838SOL    HW218414   1.190   5.062   4.130 -0.2401  1.3754 -0.1697
 5839SOL     OW18415   4.568   1.184   2.470 -0.1728  0.4978 -0.4660
 5839SOL    HW118416   4.478   1.227   2.460 -1.2294 -1.6562 -0.7643
 5839SOL    HW218417   4.559   1.099   2.521  1.7917  0.4060 -0.1862
 5840SOL     OW18418   4.606   5.125   5.906  0.2353  0.8719 -0.0055
 5840SOL    HW118419   4.697   5.156   5.877  0.7622  0.2265  0.9071
 5840SOL    HW218420   4.602   5.025   5.902  0.3525  0.7315  2.0998
 5841SOL     OW18421   1.917   2.249   1.602 -0.3592 -0.7482  0.0231
 5841SOL    HW118422   1.886   2.157   1.577  0.0173 -0.8726  0.0125
 5841SOL    HW218423   1.964   2.290   1.524 -0.0606 -0.7506  0.2037
 5842SOL     OW18424   1.028   2.711   5.764  0.0117  0.5811 -0.2549
 5842SOL    HW118425   1.058   2.735   5.672  0.3086  2.6164  0.3115
 5842SOL    HW218426   0.928   2.713   5.769 -0.0928 -1.4281 -0.9695
 5843SOL     OW18427   4.652   1.685   0.866 -0.6183 -0.3175 -0.3585
 5843SOL    HW118428   4.651   1.585   0.861 -0.1064 -0.4233  1.1934
 5843SOL    HW218429   4.599   1.722   0.790 -0.1572 -1.7374 -1.4238
 5844SOL     OW18430   0.263   0.629   5.402 -0.3141  0.1025  0.4488
 5844SOL    HW118431   0.193   0.701   5.401 -1.9212 -1.3514  1.6967
 5844SOL    HW218432   0.350   0.666   5.367 -1.9340  1.6624 -2.2369
 5845SOL     OW18433   1.643   6.892   6.263  0.1052 -0.1084 -0.6064
 5845SOL    HW118434   1.559   6.839   6.265  0.4812 -0.7054  0.7890
 5845SOL    HW218435   1.625   6.986   6.292 -0.2410  0.0313 -1.2667
 5846SOL     OW18436   3.351   6.836   2.155 -0.2986 -0.4316 -0.2915
 5846SOL    HW118437   3.303   6.751   2.178  0.4384 -0.2450  2.2495
 5846SOL    HW218438   3.349   6.897   2.234  2.7887  0.1796 -0.5807
 5847SOL     OW18439   0.558   4.388   6.236  0.1866 -0.1472 -0.0313
 5847SOL    HW118440   0.579   4.482   6.207 -3.7726  0.4712 -1.5422
 5847SOL    HW218441   0.542   4.386   6.334 -1.9820  1.4222 -0.2652
 5848SOL     OW18442   2.114   0.513   6.455 -0.1736 -0.4672 -0.6350
 5848SOL    HW118443   2.019   0.538   6.441  0.5271  2.3063 -1.0247
 5848SOL    HW218444   2.134   0.511   6.553 -0.6031 -1.0612 -0.5531
 5849SOL     OW18445   6.388   1.384   3.080 -0.0193  0.2553 -0.2761
 5849SOL    HW118446   6.352   1.470   3.046  1.7863  1.0779 -0.2544
 5849SOL    HW218447   6.476   1.400   3.125  0.3774 -1.6123 -0.2811
 5850SOL     OW18448   5.481   1.843   2.246 -0.8588  0.1372 -0.1614
 5850SOL    HW118449   5.386   1.872   2.255 -1.3092 -1.5139  0.8384
 5850SOL    HW218450   5.485   1.744   2.229  0.6558  0.3201 -1.0328
 5851SOL     OW18451   5.032   5.010   2.231  0.3986 -0.7317  0.0198
 5851SOL    HW118452   5.038   4.916   2.198 -0.0907 -0.7223 -0.1133
 5851SOL    HW218453   5.005   5.010   2.327  1.0355 -0.7418  0.1987
 5852SOL     OW18454   4.915   0.478   4.404 -0.1045  0.0360 -0.1002
 5852SOL    HW118455   4.994   0.417   4.404  0.4218  0.6672  1.5609
 5852SOL    HW218456   4.831   0.425   4.395  0.4940 -0.5977 -2.5836
 5853SOL     OW18457   4.053   3.341   2.538  0.0250  0.6210  0.3898
 5853SOL    HW118458   4.101   3.358   2.624  1.1065 -1.7663  0.3618
 5853SOL    HW218459   3.997   3.258   2.547  1.5053 -0.7064 -1.6289
 5854SOL     OW18460   1.038   2.773   3.569  0.0729 -0.2579  0.2319
 5854SOL    HW118461   0.962   2.838   3.556  0.4076  0.4567  1.5861
 5854SOL    HW218462   1.086   2.796   3.654  1.1889 -1.3269 -0.0920
 5855SOL     OW18463   6.407   2.604   2.987 -0.0123  0.1868 -0.2990
 5855SOL    HW118464   6.322   2.579   2.940 -1.0108  1.8401  0.5075
 5855SOL    HW218465   6.387   2.620   3.084  1.1596  0.9490 -0.1683
 5856SOL     OW18466   4.659   4.429   6.357 -0.2025 -0.3251 -0.3979
 5856SOL    HW118467   4.675   4.517   6.402 -2.3673  0.7434 -1.5597
 5856SOL    HW218468   4.716   4.423   6.275  1.7152 -1.0921  0.9362
 5857SOL     OW18469   4.967   4.900   4.906 -0.3083  0.1148 -0.5825
 5857SOL    HW118470   4.954   4.902   4.807  2.4302 -0.3297 -1.0391
 5857SOL    HW218471   4.946   4.808   4.941  0.4187 -0.2493 -1.0724
 5858SOL     OW18472   5.587   2.046   4.650 -0.7546 -0.1737  0.0550
 5858SOL    HW118473   5.506   2.014   4.601 -1.4983  1.2415  0.3182
 5858SOL    HW218474   5.584   2.012   4.744 -0.4892 -0.9801 -0.2127
 5859SOL     OW18475   0.019   3.510   1.151  0.0571 -0.5578  0.0472
 5859SOL    HW118476   0.116   3.490   1.165  0.0467 -0.7284 -0.1333
 5859SOL    HW218477  -0.036   3.431   1.177 -0.2030  0.3215  2.4677
 5860SOL     OW18478   1.189   0.518   3.392 -0.6431 -0.0834  0.1447
 5860SOL    HW118479   1.222   0.612   3.377  0.0285 -0.4109 -0.5108
 5860SOL    HW218480   1.197   0.467   3.306 -1.2412 -0.6703  0.4375
 5861SOL     OW18481   2.021   5.776   2.767  0.3241  0.3592  0.2565
 5861SOL    HW118482   1.979   5.847   2.710  0.4778 -0.3408 -0.7482
 5861SOL    HW218483   2.092   5.729   2.715 -1.6350 -2.4362 -0.1710
 5862SOL     OW18484   0.595   0.423   3.284 -0.3191  0.1112 -0.1584
 5862SOL    HW118485   0.650   0.503   3.307 -0.1379 -0.2596  0.7471
 5862SOL    HW218486   0.575   0.423   3.186 -1.0251  1.6885 -0.0329
 5863SOL     OW18487   1.746   5.745   1.555  0.3360 -0.0610  0.3375
 5863SOL    HW118488   1.652   5.749   1.521  0.6648  0.4791 -0.5256
 5863SOL    HW218489   1.771   5.650   1.571 -0.4543 -0.1920  0.8612
 5864SOL     OW18490   6.109   1.134   6.360  0.1923  0.0261 -0.5003
 5864SOL    HW118491   6.105   1.085   6.273 -1.2046 -0.5235 -0.1479
 5864SOL    HW218492   6.204   1.155   6.381  0.6080 -0.3566 -1.8635
 5865SOL     OW18493   0.764   0.462   4.901  0.0434  0.2500  0.2652
 5865SOL    HW118494   0.681   0.407   4.909  0.7710 -0.7057  1.3744
 5865SOL    HW218495   0.844   0.408   4.926  0.7909  1.7789  1.3674
 5866SOL     OW18496   3.465   2.976   6.620  0.1094  0.2730 -0.2791
 5866SOL    HW118497   3.516   3.059   6.595  0.7998  0.2447  0.9674
 5866SOL    HW218498   3.425   2.987   6.710 -0.4643 -0.4681 -0.4336
 5867SOL     OW18499   2.834   3.140   5.305 -0.2612  0.4410 -0.7131
 5867SOL    HW118500   2.761   3.098   5.360  0.4409  0.5507  0.3422
 5867SOL    HW218501   2.819   3.120   5.209 -1.3425 -0.0648 -0.4550
 5868SOL     OW18502   3.692   0.169   5.782 -0.0291 -0.8072  0.2743
 5868SOL    HW118503   3.762   0.186   5.851 -1.5325  3.8178  0.9946
 5868SOL    HW218504   3.610   0.221   5.804 -2.0430 -2.2948 -2.9624
 5869SOL     OW18505   4.882   0.830   2.233 -0.4115  0.3035  0.3056
 5869SOL    HW118506   4.835   0.747   2.261  0.0986  0.7834  2.8296
 5869SOL    HW218507   4.826   0.880   2.166 -0.9261 -1.7869 -0.8934
 5870SOL     OW18508   1.904   0.718   5.328  0.3969  0.3743 -0.3008
 5870SOL    HW118509   1.876   0.701   5.423  0.3890  1.3966 -0.1082
 5870SOL    HW218510   1.852   0.659   5.267  0.6527 -0.5512  0.3508
 5871SOL     OW18511   3.798   6.188   4.261 -0.6167 -0.3084 -0.4742
 5871SOL    HW118512   3.740   6.208   4.183 -0.4462 -1.2375 -0.8511
 5871SOL    HW218513   3.854   6.108   4.241 -1.5308 -1.3930  1.0759
 5872SOL     OW18514   4.783   6.543   5.536  0.2933  0.2133  0.7807
 5872SOL    HW118515   4.683   6.554   5.538  0.4838  2.6373  0.2865
 5872SOL    HW218516   4.805   6.446   5.523 -2.0021 -0.2922  0.0116
 5873SOL     OW18517   5.765   4.267   0.398  0.2411  0.1519  0.1607
 5873SOL    HW118518   5.819   4.320   0.463  0.0179  1.4806 -0.6860
 5873SOL    HW218519   5.802   4.280   0.306  0.4022 -1.4930 -0.0324
 5874SOL     OW18520   0.628   6.356   6.278  0.3380  0.0605  0.1480
 5874SOL    HW118521   0.608   6.315   6.189  2.7767  0.0069 -0.4547
 5874SOL    HW218522   0.548   6.347   6.337 -0.8595 -1.2221 -1.5422
 5875SOL     OW18523   3.910   1.224   2.887 -0.0310 -0.4457  0.4061
 5875SOL    HW118524   3.992   1.266   2.925  0.1677 -1.1376  0.7575
 5875SOL    HW218525   3.935   1.161   2.814 -0.2249 -0.8291  0.6653
 5876SOL     OW18526   1.896   1.216   1.404 -0.1142  0.3112 -0.3067
 5876SOL    HW118527   1.957   1.145   1.440 -0.3134  1.2435  2.0336
 5876SOL    HW218528   1.949   1.299   1.387 -0.6347  1.0843  1.6154
 5877SOL     OW18529   2.169   6.129   0.376  0.6372  0.6371  0.2160
 5877SOL    HW118530   2.146   6.033   0.393  0.5464  0.7030  0.4754
 5877SOL    HW218531   2.096   6.172   0.323  1.2006  0.2741 -0.8802
 5878SOL     OW18532   3.485   1.276   0.567 -0.4113 -0.4375  0.3626
 5878SOL    HW118533   3.498   1.280   0.468 -1.2705  0.0724  0.2588
 5878SOL    HW218534   3.440   1.360   0.598 -0.1658 -0.5991  1.1840
 5879SOL     OW18535   3.675   6.038   1.676  0.0043 -0.2684  0.4369
 5879SOL    HW118536   3.720   6.037   1.766  0.7985 -0.4629  0.0487
 5879SOL    HW218537   3.704   6.119   1.625 -0.2136 -0.3144  0.2399
 5880SOL     OW18538   0.890   4.166   4.036 -0.5528 -0.0881  0.1107
 5880SOL    HW118539   0.894   4.081   4.090 -1.9670  0.0847  0.5253
 5880SOL    HW218540   0.965   4.166   3.970  0.8340 -0.6255  1.6006
 5881SOL     OW18541   0.958   4.768   6.564  0.5266 -0.2484  1.1071
 5881SOL    HW118542   1.003   4.707   6.629 -0.2737 -0.6649  1.2794
 5881SOL    HW218543   0.945   4.721   6.477  2.9291  0.7792  0.1086
 5882SOL     OW18544   1.078   4.338   3.677 -0.2927  0.2857  0.2374
 5882SOL    HW118545   1.119   4.281   3.748 -2.0273  1.6713  2.4816
 5882SOL    HW218546   0.984   4.308   3.659 -0.3910  0.9081 -0.3508
 5883SOL     OW18547   4.882   4.525   3.163 -0.2513 -0.2935  0.0644
 5883SOL    HW118548   4.784   4.536   3.144 -0.4793 -1.0943  0.6694
 5883SOL    HW218549   4.894   4.503   3.260  0.1756 -3.8211 -0.6476
 5884SOL     OW18550   0.875   1.269   6.240  0.4877  0.9100 -0.5975
 5884SOL    HW118551   0.944   1.197   6.242  0.9552  1.3601 -0.4667
 5884SOL    HW218552   0.813   1.254   6.163  0.4590  0.2573 -0.4511
 5885SOL     OW18553   4.465   3.581   0.887  0.2651 -0.0723 -0.3180
 5885SOL    HW118554   4.460   3.674   0.850 -1.4383  0.2616  0.6426
 5885SOL    HW218555   4.560   3.550   0.886  1.1274  2.3045  0.8609
 5886SOL     OW18556   6.942   1.179   6.555  0.1848  0.4401  0.2909
 5886SOL    HW118557   6.851   1.198   6.591  0.3386 -0.7545  1.3634
 5886SOL    HW218558   6.934   1.149   6.459 -0.5401  0.4038  0.3551
 5887SOL     OW18559   6.536   4.324   0.804 -0.5311  0.1661  0.2741
 5887SOL    HW118560   6.599   4.248   0.787 -0.1301  0.0563  2.0338
 5887SOL    HW218561   6.447   4.304   0.761  0.3145 -0.1104 -1.4207
 5888SOL     OW18562   2.614   6.465   1.654 -0.4338  0.2018 -0.1646
 5888SOL    HW118563   2.620   6.468   1.554  2.8110  1.0051 -0.0543
 5888SOL    HW218564   2.634   6.555   1.691  1.4558 -0.7379  1.2477
 5889SOL     OW18565   2.579   1.907   5.936 -0.3393 -0.1300  0.9048
 5889SOL    HW118566   2.484   1.924   5.909 -0.0019 -0.1490 -0.3547
 5889SOL    HW218567   2.580   1.851   6.019 -1.4525 -2.6178 -0.6549
 5890SOL     OW18568   4.408   6.369   3.456  0.1346 -0.4451  0.4193
 5890SOL    HW118569   4.443   6.400   3.367 -2.3091 -0.6574 -0.7027
 5890SOL    HW218570   4.462   6.291   3.488 -0.0486 -1.5542 -1.8039
 5891SOL     OW18571   2.290   4.379   1.504  0.7253 -0.1153  0.4881
 5891SOL    HW118572   2.211   4.368   1.444 -0.1154 -0.4601  1.6187
 5891SOL    HW218573   2.372   4.344   1.459 -0.2470 -2.4037  0.3625
 5892SOL     OW18574   4.564   3.428   5.368  0.4582 -0.0823  0.3714
 5892SOL    HW118575   4.465   3.416   5.369  0.4230  0.0472  2.4281
 5892SOL    HW218576   4.589   3.497   5.300 -0.6716 -1.2896 -1.3524
 5893SOL     OW18577   2.578   4.627   5.201 -0.2759  0.1600  0.7379
 5893SOL    HW118578   2.479   4.614   5.198 -0.0676 -1.3965 -0.6425
 5893SOL    HW218579   2.623   4.542   5.227  0.8799 -0.6518 -3.2136
 5894SOL     OW18580   1.409   6.009   3.612 -0.0034 -0.0441 -0.6240
 5894SOL    HW118581   1.386   6.076   3.683 -1.0742 -0.6245 -0.3912
 5894SOL    HW218582   1.482   6.045   3.554 -0.2437  1.1337 -0.2280
 5895SOL     OW18583   6.008   4.935   1.419 -0.5747  0.5226  0.3005
 5895SOL    HW118584   6.095   4.890   1.401 -0.3314  0.3841  1.7247
 5895SOL    HW218585   5.965   4.960   1.333 -0.3175 -1.6570 -0.5298
 5896SOL     OW18586   1.731   1.998   2.491  0.2334  0.1614  0.2330
 5896SOL    HW118587   1.674   1.950   2.558  1.6347  1.4572  2.5113
 5896SOL    HW218588   1.706   1.969   2.399 -1.9686 -1.5529  1.2641
 5897SOL     OW18589   1.967   2.323   4.540  0.1072  0.1403  0.0057
 5897SOL    HW118590   2.006   2.403   4.495  1.8502  0.6861  2.2553
 5897SOL    HW218591   2.015   2.241   4.508 -0.6064  0.1488 -1.1425
 5898SOL     OW18592   4.009   3.099   2.033  0.1011  0.6203 -1.0134
 5898SOL    HW118593   3.980   3.080   2.127 -0.5015  2.1034 -0.8826
 5898SOL    HW218594   4.009   3.013   1.981  0.4797 -0.2334  0.3259
 5899SOL     OW18595   2.900   2.017   0.707  0.0948  0.1090 -0.4160
 5899SOL    HW118596   2.883   2.013   0.608  1.5437  1.4221 -0.7470
 5899SOL    HW218597   2.959   2.094   0.728 -1.3242  0.7348  1.6722
 5900SOL     OW18598   2.820   4.085   6.311 -0.3278 -0.5757  0.2193
 5900SOL    HW118599   2.762   4.034   6.248  0.7817 -0.7144 -0.7404
 5900SOL    HW218600   2.769   4.108   6.394 -2.1806  0.5581 -1.1599
 5901SOL     OW18601   3.397   5.731   3.484  0.2380 -0.1467  0.2709
 5901SOL    HW118602   3.440   5.668   3.419 -0.1762 -0.4138  0.2522
 5901SOL    HW218603   3.460   5.749   3.559 -0.5410 -2.6459  1.6437
 5902SOL     OW18604   3.981   3.067   3.182  0.3260 -0.0553  0.1895
 5902SOL    HW118605   3.997   3.121   3.099 -0.0768 -0.4457 -0.1451
 5902SOL    HW218606   4.068   3.046   3.225  0.8594 -2.4531 -1.7873
 5903SOL     OW18607   3.207   3.421   3.151  0.0780 -0.3067 -0.6772
 5903SOL    HW118608   3.114   3.384   3.152 -0.9174  1.9017  2.0555
 5903SOL    HW218609   3.228   3.456   3.060 -1.7202 -0.9444 -1.3714
 5904SOL     OW18610   2.337   2.651   2.653 -0.2623 -0.5284 -0.4196
 5904SOL    HW118611   2.287   2.639   2.568 -1.4195 -1.0540  0.3116
 5904SOL    HW218612   2.323   2.744   2.688  1.5931  0.2611 -1.6301
 5905SOL     OW18613   6.147   3.680   6.324 -1.0120 -0.3666  0.2362
 5905SOL    HW118614   6.063   3.662   6.272 -0.8929 -1.0868  0.2846
 5905SOL    HW218615   6.134   3.651   6.419  0.0316 -2.6466 -0.2585
 5906SOL     OW18616   0.653   1.624   1.968  0.5735  0.5491 -0.0022
 5906SOL    HW118617   0.661   1.577   2.056  1.4409  1.0571  0.2035
 5906SOL    HW218618   0.702   1.711   1.973  1.4809  0.1351 -1.2960
 5907SOL     OW18619   1.866   3.130   5.630 -0.0580 -0.5619 -0.1231
 5907SOL    HW118620   1.816   3.169   5.707  0.2460  0.3277 -0.3614
 5907SOL    HW218621   1.867   3.031   5.637  1.5256 -0.4571  2.0026
 5908SOL     OW18622   5.829   5.539   2.830  0.1581 -0.2012 -0.3469
 5908SOL    HW118623   5.834   5.503   2.737 -0.5349  0.5073 -0.6713
 5908SOL    HW218624   5.822   5.639   2.827 -0.7400 -0.2308  0.4390
 5909SOL     OW18625   4.695   2.192   6.544  0.0776 -0.1377  0.8541
 5909SOL    HW118626   4.779   2.210   6.596  1.6243 -1.0238 -1.1886
 5909SOL    HW218627   4.617   2.233   6.591  1.6601  0.8866  2.7344
 5910SOL     OW18628   4.095   0.448   3.774  0.7419 -0.2928  0.6484
 5910SOL    HW118629   4.017   0.409   3.725  0.5627  0.2588  0.4774
 5910SOL    HW218630   4.177   0.439   3.719  0.8101 -0.9104  0.8443
 5911SOL     OW18631   1.835   6.741   6.861  0.2282 -0.0657 -0.2583
 5911SOL    HW118632   1.818   6.650   6.900  1.6951 -0.1361  0.2759
 5911SOL    HW218633   1.902   6.789   6.917 -2.2749  2.3479  0.8883
 5912SOL     OW18634   0.240   3.283   3.210 -0.0501 -0.2234  0.0106
 5912SOL    HW118635   0.263   3.269   3.307 -0.8715 -1.3913  0.0527
 5912SOL    HW218636   0.183   3.207   3.178 -0.6175  0.6658 -1.1301
 5913SOL     OW18637   3.363   0.096   0.491  0.5162  0.3195  0.2517
 5913SOL    HW118638   3.439   0.066   0.548  0.2241 -0.5056  0.2255
 5913SOL    HW218639   3.313   0.169   0.538  0.8131  0.2675  0.6514
 5914SOL     OW18640   4.582   0.557   1.713  0.1543 -0.4722 -0.2022
 5914SOL    HW118641   4.641   0.597   1.783 -0.8371  0.4346  0.1515
 5914SOL    HW218642   4.637   0.533   1.633  0.9991  0.3419  0.1093
 5915SOL     OW18643   1.946   6.674   5.792 -0.5403 -0.4776 -0.2064
 5915SOL    HW118644   1.954   6.753   5.853 -3.5188 -0.1766 -0.0204
 5915SOL    HW218645   1.927   6.592   5.845 -1.2953 -0.5693 -0.6027
 5916SOL     OW18646   0.259   2.926   4.341 -0.5630  0.6706 -1.0518
 5916SOL    HW118647   0.254   3.026   4.346  0.4138  0.6986 -0.2057
 5916SOL    HW218648   0.203   2.893   4.265 -2.9533  1.6575  0.1653
 5917SOL     OW18649   2.508   6.736   1.922 -0.5156 -0.2229  0.1874
 5917SOL    HW118650   2.478   6.645   1.893  0.1315 -0.3603 -0.0651
 5917SOL    HW218651   2.434   6.780   1.974 -0.3338 -1.4648  1.5856
 5918SOL     OW18652   3.845   1.646   1.508 -0.2272  0.4850 -0.5966
 5918SOL    HW118653   3.817   1.582   1.580 -1.9935 -3.0212 -4.0337
 5918SOL    HW218654   3.793   1.731   1.517 -1.0167 -0.1493  1.6629
 5919SOL     OW18655   3.363   1.169   1.083 -0.5011 -0.0613 -0.4500
 5919SOL    HW118656   3.286   1.132   1.031 -2.0969  0.5461  1.4048
 5919SOL    HW218657   3.374   1.266   1.063 -0.6441  0.0062 -0.1975
 5920SOL     OW18658   5.790   6.683   2.351 -0.4855  1.0177  0.0151
 5920SOL    HW118659   5.734   6.715   2.427 -0.0797  0.5332  0.5264
 5920SOL    HW218660   5.762   6.590   2.326 -1.0418  1.4127 -0.8473
 5921SOL     OW18661   1.463   6.811   3.996 -1.0482 -0.3827  0.0185
 5921SOL    HW118662   1.384   6.859   3.958 -1.8752 -0.6567  1.3585
 5921SOL    HW218663   1.442   6.714   4.007 -0.1807 -0.6461 -0.4857
 5922SOL     OW18664   2.664   0.848   5.216 -0.0032  0.4557 -0.3028
 5922SOL    HW118665   2.684   0.851   5.314 -0.9124  0.4551 -0.1081
 5922SOL    HW218666   2.725   0.911   5.168 -1.4810  2.7229  0.6257
 5923SOL     OW18667   4.536   6.074   1.350  0.4101  0.1174  0.2533
 5923SOL    HW118668   4.500   6.062   1.443 -0.3681 -0.7939 -0.1502
 5923SOL    HW218669   4.510   5.996   1.294  1.2017  0.4780 -0.6422
 5924SOL     OW18670   5.640   2.663   1.459  0.3216  0.2814  0.1806
 5924SOL    HW118671   5.601   2.671   1.367  0.0743  0.3647  0.2917
 5924SOL    HW218672   5.690   2.577   1.467  0.0715  0.1249  0.0718
 5925SOL     OW18673   5.489   5.609   4.214  0.3661 -0.3914  0.3298
 5925SOL    HW118674   5.477   5.584   4.117 -0.7497  2.3849 -0.3419
 5925SOL    HW218675   5.399   5.617   4.257  0.5776  2.2335  0.4560
 5926SOL     OW18676   1.581   6.908   0.831 -0.5952  0.2846 -0.1887
 5926SOL    HW118677   1.598   6.889   0.734 -0.9215 -0.5461 -0.0963
 5926SOL    HW218678   1.562   7.005   0.844  0.0095  0.5054 -0.8745
 5927SOL     OW18679   2.304   3.122   1.795  0.6140  0.0726  0.1605
 5927SOL    HW118680   2.394   3.080   1.789  0.6335  0.2431 -0.9576
 5927SOL    HW218681   2.260   3.119   1.705 -0.3081  0.4019  0.5889
 5928SOL     OW18682   0.791   3.767   3.973 -0.1910  0.0072 -0.3217
 5928SOL    HW118683   0.829   3.738   3.886  0.2841 -1.5615  0.3579
 5928SOL    HW218684   0.857   3.824   4.022 -0.9832  2.0566 -1.5147
 5929SOL     OW18685   1.719   3.656   5.248  0.0567  0.1568 -0.3533
 5929SOL    HW118686   1.761   3.747   5.256 -1.1785  0.6576  0.8958
 5929SOL    HW218687   1.769   3.591   5.305  1.5826 -0.2365 -2.0515
 5930SOL     OW18688   4.462   4.554   3.864 -0.2379  0.0055 -0.0348
 5930SOL    HW118689   4.529   4.509   3.805 -0.3096  2.2987 -2.0548
 5930SOL    HW218690   4.478   4.653   3.861 -0.5023  0.2918  3.5981
 5931SOL     OW18691   2.256   1.747   6.199 -0.4971 -0.0593 -0.1767
 5931SOL    HW118692   2.248   1.677   6.270  2.5581 -1.5570 -1.1184
 5931SOL    HW218693   2.286   1.833   6.240 -2.8471  0.3838  0.7929
 5932SOL     OW18694   0.498   6.563   0.057  0.0666 -0.6170 -0.0870
 5932SOL    HW118695   0.555   6.645   0.055 -0.6815 -0.0185  1.5777
 5932SOL    HW218696   0.541   6.494   0.116  0.4785 -1.2847 -1.1398
 5933SOL     OW18697   6.983   1.534   0.694  0.1941 -0.1815 -0.2576
 5933SOL    HW118698   6.966   1.500   0.787  0.6332  2.1368  0.7361
 5933SOL    HW218699   7.072   1.502   0.662  0.0688 -0.9456  0.1491
 5934SOL     OW18700   4.149   3.551   3.791 -0.1463 -0.0556  0.3817
 5934SOL    HW118701   4.234   3.577   3.837 -0.3794 -0.6686  1.1908
 5934SOL    HW218702   4.079   3.532   3.859 -0.4691 -1.1172 -0.2227
 5935SOL     OW18703   1.851   0.652   0.547 -0.2836  0.6171  0.0079
 5935SOL    HW118704   1.771   0.676   0.601 -0.4022  0.1079  0.0645
 5935SOL    HW218705   1.891   0.735   0.507 -0.6923  0.8974  0.1779
 5936SOL     OW18706   2.412   4.911   0.170  0.5526 -0.1821  0.5328
 5936SOL    HW118707   2.472   4.983   0.137  0.5970  0.5311  2.0596
 5936SOL    HW218708   2.442   4.881   0.261  0.2918 -1.8505  0.1092
 5937SOL     OW18709   0.596   4.980   6.973 -0.7284  0.1666 -0.7698
 5937SOL    HW118710   0.688   4.942   6.982 -0.5498  0.9417  1.1240
 5937SOL    HW218711   0.584   5.018   6.881  1.3473  1.3273 -0.6158
 5938SOL     OW18712   0.795   2.043   0.104 -0.2652 -0.0340  0.5289
 5938SOL    HW118713   0.855   2.114   0.068 -2.5884  1.0047 -1.6059
 5938SOL    HW218714   0.711   2.085   0.139 -0.8256 -1.5995  1.1634
 5939SOL     OW18715   4.086   6.594   4.418 -0.2878  0.4960  0.2103
 5939SOL    HW118716   4.013   6.649   4.457 -0.4020  0.5548 -0.0827
 5939SOL    HW218717   4.069   6.497   4.436  0.8030  0.6274  2.2532
 5940SOL     OW18718   2.398   5.211   1.723  0.5959  0.0695 -0.2685
 5940SOL    HW118719   2.471   5.143   1.728  0.1529 -0.5433 -1.5942
 5940SOL    HW218720   2.363   5.230   1.815  1.8493 -0.2406  0.2920
 5941SOL     OW18721   2.713   6.448   0.810  0.0694  0.3918 -0.3107
 5941SOL    HW118722   2.771   6.415   0.736  1.1796  1.3594  0.0826
 5941SOL    HW218723   2.619   6.420   0.795  0.3286  0.3343 -1.9429
 5942SOL     OW18724   0.525   5.677   0.468  0.2749  0.6558  0.6730
 5942SOL    HW118725   0.470   5.596   0.450  0.4502  0.8599 -0.9421
 5942SOL    HW218726   0.585   5.660   0.545  2.9137 -2.1796 -1.7292
 5943SOL     OW18727   2.808   0.830   6.316 -0.1714 -0.4043  0.6488
 5943SOL    HW118728   2.790   0.826   6.218 -0.3851 -1.4572  0.7273
 5943SOL    HW218729   2.905   0.815   6.333 -0.3974 -1.9080  0.6986
 5944SOL     OW18730   6.301   1.164   5.703 -0.1068  1.0290  0.3196
 5944SOL    HW118731   6.215   1.214   5.715 -0.8230  0.0833 -0.6232
 5944SOL    HW218732   6.327   1.167   5.606  0.7047  0.9347  0.5274
 5945SOL     OW18733   6.213   0.373   4.391  0.0025 -0.4954 -0.4171
 5945SOL    HW118734   6.233   0.299   4.327 -1.1554 -0.4768 -0.8232
 5945SOL    HW218735   6.297   0.400   4.438  0.6984 -1.1291 -1.2625
 5946SOL     OW18736   1.131   4.358   4.517  0.2679  0.1534  0.0450
 5946SOL    HW118737   1.188   4.298   4.573  1.0555  1.0403  0.2196
 5946SOL    HW218738   1.134   4.327   4.422 -0.0238 -0.5778  0.2630
 5947SOL     OW18739   1.266   0.723   4.792  0.1389 -0.2634 -0.4913
 5947SOL    HW118740   1.294   0.709   4.696 -0.7037  0.2587 -0.8217
 5947SOL    HW218741   1.215   0.644   4.824  1.4166 -0.9517 -0.0843
 5948SOL     OW18742   6.708   4.149   3.933  0.1704  0.3158  0.7624
 5948SOL    HW118743   6.774   4.075   3.944  0.2182  0.4660  1.5131
 5948SOL    HW218744   6.756   4.236   3.930  0.1429  0.3007 -0.4654
 5949SOL     OW18745   0.505   4.072   0.386  0.1047 -0.7938  0.0710
 5949SOL    HW118746   0.435   4.040   0.449  1.8972 -2.6063  1.2451
 5949SOL    HW218747   0.562   3.995   0.357  2.9080  0.8569  0.8091
 5950SOL     OW18748   1.962   3.223   5.992  0.1510 -0.7296  0.7362
 5950SOL    HW118749   1.975   3.320   5.971  0.9961 -0.2255  3.2267
 5950SOL    HW218750   1.882   3.212   6.051  0.1790 -1.5172  0.6413
 5951SOL     OW18751   4.473   0.887   5.152 -0.8012 -0.5258 -0.2434
 5951SOL    HW118752   4.531   0.919   5.227 -1.2356 -0.6138  0.1377
 5951SOL    HW218753   4.417   0.810   5.184 -1.2644 -0.3221 -0.5458
 5952SOL     OW18754   6.793   2.224   4.982  0.3875 -1.0189 -0.3223
 5952SOL    HW118755   6.698   2.222   5.013  1.2511  1.8451  3.2485
 5952SOL    HW218756   6.803   2.291   4.909 -0.1390 -0.1330  0.3915
 5953SOL     OW18757   5.519   5.632   6.554 -0.1231  0.5021  0.5615
 5953SOL    HW118758   5.480   5.586   6.474 -0.1474 -0.7504  1.2684
 5953SOL    HW218759   5.504   5.576   6.635 -1.1572  2.3091  1.6733
 5954SOL     OW18760   0.802   2.155   3.656  0.2955  0.0413  0.6196
 5954SOL    HW118761   0.864   2.138   3.580  0.7971  0.3929  0.9392
 5954SOL    HW218762   0.722   2.205   3.623 -0.9126 -2.3083 -0.2094
 5955SOL     OW18763   6.448   4.217   5.203  0.8693 -0.3847  0.3903
 5955SOL    HW118764   6.381   4.223   5.129 -0.6835 -0.6669  1.7032
 5955SOL    HW218765   6.457   4.122   5.232  0.0736 -0.0747  1.7358
 5956SOL     OW18766   0.712   2.945   0.798 -0.5282 -0.8437 -0.1983
 5956SOL    HW118767   0.763   3.019   0.841 -1.3786 -0.6024  0.4183
 5956SOL    HW218768   0.623   2.979   0.768  0.0703 -0.9728 -2.2727
 5957SOL     OW18769   2.915   5.071   0.441 -0.1471  0.1936  0.1221
 5957SOL    HW118770   3.004   5.084   0.484  0.8539 -0.4196 -1.6299
 5957SOL    HW218771   2.843   5.102   0.502  1.1249 -1.0854  2.4007
 5958SOL     OW18772   2.893   2.726   6.299  0.2225  0.1639 -0.1253
 5958SOL    HW118773   2.857   2.668   6.373  0.6519 -0.4720 -0.4123
 5958SOL    HW218774   2.974   2.684   6.260  0.6821  1.0781 -0.1869
 5959SOL     OW18775   5.552   2.042   1.869  0.3469  0.2161  0.3564
 5959SOL    HW118776   5.483   1.997   1.813  1.4212 -0.5595 -0.3878
 5959SOL    HW218777   5.581   1.982   1.943 -0.0776  0.7171  0.9510
 5960SOL     OW18778   6.736   5.181   6.701  0.1048  0.3130 -0.1729
 5960SOL    HW118779   6.698   5.187   6.609 -0.2514  1.4892  0.0346
 5960SOL    HW218780   6.814   5.242   6.709  0.9943 -0.8045 -0.0834
 5961SOL     OW18781   5.397   2.993   5.990  0.0728  0.8957  0.4092
 5961SOL    HW118782   5.459   2.991   5.911  0.0475  2.1409  0.3336
 5961SOL    HW218783   5.317   3.050   5.967 -1.2890 -0.9352  0.3822
 5962SOL     OW18784   5.746   2.079   2.618  0.0275  0.4305 -0.2145
 5962SOL    HW118785   5.807   2.021   2.564 -0.9053  1.1616 -2.1272
 5962SOL    HW218786   5.756   2.056   2.715  1.7767 -0.9060 -0.6591
 5963SOL     OW18787   0.814   1.849   2.977 -0.2363  0.0130  0.5358
 5963SOL    HW118788   0.852   1.906   2.904  0.0763 -0.5344  0.2635
 5963SOL    HW218789   0.736   1.797   2.942 -0.5323  0.2803  0.7881
 5964SOL     OW18790   0.822   6.527   6.347  0.0807 -0.1338  0.2393
 5964SOL    HW118791   0.743   6.471   6.323 -0.5099  0.9743 -0.4965
 5964SOL    HW218792   0.797   6.624   6.343  1.1740  0.2137  1.1079
 5965SOL     OW18793   1.788   6.436   3.251 -0.1923 -0.3811 -0.2062
 5965SOL    HW118794   1.842   6.357   3.224  1.1615  0.5103 -0.2071
 5965SOL    HW218795   1.792   6.505   3.179  0.9187  0.7845  0.9219
 5966SOL     OW18796   6.406   2.404   6.052  0.1492  0.3307  0.2445
 5966SOL    HW118797   6.375   2.310   6.065  1.4128 -0.3733 -1.4054
 5966SOL    HW218798   6.500   2.404   6.018  1.0694  2.3020  2.5189
 5967SOL     OW18799   1.686   4.903   4.825  0.4599 -0.0666 -0.2241
 5967SOL    HW118800   1.747   4.907   4.747  0.8508  1.6115  0.1419
 5967SOL    HW218801   1.738   4.881   4.908  0.2223 -0.7287 -0.2437
 5968SOL     OW18802   6.167   0.219   1.696  0.1978 -0.3258 -0.1781
 5968SOL    HW118803   6.126   0.297   1.649  1.7660  1.2892  0.9847
 5968SOL    HW218804   6.133   0.216   1.790  0.9942 -0.3290  0.1173
 5969SOL     OW18805   6.763   2.534   5.743 -0.0896 -0.3965  0.1789
 5969SOL    HW118806   6.838   2.566   5.687 -0.0225 -0.9482 -0.0517
 5969SOL    HW218807   6.790   2.451   5.791 -1.4108 -2.2174 -2.0269
 5970SOL     OW18808   5.519   0.831   1.924 -0.5831 -0.5332 -0.0385
 5970SOL    HW118809   5.532   0.733   1.941 -2.4404 -0.6625  0.9454
 5970SOL    HW218810   5.456   0.843   1.847  0.0293 -0.0848 -0.4796
 5971SOL     OW18811   0.429   3.995   6.283 -0.1032  0.7039 -0.6727
 5971SOL    HW118812   0.377   3.916   6.249  0.5679  0.3973 -0.9991
 5971SOL    HW218813   0.385   4.079   6.252  0.1329  0.4351 -1.7754
 5972SOL     OW18814   4.156   4.524   6.843  0.5370 -0.3811 -0.0007
 5972SOL    HW118815   4.134   4.604   6.788  0.6355 -0.2755  0.1115
 5972SOL    HW218816   4.084   4.455   6.832  0.7376 -0.5091 -0.5422
 5973SOL     OW18817   2.464   6.370   6.878  0.3378 -0.2946 -0.5293
 5973SOL    HW118818   2.503   6.406   6.963  0.3580 -0.2183 -0.5707
 5973SOL    HW218819   2.388   6.308   6.899 -1.2668  1.5956 -0.5164
 5974SOL     OW18820   4.587   2.439   1.832  0.7542  0.5851  0.4432
 5974SOL    HW118821   4.651   2.483   1.768  0.9326  2.1670  1.6466
 5974SOL    HW218822   4.586   2.489   1.918  0.2571 -1.2983  1.5927
 5975SOL     OW18823   3.379   2.062   5.666  0.1002 -0.8595 -0.1175
 5975SOL    HW118824   3.477   2.043   5.674  1.4267  3.4376 -2.8005
 5975SOL    HW218825   3.345   2.027   5.579 -0.7548 -2.0948  0.6839
 5976SOL     OW18826   0.586   0.174   5.192  0.2862 -0.0219  0.4193
 5976SOL    HW118827   0.488   0.173   5.214  0.2983  0.6521  0.5236
 5976SOL    HW218828   0.623   0.082   5.205 -0.2930 -0.2462  0.5603
 5977SOL     OW18829   4.087   0.528   5.149 -0.1426 -0.3284 -0.1267
 5977SOL    HW118830   4.107   0.450   5.090 -0.1005 -1.5500  1.4299
 5977SOL    HW218831   4.012   0.506   5.211  0.5294  0.4711  1.0302
 5978SOL     OW18832   2.162   2.680   6.861  0.0895  0.1845  0.0143
 5978SOL    HW118833   2.130   2.590   6.890  0.2722  0.0077 -0.3242
 5978SOL    HW218834   2.100   2.718   6.792  0.2959  0.0857 -0.2292
 5979SOL     OW18835   0.188   5.093   2.953  0.4257  0.0901  0.4713
 5979SOL    HW118836   0.281   5.127   2.968 -0.2192  1.7500  0.8984
 5979SOL    HW218837   0.180   5.061   2.858  1.9858 -2.0879  0.9768
 5980SOL     OW18838   0.966   0.950   5.778  0.5894 -0.6516 -0.0813
 5980SOL    HW118839   0.943   0.854   5.760  0.6171 -0.1755 -3.1988
 5980SOL    HW218840   0.913   1.009   5.717  2.3708  1.1518  0.0034
 5981SOL     OW18841   0.820   6.724   6.782  0.5066 -0.3848 -0.0563
 5981SOL    HW118842   0.724   6.707   6.760  0.1549  1.8844 -0.5023
 5981SOL    HW218843   0.832   6.728   6.881  0.7334 -3.4116  0.1416
 5982SOL     OW18844   1.601   4.189   0.753  0.2551  0.0308 -0.3784
 5982SOL    HW118845   1.565   4.279   0.729  0.8699  0.2345 -0.5591
 5982SOL    HW218846   1.539   4.145   0.819 -0.3791  0.3127 -0.7747
 5983SOL     OW18847   0.352   5.735   4.832 -0.1435  0.6679  0.0642
 5983SOL    HW118848   0.446   5.711   4.854  0.2475  2.9459  1.2609
 5983SOL    HW218849   0.292   5.704   4.906 -0.3905 -0.9137 -0.7684
 5984SOL     OW18850   2.298   4.532   1.911 -0.2637  0.0445 -0.2797
 5984SOL    HW118851   2.278   4.554   1.815  1.1533  3.2689  0.0090
 5984SOL    HW218852   2.387   4.486   1.916  0.4851  1.3909 -0.4928
 5985SOL     OW18853   3.495   1.466   0.092  0.4602  0.4251 -0.1390
 5985SOL    HW118854   3.473   1.482  -0.004 -0.1654  1.3725  0.1444
 5985SOL    HW218855   3.574   1.522   0.118 -0.7930  1.9970  0.4658
 5986SOL     OW18856   3.655   4.079   3.708 -0.0426 -0.9380  0.3029
 5986SOL    HW118857   3.564   4.121   3.706 -0.1488 -1.1292  0.9044
 5986SOL    HW218858   3.686   4.062   3.614 -2.2026 -4.2396  0.0282
 5987SOL     OW18859   0.096   3.879   1.350 -0.1359  0.1663 -0.3728
 5987SOL    HW118860   0.033   3.843   1.281 -0.4016  1.0532 -0.6181
 5987SOL    HW218861   0.189   3.847   1.332 -0.5085 -1.1870  0.0100
 5988SOL     OW18862   2.186   1.764   0.958  0.1359 -0.2102 -0.2721
 5988SOL    HW118863   2.274   1.733   0.992  1.5760  2.0043 -1.6955
 5988SOL    HW218864   2.149   1.697   0.894  0.8396 -1.1192  0.2521
 5989SOL     OW18865   2.841   1.524   5.240 -0.6636  0.0008  0.1217
 5989SOL    HW118866   2.843   1.573   5.327 -1.0210 -0.9193  0.6663
 5989SOL    HW218867   2.909   1.563   5.178  1.5945 -1.0473  1.7796
 5990SOL     OW18868   2.212   3.994   3.591 -0.0439  0.4236  0.4509
 5990SOL    HW118869   2.125   4.016   3.547 -1.4267 -1.0115  2.3056
 5990SOL    HW218870   2.272   3.948   3.525 -0.6384  1.5036 -0.8795
 5991SOL     OW18871   4.153   5.164   5.788  0.0132 -0.1209 -0.0420
 5991SOL    HW118872   4.135   5.150   5.690  3.2171 -0.2621 -0.7292
 5991SOL    HW218873   4.237   5.116   5.813 -0.7097 -0.0504  2.8192
 5992SOL     OW18874   3.804   2.089   3.944 -0.4126  0.2821  0.2857
 5992SOL    HW118875   3.842   1.998   3.958  0.6277  0.9630  2.3900
 5992SOL    HW218876   3.862   2.140   3.881  0.4697  0.2824  1.0650
 5993SOL     OW18877   5.211   1.944   5.478 -0.0696 -0.6338 -0.3464
 5993SOL    HW118878   5.135   1.975   5.421  0.4445 -0.4467 -0.9429
 5993SOL    HW218879   5.232   1.849   5.456  1.1315 -0.1090 -1.6064
 5994SOL     OW18880   6.406   0.468   4.813  0.0840 -0.1004  0.1113
 5994SOL    HW118881   6.384   0.564   4.804 -1.4200 -0.4183  0.2227
 5994SOL    HW218882   6.438   0.432   4.725 -1.4729 -0.0013 -0.5240
 5995SOL     OW18883   2.990   6.716   6.141 -0.4860 -0.3954 -0.2454
 5995SOL    HW118884   3.009   6.731   6.238 -0.3421 -0.6931 -0.2255
 5995SOL    HW218885   2.911   6.655   6.132 -0.2777 -0.6617 -0.3071
 5996SOL     OW18886   2.613   0.018   0.052  0.4487 -0.1615  0.3076
 5996SOL    HW118887   2.574   0.049   0.139 -0.3405  1.5945 -0.6339
 5996SOL    HW218888   2.552  -0.048   0.009  0.2856 -0.1642  0.5420
 5997SOL     OW18889   6.023   6.364   3.003 -0.0384 -0.1741  0.1924
 5997SOL    HW118890   6.074   6.430   2.948 -1.5405  2.6985  1.9497
 5997SOL    HW218891   6.074   6.343   3.086  0.9850 -2.3130 -0.9094
 5998SOL     OW18892   3.915   3.340   2.287  0.3006 -0.3405 -0.4622
 5998SOL    HW118893   3.978   3.341   2.365 -1.0991 -1.5187  0.7463
 5998SOL    HW218894   3.880   3.248   2.274 -1.9824  0.4607 -0.3949
 5999SOL     OW18895   5.957   1.423   1.885 -0.0222  0.2696 -0.1511
 5999SOL    HW118896   6.011   1.476   1.950 -1.1531  2.5139 -0.9423
 5999SOL    HW218897   6.010   1.345   1.853  0.8705 -0.4223  2.7709
 6000SOL     OW18898   1.391   3.022   6.486 -0.5465 -0.1778 -0.4813
 6000SOL    HW118899   1.398   3.068   6.574  0.2291 -0.6097 -0.3159
 6000SOL    HW218900   1.300   2.981   6.477 -0.7862  0.2587 -0.0841
 6001SOL     OW18901   2.075   3.110   3.514  0.4534 -0.2608 -0.4613
 6001SOL    HW118902   2.123   3.067   3.437  0.0011 -1.5608 -0.0354
 6001SOL    HW218903   1.977   3.114   3.494  0.4891  0.6649 -0.5215
 6002SOL     OW18904   3.156   1.784   3.412  0.3150 -0.6398  0.8872
 6002SOL    HW118905   3.074   1.841   3.407  1.0722  0.5486  1.5891
 6002SOL    HW218906   3.131   1.688   3.399 -1.4362 -0.4774  2.6134
 6003SOL     OW18907   1.857   3.854   3.965 -0.0932  0.1738  0.0356
 6003SOL    HW118908   1.802   3.789   3.914 -1.6052  1.6740 -0.3317
 6003SOL    HW218909   1.852   3.944   3.922  0.8231  0.8694  1.2964
 6004SOL     OW18910   1.167   6.135   0.440 -0.2406 -0.7060 -0.1208
 6004SOL    HW118911   1.220   6.151   0.523  1.2638 -1.0041 -0.9925
 6004SOL    HW218912   1.204   6.190   0.366 -1.0486 -1.0718 -0.8179
 6005SOL     OW18913   5.051   2.061   0.410  0.1390  0.3672  0.2225
 6005SOL    HW118914   4.998   2.131   0.361  0.4277  1.1935  1.0523
 6005SOL    HW218915   5.106   2.009   0.344 -2.1913 -1.0179 -0.7719
 6006SOL     OW18916   5.517   5.767   4.556 -0.5240  0.1782 -0.3934
 6006SOL    HW118917   5.500   5.850   4.609 -1.0616  0.2241 -0.6229
 6006SOL    HW218918   5.448   5.698   4.580  0.6604 -0.6576  0.7124
 6007SOL     OW18919   2.105   0.912   4.046 -0.1112 -0.3652  0.3680
 6007SOL    HW118920   2.190   0.860   4.046 -0.6491 -1.2708 -0.3079
 6007SOL    HW218921   2.093   0.956   3.957 -0.5103 -0.5079  0.3506
 6008SOL     OW18922   1.737   4.348   2.055  0.0452 -0.1950  0.3889
 6008SOL    HW118923   1.728   4.427   1.994  2.6862 -0.7702 -0.9018
 6008SOL    HW218924   1.753   4.266   2.000  2.7392 -0.7142  1.7824
 6009SOL     OW18925   2.293   3.017   0.699  0.0951  0.1103  0.5892
 6009SOL    HW118926   2.333   2.998   0.789 -2.7890 -0.2415  1.9311
 6009SOL    HW218927   2.241   3.103   0.704 -0.4710 -0.1507 -0.5945
 6010SOL     OW18928   3.582   5.804   4.614  0.3321  0.0626 -0.5738
 6010SOL    HW118929   3.579   5.876   4.545 -0.2823  1.0707  0.4896
 6010SOL    HW218930   3.660   5.818   4.674  0.1298 -0.0804 -0.2743
 6011SOL     OW18931   3.487   2.283   0.262  0.4178 -0.4857 -0.1086
 6011SOL    HW118932   3.390   2.308   0.273  0.1534 -0.4225 -2.1401
 6011SOL    HW218933   3.544   2.347   0.313 -0.5346  0.7676 -0.5439
 6012SOL     OW18934   4.145   6.437   3.608 -0.5015  0.2559 -0.2741
 6012SOL    HW118935   4.141   6.462   3.705  0.7031  0.8330 -0.3556
 6012SOL    HW218936   4.236   6.401   3.587 -1.5023 -2.2578 -0.6449
 6013SOL     OW18937   6.862   4.299   2.830 -0.5047  1.3528 -0.1652
 6013SOL    HW118938   6.906   4.312   2.742  0.0906 -1.9818 -0.4684
 6013SOL    HW218939   6.779   4.356   2.835  1.0512  3.9280 -1.5513
 6014SOL     OW18940   5.573   4.194   6.289 -0.1973  0.9177 -0.8635
 6014SOL    HW118941   5.666   4.191   6.327 -0.4943  1.1428 -0.1103
 6014SOL    HW218942   5.512   4.237   6.354 -0.6152  1.8367 -1.8313
 6015SOL     OW18943   1.041   6.748   2.808 -0.0407 -0.4600  0.4297
 6015SOL    HW118944   0.975   6.673   2.799  0.5163 -0.9695  0.5051
 6015SOL    HW218945   1.037   6.785   2.901  0.7129 -1.4005  0.8656
 6016SOL     OW18946   2.812   6.312   0.592  0.3887 -0.0636 -0.0414
 6016SOL    HW118947   2.759   6.253   0.653  1.5937 -1.0521  0.0796
 6016SOL    HW218948   2.880   6.258   0.542  0.4472  0.9723 -1.1366
 6017SOL     OW18949   6.490   4.519   6.293  0.3404  0.2077  0.4937
 6017SOL    HW118950   6.464   4.551   6.202 -0.2406 -0.5642  0.3828
 6017SOL    HW218951   6.428   4.447   6.322  0.9329 -0.0182  1.2230
 6018SOL     OW18952   0.560   3.306   3.427 -0.1274  0.0163  0.1711
 6018SOL    HW118953   0.542   3.404   3.419 -0.5061  0.1101  1.8580
 6018SOL    HW218954   0.475   3.259   3.452  0.5336 -0.4043  1.7486
 6019SOL     OW18955   0.329   4.908   6.569 -0.0013 -0.2936 -0.3278
 6019SOL    HW118956   0.264   4.983   6.560  0.9621  0.6363  0.3720
 6019SOL    HW218957   0.300   4.832   6.510 -1.6597  0.1312 -0.0897
 6020SOL     OW18958   0.907   5.688   6.625  0.6568 -0.3019  0.2064
 6020SOL    HW118959   0.944   5.768   6.673  0.1337  0.4058 -0.5406
 6020SOL    HW218960   0.883   5.618   6.692 -0.1959  0.7249  1.0107
 6021SOL     OW18961   5.871   1.675   2.190 -0.2065  0.6594 -0.2426
 6021SOL    HW118962   5.952   1.731   2.174 -0.0379  0.9313  1.3542
 6021SOL    HW218963   5.896   1.594   2.244 -1.0095  0.8872  0.5123
 6022SOL     OW18964   0.686   3.562   1.623  0.0136 -0.4154 -0.0411
 6022SOL    HW118965   0.779   3.594   1.642 -0.3579  0.0083  1.1370
 6022SOL    HW218966   0.668   3.477   1.673  0.4059 -1.5824 -1.8016
 6023SOL     OW18967   4.779   3.845   0.805  0.0934  0.2471 -0.1235
 6023SOL    HW118968   4.787   3.914   0.734  0.6972 -0.4732 -0.7718
 6023SOL    HW218969   4.869   3.804   0.822 -0.3573 -0.7830 -0.1592
 6024SOL     OW18970   4.405   1.049   1.416  0.7116 -0.1564 -0.4940
 6024SOL    HW118971   4.415   1.014   1.323  1.6325 -1.8353  0.1832
 6024SOL    HW218972   4.308   1.049   1.442  0.2291  2.0919 -2.0385
 6025SOL     OW18973   1.377   2.806   0.297  0.1283 -0.0315  0.2563
 6025SOL    HW118974   1.372   2.868   0.375 -0.1832 -0.1226  0.3092
 6025SOL    HW218975   1.413   2.717   0.326 -1.4025 -0.5667  0.6128
 6026SOL     OW18976   1.646   3.549   5.685  0.6004 -0.6250 -0.0550
 6026SOL    HW118977   1.564   3.582   5.731 -0.1659  1.0679 -2.4132
 6026SOL    HW218978   1.620   3.487   5.610  1.2601  1.0714 -1.7775
 6027SOL     OW18979   2.609   3.097   6.309  0.5799 -0.4466 -0.0945
 6027SOL    HW118980   2.627   3.184   6.264 -0.1585  0.0168  0.4811
 6027SOL    HW218981   2.511   3.088   6.326  0.3260 -2.4056 -2.1490
 6028SOL     OW18982   5.352   3.317   4.466  0.5105 -0.1581 -0.3866
 6028SOL    HW118983   5.423   3.259   4.506  0.0875  1.1050  2.4385
 6028SOL    HW218984   5.265   3.266   4.465  0.6783 -0.4482 -0.3837
 6029SOL     OW18985   0.722   5.540   5.846  0.3048 -0.4059  0.2455
 6029SOL    HW118986   0.673   5.559   5.761 -0.4974  0.1099  0.8051
 6029SOL    HW218987   0.810   5.586   5.845 -0.3585  0.9024  0.3337
 6030SOL     OW18988   1.821   0.336   1.562 -0.1663 -0.7379  0.0114
 6030SOL    HW118989   1.895   0.269   1.574  0.6012  0.2860  1.2418
 6030SOL    HW218990   1.740   0.305   1.611 -0.5444 -1.7960 -1.2185
 6031SOL     OW18991   2.389   0.185   2.382 -0.4358 -0.1599  0.1266
 6031SOL    HW118992   2.357   0.271   2.422  0.3249 -0.8398  2.3326
 6031SOL    HW218993   2.310   0.134   2.345 -0.9696  1.1436 -0.5770
 6032SOL     OW18994   5.952   2.983   0.104 -0.3521  0.2943  0.6025
 6032SOL    HW118995   6.015   3.042   0.052  0.4186 -1.0491 -0.0506
 6032SOL    HW218996   5.859   3.018   0.095 -0.0271  0.9406 -0.4547
 6033SOL     OW18997   2.686   3.639   5.356 -0.6224 -0.3839  0.0352
 6033SOL    HW118998   2.611   3.574   5.339 -2.2059  1.4619 -0.3758
 6033SOL    HW218999   2.657   3.731   5.330  0.0370  1.2217  4.2507
 6034SOL     OW19000   1.533   4.636   0.438 -0.2318  0.3453 -0.2092
 6034SOL    HW119001   1.460   4.582   0.396 -1.1438  1.4334 -0.0522
 6034SOL    HW219002   1.558   4.711   0.378 -0.9436  1.4036  0.7880
 6035SOL     OW19003   0.454   5.169   2.953 -0.1878  0.2080 -0.1999
 6035SOL    HW119004   0.451   5.229   2.873  1.8604  1.4713  0.5923
 6035SOL    HW219005   0.479   5.222   3.034 -1.2411 -1.2189  1.1218
 6036SOL     OW19006   0.935   0.261   2.036  0.2116 -0.7407  0.4744
 6036SOL    HW119007   0.996   0.302   2.103  0.6572 -1.2624  0.3965
 6036SOL    HW219008   0.882   0.187   2.080 -0.2437 -0.4067  0.4996
 6037SOL     OW19009   5.689   3.712   5.742  0.3334 -0.4382 -0.4651
 6037SOL    HW119010   5.728   3.792   5.698 -2.5787  1.9622  0.9289
 6037SOL    HW219011   5.646   3.653   5.674 -1.2656  1.5211 -1.2651
 6038SOL     OW19012   5.059   5.636   2.736 -0.5340  0.2732  0.3046
 6038SOL    HW119013   5.016   5.722   2.762  0.0852  1.0187 -1.0437
 6038SOL    HW219014   4.996   5.560   2.753 -1.5545  1.1198  0.3372
 6039SOL     OW19015   4.771   2.303   2.648  0.4977 -0.7470 -0.0009
 6039SOL    HW119016   4.695   2.239   2.636  0.4250 -0.6179 -0.2322
 6039SOL    HW219017   4.748   2.369   2.719 -0.6233  0.7979 -1.7283
 6040SOL     OW19018   0.439   4.776   0.989 -0.1462 -0.0359 -0.3617
 6040SOL    HW119019   0.392   4.694   0.956 -0.2810  0.2277 -0.8374
 6040SOL    HW219020   0.459   4.767   1.087 -0.5352 -0.4552 -0.3213
 6041SOL     OW19021   4.699   1.757   3.990 -0.1821 -0.1056 -0.7652
 6041SOL    HW119022   4.652   1.762   3.901  0.9720  0.6966 -1.3662
 6041SOL    HW219023   4.749   1.842   4.005  0.3756 -0.6015  0.2513
 6042SOL     OW19024   5.747   4.688   6.571  0.2043  0.3576  0.2008
 6042SOL    HW119025   5.825   4.709   6.512  0.1132 -1.1327 -0.5199
 6042SOL    HW219026   5.663   4.724   6.530  0.0397 -1.2791 -1.0391
 6043SOL     OW19027   5.370   1.387   5.184 -0.3279  0.0271 -0.2521
 6043SOL    HW119028   5.298   1.447   5.219 -0.8662 -0.5323 -0.3731
 6043SOL    HW219029   5.437   1.440   5.132 -0.5353  0.5846  0.0511
 6044SOL     OW19030   5.626   4.372   2.141 -0.3422 -0.1391  0.1086
 6044SOL    HW119031   5.684   4.434   2.194  0.4449 -1.2828  0.6013
 6044SOL    HW219032   5.622   4.283   2.185 -0.8733 -0.6722 -0.9758
 6045SOL     OW19033   0.586   6.068   0.058  0.2166  0.5274  0.0983
 6045SOL    HW119034   0.611   6.067   0.155  0.5130 -1.0331  0.0316
 6045SOL    HW219035   0.658   6.114   0.005  1.1119 -0.5360  0.3685
 6046SOL     OW19036   1.849   6.679   1.202  0.3094 -0.0613  0.0119
 6046SOL    HW119037   1.898   6.594   1.216  1.4434  0.6269  0.3628
 6046SOL    HW219038   1.911   6.748   1.165 -0.1982  1.0147  1.0729
 6047SOL     OW19039   1.258   0.544   5.830 -0.1726  0.6090 -0.6383
 6047SOL    HW119040   1.287   0.600   5.752 -1.6999  0.6938 -1.1753
 6047SOL    HW219041   1.164   0.513   5.816 -0.4903  0.6483  1.1990
 6048SOL     OW19042   2.071   6.043   5.506  0.7128  0.2097  0.2610
 6048SOL    HW119043   2.081   6.067   5.409  2.8817 -1.1353  0.0823
 6048SOL    HW219044   2.051   5.945   5.513 -0.9571  0.5904  1.1550
 6049SOL     OW19045   4.778   5.210   1.242 -0.3210 -0.0511  0.4362
 6049SOL    HW119046   4.712   5.274   1.202 -1.3078  0.1835  2.3532
 6049SOL    HW219047   4.865   5.218   1.194 -1.3378  0.4281 -1.4304
 6050SOL     OW19048   3.157   4.554   6.510  0.4729 -0.3673 -0.6365
 6050SOL    HW119049   3.146   4.612   6.429 -1.1700  0.7171  0.2956
 6050SOL    HW219050   3.119   4.464   6.491  0.3033 -0.1909 -1.1542
 6051SOL     OW19051   0.611   2.609   3.966  0.0170  0.1333  0.1713
 6051SOL    HW119052   0.705   2.603   4.000 -0.4560  0.0354  1.5446
 6051SOL    HW219053   0.610   2.589   3.868  1.2981 -0.9046  0.3300
 6052SOL     OW19054   6.453   4.783   1.167 -0.5004 -0.2174 -0.4567
 6052SOL    HW119055   6.544   4.822   1.151 -0.1113  0.1915  2.2498
 6052SOL    HW219056   6.426   4.728   1.088  2.2910 -0.7257 -1.1719
 6053SOL     OW19057   6.337   6.326   3.716  0.1455 -0.1859  0.0883
 6053SOL    HW119058   6.313   6.271   3.796 -0.8074 -1.2909 -0.9117
 6053SOL    HW219059   6.263   6.391   3.697 -0.2131 -0.7831 -0.6043
 6054SOL     OW19060   6.486   4.191   1.272  0.3424  0.7904 -0.0237
 6054SOL    HW119061   6.582   4.166   1.282  0.5332  1.9056  1.2505
 6054SOL    HW219062   6.476   4.256   1.197  0.5972  0.7427 -0.0995
 6055SOL     OW19063   2.471   6.324   5.092 -0.5206 -0.3681 -0.1817
 6055SOL    HW119064   2.458   6.423   5.090  0.7086 -0.1990 -2.3782
 6055SOL    HW219065   2.566   6.303   5.115 -0.8778 -1.0934  0.7340
 6056SOL     OW19066   0.766   5.384   1.003  0.2766  0.5500 -0.0601
 6056SOL    HW119067   0.685   5.370   0.947  0.2256 -0.3298  0.2247
 6056SOL    HW219068   0.742   5.374   1.100  0.7244  0.2831  0.0260
 6057SOL     OW19069   2.522   1.624   2.517  0.1295 -0.2720 -0.1839
 6057SOL    HW119070   2.534   1.701   2.580  1.5138 -0.3648 -0.3053
 6057SOL    HW219071   2.507   1.658   2.425  1.1290 -0.1184 -0.3065
 6058SOL     OW19072   5.082   2.143   6.012 -0.7626 -0.2173 -0.4640
 6058SOL    HW119073   5.181   2.159   6.009 -0.8580  0.6467  0.4094
 6058SOL    HW219074   5.058   2.068   5.950  0.6568 -1.5433  0.5381
 6059SOL     OW19075   2.974   1.327   2.872 -0.1215  0.0315  0.1237
 6059SOL    HW119076   2.993   1.255   2.939  0.5707  0.3316  0.2550
 6059SOL    HW219077   2.875   1.334   2.857 -0.2391 -0.4301  0.6737
 6060SOL     OW19078   1.354   4.155   1.322  0.3351  1.1258  0.2039
 6060SOL    HW119079   1.359   4.237   1.265  3.3445 -0.4076 -2.0158
 6060SOL    HW219080   1.413   4.166   1.402  2.3949  0.4887 -1.1571
 6061SOL     OW19081   5.739   3.630   0.247  0.3879  0.1881 -0.2461
 6061SOL    HW119082   5.808   3.660   0.313  0.8369  1.3977 -1.2211
 6061SOL    HW219083   5.673   3.571   0.292  2.6910 -1.9753  0.4861
 6062SOL     OW19084   4.636   0.614   3.544 -0.4169  0.2908 -0.0539
 6062SOL    HW119085   4.736   0.615   3.541 -0.4119  0.8773  0.0842
 6062SOL    HW219086   4.600   0.679   3.477 -0.6731  1.0614  0.8061
 6063SOL     OW19087   6.032   1.466   4.975  0.1394  0.4585 -0.2544
 6063SOL    HW119088   6.013   1.542   4.913 -1.3510  0.5744  0.2967
 6063SOL    HW219089   6.000   1.381   4.934 -2.3717  0.7365  0.9517
 6064SOL     OW19090   1.096   3.468   5.369 -0.1010  0.1630  0.2496
 6064SOL    HW119091   1.044   3.487   5.453  0.0050 -2.7079  1.0668
 6064SOL    HW219092   1.190   3.501   5.380  0.2226 -1.1372  1.7834
 6065SOL     OW19093   3.154   5.705   3.792 -0.0130 -0.0218  0.3103
 6065SOL    HW119094   3.224   5.637   3.813 -0.1311 -0.1873  0.1725
 6065SOL    HW219095   3.197   5.787   3.754  0.0417 -0.4180 -0.4968
 6066SOL     OW19096   2.725   2.321   2.494 -0.8111  0.7110  0.5311
 6066SOL    HW119097   2.625   2.313   2.485 -0.7201  0.8676 -0.9721
 6066SOL    HW219098   2.766   2.324   2.402  0.7336 -1.2178  1.0813
 6067SOL     OW19099   6.908   1.602   0.428  0.0618  0.1199 -0.3689
 6067SOL    HW119100   6.992   1.587   0.376 -0.4543 -0.6919 -0.9908
 6067SOL    HW219101   6.919   1.568   0.521 -0.3045 -2.1195 -1.0876
 6068SOL     OW19102   0.899   4.570   1.082  0.3347  0.1101 -0.3960
 6068SOL    HW119103   0.831   4.517   1.133  0.8552  2.0077  2.4581
 6068SOL    HW219104   0.852   4.643   1.031  0.1252  1.6555  1.8640
 6069SOL     OW19105   4.296   1.763   1.978 -0.2808  0.3254  0.0690
 6069SOL    HW119106   4.252   1.847   1.945 -0.5453  0.7153  1.3662
 6069SOL    HW219107   4.260   1.685   1.928  0.3700  1.0105 -1.5589
 6070SOL     OW19108   6.306   4.499   0.599 -0.0848 -0.4087 -0.4206
 6070SOL    HW119109   6.298   4.399   0.593 -0.4544 -0.3683 -0.6645
 6070SOL    HW219110   6.272   4.539   0.514 -1.2155 -0.0075  0.2015
 6071SOL     OW19111   6.677   3.717   2.411 -0.3067 -0.2812  0.0767
 6071SOL    HW119112   6.595   3.666   2.383  0.1622 -0.5071 -0.9290
 6071SOL    HW219113   6.702   3.782   2.340  0.1508  0.0859  0.5657
 6072SOL     OW19114   1.215   3.022   6.895 -0.2033  0.1872 -0.1604
 6072SOL    HW119115   1.130   2.985   6.858 -0.1021 -0.7460  0.5123
 6072SOL    HW219116   1.225   2.995   6.991 -0.7322  3.0061  0.7815
 6073SOL     OW19117   2.295   1.911   5.595  0.2646 -0.0112  0.0218
 6073SOL    HW119118   2.333   1.976   5.660 -0.7271 -1.6983  2.4316
 6073SOL    HW219119   2.228   1.958   5.537  2.0033  1.7830 -0.6666
 6074SOL     OW19120   6.889   3.090   0.550  0.4396 -0.0907 -0.4789
 6074SOL    HW119121   6.813   3.053   0.604 -0.2455  1.4828 -0.2901
 6074SOL    HW219122   6.976   3.057   0.587 -0.1371 -2.0902 -0.8235
 6075SOL     OW19123   6.794   6.944   1.290 -0.4639  0.3317 -0.1184
 6075SOL    HW119124   6.734   6.951   1.210 -0.8844 -2.4234 -0.1446
 6075SOL    HW219125   6.864   7.015   1.285 -0.5916  0.3903 -2.8183
 6076SOL     OW19126   4.351   6.950   3.394 -0.1752  0.1851 -0.5135
 6076SOL    HW119127   4.430   6.993   3.436  1.6438 -0.8488 -2.7080
 6076SOL    HW219128   4.302   6.896   3.464 -1.2572  3.7329  1.7669
 6077SOL     OW19129   2.778   6.575   5.673  0.1562 -0.2175  0.2704
 6077SOL    HW119130   2.741   6.499   5.726  1.1403 -0.3745  0.7553
 6077SOL    HW219131   2.712   6.651   5.672  0.2485 -0.0760  2.0213
 6078SOL     OW19132   3.072   6.956   6.822  0.3910  0.5270 -0.0463
 6078SOL    HW119133   2.981   6.982   6.853 -0.4952  0.4237 -2.3459
 6078SOL    HW219134   3.094   7.006   6.738  0.7280 -2.3365 -1.7884
 6079SOL     OW19135   3.327   1.092   4.718  0.1492 -0.5299  0.1850
 6079SOL    HW119136   3.260   1.024   4.689 -0.3293 -0.7551  1.6945
 6079SOL    HW219137   3.390   1.050   4.784 -0.2983  0.5062  1.3184
 6080SOL     OW19138   0.435   1.698   1.494 -0.9828  0.1361  0.4401
 6080SOL    HW119139   0.364   1.631   1.515 -0.4343 -1.2183 -1.6533
 6080SOL    HW219140   0.521   1.670   1.538 -0.8057 -0.4501 -0.2615
 6081SOL     OW19141   1.837   0.959   5.905 -0.9213 -0.3515  0.7059
 6081SOL    HW119142   1.849   0.915   5.994  0.6139 -0.5471  0.4195
 6081SOL    HW219143   1.892   1.043   5.902  0.4278 -1.2471 -0.6585
 6082SOL     OW19144   0.983   6.559   5.864 -0.2442 -0.1125 -0.3324
 6082SOL    HW119145   1.048   6.484   5.866 -2.2490 -2.0309 -1.9183
 6082SOL    HW219146   0.898   6.531   5.908 -1.2499  0.9896 -1.4702
 6083SOL     OW19147   0.748   0.884   3.124  0.9058 -0.1347 -0.7237
 6083SOL    HW119148   0.730   0.958   3.059  0.4194  0.3626 -0.0344
 6083SOL    HW219149   0.818   0.913   3.189  0.3497 -0.0814 -0.1368
 6084SOL     OW19150   5.713   6.203   4.179 -0.6543 -0.0353  0.2851
 6084SOL    HW119151   5.615   6.204   4.158 -0.2804 -0.3019 -1.6508
 6084SOL    HW219152   5.759   6.137   4.119  0.8775  0.8936  0.3886
 6085SOL     OW19153   0.425   5.611   4.578 -0.0933 -0.3646  0.2202
 6085SOL    HW119154   0.376   5.648   4.657  1.0440  0.5793  0.5036
 6085SOL    HW219155   0.505   5.559   4.608 -0.6209 -1.5024 -0.2608
 6086SOL     OW19156   5.319   4.470   1.545 -0.5766 -0.0273 -0.0846
 6086SOL    HW119157   5.338   4.487   1.449  0.1681  1.7439  0.3445
 6086SOL    HW219158   5.258   4.391   1.553  0.4680 -1.0979 -1.9107
 6087SOL     OW19159   0.126   3.513   0.307  0.1067 -0.2080 -0.4346
 6087SOL    HW119160   0.071   3.430   0.321  0.5800 -0.6041 -0.8802
 6087SOL    HW219161   0.066   3.590   0.287 -0.5666  0.1489  2.4258
 6088SOL     OW19162   1.688   1.011   0.206  0.1332 -0.2544  0.4580
 6088SOL    HW119163   1.736   1.092   0.173 -1.5868  0.3206 -0.8210
 6088SOL    HW219164   1.754   0.945   0.241  1.8911  0.3345 -1.5198
 6089SOL     OW19165   5.461   4.845   4.425  0.0613  0.1556 -0.0712
 6089SOL    HW119166   5.502   4.912   4.486 -0.2021 -0.9136  1.3504
 6089SOL    HW219167   5.458   4.756   4.471  0.6176 -0.8950 -1.9778
 6090SOL     OW19168   1.437   1.248   6.574 -0.1983  0.0990 -0.3660
 6090SOL    HW119169   1.356   1.283   6.621 -0.1453 -2.0579  1.4837
 6090SOL    HW219170   1.418   1.158   6.536  1.2199 -0.3096 -0.1651
 6091SOL     OW19171   6.644   1.522   1.773  0.1713  0.7158 -0.0568
 6091SOL    HW119172   6.718   1.481   1.828  0.1487  0.6782 -0.0543
 6091SOL    HW219173   6.616   1.457   1.703 -0.1653  0.5550  0.2235
 6092SOL     OW19174   5.096   1.931   0.849 -0.2909 -0.4699  0.1681
 6092SOL    HW119175   5.153   1.944   0.768  1.4362 -2.2625  0.9739
 6092SOL    HW219176   5.040   1.849   0.837 -1.7188  0.5075 -0.0555
 6093SOL     OW19177   1.545   1.306   5.350 -0.1062  0.0735  0.0366
 6093SOL    HW119178   1.527   1.355   5.265  2.5732 -0.6745 -1.0440
 6093SOL    HW219179   1.556   1.371   5.425 -0.4158  0.8488 -0.5853
 6094SOL     OW19180   4.159   6.983   3.858 -0.7273 -0.0229 -0.1319
 6094SOL    HW119181   4.084   6.993   3.792  0.4684 -1.3169 -1.7855
 6094SOL    HW219182   4.152   6.893   3.901  0.5515 -0.6990 -1.2622
 6095SOL     OW19183   4.244   2.359   6.528 -0.4928 -0.1585  0.8085
 6095SOL    HW119184   4.337   2.350   6.563  0.0379  1.4698 -0.0791
 6095SOL    HW219185   4.236   2.313   6.440 -0.9956 -1.6443  1.5921
 6096SOL     OW19186   6.839   1.816   0.129  0.2858 -0.4166 -0.1243
 6096SOL    HW119187   6.769   1.791   0.062  0.9881 -0.3531 -0.8992
 6096SOL    HW219188   6.929   1.798   0.091  0.7937  1.7880 -0.1040
 6097SOL     OW19189   4.766   0.164   5.893 -0.1257  0.2549  0.0021
 6097SOL    HW119190   4.732   0.226   5.821 -0.9856 -1.4648 -1.1391
 6097SOL    HW219191   4.712   0.176   5.976 -1.1255  0.1510 -0.6225
 6098SOL     OW19192   2.758   5.789   1.308  0.6024 -0.2632 -0.4136
 6098SOL    HW119193   2.756   5.812   1.406 -0.1242 -1.1429 -0.2178
 6098SOL    HW219194   2.808   5.704   1.295  0.7341 -0.1241 -0.8160
 6099SOL     OW19195   3.145   5.683   6.755  0.0081  0.0387  0.1885
 6099SOL    HW119196   3.118   5.626   6.678  0.6042  0.0987 -0.0729
 6099SOL    HW219197   3.064   5.721   6.799 -0.3198  0.3579 -0.6742
 6100SOL     OW19198   6.489   0.857   3.490 -0.4739  0.8642 -0.5849
 6100SOL    HW119199   6.425   0.781   3.480  1.5234 -1.0922  0.4553
 6100SOL    HW219200   6.508   0.872   3.587  0.8757  1.1349 -0.8671
 6101SOL     OW19201   4.829   1.174   5.426 -0.3679 -0.3090 -0.4331
 6101SOL    HW119202   4.925   1.204   5.419 -0.7594  0.9260 -0.8478
 6101SOL    HW219203   4.797   1.147   5.335 -0.2082 -1.4492 -0.1667
 6102SOL     OW19204   2.100   2.385   1.123  0.1845  0.5125 -0.4574
 6102SOL    HW119205   2.128   2.289   1.115  0.9923  0.5888  1.0343
 6102SOL    HW219206   2.017   2.400   1.070 -1.9546 -1.8666  1.9717
 6103SOL     OW19207   5.676   0.460   4.484  0.3713  0.1399  0.6026
 6103SOL    HW119208   5.658   0.456   4.385 -1.1322  0.5319  0.8394
 6103SOL    HW219209   5.773   0.478   4.499  1.1168 -2.2673 -0.7632
 6104SOL     OW19210   0.588   3.854   1.911 -0.2794 -0.2600  0.1033
 6104SOL    HW119211   0.660   3.856   1.841  0.3574 -0.1523  0.7512
 6104SOL    HW219212   0.560   3.760   1.927 -0.5558 -0.2734 -0.4148
 6105SOL     OW19213   0.060   2.362   4.397 -0.1841 -0.6888 -0.3369
 6105SOL    HW119214  -0.014   2.425   4.375 -0.4106 -0.9637 -0.3610
 6105SOL    HW219215   0.045   2.275   4.351  0.6862 -0.4151 -1.1845
 6106SOL     OW19216   1.443   5.075   0.843 -0.2608  0.3448  0.0472
 6106SOL    HW119217   1.415   5.013   0.917 -1.0833  0.8162  0.1408
 6106SOL    HW219218   1.377   5.150   0.836  0.8339  1.3353  0.0731
 6107SOL     OW19219   0.211   5.219   0.404  0.0695 -0.1589  0.0408
 6107SOL    HW119220   0.229   5.311   0.370 -3.8743  0.3575 -1.2346
 6107SOL    HW219221   0.218   5.153   0.328  1.7790 -0.7771  0.7030
 6108SOL     OW19222   0.519   2.460   5.208  0.1674  0.4618  0.8169
 6108SOL    HW119223   0.445   2.480   5.272 -0.4400  0.4089  0.1533
 6108SOL    HW219224   0.601   2.510   5.234  0.4898 -0.9428  2.6689
 6109SOL     OW19225   0.806   4.969   3.189 -0.1421  0.8530 -0.1839
 6109SOL    HW119226   0.728   4.907   3.174  0.3306 -0.7667  3.0558
 6109SOL    HW219227   0.891   4.922   3.165  0.0218  1.6108 -1.1175
 6110SOL     OW19228   0.506   2.969   4.196 -0.5343  0.3305  0.0573
 6110SOL    HW119229   0.602   2.997   4.203 -0.4890  0.2166 -0.1151
 6110SOL    HW219230   0.463   2.978   4.286  0.1079 -1.3284  0.5694
 6111SOL     OW19231   6.455   3.916   4.506  0.0423 -0.2489 -0.1587
 6111SOL    HW119232   6.389   3.983   4.539  0.2600  0.9332 -1.9674
 6111SOL    HW219233   6.411   3.857   4.438  0.2314 -1.0179  0.3800
 6112SOL     OW19234   3.848   5.568   3.866 -0.0325  0.0173 -0.3577
 6112SOL    HW119235   3.947   5.555   3.863 -0.1701 -0.9872 -1.2614
 6112SOL    HW219236   3.804   5.502   3.805 -1.1973  1.1366 -0.7655
 6113SOL     OW19237   0.671   5.350   6.509 -0.0263 -0.0942  0.4578
 6113SOL    HW119238   0.722   5.288   6.450  0.2285 -0.2494  0.8347
 6113SOL    HW219239   0.700   5.444   6.492 -1.3466  0.0721 -1.0496
 6114SOL     OW19240   3.593   2.887   3.841 -0.8503  0.6368 -0.0645
 6114SOL    HW119241   3.624   2.849   3.754  0.2291  1.0094  0.1442
 6114SOL    HW219242   3.616   2.985   3.845 -0.5978  0.5471  0.7728
 6115SOL     OW19243   5.720   1.646   3.389  0.2466 -0.0993 -0.2739
 6115SOL    HW119244   5.660   1.663   3.467 -0.5969  0.0810 -0.9470
 6115SOL    HW219245   5.815   1.665   3.415 -0.0454  0.1666  0.6356
 6116SOL     OW19246   1.569   4.789   0.672 -0.4200  0.3168 -0.6800
 6116SOL    HW119247   1.516   4.871   0.649 -0.0654  0.7163 -0.1016
 6116SOL    HW219248   1.568   4.726   0.594 -0.7788  0.8260 -1.0959
 6117SOL     OW19249   0.206   0.362   1.378 -0.0317  0.3344 -0.2681
 6117SOL    HW119250   0.215   0.397   1.285 -0.0582 -0.8092 -0.7141
 6117SOL    HW219251   0.210   0.262   1.377 -0.4849  0.2863  0.9080
 6118SOL     OW19252   3.664   0.511   7.011 -0.3145  0.3437  0.7691
 6118SOL    HW119253   3.612   0.439   6.964  0.0384 -1.2340  2.6732
 6118SOL    HW219254   3.602   0.579   7.049 -0.9142 -0.7021  1.7073
 6119SOL     OW19255   1.993   1.856   1.129  0.4274  0.7105 -0.1859
 6119SOL    HW119256   2.059   1.846   1.055  0.7442  0.1441  0.1625
 6119SOL    HW219257   2.000   1.948   1.168  1.6401  0.3878  0.4214
 6120SOL     OW19258   2.106   6.218   1.378  0.3417  0.7359 -0.8494
 6120SOL    HW119259   2.011   6.239   1.402  0.5708  1.2408 -0.3665
 6120SOL    HW219260   2.167   6.287   1.419  0.9141  0.4166 -1.1553
 6121SOL     OW19261   5.212   1.025   3.057 -0.0310 -0.4042 -0.8504
 6121SOL    HW119262   5.248   0.934   3.037  1.5029 -0.2113  0.7893
 6121SOL    HW219263   5.112   1.024   3.049 -0.0130 -2.1364 -1.1492
 6122SOL     OW19264   3.818   0.640   4.647 -0.5892  0.0542 -0.0173
 6122SOL    HW119265   3.911   0.675   4.658 -0.6223  0.2591 -0.3690
 6122SOL    HW219266   3.775   0.629   4.737 -0.1235 -0.3260  0.1601
 6123SOL     OW19267   0.391   3.568   2.618 -0.0015 -0.1774  0.2447
 6123SOL    HW119268   0.420   3.521   2.536 -0.3982 -2.8538  1.5377
 6123SOL    HW219269   0.310   3.623   2.598 -0.3896 -1.1725 -1.0255
 6124SOL     OW19270   2.267   2.529   1.543 -0.3312  0.0650 -0.2315
 6124SOL    HW119271   2.286   2.470   1.622  0.4786 -1.0848 -1.2450
 6124SOL    HW219272   2.184   2.499   1.497  0.8421 -1.2901 -1.5924
 6125SOL     OW19273   4.828   0.082   4.678  0.0570  0.2094 -0.4949
 6125SOL    HW119274   4.844   0.076   4.777  0.4123  0.0752 -0.5573
 6125SOL    HW219275   4.891   0.021   4.631  0.6616  1.1059 -0.8745
 6126SOL     OW19276   6.060   3.116   6.524 -0.0594  0.1306 -0.1623
 6126SOL    HW119277   6.101   3.206   6.512 -0.6840  0.6845  1.6157
 6126SOL    HW219278   5.963   3.125   6.546 -0.0696 -0.9547  0.3166
 6127SOL     OW19279   0.688   4.333   4.388 -0.2513  0.0898 -0.3843
 6127SOL    HW119280   0.763   4.393   4.416 -0.8926  0.5887  0.2912
 6127SOL    HW219281   0.666   4.350   4.292 -1.4030  2.0131  0.1784
 6128SOL     OW19282   2.991   2.038   1.058 -0.3659 -0.0506  0.5244
 6128SOL    HW119283   2.897   2.070   1.071 -0.1006  0.6921  0.6478
 6128SOL    HW219284   3.023   2.066   0.967  0.2200  0.9290  1.0251
 6129SOL     OW19285   2.554   2.423   6.140  0.1870  0.1690  0.2785
 6129SOL    HW119286   2.649   2.408   6.169  0.0510  1.0300  1.2304
 6129SOL    HW219287   2.529   2.354   6.073  1.2999 -0.4375  0.4530
 6130SOL     OW19288   6.578   7.005   4.969 -0.3863  0.1251  0.4053
 6130SOL    HW119289   6.584   6.972   5.063 -1.0922 -1.1319  0.0269
 6130SOL    HW219290   6.665   6.991   4.923 -0.7935 -1.7096  0.1172
 6131SOL     OW19291   1.700   0.179   1.088 -0.7355 -0.1292  0.2452
 6131SOL    HW119292   1.729   0.260   1.139 -1.6750 -0.2889  1.0464
 6131SOL    HW219293   1.647   0.207   1.007  2.0498  0.2046 -1.6130
 6132SOL     OW19294   0.133   3.658   0.935 -0.3598 -0.2915  0.1435
 6132SOL    HW119295   0.076   3.722   0.882  0.5028  0.7324  0.4232
 6132SOL    HW219296   0.076   3.611   1.003 -1.4004 -1.2968 -1.3568
 6133SOL     OW19297   3.353   6.475   6.802  0.0011  0.3741  0.8315
 6133SOL    HW119298   3.436   6.421   6.790 -0.2421  0.3120 -0.8970
 6133SOL    HW219299   3.278   6.415   6.830 -0.6981 -0.6839 -2.7325
 6134SOL     OW19300   1.889   3.794   6.644  0.1510  0.6811 -0.3640
 6134SOL    HW119301   1.873   3.696   6.629  1.7842  0.3219  0.0965
 6134SOL    HW219302   1.921   3.809   6.737  1.6250  1.4164 -0.9518
 6135SOL     OW19303   0.182   2.809   4.948  0.1797 -0.5713  0.2772
 6135SOL    HW119304   0.088   2.840   4.958  0.8458  2.0498 -0.5517
 6135SOL    HW219305   0.196   2.773   4.856  0.4755  1.3053 -0.4660
 6136SOL     OW19306   4.594   3.001   1.271 -0.0423  0.2384 -1.3436
 6136SOL    HW119307   4.656   2.967   1.341 -1.7938  0.9083  0.6382
 6136SOL    HW219308   4.646   3.052   1.202  1.6591  0.2346 -0.1304
 6137SOL     OW19309   1.564   2.964   1.125 -0.1453 -0.3122  0.8577
 6137SOL    HW119310   1.547   2.906   1.046  0.2623  1.0264 -0.2488
 6137SOL    HW219311   1.654   2.944   1.163  0.8750  0.9072 -0.7618
 6138SOL     OW19312   1.537   5.228   2.068  0.6379  0.5264  0.4663
 6138SOL    HW119313   1.615   5.251   2.011 -0.3229  1.0465 -0.6664
 6138SOL    HW219314   1.463   5.192   2.011 -0.6271  1.7732  1.2558
 6139SOL     OW19315   1.894   1.617   1.168  0.3861  0.2424  0.1888
 6139SOL    HW119316   1.929   1.709   1.180  1.7419 -0.4849  2.2426
 6139SOL    HW219317   1.926   1.580   1.081  3.2293  0.3168  1.1162
 6140SOL     OW19318   4.326   3.786   0.258  0.6915 -0.5582 -0.3293
 6140SOL    HW119319   4.321   3.808   0.356  1.2090  1.6680 -0.7452
 6140SOL    HW219320   4.235   3.797   0.218 -0.4429 -5.0830  0.4643
 6141SOL     OW19321   1.353   1.698   4.221  0.3710  0.7099 -0.2370
 6141SOL    HW119322   1.384   1.706   4.316  1.4317  0.9649 -0.5903
 6141SOL    HW219323   1.279   1.763   4.205 -1.3031 -0.8058  0.9777
 6142SOL     OW19324   4.963   3.731   2.057  0.2520  0.0989 -0.0910
 6142SOL    HW119325   4.932   3.824   2.077  3.8765  1.0915  1.6111
 6142SOL    HW219326   4.918   3.699   1.973 -4.5173  1.4906  1.6103
 6143SOL     OW19327   2.597   0.679   0.343 -0.1085 -0.2084  0.0239
 6143SOL    HW119328   2.520   0.655   0.402 -0.2145 -1.5231 -0.6286
 6143SOL    HW219329   2.676   0.623   0.366  1.2717  2.2570  1.8377
 6144SOL     OW19330   5.487   6.296   5.054 -0.4117  0.0735 -0.2565
 6144SOL    HW119331   5.518   6.265   5.144 -0.1264  1.1242  0.0273
 6144SOL    HW219332   5.477   6.396   5.055  1.0999  0.2897 -1.8412
 6145SOL     OW19333   4.152   5.948   0.146  0.1540  0.0700  0.1105
 6145SOL    HW119334   4.122   5.853   0.147  0.6708 -0.1025  1.5783
 6145SOL    HW219335   4.072   6.008   0.153 -0.0719 -0.3958  4.9781
 6146SOL     OW19336   2.211   3.600   5.859  0.1951 -0.2448  0.2938
 6146SOL    HW119337   2.212   3.551   5.947  0.6572 -0.7909 -0.0120
 6146SOL    HW219338   2.303   3.604   5.822 -0.1663 -1.1163 -0.7608
 6147SOL     OW19339   1.847   1.918   3.283  0.3331  0.4130  0.3346
 6147SOL    HW119340   1.901   1.851   3.333  0.7755 -0.0616 -0.7592
 6147SOL    HW219341   1.877   2.011   3.307  2.0329  0.1573 -0.6581
 6148SOL     OW19342   1.821   0.311   4.866 -0.3598 -0.0648  0.0771
 6148SOL    HW119343   1.909   0.346   4.834 -0.7393  0.3864 -0.5051
 6148SOL    HW219344   1.760   0.388   4.884 -0.6498 -0.3759  0.4404
 6149SOL     OW19345   0.408   2.019   0.066  0.4205  0.2784  0.4489
 6149SOL    HW119346   0.388   2.115   0.086 -0.2327 -0.2472  2.5653
 6149SOL    HW219347   0.324   1.974   0.033  0.7992  0.4619 -0.8405
 6150SOL     OW19348   5.597   0.207   3.652  0.3296  0.0423  0.2943
 6150SOL    HW119349   5.523   0.221   3.585  0.9356  1.3707 -0.1315
 6150SOL    HW219350   5.684   0.200   3.603  0.4256 -2.7836  0.6801
 6151SOL     OW19351   4.373   3.106   1.687  0.1240 -0.6075 -0.0401
 6151SOL    HW119352   4.440   3.082   1.757 -0.0670 -0.8467  0.0636
 6151SOL    HW219353   4.419   3.153   1.611  0.2671  0.0133  0.4250
 6152SOL     OW19354   0.273   3.072   0.574  0.0353 -0.0070  0.0596
 6152SOL    HW119355   0.190   3.023   0.602 -0.6381  0.7874 -0.4718
 6152SOL    HW219356   0.254   3.123   0.490  1.6539 -1.3866 -1.2159
 6153SOL     OW19357   6.688   0.756   0.478 -0.4980  0.6099  0.7523
 6153SOL    HW119358   6.646   0.751   0.388 -1.0731 -1.2600  1.0692
 6153SOL    HW219359   6.788   0.760   0.468 -0.5361 -0.0279  0.0287
 6154SOL     OW19360   6.938   4.711   2.029  0.1088 -0.0623  0.0110
 6154SOL    HW119361   6.895   4.692   2.117  0.6951  1.1477  0.5758
 6154SOL    HW219362   6.870   4.701   1.956 -1.2105  1.8724  0.8877
 6155SOL     OW19363   6.190   4.138   3.749  0.1344  0.2728 -0.3625
 6155SOL    HW119364   6.135   4.055   3.757 -1.3017  1.2322 -0.0084
 6155SOL    HW219365   6.268   4.133   3.812 -0.5671 -0.3191  0.4762
 6156SOL     OW19366   2.494   2.646   5.441  0.2570  0.3310 -0.1054
 6156SOL    HW119367   2.586   2.668   5.409 -0.0236  2.9463  0.7020
 6156SOL    HW219368   2.427   2.676   5.373 -0.0931  0.2965  0.2215
 6157SOL     OW19369   3.536   6.523   0.649 -0.3041  0.2795  0.6274
 6157SOL    HW119370   3.602   6.588   0.686  0.8225 -1.0126  0.9625
 6157SOL    HW219371   3.473   6.494   0.722  0.7857 -0.8864  1.1592
 6158SOL     OW19372   3.044   3.330   6.311 -0.2732 -0.0880 -0.3761
 6158SOL    HW119373   3.064   3.259   6.378  0.8817 -0.2844 -0.9027
 6158SOL    HW219374   3.126   3.385   6.296 -0.5565  0.0405 -1.5200
 6159SOL     OW19375   2.457   4.360   5.198 -0.2915  0.2392 -0.2998
 6159SOL    HW119376   2.461   4.375   5.297  1.8782 -0.6734 -0.1896
 6159SOL    HW219377   2.364   4.334   5.172 -0.5281 -1.1873  1.7684
 6160SOL     OW19378   4.019   1.253   6.535 -0.6037  0.3984 -0.0903
 6160SOL    HW119379   4.058   1.227   6.624  1.2815  1.0421 -0.6812
 6160SOL    HW219380   4.020   1.174   6.474 -3.1249 -0.4126  0.7992
 6161SOL     OW19381   1.877   5.018   1.417  0.3371  0.5019  0.1189
 6161SOL    HW119382   1.889   5.093   1.351  0.7908  1.2670  1.0481
 6161SOL    HW219383   1.945   5.026   1.490  0.0045 -0.4787  0.5572
 6162SOL     OW19384   1.720   0.605   2.594 -0.1695 -0.1843  0.2138
 6162SOL    HW119385   1.712   0.590   2.693  0.4869 -0.8998  0.1675
 6162SOL    HW219386   1.634   0.642   2.559 -0.8386 -1.0826  0.8512
 6163SOL     OW19387   2.205   1.815   4.842  0.0470 -0.1416 -0.0887
 6163SOL    HW119388   2.247   1.901   4.872 -1.0754  0.6115 -0.5812
 6163SOL    HW219389   2.200   1.814   4.742  0.8725 -1.2056 -0.1407
 6164SOL     OW19390   1.382   2.834   0.602  0.1171 -0.0337  0.2074
 6164SOL    HW119391   1.375   2.872   0.694  1.2375 -1.2699  0.8283
 6164SOL    HW219392   1.478   2.818   0.579 -0.2058 -0.6232 -0.8077
 6165SOL     OW19393   1.933   1.680   4.860 -0.4097 -0.2286 -0.0031
 6165SOL    HW119394   1.883   1.663   4.775 -0.1112 -1.4113  0.0494
 6165SOL    HW219395   2.031   1.687   4.841 -0.3959  0.0960  0.1696
 6166SOL     OW19396   1.218   1.724   5.795 -0.3922  0.3539 -0.2734
 6166SOL    HW119397   1.311   1.742   5.828 -0.2817 -0.1035 -0.3250
 6166SOL    HW219398   1.201   1.626   5.795 -0.2090  0.2810 -2.0154
 6167SOL     OW19399   5.260   0.483   1.521 -0.4901  0.4940  0.0308
 6167SOL    HW119400   5.200   0.406   1.502 -0.1983 -0.1420  1.5923
 6167SOL    HW219401   5.330   0.489   1.449 -1.6480  0.4940 -1.1230
 6168SOL     OW19402   5.284   3.161   0.948 -0.0990 -0.2820 -0.1567
 6168SOL    HW119403   5.319   3.078   0.905  0.8415 -0.0585  0.1572
 6168SOL    HW219404   5.283   3.235   0.881 -1.4045 -0.6516 -0.5731
 6169SOL     OW19405   0.039   0.767   1.816 -0.0040  0.2488  0.1635
 6169SOL    HW119406   0.034   0.718   1.729  1.5063 -0.5440  0.4891
 6169SOL    HW219407   0.093   0.850   1.805  0.1014  0.2017  0.3125
 6170SOL     OW19408   5.966   6.221   4.461 -0.7915  0.2431  0.2909
 6170SOL    HW119409   5.895   6.157   4.489 -0.7775  0.5170  0.9527
 6170SOL    HW219410   5.928   6.284   4.393 -1.3593  0.7547  1.0658
 6171SOL     OW19411   3.869   1.837   4.722 -0.3440  0.3877  0.5158
 6171SOL    HW119412   3.912   1.859   4.635 -1.6772  0.1061 -0.2534
 6171SOL    HW219413   3.916   1.760   4.764  2.1874  2.3339  1.5522
 6172SOL     OW19414   1.388   3.071   0.437  0.4644 -0.6906 -0.2361
 6172SOL    HW119415   1.366   3.164   0.468  0.6472 -0.7268  0.0059
 6172SOL    HW219416   1.370   3.007   0.511  0.3373 -0.8484 -0.4048
 6173SOL     OW19417   1.971   1.015   0.772 -0.3790  0.1689  0.5191
 6173SOL    HW119418   2.016   1.011   0.684  0.4223  1.4436  0.8442
 6173SOL    HW219419   1.879   1.053   0.761 -0.2627  0.3718  0.2320
 6174SOL     OW19420   4.576   5.462   2.122  0.2438 -0.3652 -0.3637
 6174SOL    HW119421   4.493   5.429   2.166 -0.4911 -0.2484 -1.6059
 6174SOL    HW219422   4.557   5.481   2.025  1.1974  1.5496 -0.2247
 6175SOL     OW19423   2.123   5.745   2.476 -0.3761 -0.0574 -0.5192
 6175SOL    HW119424   2.204   5.729   2.532 -0.3421 -0.5697 -0.7061
 6175SOL    HW219425   2.135   5.829   2.424  0.5257 -0.6995 -1.3935
 6176SOL     OW19426   0.535   5.322   1.490 -0.7836  0.2557  0.3344
 6176SOL    HW119427   0.560   5.334   1.587  0.8256  0.1053 -0.0331
 6176SOL    HW219428   0.454   5.265   1.484 -0.0854 -0.9574  1.5739
 6177SOL     OW19429   6.138   6.617   5.705 -0.1238  0.1366 -0.4269
 6177SOL    HW119430   6.152   6.537   5.763  1.6441  0.4027 -0.4317
 6177SOL    HW219431   6.045   6.616   5.668 -0.6432 -1.0513  0.8519
 6178SOL     OW19432   6.708   1.982   5.135  0.3559 -0.8679  0.1733
 6178SOL    HW119433   6.685   2.064   5.187  1.0646 -0.0599 -0.7544
 6178SOL    HW219434   6.807   1.980   5.119  0.8912 -3.4849  2.8129
 6179SOL     OW19435   2.728   5.392   4.321 -0.0780  0.1948  0.1141
 6179SOL    HW119436   2.642   5.434   4.292  0.9598  0.6138 -2.6874
 6179SOL    HW219437   2.722   5.367   4.418 -3.9368 -1.3013 -0.3299
 6180SOL     OW19438   1.923   6.819   3.773 -0.0247  0.0167 -0.7029
 6180SOL    HW119439   1.851   6.798   3.839 -0.8297  1.2249 -1.1681
 6180SOL    HW219440   1.883   6.834   3.683  0.9079 -0.1748 -1.1580
 6181SOL     OW19441   5.035   6.375   3.131 -0.3141  0.5511  0.0609
 6181SOL    HW119442   4.946   6.365   3.176 -0.3623  0.1269 -0.1201
 6181SOL    HW219443   5.107   6.340   3.191 -0.3736  0.0239 -0.1701
 6182SOL     OW19444   3.612   5.537   0.711 -0.9498  0.2747 -0.1830
 6182SOL    HW119445   3.638   5.520   0.806  0.0004 -0.1950 -0.5168
 6182SOL    HW219446   3.556   5.461   0.678 -0.2507 -0.1727 -0.3657
 6183SOL     OW19447   6.082   4.493   5.646 -0.2533  0.2489  0.2518
 6183SOL    HW119448   6.079   4.418   5.712 -1.6451 -0.9744 -1.1256
 6183SOL    HW219449   6.158   4.478   5.583 -0.0715  0.4096  0.4310
 6184SOL     OW19450   5.474   1.141   5.252  0.0795  0.2188 -1.0000
 6184SOL    HW119451   5.448   1.079   5.179 -0.8276 -1.2565  0.4971
 6184SOL    HW219452   5.408   1.215   5.258 -1.5294 -1.2326  0.1042
 6185SOL     OW19453   5.377   2.636   6.870 -0.1244  0.2181  0.4935
 6185SOL    HW119454   5.337   2.569   6.932 -1.7982  0.8994  0.1817
 6185SOL    HW219455   5.432   2.589   6.801  0.6422 -0.6425  1.6534
 6186SOL     OW19456   1.898   3.750   0.887 -0.6168  0.1502 -0.4434
 6186SOL    HW119457   1.981   3.695   0.885 -0.0261  0.9707  0.4395
 6186SOL    HW219458   1.819   3.694   0.860  0.2456 -0.5778 -1.5213
 6187SOL     OW19459   5.243   1.121   1.694  0.7121 -0.3885 -0.5214
 6187SOL    HW119460   5.199   1.134   1.605 -0.9343  1.9867  0.5221
 6187SOL    HW219461   5.339   1.147   1.688  0.7418 -0.7224 -1.7071
 6188SOL     OW19462   4.392   4.053   1.678 -0.5728  0.2890  0.3889
 6188SOL    HW119463   4.409   4.118   1.752  1.4175 -1.2328  1.3669
 6188SOL    HW219464   4.468   4.055   1.613 -0.2291 -1.3414  0.6920
 6189SOL     OW19465   3.632   1.325   2.610  0.0216  0.4124 -0.3643
 6189SOL    HW119466   3.546   1.302   2.656 -0.6060  0.5014 -1.4549
 6189SOL    HW219467   3.613   1.346   2.514  1.4379 -0.8061 -0.9282
 6190SOL     OW19468   0.938   2.558   6.418  0.0232  0.1458 -0.0824
 6190SOL    HW119469   0.977   2.475   6.459 -0.2813 -0.0226 -0.1346
 6190SOL    HW219470   1.007   2.601   6.360  0.5418  0.5118  0.7832
 6191SOL     OW19471   2.075   3.096   3.827 -0.2583 -0.1310 -0.2997
 6191SOL    HW119472   1.982   3.092   3.863  0.2567  0.5057  1.2141
 6191SOL    HW219473   2.081   3.168   3.759 -0.9403 -0.4030 -0.6626
 6192SOL     OW19474   6.834   1.972   5.471 -0.1574 -0.5759  0.1217
 6192SOL    HW119475   6.911   1.962   5.534  0.4880 -2.6821 -0.8893
 6192SOL    HW219476   6.762   2.027   5.514  1.8684  1.4775  1.0882
 6193SOL     OW19477   0.314   0.888   4.185  0.6853 -0.4266 -0.7432
 6193SOL    HW119478   0.269   0.801   4.168 -1.1484  0.3931 -0.4168
 6193SOL    HW219479   0.378   0.879   4.261 -1.5627 -0.9305  1.2217
 6194SOL     OW19480   3.311   2.947   5.504  0.3683 -0.5279 -0.0343
 6194SOL    HW119481   3.248   2.904   5.438  0.7999 -0.8153 -0.2645
 6194SOL    HW219482   3.276   3.038   5.528  0.6357 -0.0478 -1.3293
 6195SOL     OW19483   3.724   4.839   0.992 -0.3286 -0.4141  0.3328
 6195SOL    HW119484   3.663   4.876   0.922  0.8592 -1.4240 -1.3201
 6195SOL    HW219485   3.684   4.755   1.029 -1.6481  0.8761  1.9919
 6196SOL     OW19486   2.556   3.737   1.339 -0.2151  0.0056 -0.5591
 6196SOL    HW119487   2.588   3.687   1.258  1.5914  0.0200  0.1037
 6196SOL    HW219488   2.608   3.708   1.419 -2.4278 -0.4963  0.7784
 6197SOL     OW19489   2.761   6.624   5.981  0.3841 -0.3782 -0.5571
 6197SOL    HW119490   2.666   6.605   5.954  0.2376  0.4805 -0.6774
 6197SOL    HW219491   2.813   6.538   5.981 -0.4941 -0.9300 -0.0683
 6198SOL     OW19492   0.570   1.208   0.462  0.0337 -0.2686 -0.4396
 6198SOL    HW119493   0.602   1.113   0.458  0.9803  0.0362 -0.5448
 6198SOL    HW219494   0.650   1.269   0.465 -0.5213  0.6247 -2.5577
 6199SOL     OW19495   5.485   0.701   0.245  0.1370  0.1073  0.8813
 6199SOL    HW119496   5.545   0.778   0.267 -0.0476  0.1407  1.2678
 6199SOL    HW219497   5.409   0.697   0.309 -0.7235  0.5347 -0.0845
 6200SOL     OW19498   5.093   0.401   6.885 -0.4259 -0.1473  0.0839
 6200SOL    HW119499   5.179   0.376   6.928 -0.1709  0.0364 -0.3126
 6200SOL    HW219500   5.083   0.350   6.799  0.5571  1.7564 -1.2391
 6201SOL     OW19501   1.995   3.706   3.217  0.1093  0.0390 -0.0678
 6201SOL    HW119502   2.045   3.789   3.193  0.9716 -0.6076 -0.5384
 6201SOL    HW219503   2.034   3.664   3.298  0.6603 -0.7236 -0.7072
 6202SOL     OW19504   1.400   0.268   6.721 -0.6025  0.5795 -0.0785
 6202SOL    HW119505   1.416   0.173   6.749 -1.1264  0.9221  1.5156
 6202SOL    HW219506   1.465   0.327   6.769  0.1675  0.9887 -1.5718
 6203SOL     OW19507   4.961   3.934   5.885 -0.5392  0.1290 -0.3706
 6203SOL    HW119508   5.017   4.011   5.915 -0.5815 -0.1934  0.5384
 6203SOL    HW219509   4.867   3.947   5.916 -0.0053 -1.6050  2.2180
 6204SOL     OW19510   3.206   2.156   4.302  0.1269 -0.4334 -0.0298
 6204SOL    HW119511   3.124   2.171   4.358  0.4469 -0.1668  0.3742
 6204SOL    HW219512   3.287   2.153   4.362  0.4736 -0.1510 -0.4766
 6205SOL     OW19513   1.302   4.227   2.565 -0.2129 -0.3382 -0.1079
 6205SOL    HW119514   1.344   4.171   2.637  1.9711  1.8291  0.4505
 6205SOL    HW219515   1.203   4.226   2.576  0.0016 -0.1295  3.0089
 6206SOL     OW19516   0.297   3.276   0.328  0.8899  0.4239 -0.3066
 6206SOL    HW119517   0.223   3.232   0.277  0.9570  0.7918 -0.7237
 6206SOL    HW219518   0.276   3.373   0.338  0.2075  0.1318  1.5420
 6207SOL     OW19519   6.725   4.688   0.528  0.5856 -0.5413  0.1308
 6207SOL    HW119520   6.667   4.768   0.513 -0.3521 -0.5576  3.0556
 6207SOL    HW219521   6.734   4.636   0.443 -0.8105  1.3234 -1.2268
 6208SOL     OW19522   0.046   1.583   5.900 -0.3121 -0.2468 -0.2876
 6208SOL    HW119523   0.022   1.532   5.983  0.2486 -1.6937 -0.9830
 6208SOL    HW219524   0.132   1.632   5.915 -0.4780 -0.0849  0.1485
 6209SOL     OW19525   3.907   5.374   5.135 -0.5740  0.2637  0.3649
 6209SOL    HW119526   3.884   5.386   5.232 -1.3144 -3.3616  0.7847
 6209SOL    HW219527   4.006   5.385   5.122 -0.2092 -0.8253  1.9173
 6210SOL     OW19528   1.114   2.588   0.287  0.2388  0.5977  0.3882
 6210SOL    HW119529   1.096   2.636   0.201 -0.2544 -0.3756 -0.0590
 6210SOL    HW219530   1.119   2.655   0.362 -0.5423  1.3454 -0.2048
 6211SOL     OW19531   1.146   5.707   2.075  0.2234  0.2987 -0.7632
 6211SOL    HW119532   1.066   5.668   2.029  0.4405 -1.1566  0.0678
 6211SOL    HW219533   1.141   5.689   2.173  0.9821  1.2472 -0.5338
 6212SOL     OW19534   2.409   6.194   4.078 -0.1621 -0.2718 -0.2283
 6212SOL    HW119535   2.339   6.136   4.035  0.5020 -0.7492 -0.6797
 6212SOL    HW219536   2.489   6.200   4.019 -0.7143  2.2230 -0.8396
 6213SOL     OW19537   5.509   1.876   3.323  0.6141  0.6585  0.3678
 6213SOL    HW119538   5.474   1.783   3.330 -2.0101  1.4685 -0.6537
 6213SOL    HW219539   5.461   1.924   3.249  2.5259  2.5766  0.2710
 6214SOL     OW19540   6.344   5.873   1.697 -0.1316 -0.2206  0.1886
 6214SOL    HW119541   6.389   5.945   1.750 -2.3761  0.1241  1.7221
 6214SOL    HW219542   6.412   5.803   1.674  1.4468  0.8519  1.3258
 6215SOL     OW19543   5.615   3.703   5.988 -0.3413  0.2623 -0.1185
 6215SOL    HW119544   5.645   3.620   6.034  0.6446  1.3547  1.2754
 6215SOL    HW219545   5.645   3.700   5.892 -0.6589 -1.1327 -0.1983
 6216SOL     OW19546   5.621   4.332   4.754 -0.5743 -1.0665 -0.2053
 6216SOL    HW119547   5.554   4.322   4.680 -0.4493 -1.4732 -0.2700
 6216SOL    HW219548   5.613   4.423   4.795 -0.1652 -0.5841 -1.1780
 6217SOL     OW19549   6.318   6.119   0.070  0.1833  0.6100  0.3517
 6217SOL    HW119550   6.350   6.136  -0.023 -1.5898 -1.5674 -0.7610
 6217SOL    HW219551   6.238   6.176   0.089  1.9630  2.8652  1.5385
 6218SOL     OW19552   1.944   3.196   0.237  0.4660 -0.0247  0.0420
 6218SOL    HW119553   1.884   3.136   0.183  0.9738 -1.5164  1.0632
 6218SOL    HW219554   2.020   3.142   0.273  0.5830  1.0985  1.5638
 6219SOL     OW19555   0.206   4.503   4.482  0.2325 -0.6810 -0.0444
 6219SOL    HW119556   0.297   4.462   4.490  0.2318 -0.7207 -0.2222
 6219SOL    HW219557   0.157   4.493   4.569  1.6586  2.4195  1.2612
 6220SOL     OW19558   2.129   1.516   3.250  0.4559 -0.1418 -0.0064
 6220SOL    HW119559   2.207   1.505   3.311 -0.4825  0.5880  1.4018
 6220SOL    HW219560   2.137   1.603   3.201  1.1057 -0.6314 -0.7964
 6221SOL     OW19561   1.941   4.173   1.748 -0.1746  0.5712 -0.2126
 6221SOL    HW119562   1.968   4.084   1.711  0.3516  0.8211 -0.4519
 6221SOL    HW219563   1.876   4.160   1.822  0.8152 -0.0925  0.5809
 6222SOL     OW19564   5.835   5.919   0.669 -0.0545 -0.7276  0.4308
 6222SOL    HW119565   5.865   5.981   0.742  0.5508 -0.0566 -0.3655
 6222SOL    HW219566   5.738   5.934   0.650  0.5009  1.4240 -1.0822
 6223SOL     OW19567   4.651   4.746   5.164  0.5589 -0.1599  0.3760
 6223SOL    HW119568   4.673   4.832   5.209 -0.9811 -0.5584  2.0660
 6223SOL    HW219569   4.551   4.735   5.161  0.7091 -2.1662  0.8598
 6224SOL     OW19570   4.592   3.045   0.367  0.1573 -0.2061  0.3002
 6224SOL    HW119571   4.620   3.081   0.279 -0.2804  1.2769  0.7492
 6224SOL    HW219572   4.496   3.066   0.384  0.2211 -0.5061  1.1106
 6225SOL     OW19573   5.292   3.567   6.725  0.0367 -0.3560 -0.2908
 6225SOL    HW119574   5.319   3.591   6.818 -0.2196 -2.9797  0.5441
 6225SOL    HW219575   5.197   3.535   6.725 -0.1259  0.0515 -1.5637
 6226SOL     OW19576   0.080   5.879   6.402 -0.3025  0.2915  0.3565
 6226SOL    HW119577   0.016   5.846   6.470 -1.1605  1.1331 -0.0221
 6226SOL    HW219578   0.096   5.977   6.416  1.8085 -0.1062  1.1628
 6227SOL     OW19579   3.020   1.494   1.953 -0.4066  0.1753 -0.0562
 6227SOL    HW119580   2.975   1.581   1.932  0.1130  0.7515  1.0814
 6227SOL    HW219581   3.094   1.511   2.018  1.1298 -0.8297 -1.5030
 6228SOL     OW19582   6.571   4.323   1.578  0.4047  0.4403 -0.1799
 6228SOL    HW119583   6.671   4.318   1.579  0.3700 -0.3607  0.5328
 6228SOL    HW219584   6.535   4.239   1.536  0.0030  0.0682  0.8883
 6229SOL     OW19585   2.096   0.702   3.019 -0.5822 -0.2806 -0.5227
 6229SOL    HW119586   2.010   0.710   3.071 -0.9822  0.5725 -1.3026
 6229SOL    HW219587   2.143   0.790   3.020 -1.2149  0.1290 -2.6434
 6230SOL     OW19588   2.349   5.343   0.209 -0.2066 -0.1159  0.0794
 6230SOL    HW119589   2.378   5.279   0.281  0.5223 -0.4706 -0.5193
 6230SOL    HW219590   2.429   5.389   0.171 -0.5632 -0.1203 -0.6827
 6231SOL     OW19591   6.172   1.226   2.222  0.3914 -0.4070  0.1825
 6231SOL    HW119592   6.160   1.324   2.205  3.3655 -0.1982 -1.4020
 6231SOL    HW219593   6.256   1.211   2.274  1.7403 -2.1873 -2.3140
 6232SOL     OW19594   0.829   4.101   1.934 -0.1534 -0.2314 -0.7567
 6232SOL    HW119595   0.921   4.098   1.973 -0.1640  0.3136 -0.6759
 6232SOL    HW219596   0.764   4.126   2.006 -0.6050 -2.2239 -0.4163
 6233SOL     OW19597   2.894   1.515   3.175 -0.5185 -0.3162 -0.6372
 6233SOL    HW119598   2.986   1.519   3.135 -0.9546  1.6342 -1.5814
 6233SOL    HW219599   2.897   1.547   3.269 -0.3029  0.2852 -0.8447
 6234SOL     OW19600   5.691   4.833   4.824  0.0510  0.1590  0.0614
 6234SOL    HW119601   5.776   4.845   4.876 -0.0173 -1.9020  0.7134
 6234SOL    HW219602   5.676   4.736   4.805 -1.5739  0.5882 -1.0704
 6235SOL     OW19603   2.452   4.975   3.107 -0.3142 -0.1144  0.5320
 6235SOL    HW119604   2.469   5.018   3.019 -0.1355  0.7403  0.9789
 6235SOL    HW219605   2.439   4.876   3.094 -1.8298  0.2029 -0.6402
 6236SOL     OW19606   2.246   6.215   2.157 -0.7753 -0.2368 -0.0392
 6236SOL    HW119607   2.286   6.136   2.202  0.2951  0.3823  0.1388
 6236SOL    HW219608   2.274   6.298   2.205  0.5472  0.4596 -1.9324
 6237SOL     OW19609   0.344   5.898   4.597 -0.0257  0.1675  0.3277
 6237SOL    HW119610   0.335   5.840   4.679  0.2526  1.9716  1.6902
 6237SOL    HW219611   0.268   5.963   4.594 -0.2899 -0.1795 -1.1401
 6238SOL     OW19612   6.085   1.937   3.360  0.3847  0.1583 -0.0290
 6238SOL    HW119613   6.128   1.992   3.432  2.3606  0.7861 -1.5951
 6238SOL    HW219614   6.080   1.991   3.276 -2.0857 -0.4750 -0.3678
 6239SOL     OW19615   3.018   6.114   0.542  0.0708 -0.2323  0.2574
 6239SOL    HW119616   3.008   6.020   0.577 -0.0491 -0.2312  0.2251
 6239SOL    HW219617   3.061   6.111   0.452 -1.0175 -0.3370 -0.2770
 6240SOL     OW19618   2.301   6.436   4.147 -0.1973  0.0433  0.2725
 6240SOL    HW119619   2.321   6.349   4.102 -1.8304  0.0307 -0.5180
 6240SOL    HW219620   2.334   6.434   4.241  0.5433 -1.1007  0.0057
 6241SOL     OW19621   0.001   6.156   3.396  0.1247 -0.0059 -0.0330
 6241SOL    HW119622   0.032   6.250   3.410  3.0024 -0.4924 -2.2315
 6241SOL    HW219623  -0.085   6.156   3.344 -0.4494  1.3567  0.8645
 6242SOL     OW19624   1.928   6.779   0.612 -0.5536 -0.1302 -0.0548
 6242SOL    HW119625   2.023   6.756   0.596 -0.8445 -0.8877 -0.7830
 6242SOL    HW219626   1.911   6.790   0.710 -0.1336 -1.8351  0.2312
 6243SOL     OW19627   2.011   4.231   6.716 -0.4521 -0.0893  0.3484
 6243SOL    HW119628   2.080   4.202   6.782 -0.6575 -0.6127  0.3338
 6243SOL    HW219629   1.946   4.292   6.760 -0.0778  0.2719  0.4041
 6244SOL     OW19630   0.758   2.822   0.049  0.1160 -1.2818  0.2118
 6244SOL    HW119631   0.745   2.819  -0.050  0.5268 -0.4786  0.1176
 6244SOL    HW219632   0.817   2.900   0.072 -0.7107 -0.9074  1.1676
 6245SOL     OW19633   4.884   0.191   2.653 -0.0151 -0.6575  0.4231
 6245SOL    HW119634   4.825   0.137   2.594  1.6219 -1.2487 -0.7426
 6245SOL    HW219635   4.924   0.133   2.724  0.0599 -0.5144  0.5000
 6246SOL     OW19636   6.741   0.292   2.851  0.3793 -0.4394 -0.1390
 6246SOL    HW119637   6.695   0.261   2.768  2.2985 -2.1721 -0.6430
 6246SOL    HW219638   6.754   0.391   2.848 -0.4962 -0.3492 -1.4142
 6247SOL     OW19639   0.856   3.500   5.242 -0.1347  0.1341  0.4376
 6247SOL    HW119640   0.947   3.481   5.280 -0.9006 -3.9470  0.7356
 6247SOL    HW219641   0.790   3.504   5.317 -0.5100  0.8956  0.0730
 6248SOL     OW19642   5.020   4.438   2.268  0.2773 -0.1830 -0.0234
 6248SOL    HW119643   5.044   4.489   2.351  1.1946 -0.3384 -0.1859
 6248SOL    HW219644   4.924   4.409   2.274  0.7096 -1.4318  1.6558
 6249SOL     OW19645   1.446   5.175   5.246 -0.5761 -0.1437  0.0895
 6249SOL    HW119646   1.498   5.165   5.330 -0.5596  0.4139  0.1454
 6249SOL    HW219647   1.460   5.266   5.207 -1.0706 -0.1781 -0.1886
 6250SOL     OW19648   3.376   2.945   0.184  0.2833  0.3279  0.2862
 6250SOL    HW119649   3.457   2.950   0.125 -0.1413  1.0786 -0.2597
 6250SOL    HW219650   3.366   2.852   0.221  1.4542  0.2634  0.4589
 6251SOL     OW19651   1.562   1.241   0.538  0.2302  0.1770  0.3119
 6251SOL    HW119652   1.600   1.161   0.492 -1.3804 -2.4190  3.1208
 6251SOL    HW219653   1.477   1.217   0.584 -0.7561  3.7573  0.7128
 6252SOL     OW19654   3.702   4.002   0.151  0.6333  0.2405  0.4325
 6252SOL    HW119655   3.773   3.990   0.221  0.0952 -0.4679  0.8671
 6252SOL    HW219656   3.616   3.963   0.183  0.2754  0.2617 -0.4654
 6253SOL     OW19657   2.612   1.805   3.637  0.4987 -0.0422 -0.2182
 6253SOL    HW119658   2.708   1.802   3.663  0.3776  0.6568  0.3205
 6253SOL    HW219659   2.590   1.895   3.600  0.0983 -0.2651 -0.5294
 6254SOL     OW19660   5.761   0.773   6.542 -0.0737  0.4977 -0.3105
 6254SOL    HW119661   5.760   0.846   6.473  0.5711  0.9394  0.1311
 6254SOL    HW219662   5.855   0.757   6.572 -0.5005  1.6945  1.8789
 6255SOL     OW19663   4.232   6.108   6.869  0.4528 -0.1499  0.8747
 6255SOL    HW119664   4.295   6.100   6.946  1.4961  0.6190  0.1302
 6255SOL    HW219665   4.212   6.204   6.851  0.6324 -0.2856 -0.1221
 6256SOL     OW19666   5.879   0.843   2.748  0.1334  0.0137 -0.1087
 6256SOL    HW119667   5.840   0.751   2.760 -0.6447  0.3892  0.3441
 6256SOL    HW219668   5.887   0.888   2.837  1.8957 -0.1466 -0.1669
 6257SOL     OW19669   5.815   0.618   2.989  0.0838  0.3005 -0.2972
 6257SOL    HW119670   5.914   0.628   2.982  0.2260 -0.9647 -0.3734
 6257SOL    HW219671   5.778   0.589   2.901 -0.3723  0.8259 -0.2864
 6258SOL     OW19672   6.459   1.474   2.089  0.3390  0.1906  0.0322
 6258SOL    HW119673   6.520   1.551   2.108  0.8334  0.3727 -2.0845
 6258SOL    HW219674   6.513   1.392   2.073 -0.0206  0.1010 -0.7468
 6259SOL     OW19675   4.961   0.288   6.031 -0.3759  0.4362  0.2531
 6259SOL    HW119676   4.896   0.343   6.084 -1.0264 -0.1146  0.0336
 6259SOL    HW219677   4.913   0.211   5.989  0.2663  0.4657 -0.5588
 6260SOL     OW19678   2.788   0.291   6.767  0.0032  0.2486 -0.2553
 6260SOL    HW119679   2.779   0.385   6.801 -2.0604  0.2549 -0.6946
 6260SOL    HW219680   2.788   0.291   6.667 -0.5011 -0.2416 -0.2614
 6261SOL     OW19681   5.975   0.657   2.397  0.6304  0.3179 -0.6548
 6261SOL    HW119682   6.042   0.672   2.469 -1.9869  3.1245  1.4375
 6261SOL    HW219683   5.968   0.739   2.340 -1.9229  0.7090  0.0950
 6262SOL     OW19684   2.071   1.984   0.030  0.1263  0.2545  0.5594
 6262SOL    HW119685   2.046   2.075   0.062 -1.7518  0.0185 -0.1374
 6262SOL    HW219686   2.066   1.919   0.107 -0.8833  0.3287  0.5715
 6263SOL     OW19687   0.583   1.603   3.633  0.4683 -0.1694 -0.2182
 6263SOL    HW119688   0.650   1.618   3.706  0.5528 -0.0220 -0.3248
 6263SOL    HW219689   0.596   1.673   3.562 -0.5396  0.5571  0.2890
 6264SOL     OW19690   2.708   1.448   2.806 -0.1248 -0.0536 -0.1037
 6264SOL    HW119691   2.714   1.495   2.894  1.1444 -0.1482 -0.1225
 6264SOL    HW219692   2.742   1.508   2.734  0.0686 -0.4446 -0.3413
 6265SOL     OW19693   6.616   0.735   0.209  0.4246  0.0767 -0.0959
 6265SOL    HW119694   6.533   0.695   0.169 -0.3557  0.1204  1.3964
 6265SOL    HW219695   6.656   0.801   0.145 -1.3151  0.8699 -0.4166
 6266SOL     OW19696   1.682   4.014   6.302 -0.3903  0.1107 -0.2281
 6266SOL    HW119697   1.778   4.001   6.275 -0.0879 -1.9498  1.5762
 6266SOL    HW219698   1.627   4.030   6.220  1.2645 -0.3044 -1.4890
 6267SOL     OW19699   6.531   2.769   2.721 -0.0371  0.0045  0.5020
 6267SOL    HW119700   6.623   2.758   2.761 -0.6756 -1.5805  1.6433
 6267SOL    HW219701   6.465   2.719   2.776 -1.1815 -1.2836 -1.9076
 6268SOL     OW19702   0.404   3.665   6.884 -0.1092 -0.1761 -0.0742
 6268SOL    HW119703   0.380   3.587   6.940 -2.0973 -0.3590 -1.1155
 6268SOL    HW219704   0.322   3.712   6.853  1.0004  1.6511 -0.4559
 6269SOL     OW19705   3.715   3.281   3.168  0.3313 -0.1837 -0.0390
 6269SOL    HW119706   3.770   3.356   3.206 -1.0466  0.5917  0.5005
 6269SOL    HW219707   3.712   3.206   3.233 -2.0880  1.1707  1.5985
 6270SOL     OW19708   0.220   1.571   5.035  0.4676  0.2206 -0.1797
 6270SOL    HW119709   0.177   1.653   5.074  1.7085  0.3468  0.9981
 6270SOL    HW219710   0.294   1.599   4.974  0.8674 -0.0285  0.1944
 6271SOL     OW19711   6.470   6.461   4.554  0.0884  0.2374 -0.3531
 6271SOL    HW119712   6.552   6.446   4.609  0.0864  0.0473 -0.4011
 6271SOL    HW219713   6.435   6.373   4.522 -0.2802  0.2943 -0.1230
 6272SOL     OW19714   1.139   0.660   5.466 -0.1704 -0.0074 -0.0653
 6272SOL    HW119715   1.061   0.599   5.474 -0.2591  0.0274 -0.6427
 6272SOL    HW219716   1.162   0.674   5.369 -0.4052  1.1860  0.0291
 6273SOL     OW19717   6.646   5.444   0.629 -0.0669  0.2407  0.4522
 6273SOL    HW119718   6.731   5.412   0.586 -0.5345  0.9268 -1.0690
 6273SOL    HW219719   6.568   5.412   0.574 -0.6668  1.5641  0.4979
 6274SOL     OW19720   2.702   6.634   3.636 -0.0449  0.0374  0.0956
 6274SOL    HW119721   2.790   6.680   3.633 -0.7359  1.4181  0.4737
 6274SOL    HW219722   2.717   6.535   3.635  1.5074  0.2418  0.3606
 6275SOL     OW19723   1.956   3.384   2.405  0.2553 -0.3389 -0.5089
 6275SOL    HW119724   2.022   3.457   2.385  0.6630 -0.2675  1.0039
 6275SOL    HW219725   2.005   3.297   2.416 -0.0667 -0.5551 -0.7603
 6276SOL     OW19726   3.416   1.034   6.632  0.1458  0.4435 -0.1706
 6276SOL    HW119727   3.366   0.979   6.699 -0.3694  0.1483 -0.7844
 6276SOL    HW219728   3.511   1.044   6.660 -0.2885  1.1810  1.1297
 6277SOL     OW19729   6.144   0.510   3.825  0.1779  0.2723 -0.1904
 6277SOL    HW119730   6.104   0.600   3.809  0.1662  0.0789 -1.3106
 6277SOL    HW219731   6.211   0.516   3.900  0.3772  1.2629 -0.4408
 6278SOL     OW19732   4.738   0.953   6.204 -0.2859  0.1436  0.1204
 6278SOL    HW119733   4.640   0.961   6.183 -0.0150  1.8950 -0.6577
 6278SOL    HW219734   4.754   0.981   6.299 -0.5650 -0.3660  0.3195
 6279SOL     OW19735   2.816   3.200   0.170  0.6502  0.1039 -0.4506
 6279SOL    HW119736   2.901   3.240   0.136  0.9206 -0.3688 -0.3412
 6279SOL    HW219737   2.745   3.207   0.100  0.4357  1.5467 -0.1276
 6280SOL     OW19738   3.698   4.260   5.194  0.6598  0.1091  0.2971
 6280SOL    HW119739   3.784   4.294   5.156  1.5079 -1.6384  0.5480
 6280SOL    HW219740   3.660   4.327   5.257  1.5994  1.1048 -0.1777
 6281SOL     OW19741   0.290   3.613   5.150 -0.1436  0.5199 -0.1474
 6281SOL    HW119742   0.380   3.590   5.187  0.0865 -0.5530 -1.3315
 6281SOL    HW219743   0.253   3.534   5.101 -0.9745  1.5142 -1.1529
 6282SOL     OW19744   4.975   2.329   0.294  0.4423  0.2944  0.1445
 6282SOL    HW119745   5.045   2.398   0.312  1.1347 -0.0452 -1.0798
 6282SOL    HW219746   4.924   2.356   0.212 -0.0229 -0.0873  0.3135
 6283SOL     OW19747   4.881   2.589   2.611 -0.0959  0.3994  0.3194
 6283SOL    HW119748   4.918   2.682   2.602  1.0060 -0.1045 -0.4736
 6283SOL    HW219749   4.908   2.551   2.699  0.9866  0.1824 -0.0886
 6284SOL     OW19750   4.014   1.717   5.452  0.4977  0.4356  0.0496
 6284SOL    HW119751   4.002   1.696   5.548  0.2806  0.2908 -0.0081
 6284SOL    HW219752   4.079   1.653   5.411  0.0314  0.0320 -0.0675
 6285SOL     OW19753   3.803   1.020   2.011  0.0672  0.1365  0.2539
 6285SOL    HW119754   3.778   1.031   2.107 -0.7402 -0.4114  0.1187
 6285SOL    HW219755   3.759   0.937   1.974  1.2837 -0.2909 -0.2843
 6286SOL     OW19756   4.427   6.199   3.715 -0.5148 -0.0198 -0.4746
 6286SOL    HW119757   4.363   6.229   3.787 -1.0846  0.9773 -1.3544
 6286SOL    HW219758   4.514   6.172   3.756 -1.1309 -0.3505  0.6601
 6287SOL     OW19759   2.335   3.833   0.129  0.1281 -0.0114  0.3141
 6287SOL    HW119760   2.432   3.835   0.153  0.7998 -1.0670 -1.9949
 6287SOL    HW219761   2.298   3.926   0.130  1.5633  0.5949 -0.2213
 6288SOL     OW19762   3.510   0.636   1.347 -0.0554  0.2755  0.4602
 6288SOL    HW119763   3.470   0.578   1.276  0.7012  1.2870 -0.8323
 6288SOL    HW219764   3.555   0.715   1.305 -0.1024  1.2319  2.1043
 6289SOL     OW19765   0.076   4.858   1.400 -0.0771 -0.4659 -0.3301
 6289SOL    HW119766   0.118   4.826   1.485 -2.9069 -1.5536  0.7885
 6289SOL    HW219767  -0.019   4.825   1.395 -0.5473  0.9859 -3.1315
 6290SOL     OW19768   1.605   6.987   5.190 -0.2434  0.0542  0.1977
 6290SOL    HW119769   1.616   7.086   5.198  0.6941  0.0888 -1.0875
 6290SOL    HW219770   1.516   6.966   5.149 -0.5954  0.3464  0.8174
 6291SOL     OW19771   3.416   3.624   5.236 -0.2065 -0.0568 -0.3532
 6291SOL    HW119772   3.443   3.707   5.186  1.0657  0.7103  1.4909
 6291SOL    HW219773   3.465   3.621   5.323  1.0230 -3.5611 -1.0166
 6292SOL     OW19774   1.453   6.362   5.262 -0.2355  0.0511 -0.2383
 6292SOL    HW119775   1.499   6.327   5.344 -1.4847 -1.1448  0.0004
 6292SOL    HW219776   1.481   6.456   5.245 -0.0723  0.3841  1.6644
 6293SOL     OW19777   1.371   5.421   1.646 -0.2423 -0.2879  0.2685
 6293SOL    HW119778   1.389   5.385   1.554  2.0641  0.5523  0.3300
 6293SOL    HW219779   1.272   5.423   1.662 -0.6256 -3.3238 -1.0140
 6294SOL     OW19780   5.051   6.180   4.897  0.2148  0.5121  0.4239
 6294SOL    HW119781   5.021   6.275   4.891 -0.3149  0.3020 -0.4917
 6294SOL    HW219782   5.111   6.169   4.976 -0.6196  1.3534  1.2078
 6295SOL     OW19783   3.204   4.686   0.973  0.5250  0.3423 -0.4414
 6295SOL    HW119784   3.126   4.716   0.917  1.2962  2.0431 -0.6595
 6295SOL    HW219785   3.175   4.612   1.034 -0.5103 -1.1384 -2.5980
 6296SOL     OW19786   5.712   5.841   5.786 -0.1884 -0.1377 -0.2083
 6296SOL    HW119787   5.800   5.880   5.761 -0.4175 -0.4960 -1.6220
 6296SOL    HW219788   5.638   5.899   5.750 -0.5431 -0.0955  0.5590
 6297SOL     OW19789   6.945   2.844   5.922 -0.1042  0.0441 -0.1028
 6297SOL    HW119790   6.927   2.863   5.826 -0.7871  0.7915  0.1578
 6297SOL    HW219791   6.864   2.801   5.963  0.5746 -1.2838 -0.1100
 6298SOL     OW19792   2.830   5.898   1.606 -0.1446  0.1454  0.1054
 6298SOL    HW119793   2.804   5.813   1.653  0.5035 -0.0638  0.1034
 6298SOL    HW219794   2.759   5.967   1.619 -0.1454 -0.0251  1.0963
 6299SOL     OW19795   6.395   1.805   4.072  0.2307 -0.3781  0.0392
 6299SOL    HW119796   6.317   1.780   4.130 -0.1263  0.6710  0.0310
 6299SOL    HW219797   6.408   1.904   4.074  1.8828 -0.5752  0.4268
 6300SOL     OW19798   5.763   6.664   4.948  0.2718  0.0846 -0.0279
 6300SOL    HW119799   5.784   6.578   4.900 -0.1265  0.6437 -1.2548
 6300SOL    HW219800   5.669   6.661   4.982  0.3598 -0.0816  0.2028
 6301SOL     OW19801   3.146   2.626   0.323 -0.0053 -0.0896 -0.0554
 6301SOL    HW119802   3.239   2.635   0.289  0.0235 -2.6375 -0.8516
 6301SOL    HW219803   3.083   2.611   0.246 -0.8632  0.1316  0.5801
 6302SOL     OW19804   3.794   0.247   6.823  0.7986 -0.1821  0.0841
 6302SOL    HW119805   3.704   0.273   6.859 -0.0353 -2.0984 -0.4889
 6302SOL    HW219806   3.820   0.311   6.751 -1.2203 -0.8371 -1.3394
 6303SOL     OW19807   6.653   1.132   0.334 -0.3891 -0.4289  0.0223
 6303SOL    HW119808   6.741   1.180   0.329 -0.7146  0.1965  0.1680
 6303SOL    HW219809   6.639   1.080   0.250  0.2532 -0.7700  0.1211
 6304SOL     OW19810   4.753   5.999   5.364  0.1770 -0.2349 -0.0804
 6304SOL    HW119811   4.707   5.920   5.404 -0.0120 -0.0065  0.1537
 6304SOL    HW219812   4.831   5.967   5.310 -0.4438 -0.6485 -0.7495
 6305SOL     OW19813   6.498   4.179   4.765 -0.5115  0.6761 -0.5947
 6305SOL    HW119814   6.529   4.249   4.701 -0.5469 -0.5964 -2.0434
 6305SOL    HW219815   6.578   4.135   4.807 -0.4766  0.9087 -0.4107
 6306SOL     OW19816   6.477   3.316   5.014 -0.8214 -0.2532  0.2149
 6306SOL    HW119817   6.389   3.287   5.050 -0.5945 -0.4388  0.6282
 6306SOL    HW219818   6.464   3.361   4.925 -1.4270  0.6056  0.7225
 6307SOL     OW19819   5.079   2.999   1.045  0.3168  0.0844  0.1824
 6307SOL    HW119820   5.144   3.069   1.016  1.8393 -1.7312 -1.0331
 6307SOL    HW219821   5.020   2.974   0.967 -0.1262 -0.0833  0.5644
 6308SOL     OW19822   6.330   6.941   3.635  0.4541 -0.0414 -0.4400
 6308SOL    HW119823   6.311   7.010   3.704  1.3598 -1.0105  0.8265
 6308SOL    HW219824   6.424   6.908   3.645 -0.2076 -2.0813 -0.3989
 6309SOL     OW19825   5.469   5.207   2.611  0.6074  0.2756 -0.1277
 6309SOL    HW119826   5.495   5.241   2.702 -0.3128 -0.3712  0.3878
 6309SOL    HW219827   5.512   5.119   2.595  1.0564  0.5509 -0.4831
 6310SOL     OW19828   5.005   1.685   4.505 -0.0781  0.0733 -0.3584
 6310SOL    HW119829   4.961   1.596   4.489 -0.5251  0.2709 -0.2229
 6310SOL    HW219830   5.079   1.673   4.572 -0.9054  0.0150  0.5682
 6311SOL     OW19831   3.132   4.135   6.693  0.9754 -0.1451  0.3314
 6311SOL    HW119832   3.174   4.059   6.644 -0.0731 -1.0329  0.7575
 6311SOL    HW219833   3.087   4.197   6.629 -0.5048 -1.3675  0.1283
 6312SOL     OW19834   5.869   6.329   3.789  0.0285 -0.2330  0.4307
 6312SOL    HW119835   5.795   6.276   3.828  0.3828 -0.0540  1.3552
 6312SOL    HW219836   5.880   6.415   3.840 -0.1194  0.4503 -0.6370
 6313SOL     OW19837   2.587   3.249   5.479 -0.6195  0.1229  0.2797
 6313SOL    HW119838   2.602   3.173   5.415 -2.8671 -0.0040 -0.1625
 6313SOL    HW219839   2.540   3.214   5.560 -2.0180  1.0867 -0.0955
 6314SOL     OW19840   3.287   5.048   4.769 -0.0037  0.0198  0.1555
 6314SOL    HW119841   3.255   4.976   4.831 -0.6818  0.5773  0.4506
 6314SOL    HW219842   3.373   5.018   4.726 -0.9582 -1.5678 -0.7827
 6315SOL     OW19843   3.563   6.767   5.275  0.4658 -0.5567  0.5270
 6315SOL    HW119844   3.523   6.701   5.339  1.4242  0.6464  2.4318
 6315SOL    HW219845   3.551   6.860   5.309  3.7981 -0.0436  0.6632
 6316SOL     OW19846   2.940   3.036   6.948  0.2818  0.2788 -0.2598
 6316SOL    HW119847   3.030   3.078   6.937  1.4210 -2.1027 -0.6022
 6316SOL    HW219848   2.931   3.001   7.040  0.3718 -0.9106 -0.6933
 6317SOL     OW19849   2.892   0.308   0.144  0.7414  0.3195 -0.2945
 6317SOL    HW119850   2.799   0.341   0.130  1.2970  1.7460 -0.8568
 6317SOL    HW219851   2.893   0.237   0.215 -0.4892  1.9045  1.3989
 6318SOL     OW19852   0.920   2.087   1.608 -0.2238  0.2162  0.2273
 6318SOL    HW119853   0.892   2.182   1.590 -0.2748 -0.1782 -2.1495
 6318SOL    HW219854   0.850   2.025   1.575  0.7327 -0.6771 -0.1838
 6319SOL     OW19855   0.126   2.779   5.371  0.0570  0.0500 -0.2412
 6319SOL    HW119856   0.027   2.784   5.357 -0.1262 -3.1106 -0.8294
 6319SOL    HW219857   0.168   2.735   5.291  1.7490  0.0198  0.6294
 6320SOL     OW19858   5.319   6.872   4.245  0.6680  0.2903  0.5267
 6320SOL    HW119859   5.386   6.797   4.248  0.1845 -0.1868 -0.1928
 6320SOL    HW219860   5.269   6.876   4.331 -1.0055 -1.8374 -0.2633
 6321SOL     OW19861   5.610   6.458   6.381 -0.2350 -0.2017  0.2725
 6321SOL    HW119862   5.583   6.485   6.474 -3.2850  2.0291 -1.0656
 6321SOL    HW219863   5.691   6.509   6.354  0.1341 -0.1727  1.3698
 6322SOL     OW19864   2.723   1.012   2.731  0.2163  0.0021  0.2772
 6322SOL    HW119865   2.635   1.011   2.778 -0.9408  0.7607 -1.7509
 6322SOL    HW219866   2.770   1.098   2.749  0.8752 -0.6559  1.8677
 6323SOL     OW19867   5.282   4.852   6.990  0.1309  0.1844  0.2870
 6323SOL    HW119868   5.224   4.909   7.048  1.9263  2.4701 -0.0372
 6323SOL    HW219869   5.236   4.765   6.973 -1.4209  0.2931  3.2791
 6324SOL     OW19870   6.585   3.169   6.856 -0.3212 -0.5444  0.2063
 6324SOL    HW119871   6.656   3.103   6.880  0.1940  0.2609  0.9884
 6324SOL    HW219872   6.606   3.209   6.767 -1.0934 -2.0246 -0.6680
 6325SOL     OW19873   0.670   5.097   1.061  0.0003 -0.2084 -0.2106
 6325SOL    HW119874   0.676   5.157   1.141  1.5090 -1.4238  0.6435
 6325SOL    HW219875   0.574   5.082   1.037 -0.4314  2.1590 -0.2054
 6326SOL     OW19876   6.180   2.494   3.152 -0.3275 -0.3139 -0.6758
 6326SOL    HW119877   6.083   2.502   3.172  0.1079  0.9675  1.0941
 6326SOL    HW219878   6.231   2.475   3.236  1.0218 -0.3983 -1.4727
 6327SOL     OW19879   4.717   5.560   3.879  0.2770 -0.0704  0.0952
 6327SOL    HW119880   4.631   5.511   3.887  0.6752 -1.0015 -1.0570
 6327SOL    HW219881   4.738   5.605   3.966 -0.1802 -1.8229  1.1624
 6328SOL     OW19882   4.393   4.451   6.245  0.0520  0.3529 -0.6432
 6328SOL    HW119883   4.480   4.416   6.280 -0.5197 -0.8552 -0.3894
 6328SOL    HW219884   4.408   4.488   6.153  0.8908  0.4572 -0.4797
 6329SOL     OW19885   1.368   3.037   4.854 -0.4170 -0.2496 -0.2638
 6329SOL    HW119886   1.410   3.029   4.944 -0.7845 -1.0558 -0.1585
 6329SOL    HW219887   1.420   3.102   4.799 -1.9931  2.7554  1.5623
 6330SOL     OW19888   3.207   5.199   4.140  0.3359 -0.2190  0.0436
 6330SOL    HW119889   3.225   5.249   4.225  0.3742  1.4036 -0.8838
 6330SOL    HW219890   3.250   5.247   4.064  0.4083 -1.7186 -0.9026
 6331SOL     OW19891   3.985   1.941   3.528 -0.4611  0.2290  0.4525
 6331SOL    HW119892   3.971   2.019   3.467 -1.9387 -0.7854 -0.5755
 6331SOL    HW219893   4.078   1.907   3.517 -0.3091  0.8520 -0.2842
 6332SOL     OW19894   3.619   6.903   5.697 -0.4369 -0.3999  0.0639
 6332SOL    HW119895   3.633   6.988   5.749  1.6108 -0.5445 -0.1608
 6332SOL    HW219896   3.619   6.825   5.760  1.1056 -0.4937 -0.0178
 6333SOL     OW19897   5.833   6.849   0.650 -0.6492 -0.7585  0.2066
 6333SOL    HW119898   5.925   6.847   0.610 -0.0841 -1.9196  1.4641
 6333SOL    HW219899   5.818   6.937   0.694 -0.0558 -0.6149  0.1288
 6334SOL     OW19900   2.110   0.619   5.766  0.0909  0.3623  1.0460
 6334SOL    HW119901   2.030   0.559   5.776  0.4819 -0.3930 -0.1606
 6334SOL    HW219902   2.084   0.698   5.711  0.0199  0.4260  1.1702
 6335SOL     OW19903   2.696   1.424   3.475 -0.4763 -0.3340  0.4177
 6335SOL    HW119904   2.758   1.498   3.452  0.4175 -1.5407 -1.2924
 6335SOL    HW219905   2.717   1.389   3.567 -1.3137  1.8541  1.5094
 6336SOL     OW19906   2.970   4.900   5.218 -0.1056 -0.5923  0.4156
 6336SOL    HW119907   3.068   4.903   5.198 -0.1197 -0.0589  0.4109
 6336SOL    HW219908   2.951   4.951   5.302 -0.3315 -1.0235  0.6314
 6337SOL     OW19909   0.443   5.824   0.076 -0.2752 -0.5239 -0.1890
 6337SOL    HW119910   0.500   5.906   0.076  0.5804 -1.0688 -1.8713
 6337SOL    HW219911   0.354   5.844   0.036 -0.5485 -0.1273  0.6083
 6338SOL     OW19912   6.994   0.822   6.314  0.3984 -0.5185  0.3657
 6338SOL    HW119913   7.014   0.828   6.216 -1.1228  0.5660  0.0786
 6338SOL    HW219914   7.079   0.807   6.365  1.5647  1.2711 -0.9425
 6339SOL     OW19915   0.497   1.743   0.065 -0.1586 -0.4203  0.4042
 6339SOL    HW119916   0.455   1.832   0.080 -2.2448 -0.9911 -1.4934
 6339SOL    HW219917   0.581   1.754   0.012 -0.5707  0.3937 -0.0929
 6340SOL     OW19918   3.011   3.203   3.950  0.7132  0.0978  0.2129
 6340SOL    HW119919   2.993   3.183   3.854  2.0064 -0.3771  0.0522
 6340SOL    HW219920   2.953   3.279   3.980 -0.3265 -0.3135 -0.6892
 6341SOL     OW19921   1.646   1.393   1.183  0.2725  0.1272 -0.2248
 6341SOL    HW119922   1.689   1.305   1.165 -1.3668 -0.5525 -0.9256
 6341SOL    HW219923   1.712   1.466   1.164  0.0061 -0.6096 -5.6717
 6342SOL     OW19924   6.935   2.826   4.958 -0.1511 -0.6064 -0.0569
 6342SOL    HW119925   6.900   2.919   4.952  0.8958 -0.1520  0.5383
 6342SOL    HW219926   6.913   2.788   5.048  0.6562 -0.4053  0.2299
 6343SOL     OW19927   6.278   2.919   2.453 -0.1738 -0.4476  0.2901
 6343SOL    HW119928   6.276   2.925   2.553  0.5926 -0.4341  0.3172
 6343SOL    HW219929   6.228   2.996   2.413 -0.1779 -0.2522  0.6696
 6344SOL     OW19930   6.313   0.390   5.375 -0.9624  0.1379 -0.4592
 6344SOL    HW119931   6.241   0.455   5.351 -1.3553  0.0314  0.3750
 6344SOL    HW219932   6.292   0.301   5.335 -1.2046  0.1563 -0.3780
 6345SOL     OW19933   5.859   4.393   4.609 -0.2730  0.0379  0.7561
 6345SOL    HW119934   5.774   4.344   4.631 -1.4470  2.0011  0.8560
 6345SOL    HW219935   5.869   4.471   4.671  0.1179  1.4824 -1.0431
 6346SOL     OW19936   0.190   1.508   3.625  0.1831  0.5997  0.0355
 6346SOL    HW119937   0.097   1.473   3.628 -0.1455  1.4432  0.0551
 6346SOL    HW219938   0.248   1.453   3.685 -0.5559  0.7864  0.9465
 6347SOL     OW19939   0.053   0.772   0.575  0.0609 -0.3036 -0.2954
 6347SOL    HW119940   0.037   0.675   0.557 -1.5907  0.0778 -1.0382
 6347SOL    HW219941   0.021   0.827   0.498 -0.6785  0.9414  0.8409
 6348SOL     OW19942   0.069   3.143   0.202 -0.1730  0.2022  0.4425
 6348SOL    HW119943   0.106   3.157   0.111  0.7116 -0.1425  0.7363
 6348SOL    HW219944   0.023   3.054   0.207  1.2902 -0.5638  0.7889
 6349SOL     OW19945   3.125   1.832   2.983 -0.1685 -0.3024  0.0160
 6349SOL    HW119946   3.133   1.748   2.929 -0.4226  1.2795 -2.6998
 6349SOL    HW219947   3.215   1.857   3.019  0.3525 -0.5693 -1.0615
 6350SOL     OW19948   6.739   3.742   6.278 -0.5811  0.0325  0.5371
 6350SOL    HW119949   6.746   3.815   6.210  0.2925 -0.2746  0.2797
 6350SOL    HW219950   6.659   3.758   6.336 -1.9836 -0.2795 -1.2264
 6351SOL     OW19951   5.227   6.639   0.518  0.1454 -0.4501 -0.1117
 6351SOL    HW119952   5.315   6.663   0.478  0.8694 -1.3963  0.8455
 6351SOL    HW219953   5.172   6.591   0.450  0.5062 -0.1645 -0.6125
 6352SOL     OW19954   2.698   0.533   0.107 -0.4305 -0.1076  0.1596
 6352SOL    HW119955   2.659   0.605   0.164 -1.3939  1.1970 -2.0387
 6352SOL    HW219956   2.781   0.567   0.062 -0.3472 -0.6958 -0.1440
 6353SOL     OW19957   1.133   0.651   6.925  0.6397  0.1810  0.3880
 6353SOL    HW119958   1.064   0.661   6.853  1.5824  2.2061 -0.3204
 6353SOL    HW219959   1.184   0.567   6.910  0.1241  0.0322 -0.6995
 6354SOL     OW19960   1.639   2.877   6.432  0.2773 -0.2672 -0.3767
 6354SOL    HW119961   1.568   2.943   6.457  1.6667  1.0409  0.3106
 6354SOL    HW219962   1.652   2.877   6.333 -0.8559 -0.7195 -0.5305
 6355SOL     OW19963   1.225   4.562   4.673 -0.2371 -0.2217 -0.6450
 6355SOL    HW119964   1.203   4.495   4.601  0.1973 -0.5075 -0.5159
 6355SOL    HW219965   1.168   4.545   4.753 -1.0907  0.4233 -1.1073
 6356SOL     OW19966   5.121   6.793   2.238 -0.2245  0.1578  0.3499
 6356SOL    HW119967   5.151   6.702   2.265  3.1597  0.5611 -1.4842
 6356SOL    HW219968   5.080   6.789   2.147  1.2421  0.6157 -0.3481
 6357SOL     OW19969   5.733   6.782   4.685  0.3297  0.5802 -0.3869
 6357SOL    HW119970   5.635   6.796   4.672  0.2663 -0.4156 -1.0503
 6357SOL    HW219971   5.748   6.727   4.768  0.2937  0.2474 -0.6006
 6358SOL     OW19972   0.206   0.341   3.197 -0.7209  0.5102  0.2510
 6358SOL    HW119973   0.255   0.332   3.111 -0.7026 -0.5905  0.3607
 6358SOL    HW219974   0.127   0.280   3.196 -0.4027  0.0686  1.2288
 6359SOL     OW19975   0.126   0.490   1.123 -0.2527 -0.3246 -0.1683
 6359SOL    HW119976   0.195   0.561   1.107 -0.5451  0.0246  0.1029
 6359SOL    HW219977   0.126   0.425   1.047  0.5908 -0.5077 -0.0285
 6360SOL     OW19978   6.625   5.755   1.117 -0.2354  0.5040  0.3023
 6360SOL    HW119979   6.718   5.789   1.109 -0.2787  0.3404 -1.3174
 6360SOL    HW219980   6.615   5.673   1.060 -1.1161 -0.0336  1.2023
 6361SOL     OW19981   0.710   3.430   2.189  0.0071 -0.5513  0.0429
 6361SOL    HW119982   0.647   3.372   2.137 -0.0788  0.9204 -1.6018
 6361SOL    HW219983   0.663   3.466   2.270 -0.5526 -1.2338  0.0275
 6362SOL     OW19984   5.646   1.000   2.788  0.5382 -0.0510 -0.0189
 6362SOL    HW119985   5.627   0.988   2.885 -0.7460  1.4616 -0.0272
 6362SOL    HW219986   5.729   0.951   2.763  0.7917 -0.6023  1.7963
 6363SOL     OW19987   5.291   4.106   2.911 -0.6143 -0.3518  0.3208
 6363SOL    HW119988   5.212   4.113   2.972 -1.2865  0.7103 -0.6191
 6363SOL    HW219989   5.341   4.193   2.912  1.4627 -1.4666  2.0391
 6364SOL     OW19990   2.860   4.889   2.370 -0.1465  0.7075 -0.5148
 6364SOL    HW119991   2.876   4.983   2.402 -0.4453  0.7922 -0.6124
 6364SOL    HW219992   2.813   4.837   2.441  0.9763  0.3144 -0.0299
 6365SOL     OW19993   5.473   3.683   4.359  0.4605  0.2128  0.0190
 6365SOL    HW119994   5.542   3.612   4.368  0.5510  0.4989  2.0702
 6365SOL    HW219995   5.517   3.769   4.332  0.3167 -0.4743 -2.7374
 6366SOL     OW19996   6.149   1.606   4.578  0.2122  0.0815  0.4312
 6366SOL    HW119997   6.189   1.696   4.558 -2.6319  1.1540 -0.8751
 6366SOL    HW219998   6.094   1.612   4.661  1.1159 -0.8693  1.1245
 6367SOL     OW19999   2.724   4.158   5.330  0.0562  0.5938  0.3913
 6367SOL    HW120000   2.810   4.136   5.285 -1.1148 -1.7207 -0.9032
 6367SOL    HW220001   2.672   4.222   5.274 -0.7161 -1.0762 -0.8903
 6368SOL     OW20002   5.106   5.022   0.138 -0.1949  0.0788 -0.1632
 6368SOL    HW120003   5.170   5.002   0.211  0.2735 -0.9134 -0.8150
 6368SOL    HW220004   5.016   4.984   0.161 -0.1992  0.2881  0.1588
 6369SOL     OW20005   1.661   4.766   2.743  0.5341  0.2761  0.2669
 6369SOL    HW120006   1.655   4.839   2.675  0.1455  0.4070  0.4398
 6369SOL    HW220007   1.634   4.801   2.833 -1.1433 -0.4366  0.0830
 6370SOL     OW20008   5.372   3.812   5.945 -0.5258 -0.1454  0.2514
 6370SOL    HW120009   5.465   3.775   5.949  0.2026  1.4194 -0.9760
 6370SOL    HW220010   5.373   3.908   5.974 -1.8101 -0.1585  0.4181
 6371SOL     OW20011   1.947   6.740   2.212 -0.3098 -0.2330 -0.3424
 6371SOL    HW120012   1.867   6.680   2.209 -0.2894 -0.2272 -1.1881
 6371SOL    HW220013   1.940   6.808   2.139  0.5768 -0.3698 -0.5562
 6372SOL     OW20014   3.187   6.005   5.949  0.1061 -0.2440  0.2285
 6372SOL    HW120015   3.231   5.952   6.021  0.3665  2.0205  1.8596
 6372SOL    HW220016   3.256   6.033   5.882 -0.0902 -2.1305 -0.8179
 6373SOL     OW20017   0.988   0.008   4.341  0.1389 -0.0777 -0.3839
 6373SOL    HW120018   0.894   0.027   4.316  0.0155 -0.5430 -0.2816
 6373SOL    HW220019   1.026   0.087   4.389 -0.3040 -0.0121 -0.1344
 6374SOL     OW20020   6.490   3.205   2.333 -0.2045 -0.0143  0.2821
 6374SOL    HW120021   6.498   3.201   2.432  0.7436  0.8473  0.2495
 6374SOL    HW220022   6.402   3.166   2.305 -0.7860  0.3931  1.4992
 6375SOL     OW20023   6.149   4.667   1.197 -0.2340  0.2489  0.1080
 6375SOL    HW120024   6.189   4.728   1.267  0.9677 -0.5243  0.1184
 6375SOL    HW220025   6.199   4.678   1.111 -1.1732  0.5776 -0.4115
 6376SOL     OW20026   5.355   3.015   1.416 -0.5624 -0.0969 -0.1297
 6376SOL    HW120027   5.439   2.972   1.449 -1.7843 -1.1034  1.8251
 6376SOL    HW220028   5.305   2.950   1.360 -1.4778 -0.6037  1.2328
 6377SOL     OW20029   3.925   0.530   2.565  0.7030 -0.0984  0.1231
 6377SOL    HW120030   3.987   0.503   2.639  1.3330 -1.2849 -0.8015
 6377SOL    HW220031   3.838   0.482   2.576  0.2942  0.7849  0.8491
 6378SOL     OW20032   5.374   6.629   1.514 -0.2588 -0.7762 -0.2112
 6378SOL    HW120033   5.469   6.621   1.543  0.1664 -0.4727 -1.4832
 6378SOL    HW220034   5.336   6.538   1.497 -0.0783 -0.8786 -0.0702
 6379SOL     OW20035   6.010   4.322   2.118  0.7749  0.8530 -0.3566
 6379SOL    HW120036   5.948   4.266   2.064  2.1204  0.7163 -1.8353
 6379SOL    HW220037   6.021   4.411   2.074  1.0094  1.1576  0.3089
 6380SOL     OW20038   6.537   2.554   4.419 -0.5523  0.3404 -0.4270
 6380SOL    HW120039   6.442   2.586   4.418 -0.4349  0.6801 -1.0869
 6380SOL    HW220040   6.570   2.553   4.513 -1.2569  0.0757 -0.1709
 6381SOL     OW20041   5.635   6.583   0.311 -0.5283 -0.5427  0.2233
 6381SOL    HW120042   5.548   6.632   0.302  0.3913  0.9550 -1.0704
 6381SOL    HW220043   5.644   6.516   0.237 -0.6881 -0.8848  0.5115
 6382SOL     OW20044   5.330   0.209   5.081 -0.0179  0.1510 -0.2193
 6382SOL    HW120045   5.261   0.257   5.135 -1.7010 -1.5408 -0.7322
 6382SOL    HW220046   5.416   0.204   5.132 -0.9373  0.3780  1.4079
 6383SOL     OW20047   3.620   2.826   2.209  0.9353 -0.1100  0.5568
 6383SOL    HW120048   3.537   2.881   2.200  1.2110  0.1155 -1.0491
 6383SOL    HW220049   3.596   2.729   2.214  0.5527 -0.3510 -3.0448
 6384SOL     OW20050   5.446   6.071   4.233  0.3319 -0.2813 -0.5965
 6384SOL    HW120051   5.460   6.048   4.137  2.0659 -0.6375 -0.2846
 6384SOL    HW220052   5.504   6.013   4.290 -0.7835 -0.1691  0.6844
 6385SOL     OW20053   0.498   2.267   5.591  0.3313  0.2342  0.3503
 6385SOL    HW120054   0.423   2.258   5.525 -0.2639  0.9781  0.9104
 6385SOL    HW220055   0.585   2.265   5.542  0.0316 -1.7874 -0.2071
 6386SOL     OW20056   6.862   0.547   6.240  0.0234  0.0290 -0.2507
 6386SOL    HW120057   6.842   0.459   6.197 -0.6893 -0.4339  0.9480
 6386SOL    HW220058   6.826   0.621   6.183 -0.1792 -0.5102 -0.8361
 6387SOL     OW20059   5.115   0.654   3.776 -0.4031 -0.2154  0.6688
 6387SOL    HW120060   5.105   0.752   3.759  0.9361 -0.2270 -0.3086
 6387SOL    HW220061   5.026   0.609   3.766 -0.7919  0.7135 -0.1837
 6388SOL     OW20062   1.763   0.074   3.904  0.4176 -0.2611  0.0414
 6388SOL    HW120063   1.735   0.136   3.977 -0.1607 -2.5218  1.8534
 6388SOL    HW220064   1.863   0.071   3.898  0.4826  1.7989 -1.0407
 6389SOL     OW20065   4.332   0.088   4.993  0.0285 -0.1833  0.0014
 6389SOL    HW120066   4.380   0.043   4.918 -0.9042  0.1773 -0.8542
 6389SOL    HW220067   4.338   0.033   5.075 -1.3143 -2.0535 -1.0772
 6390SOL     OW20068   0.696   6.080   1.189  0.9082  0.4083  0.5742
 6390SOL    HW120069   0.628   6.153   1.200  1.1954  0.9431 -0.9350
 6390SOL    HW220070   0.659   5.994   1.225  0.0007  0.9899  1.0688
 6391SOL     OW20071   4.134   0.644   4.642 -0.2562 -0.0007 -0.1937
 6391SOL    HW120072   4.125   0.587   4.560 -1.6695  0.9976 -0.7596
 6391SOL    HW220073   4.140   0.585   4.723  0.7794 -0.9884 -0.9530
 6392SOL     OW20074   0.947   3.715   3.031 -0.2473  0.3975 -0.4371
 6392SOL    HW120075   0.880   3.783   3.003 -1.6796 -1.0058 -0.6009
 6392SOL    HW220076   0.965   3.725   3.129  0.0513  1.4064 -0.5880
 6393SOL     OW20077   0.342   0.144   1.230  0.0626 -0.5490 -0.5486
 6393SOL    HW120078   0.338   0.061   1.286 -0.0889 -0.7378 -0.8357
 6393SOL    HW220079   0.290   0.130   1.146 -0.2696 -0.0341 -0.4322
 6394SOL     OW20080   5.929   4.885   1.050 -0.3420 -0.0508 -0.1963
 6394SOL    HW120081   5.891   4.961   1.102  0.2076  0.6981 -0.8751
 6394SOL    HW220082   5.900   4.799   1.092 -0.0389  0.5243  1.2505
 6395SOL     OW20083   5.830   4.354   3.685  0.3466 -0.3381 -0.3014
 6395SOL    HW120084   5.773   4.435   3.673  1.2604  0.5061  0.8346
 6395SOL    HW220085   5.774   4.272   3.670 -0.4702  0.4657 -2.0023
 6396SOL     OW20086   3.185   4.925   0.238 -0.0517  0.6832  0.1821
 6396SOL    HW120087   3.148   4.833   0.250  0.1635  0.5257 -0.3220
 6396SOL    HW220088   3.161   4.959   0.147 -0.7039  1.3984  0.6028
 6397SOL     OW20089   2.897   5.817   6.711 -0.0508  0.1354 -0.1424
 6397SOL    HW120090   2.844   5.764   6.645  2.8617 -0.7752 -1.9442
 6397SOL    HW220091   2.880   5.915   6.695 -0.3762 -0.0993 -1.4162
 6398SOL     OW20092   1.841   6.804   5.249  0.0592  0.5524  0.1771
 6398SOL    HW120093   1.840   6.743   5.328 -0.6058 -0.1332 -0.3425
 6398SOL    HW220094   1.753   6.851   5.242 -0.1165  0.1459 -0.4907
 6399SOL     OW20095   1.659   6.532   5.865 -0.0711  0.2775 -0.2896
 6399SOL    HW120096   1.611   6.483   5.792 -0.7959  0.3825  0.1056
 6399SOL    HW220097   1.736   6.477   5.896 -1.1716 -0.8993  0.5112
 6400SOL     OW20098   0.747   6.738   2.468  0.0071 -0.5801 -0.5757
 6400SOL    HW120099   0.666   6.739   2.526  0.3814  1.1956 -0.0139
 6400SOL    HW220100   0.827   6.717   2.524  0.1814 -0.3316 -0.7321
 6401SOL     OW20101   6.854   5.839   6.125 -0.0234  0.2329  0.0048
 6401SOL    HW120102   6.829   5.800   6.037 -1.0813  0.5121  0.1691
 6401SOL    HW220103   6.900   5.927   6.111 -0.0092  0.1825 -0.2689
 6402SOL     OW20104   0.456   6.773   3.699 -0.0143 -0.1509 -1.3676
 6402SOL    HW120105   0.461   6.853   3.639 -1.3279  0.9203 -0.1276
 6402SOL    HW220106   0.369   6.774   3.748  0.1786 -2.0827 -0.9319
 6403SOL     OW20107   2.190   0.515   0.122  0.2734  0.1122  0.6850
 6403SOL    HW120108   2.103   0.544   0.083 -0.0500  0.4752  1.6664
 6403SOL    HW220109   2.265   0.560   0.072 -0.1621  1.1176  0.9247
 6404SOL     OW20110   0.708   5.625   0.032  0.5761  0.0825 -0.0011
 6404SOL    HW120111   0.611   5.605   0.021  0.1703  2.2470 -0.8835
 6404SOL    HW220112   0.726   5.651   0.127  0.3588 -0.5459  0.2173
 6405SOL     OW20113   2.280   1.336   1.505 -0.0380 -0.2516  0.0781
 6405SOL    HW120114   2.237   1.257   1.548 -3.7632  2.1515  1.2966
 6405SOL    HW220115   2.220   1.371   1.433  1.1135  1.9054  0.0902
 6406SOL     OW20116   6.053   3.559   4.536  0.0723 -0.0064 -0.2024
 6406SOL    HW120117   6.038   3.644   4.486 -1.8429 -0.0704  0.1885
 6406SOL    HW220118   6.070   3.485   4.471  0.8115  0.4842 -0.5827
 6407SOL     OW20119   1.477   2.109   2.788 -0.8478  0.4721  0.1756
 6407SOL    HW120120   1.401   2.153   2.739 -0.6773  0.3092 -0.2380
 6407SOL    HW220121   1.515   2.173   2.854  0.8534  1.7906 -1.9387
 6408SOL     OW20122   5.960   5.635   5.795 -0.0358 -0.5300  0.0969
 6408SOL    HW120123   5.876   5.612   5.747 -0.6135  0.2687  0.6958
 6408SOL    HW220124   5.959   5.594   5.886  0.3582 -0.7569  0.0032
 6409SOL     OW20125   3.187   3.115   0.277 -0.2282 -0.1651  0.1686
 6409SOL    HW120126   3.157   3.181   0.209 -0.9808  0.4246  1.0427
 6409SOL    HW220127   3.232   3.038   0.232  1.1879  1.1941 -0.8425
 6410SOL     OW20128   3.575   6.035   2.158 -0.2353 -0.1320  0.4314
 6410SOL    HW120129   3.554   6.024   2.061  0.1655 -0.1147  0.3393
 6410SOL    HW220130   3.674   6.046   2.169 -0.3172  0.2318  0.8081
 6411SOL     OW20131   2.607   1.366   2.431  0.1252 -0.0075 -0.0814
 6411SOL    HW120132   2.553   1.287   2.402  0.4820 -0.0377 -0.6947
 6411SOL    HW220133   2.550   1.428   2.484 -0.1526 -0.6943  0.4485
 6412SOL     OW20134   6.413   1.695   5.487 -0.1528  0.2166 -0.0999
 6412SOL    HW120135   6.317   1.680   5.466 -0.2569 -1.0373  1.1356
 6412SOL    HW220136   6.466   1.696   5.402 -1.3990  2.4640 -0.9218
 6413SOL     OW20137   6.973   0.844   3.956 -0.4034 -0.1023 -0.4799
 6413SOL    HW120138   6.898   0.787   3.990 -1.7953  1.7815 -0.2728
 6413SOL    HW220139   7.056   0.822   4.007 -1.0279 -1.4969  0.0115
 6414SOL     OW20140   2.690   3.553   1.793 -0.3848  0.3018  0.1438
 6414SOL    HW120141   2.724   3.524   1.882 -1.8680  0.8488  0.9269
 6414SOL    HW220142   2.658   3.473   1.742  0.0920  0.0300  0.2654
 6415SOL     OW20143   1.312   1.418   6.082  0.0741 -0.6295 -0.0884
 6415SOL    HW120144   1.251   1.422   6.161 -2.7089 -0.4100 -2.0920
 6415SOL    HW220145   1.391   1.476   6.098 -0.8119  0.0601  2.1946
 6416SOL     OW20146   2.912   5.852   6.326  0.1101  0.2846  0.5884
 6416SOL    HW120147   2.952   5.877   6.237  2.4157  0.6984  1.6652
 6416SOL    HW220148   2.900   5.935   6.381  0.0002 -0.1088  1.1642
 6417SOL     OW20149   0.946   0.622   6.700  0.3643  0.1107  0.7830
 6417SOL    HW120150   0.915   0.706   6.744 -0.4787 -0.3646  1.0972
 6417SOL    HW220151   0.875   0.588   6.638 -0.1756 -1.4987  2.2113
 6418SOL     OW20152   3.443   2.696   5.590  0.2585 -0.2473 -0.6034
 6418SOL    HW120153   3.409   2.790   5.584  0.2894 -0.0796  1.2790
 6418SOL    HW220154   3.375   2.638   5.634  0.7099 -0.8520 -0.6777
 6419SOL     OW20155   6.478   5.891   5.000  0.2818  0.6236  0.0572
 6419SOL    HW120156   6.485   5.927   5.094 -3.7109  2.7842 -0.2225
 6419SOL    HW220157   6.486   5.967   4.936 -0.2774 -0.3119 -1.1395
 6420SOL     OW20158   5.035   5.344   4.826 -0.4759  0.4744  0.4954
 6420SOL    HW120159   5.115   5.325   4.882  1.6818  0.3508 -2.3698
 6420SOL    HW220160   5.034   5.441   4.801 -0.4772  0.2421 -0.4631
 6421SOL     OW20161   6.767   1.011   1.230 -0.1390 -0.3797  0.3042
 6421SOL    HW120162   6.795   0.915   1.235 -1.2509 -0.8170 -1.3069
 6421SOL    HW220163   6.804   1.052   1.147 -0.6978  0.2394  0.3589
 6422SOL     OW20164   2.896   0.990   5.211  0.0827 -0.0473 -0.3091
 6422SOL    HW120165   2.951   0.927   5.267  0.0855  0.6000  0.4463
 6422SOL    HW220166   2.902   1.082   5.250 -1.9237 -0.0351  0.0814
 6423SOL     OW20167   5.100   0.325   5.777 -0.6363 -0.2972  0.2711
 6423SOL    HW120168   5.194   0.290   5.780  0.4055  2.2498  0.0282
 6423SOL    HW220169   5.053   0.300   5.862  0.2824 -1.5433  0.4404
 6424SOL     OW20170   4.361   6.016   6.179 -0.0875 -0.1609 -0.5172
 6424SOL    HW120171   4.404   5.926   6.172  0.4124  0.0312  0.0106
 6424SOL    HW220172   4.378   6.055   6.270 -0.7047  0.2644 -0.5728
 6425SOL     OW20173   4.625   4.591   0.472 -0.0450  0.1503 -0.4089
 6425SOL    HW120174   4.639   4.541   0.557 -2.6844 -1.4958 -0.8207
 6425SOL    HW220175   4.647   4.687   0.486 -0.8191  0.0311  2.2995
 6426SOL     OW20176   5.264   3.505   4.260 -0.9644  0.2174  0.0474
 6426SOL    HW120177   5.306   3.596   4.264  0.2039 -0.1988 -1.5273
 6426SOL    HW220178   5.306   3.445   4.328 -1.0341  0.5899  0.4174
 6427SOL     OW20179   2.131   3.605   5.194 -0.0642 -0.1713 -0.5877
 6427SOL    HW120180   2.048   3.573   5.240 -0.2393 -1.2924 -1.6426
 6427SOL    HW220181   2.154   3.696   5.228 -2.1804  0.5190 -0.8430
 6428SOL     OW20182   0.173   4.027   3.507  0.6683  0.4483 -0.0250
 6428SOL    HW120183   0.217   3.938   3.492  1.0054  0.6296 -0.1198
 6428SOL    HW220184   0.106   4.019   3.582  0.6914  0.1157 -0.0375
 6429SOL     OW20185   4.787   4.840   1.791  0.1075  0.2895  0.2451
 6429SOL    HW120186   4.793   4.813   1.887  0.9582  1.6297  0.6044
 6429SOL    HW220187   4.798   4.760   1.732  2.1833 -0.2212  1.2457
 6430SOL     OW20188   3.531   0.328   3.764 -0.1777  0.0282  0.1010
 6430SOL    HW120189   3.622   0.359   3.790  0.4264 -1.3733 -0.2161
 6430SOL    HW220190   3.506   0.248   3.818 -1.2550  0.4315  0.2228
 6431SOL     OW20191   4.363   4.633   0.512 -0.7646 -0.3908  0.5001
 6431SOL    HW120192   4.448   4.609   0.465 -2.8495 -1.0420 -3.2956
 6431SOL    HW220193   4.366   4.596   0.605  2.9570 -0.5174  0.5037
 6432SOL     OW20194   5.951   6.869   5.018 -0.4577  0.2619 -0.2380
 6432SOL    HW120195   5.888   6.813   4.963 -1.4929  1.4964 -0.3450
 6432SOL    HW220196   5.920   6.964   5.018  0.7408  0.6757  0.7279
 6433SOL     OW20197   3.990   4.865   3.697  0.3227 -0.2978 -0.0049
 6433SOL    HW120198   3.953   4.874   3.790  0.8518 -0.8980  0.2763
 6433SOL    HW220199   4.086   4.892   3.697 -0.1311  1.4178 -0.7652
 6434SOL     OW20200   3.283   0.635   5.391  0.2690 -0.0523  0.4317
 6434SOL    HW120201   3.376   0.599   5.395  0.3094  0.0159  0.1366
 6434SOL    HW220202   3.227   0.593   5.463  0.4435 -0.3320  0.4043
 6435SOL     OW20203   1.527   5.435   5.198  0.0050  0.0733  0.1881
 6435SOL    HW120204   1.542   5.514   5.138 -0.5338 -0.0618 -0.1309
 6435SOL    HW220205   1.614   5.391   5.218  0.3462  0.9087  0.5890
 6436SOL     OW20206   4.312   3.350   1.483 -0.4205  0.5481 -0.3327
 6436SOL    HW120207   4.317   3.418   1.556 -1.6506  1.0202 -0.6728
 6436SOL    HW220208   4.395   3.294   1.485 -1.4094 -1.0988  3.0230
 6437SOL     OW20209   3.329   3.101   4.490 -0.2331 -0.5079  0.1924
 6437SOL    HW120210   3.267   3.060   4.423 -0.0764 -0.3422 -0.0551
 6437SOL    HW220211   3.300   3.075   4.582 -0.6574 -0.4547  0.0785
 6438SOL     OW20212   3.002   5.084   2.122  0.4265  0.4156  0.2803
 6438SOL    HW120213   2.971   4.993   2.150 -2.1078  0.9260 -0.5962
 6438SOL    HW220214   3.027   5.137   2.202  0.3017 -0.4902  0.9351
 6439SOL     OW20215   3.416   1.831   4.933 -0.1505  0.1452 -0.0913
 6439SOL    HW120216   3.491   1.879   4.979 -1.0216  2.6681 -1.1331
 6439SOL    HW220217   3.355   1.898   4.891 -2.1320 -1.8985 -0.6386
 6440SOL     OW20218   7.001   3.566   6.236  0.2518  0.0834  0.4524
 6440SOL    HW120219   7.035   3.574   6.142 -0.2995 -1.4691  0.0805
 6440SOL    HW220220   6.923   3.627   6.249 -1.1761 -1.3523 -0.8847
 6441SOL     OW20221   1.294   6.806   5.818 -0.2059  0.6598 -0.3637
 6441SOL    HW120222   1.277   6.748   5.738  0.2245 -0.6966  0.5043
 6441SOL    HW220223   1.216   6.802   5.880  0.5545 -0.4803  0.5667
 6442SOL     OW20224   2.124   0.947   2.287 -0.2646  0.3909  0.3807
 6442SOL    HW120225   2.218   0.941   2.254 -0.3599 -1.7938  0.3688
 6442SOL    HW220226   2.125   0.974   2.383  0.3359  0.9137  0.2364
 6443SOL     OW20227   4.719   1.257   3.967  0.6945 -0.0945 -0.2616
 6443SOL    HW120228   4.700   1.265   3.869 -2.9190 -0.2190  0.3113
 6443SOL    HW220229   4.744   1.347   4.003  1.0549  0.1572 -1.1109
 6444SOL     OW20230   3.596   1.746   6.111  0.1443 -0.3166 -0.1058
 6444SOL    HW120231   3.608   1.705   6.202 -0.7658 -1.5629 -0.5221
 6444SOL    HW220232   3.649   1.831   6.106 -0.8166  0.4982  2.0470
 6445SOL     OW20233   3.952   0.650   1.621 -0.0093 -0.4362  0.5788
 6445SOL    HW120234   3.878   0.591   1.587  0.5442 -0.7850 -0.0605
 6445SOL    HW220235   3.915   0.739   1.646 -0.6532 -0.6147  0.2910
 6446SOL     OW20236   1.842   3.911   0.060 -0.3611 -0.5313  0.2734
 6446SOL    HW120237   1.897   3.876  -0.016  0.6866 -1.2515  1.3208
 6446SOL    HW220238   1.758   3.952   0.024  0.1831 -0.6814 -1.2734
 6447SOL     OW20239   1.914   4.856   5.260  0.0489 -0.3134  0.4913
 6447SOL    HW120240   1.911   4.849   5.161  0.6732 -1.4757  0.5348
 6447SOL    HW220241   1.822   4.850   5.297 -0.2482  0.7239 -0.0341
 6448SOL     OW20242   0.290   3.531   0.086  0.1435 -0.0226  0.2712
 6448SOL    HW120243   0.226   3.565   0.017 -1.3470  0.5462  1.8581
 6448SOL    HW220244   0.242   3.520   0.173  1.7651 -1.5293  1.0339
 6449SOL     OW20245   3.481   6.266   3.583  0.1730 -0.1969 -0.3165
 6449SOL    HW120246   3.433   6.179   3.577  0.1625 -0.2089 -0.0529
 6449SOL    HW220247   3.422   6.333   3.629  1.1144 -0.7266  1.7918
 6450SOL     OW20248   3.106   2.174   1.295  0.3608 -0.3186 -0.6143
 6450SOL    HW120249   3.077   2.128   1.211 -1.5052 -1.4104  0.5675
 6450SOL    HW220250   3.155   2.110   1.353  0.7603  0.1478 -0.4308
 6451SOL     OW20251   4.304   2.682   0.112 -0.4430  0.2782 -0.4669
 6451SOL    HW120252   4.240   2.678   0.035 -2.8099 -1.7279  1.4284
 6451SOL    HW220253   4.262   2.731   0.188  0.9172  0.1992  0.3742
 6452SOL     OW20254   2.717   6.941   2.497  0.1135  0.2507  0.2430
 6452SOL    HW120255   2.649   6.885   2.543 -1.1233  0.4117 -1.2998
 6452SOL    HW220256   2.698   7.038   2.514  0.5572  0.2759  0.6108
 6453SOL     OW20257   5.971   3.291   4.612  0.3287 -0.3673  0.5728
 6453SOL    HW120258   5.912   3.309   4.534 -1.4426  0.8645  2.1216
 6453SOL    HW220259   6.012   3.376   4.644 -0.9343 -0.4122  2.4528
 6454SOL     OW20260   5.582   2.163   5.593 -0.0042 -0.2199 -0.2347
 6454SOL    HW120261   5.506   2.218   5.629 -0.9468 -2.1594  0.9334
 6454SOL    HW220262   5.656   2.162   5.660  0.3114  0.1922 -0.5743
 6455SOL     OW20263   5.917   0.958   3.040 -0.3690  0.9120 -0.0425
 6455SOL    HW120264   5.851   0.980   3.112 -0.9655  0.1852 -0.3506
 6455SOL    HW220265   5.959   0.869   3.058 -0.3913  0.8056 -0.4959
 6456SOL     OW20266   4.453   2.146   5.609  0.0818  0.1984  0.1861
 6456SOL    HW120267   4.403   2.059   5.604  0.1479  0.2073 -0.8380
 6456SOL    HW220268   4.507   2.158   5.526  0.3576  1.0511  0.4832
 6457SOL     OW20269   0.804   1.130   2.888 -0.0347 -0.3538  0.6674
 6457SOL    HW120270   0.749   1.075   2.825 -1.5673  2.8668 -1.0555
 6457SOL    HW220271   0.880   1.172   2.838 -0.5177  1.2289  1.2080
 6458SOL     OW20272   3.319   6.413   1.554  0.4190  0.0969  0.5072
 6458SOL    HW120273   3.221   6.413   1.538  0.5307  0.8976 -0.2196
 6458SOL    HW220274   3.337   6.380   1.647 -0.4324 -1.4717  0.1412
 6459SOL     OW20275   1.860   4.371   3.125  0.0425 -0.2981  0.1306
 6459SOL    HW120276   1.944   4.415   3.095 -0.0897  0.8085  1.2583
 6459SOL    HW220277   1.792   4.376   3.052  0.4673  0.1949 -0.2397
 6460SOL     OW20278   3.485   2.903   4.151  0.7730 -0.2128  0.1793
 6460SOL    HW120279   3.541   2.900   4.068 -0.6770  0.5346 -0.8804
 6460SOL    HW220280   3.409   2.839   4.142  0.1054  0.5129  0.5235
 6461SOL     OW20281   4.604   5.572   6.761  0.0385 -0.5280 -0.2788
 6461SOL    HW120282   4.551   5.616   6.835  0.9864  1.3550 -0.6541
 6461SOL    HW220283   4.626   5.478   6.788 -1.1494 -0.4754  1.0535
 6462SOL     OW20284   5.999   3.945   6.590  1.0536 -0.1842  0.7185
 6462SOL    HW120285   6.064   3.947   6.514  0.8179  0.1712  0.5237
 6462SOL    HW220286   5.932   3.872   6.573 -0.2047  1.1586 -0.4460
 6463SOL     OW20287   4.983   5.602   4.729 -0.1294  0.4671  0.6598
 6463SOL    HW120288   4.943   5.591   4.638 -0.5517 -0.7684  0.9780
 6463SOL    HW220289   4.919   5.649   4.789 -1.3612 -1.8792  1.2882
 6464SOL     OW20290   6.678   1.606   3.665  0.4411 -0.1975  0.1395
 6464SOL    HW120291   6.691   1.520   3.714 -3.9631 -1.0554  0.1681
 6464SOL    HW220292   6.616   1.665   3.717  2.5857  2.7343 -0.3385
 6465SOL     OW20293   3.461   6.549   2.726 -0.0360 -0.4127 -0.0633
 6465SOL    HW120294   3.474   6.452   2.747 -0.9490  0.0515  3.2844
 6465SOL    HW220295   3.545   6.587   2.688  0.7592 -2.2155 -0.1970
 6466SOL     OW20296   0.118   0.711   4.161 -0.1827 -0.2665 -0.4548
 6466SOL    HW120297   0.167   0.632   4.124 -0.5793 -0.1138 -1.3131
 6466SOL    HW220298   0.047   0.680   4.224 -0.2664 -0.5891 -0.7084
 6467SOL     OW20299   1.848   3.896   4.930 -0.2719 -0.6547 -0.1506
 6467SOL    HW120300   1.920   3.833   4.901 -0.2116 -0.1720 -1.0807
 6467SOL    HW220301   1.889   3.967   4.988  0.4440  0.7675 -2.2546
 6468SOL     OW20302   4.730   5.554   1.431 -0.1456 -0.0199 -0.2760
 6468SOL    HW120303   4.720   5.605   1.346 -0.1548 -2.6369 -1.9462
 6468SOL    HW220304   4.647   5.500   1.447 -0.1860  0.5159  1.4952
 6469SOL     OW20305   5.077   1.007   5.287  0.3804 -0.0182 -0.6122
 6469SOL    HW120306   5.094   1.104   5.307  2.1995 -0.1880 -1.1686
 6469SOL    HW220307   5.118   0.951   5.359  1.0224 -0.4132 -1.2677
 6470SOL     OW20308   1.905   0.123   0.235  0.0362  0.1726 -0.0366
 6470SOL    HW120309   1.839   0.155   0.303  0.7526  0.2856  0.6228
 6470SOL    HW220310   1.955   0.045   0.272  0.7839  0.5501 -0.2312
 6471SOL     OW20311   1.291   1.954   4.633  0.4212 -0.2305 -0.7505
 6471SOL    HW120312   1.238   1.979   4.551  0.8359 -1.8280 -1.5409
 6471SOL    HW220313   1.335   2.036   4.669 -1.4116  0.8881 -0.8926
 6472SOL     OW20314   6.181   6.029   2.776 -0.4012 -0.4594  0.6662
 6472SOL    HW120315   6.122   6.040   2.856 -0.7476  1.7719  0.1763
 6472SOL    HW220316   6.277   6.034   2.805 -0.5228  0.1527  0.9936
 6473SOL     OW20317   2.881   5.737   3.841  0.3921  0.3703 -0.3640
 6473SOL    HW120318   2.827   5.702   3.765  0.1249  0.2771 -0.1306
 6473SOL    HW220319   2.974   5.699   3.836 -0.0883 -0.9550  0.2877
 6474SOL     OW20320   0.645   6.784   1.935 -0.4838  0.4089 -0.3230
 6474SOL    HW120321   0.694   6.753   2.016 -0.2926  0.6984 -0.3284
 6474SOL    HW220322   0.548   6.762   1.945 -1.4716  4.7413  2.2732
 6475SOL     OW20323   0.410   0.675   6.288 -0.2593  0.1847  0.4764
 6475SOL    HW120324   0.493   0.619   6.280  0.4207  1.2880 -0.4080
 6475SOL    HW220325   0.330   0.619   6.267  0.3481 -0.6218  0.2655
 6476SOL     OW20326   4.865   4.351   6.568  0.4224  0.1867  0.0264
 6476SOL    HW120327   4.859   4.428   6.506  0.0661  0.3764  0.2972
 6476SOL    HW220328   4.938   4.289   6.538 -0.2452 -0.1153 -1.0111
 6477SOL     OW20329   4.458   6.048   5.307  0.0629  0.3662  1.0326
 6477SOL    HW120330   4.499   6.138   5.295  0.7479 -0.0723 -0.0661
 6477SOL    HW220331   4.477   6.015   5.399 -1.4571  1.9411  1.9757
 6478SOL     OW20332   1.542   5.643   1.130 -0.0387  0.4299 -0.0897
 6478SOL    HW120333   1.636   5.659   1.161  0.7143 -1.6771 -1.1281
 6478SOL    HW220334   1.513   5.552   1.157 -1.2397  0.5013 -1.0759
 6479SOL     OW20335   3.124   1.515   6.617  0.0645  0.3534 -0.0619
 6479SOL    HW120336   3.224   1.519   6.613  0.0615  0.5068  0.0102
 6479SOL    HW220337   3.094   1.420   6.608  0.3241  0.0090  2.0958
 6480SOL     OW20338   6.311   1.402   4.236  0.2458 -0.1078 -0.1720
 6480SOL    HW120339   6.258   1.449   4.306 -0.2242 -0.6553 -0.1599
 6480SOL    HW220340   6.257   1.396   4.152 -0.3782 -2.1098  0.3226
 6481SOL     OW20341   1.243   5.940   0.046  0.6189  0.8185  0.8067
 6481SOL    HW120342   1.275   5.893  -0.036 -0.3363  1.0425  0.2943
 6481SOL    HW220343   1.297   5.910   0.124  0.2490 -0.8991  0.4471
 6482SOL     OW20344   5.043   0.468   1.887  0.0715  0.3656 -0.7289
 6482SOL    HW120345   5.018   0.565   1.886  0.2354  0.6757  3.6988
 6482SOL    HW220346   5.142   0.460   1.883  0.3190  0.7877  2.2975
 6483SOL     OW20347   3.452   3.473   0.141 -0.4311  0.0922 -0.2066
 6483SOL    HW120348   3.489   3.390   0.182 -0.0173 -0.9629 -2.5833
 6483SOL    HW220349   3.353   3.462   0.127 -0.5968  0.5052  0.5549
 6484SOL     OW20350   0.958   1.701   3.269  0.4148  0.1885 -0.4383
 6484SOL    HW120351   1.014   1.726   3.348 -2.2242  1.0091  1.3178
 6484SOL    HW220352   0.938   1.603   3.271  1.7985 -0.1400 -1.1608
 6485SOL     OW20353   5.080   1.536   0.102 -0.0682 -0.1741  0.2322
 6485SOL    HW120354   5.030   1.622   0.097  0.3385  0.1356  1.2324
 6485SOL    HW220355   5.086   1.495   0.011 -1.3772  0.2051 -0.0347
 6486SOL     OW20356   1.022   6.792   0.989  0.7193  0.3467 -0.0659
 6486SOL    HW120357   0.989   6.697   0.993  0.2343  0.4138 -1.7191
 6486SOL    HW220358   1.065   6.808   0.900 -1.0936  2.2454 -0.6960
 6487SOL     OW20359   2.613   1.126   1.313  1.0679  0.2979  0.0044
 6487SOL    HW120360   2.515   1.108   1.305  1.1702 -1.4533  1.8411
 6487SOL    HW220361   2.636   1.211   1.266 -1.2565  0.5391 -0.7815
 6488SOL     OW20362   4.428   4.341   0.354 -0.3151  0.0490  0.4479
 6488SOL    HW120363   4.466   4.345   0.261  1.2919  0.7087  1.0975
 6488SOL    HW220364   4.328   4.346   0.349 -0.2135  1.5414 -1.1627
 6489SOL     OW20365   4.461   5.409   1.529 -0.5803  0.4445  0.4401
 6489SOL    HW120366   4.460   5.339   1.602  0.5632  1.0738  1.0911
 6489SOL    HW220367   4.413   5.374   1.449 -0.9586 -0.6781  1.1321
 6490SOL     OW20368   4.183   5.411   5.083 -0.1085  0.7956  0.5493
 6490SOL    HW120369   4.270   5.366   5.098 -0.7147  0.0533  1.9596
 6490SOL    HW220370   4.194   5.482   5.013  1.5513  0.5524  0.5294
 6491SOL     OW20371   0.307   5.523   5.999  0.0292  0.7116 -0.1903
 6491SOL    HW120372   0.351   5.494   6.084  2.4122  0.6808 -1.3478
 6491SOL    HW220373   0.334   5.617   5.978 -1.5063  1.1401 -0.3369
 6492SOL     OW20374   4.128   3.341   4.947 -0.0871 -0.4281  0.4143
 6492SOL    HW120375   4.141   3.412   4.879 -1.7070 -0.3703  0.1346
 6492SOL    HW220376   4.142   3.251   4.905  0.5319 -0.3428  0.4229
 6493SOL     OW20377   0.573   0.797   6.481 -0.0115  0.3905 -0.4802
 6493SOL    HW120378   0.550   0.762   6.572  0.5604 -1.0240 -0.8562
 6493SOL    HW220379   0.525   0.742   6.412  2.1998 -0.7897 -1.1551
 6494SOL     OW20380   6.871   3.281   6.174 -0.1444  0.1967 -0.7217
 6494SOL    HW120381   6.932   3.359   6.186  0.1374 -0.2834  1.2979
 6494SOL    HW220382   6.856   3.264   6.077  1.0363  1.7880 -1.2004
 6495SOL     OW20383   5.419   4.422   5.931  0.0172  0.0528  0.5351
 6495SOL    HW120384   5.319   4.426   5.929  0.0214  0.0189 -1.1541
 6495SOL    HW220385   5.456   4.515   5.923  0.1463  0.1912  2.3927
 6496SOL     OW20386   1.607   6.901   2.226  0.1526 -0.2462 -0.2100
 6496SOL    HW120387   1.650   6.928   2.312 -0.0878 -1.2591  0.2463
 6496SOL    HW220388   1.642   6.812   2.197  1.8408  1.0128 -2.3181
 6497SOL     OW20389   2.774   2.658   5.974 -0.6468  0.1015 -0.0973
 6497SOL    HW120390   2.677   2.649   5.995 -0.9440 -0.7172 -1.6860
 6497SOL    HW220391   2.790   2.745   5.929 -0.5697  0.3918  0.4796
 6498SOL     OW20392   6.916   0.104   1.548 -0.5197  0.5318 -0.5239
 6498SOL    HW120393   6.913   0.179   1.614 -0.1476 -1.3564  1.7797
 6498SOL    HW220394   6.909   0.140   1.455 -0.1693  3.3890  0.4794
 6499SOL     OW20395   0.817   2.390   0.776 -0.0766 -0.0953 -0.0449
 6499SOL    HW120396   0.917   2.385   0.779 -0.0778  0.1710  1.5444
 6499SOL    HW220397   0.780   2.370   0.867 -1.3501  2.1948  0.0259
 6500SOL     OW20398   2.883   1.365   2.385  0.2335 -0.3792  0.1356
 6500SOL    HW120399   2.921   1.274   2.397  2.2678  0.4880  0.6993
 6500SOL    HW220400   2.783   1.362   2.399  0.4737 -2.1906  1.9967
 6501SOL     OW20401   2.826   5.499   1.285  0.3540  0.2716  0.2474
 6501SOL    HW120402   2.795   5.495   1.190  1.0183 -0.6251  0.0552
 6501SOL    HW220403   2.916   5.456   1.292 -0.1386 -0.6113  1.4602
 6502SOL     OW20404   3.726   3.488   0.503 -0.0646  0.0353  0.4867
 6502SOL    HW120405   3.637   3.518   0.468  0.4054  2.2285  1.0603
 6502SOL    HW220406   3.799   3.536   0.455  0.7570 -0.5256  1.1463
 6503SOL     OW20407   4.157   1.377   5.756 -0.2299  0.8322  0.3753
 6503SOL    HW120408   4.186   1.451   5.816 -0.9388  2.3197 -1.0499
 6503SOL    HW220409   4.224   1.365   5.683  0.4146 -0.6835  1.1661
 6504SOL     OW20410   6.312   0.663   5.289  0.2562 -0.9087  0.6042
 6504SOL    HW120411   6.352   0.608   5.216  1.9466  0.7090  0.2329
 6504SOL    HW220412   6.382   0.687   5.356 -0.5499  0.2962  1.0636
 6505SOL     OW20413   1.583   1.927   5.676  0.1649  0.2196 -0.1014
 6505SOL    HW120414   1.627   1.899   5.761 -2.5972 -0.6434  1.1500
 6505SOL    HW220415   1.566   2.026   5.679  1.7603  0.5331 -0.5301
 6506SOL     OW20416   5.706   2.230   6.176  0.1659 -0.1969  0.2576
 6506SOL    HW120417   5.782   2.216   6.239 -0.1178  0.6482  0.8028
 6506SOL    HW220418   5.643   2.152   6.182 -0.1236  0.1045  1.4076
 6507SOL     OW20419   3.404   2.980   6.892  0.1844  0.0122  0.3105
 6507SOL    HW120420   3.381   2.887   6.920  0.7458 -0.4660 -0.7525
 6507SOL    HW220421   3.482   3.013   6.946 -0.0270 -0.1346  0.7017
 6508SOL     OW20422   6.592   4.030   2.372 -0.2463 -0.7954 -0.1977
 6508SOL    HW120423   6.684   4.038   2.410  0.2648 -1.2637 -1.2968
 6508SOL    HW220424   6.592   4.061   2.277 -1.2224 -0.8151 -0.2123
 6509SOL     OW20425   5.412   6.771   5.638 -0.1216 -0.6010  0.3929
 6509SOL    HW120426   5.483   6.841   5.640  0.1402 -0.8756  1.3757
 6509SOL    HW220427   5.381   6.758   5.544 -1.8608  2.5134  0.3722
 6510SOL     OW20428   6.294   3.356   1.320  0.3404 -0.3179  0.4956
 6510SOL    HW120429   6.250   3.337   1.408  0.5645 -1.2345  0.4287
 6510SOL    HW220430   6.296   3.454   1.303 -1.1340 -0.2277  0.7719
 6511SOL     OW20431   0.152   3.071   1.730 -0.1695  0.2394  0.0623
 6511SOL    HW120432   0.245   3.059   1.696 -0.2025 -1.1080  0.3711
 6511SOL    HW220433   0.087   3.059   1.655 -0.1740 -1.1232  0.2589
 6512SOL     OW20434   3.932   1.255   4.355 -0.1968  0.4824  0.5336
 6512SOL    HW120435   3.962   1.162   4.336 -0.3231  0.6146 -0.3183
 6512SOL    HW220436   3.873   1.255   4.436  0.3055 -0.0836  0.9057
 6513SOL     OW20437   2.718   4.281   6.505 -0.1758 -0.0243 -0.7090
 6513SOL    HW120438   2.635   4.314   6.459 -1.4349 -2.3658 -0.2863
 6513SOL    HW220439   2.704   4.281   6.604 -0.2584 -1.7176 -0.6872
 6514SOL     OW20440   1.091   6.536   3.817 -0.3431  0.8561  0.3074
 6514SOL    HW120441   1.030   6.600   3.769  0.8027  1.1172 -0.8497
 6514SOL    HW220442   1.048   6.446   3.820 -0.4515  0.8172 -1.2920
 6515SOL     OW20443   0.391   5.756   3.338  0.3376  0.0407 -0.3044
 6515SOL    HW120444   0.458   5.736   3.410  1.0918  0.7953 -0.7776
 6515SOL    HW220445   0.428   5.727   3.249  0.4234  1.2398 -0.6821
 6516SOL     OW20446   4.016   1.141   3.406  0.0197 -0.3497  0.2321
 6516SOL    HW120447   3.992   1.154   3.310 -0.5251 -0.4383  0.3547
 6516SOL    HW220448   4.097   1.082   3.413  1.0846  1.0115 -0.2313
 6517SOL     OW20449   3.229   5.073   5.376 -0.1095  0.1332  0.4147
 6517SOL    HW120450   3.277   5.031   5.453 -0.7479 -0.2684  0.6053
 6517SOL    HW220451   3.245   5.019   5.293 -0.1279  0.0679  0.4537
 6518SOL     OW20452   5.231   0.886   5.697  0.6383 -0.2922 -0.5996
 6518SOL    HW120453   5.203   0.981   5.694 -0.8929 -0.6623  0.5808
 6518SOL    HW220454   5.225   0.846   5.606  0.0408  0.4040 -0.8730
 6519SOL     OW20455   2.715   0.097   1.289  0.4048  0.4694  0.3410
 6519SOL    HW120456   2.796   0.143   1.326 -0.6237  1.1917  1.8147
 6519SOL    HW220457   2.742   0.037   1.215  2.0573  2.0959 -0.4657
 6520SOL     OW20458   2.399   0.914   2.285  0.1269 -0.1352  0.2573
 6520SOL    HW120459   2.484   0.898   2.234 -1.4635 -0.7827 -2.3744
 6520SOL    HW220460   2.383   0.837   2.348  0.7919 -0.7039 -0.2516
 6521SOL     OW20461   4.305   1.117   3.683 -0.1098  0.0673  0.0855
 6521SOL    HW120462   4.229   1.167   3.724 -1.0799 -0.5086 -0.9651
 6521SOL    HW220463   4.333   1.162   3.599 -0.3577 -0.6041 -0.3663
 6522SOL     OW20464   1.030   5.916   4.572  0.3497 -0.3570  0.1923
 6522SOL    HW120465   1.029   5.982   4.497 -1.9135 -0.9213 -0.3388
 6522SOL    HW220466   0.964   5.844   4.554  0.4636 -1.0428  2.2811
 6523SOL     OW20467   6.279   1.823   1.525  0.4799 -0.0076  0.0279
 6523SOL    HW120468   6.375   1.802   1.542  0.6310 -0.2678 -1.0208
 6523SOL    HW220469   6.221   1.756   1.571  0.7902  0.2141  0.7518
 6524SOL     OW20470   5.213   6.692   3.654 -0.1043  0.1007  0.2666
 6524SOL    HW120471   5.273   6.620   3.689 -0.3998 -0.9505 -1.3183
 6524SOL    HW220472   5.261   6.780   3.660  1.6175 -0.6954 -0.8944
 6525SOL     OW20473   1.328   4.303   2.089  0.5695 -0.6236 -0.0120
 6525SOL    HW120474   1.302   4.293   1.993 -2.2279 -0.7505  0.6722
 6525SOL    HW220475   1.391   4.229   2.114  0.2313 -1.4193 -1.3957
 6526SOL     OW20476   2.173   3.910   3.224 -0.0905 -0.3960 -0.0099
 6526SOL    HW120477   2.207   3.909   3.130 -0.8114 -0.7983 -0.2755
 6526SOL    HW220478   2.182   4.002   3.262  1.8116 -0.6089  0.1440
 6527SOL     OW20479   4.492   5.583   2.447  0.5925 -0.0251 -0.4876
 6527SOL    HW120480   4.402   5.626   2.443  0.6506  0.1850  0.2777
 6527SOL    HW220481   4.482   5.485   2.462  0.4932  0.1235  0.4883
 6528SOL     OW20482   5.338   3.077   3.499  0.1488  0.3565 -0.5329
 6528SOL    HW120483   5.282   3.009   3.452  3.3691 -2.0324 -1.2769
 6528SOL    HW220484   5.427   3.084   3.455  1.4529  2.0284  2.0488
 6529SOL     OW20485   1.593   1.636   0.007 -0.2536 -0.1966  0.3652
 6529SOL    HW120486   1.593   1.690  -0.077  1.1256 -1.3639 -0.4165
 6529SOL    HW220487   1.684   1.639   0.049 -0.7049 -0.3042  1.3887
 6530SOL     OW20488   5.677   3.093   4.201  0.2827 -0.4316 -0.2453
 6530SOL    HW120489   5.591   3.068   4.158 -0.0207 -0.3022  0.2735
 6530SOL    HW220490   5.701   3.023   4.269 -0.0816  0.1844  0.5357
 6531SOL     OW20491   5.480   1.745   1.907  0.0080 -0.8859  0.9319
 6531SOL    HW120492   5.428   1.666   1.875  0.7424 -0.9403 -0.1638
 6531SOL    HW220493   5.576   1.720   1.919  0.9084  0.4792 -2.2944
 6532SOL     OW20494   4.236   0.858   5.439 -0.1062 -0.2500  0.2156
 6532SOL    HW120495   4.189   0.862   5.527 -0.1911 -0.3035  0.1725
 6532SOL    HW220496   4.321   0.911   5.444 -0.0708 -0.3222  0.3542
 6533SOL     OW20497   1.571   6.064   3.411 -0.6571  0.0909  0.2089
 6533SOL    HW120498   1.617   6.152   3.416 -2.4737  1.0967  0.0892
 6533SOL    HW220499   1.555   6.039   3.315 -1.4522  0.3773  0.2557
 6534SOL     OW20500   3.223   4.482   1.249 -0.2270  0.4552  0.1412
 6534SOL    HW120501   3.295   4.433   1.298 -0.0751  0.8812  0.3461
 6534SOL    HW220502   3.171   4.539   1.314 -0.6270  0.2976 -0.0354
 6535SOL     OW20503   3.501   6.402   2.399 -0.0381 -0.0538  0.3482
 6535SOL    HW120504   3.462   6.389   2.307  1.2068  0.2111 -0.2332
 6535SOL    HW220505   3.427   6.407   2.466 -0.9301 -1.1102 -0.5287
 6536SOL     OW20506   0.756   6.177   6.090  0.1972  0.1975  0.7162
 6536SOL    HW120507   0.712   6.094   6.055  1.0429  0.7130 -1.8007
 6536SOL    HW220508   0.803   6.157   6.176 -1.5377 -1.3164  1.3709
 6537SOL     OW20509   1.428   2.598   3.544  0.1059  0.4045  0.4827
 6537SOL    HW120510   1.394   2.561   3.457 -2.5113  1.5766  0.8861
 6537SOL    HW220511   1.447   2.696   3.532  0.0731  0.4918  1.1302
 6538SOL     OW20512   2.611   0.168   2.517  0.0108  0.0082 -0.5017
 6538SOL    HW120513   2.525   0.153   2.469  0.6198  0.3387 -1.7389
 6538SOL    HW220514   2.658   0.247   2.478  2.2609 -1.8930 -1.9269
 6539SOL     OW20515   0.075   1.494   4.524  0.1783  0.5856  0.4022
 6539SOL    HW120516   0.148   1.484   4.591 -0.2716  0.4982  0.8811
 6539SOL    HW220517  -0.013   1.492   4.570 -0.1165  1.1302 -0.1249
 6540SOL     OW20518   1.145   2.668   6.268 -0.3169  0.0400 -0.4644
 6540SOL    HW120519   1.131   2.655   6.170 -2.4998 -1.4283 -0.0183
 6540SOL    HW220520   1.236   2.634   6.294  0.2487  0.3683 -1.9349
 6541SOL     OW20521   1.821   3.916   4.256 -0.1788 -0.1505 -0.5376
 6541SOL    HW120522   1.728   3.890   4.283 -0.2334 -1.2552 -1.6625
 6541SOL    HW220523   1.823   3.930   4.157  0.7062  0.5424 -0.4237
 6542SOL     OW20524   6.191   1.117   1.379  0.5870  0.2580  1.0629
 6542SOL    HW120525   6.249   1.037   1.366  1.3742  0.7315  1.5540
 6542SOL    HW220526   6.176   1.162   1.292  1.7209  0.6389  1.0468
 6543SOL     OW20527   6.191   2.875   6.633  0.1997 -0.0091  0.0110
 6543SOL    HW120528   6.117   2.883   6.699  0.7465 -0.5589  0.7090
 6543SOL    HW220529   6.207   2.964   6.590 -2.3691 -0.3423 -1.8649
 6544SOL     OW20530   1.049   5.383   2.599  0.4450  0.2153  0.3301
 6544SOL    HW120531   1.013   5.336   2.518 -0.8481  1.3176  0.2257
 6544SOL    HW220532   1.143   5.412   2.582  0.6495 -0.7383 -0.2592
 6545SOL     OW20533   2.774   3.140   0.563 -0.5779 -0.5257 -0.2054
 6545SOL    HW120534   2.872   3.123   0.566 -0.8245 -2.1093 -0.2463
 6545SOL    HW220535   2.755   3.220   0.506  0.6413 -0.5820 -0.7035
 6546SOL     OW20536   1.069   4.176   0.431  0.2688 -0.5241 -0.3893
 6546SOL    HW120537   1.096   4.086   0.394  1.3201 -0.2077 -0.4226
 6546SOL    HW220538   0.987   4.208   0.383 -1.4978 -2.4473  1.1293
 6547SOL     OW20539   5.802   1.011   0.505  0.1227 -0.4360  0.1455
 6547SOL    HW120540   5.774   0.990   0.599  0.5861  0.9334  0.6166
 6547SOL    HW220541   5.759   1.097   0.476 -0.7964 -1.3195 -1.2798
 6548SOL     OW20542   3.243   6.085   2.625  0.0726  0.0915 -0.2105
 6548SOL    HW120543   3.173   6.013   2.628  0.4558 -0.3147 -0.8355
 6548SOL    HW220544   3.316   6.058   2.562  0.2225  1.0288 -0.4483
 6549SOL     OW20545   6.869   3.542   2.313 -0.4484 -0.3525  0.3086
 6549SOL    HW120546   6.884   3.501   2.403  0.4202  2.2626  1.4409
 6549SOL    HW220547   6.811   3.623   2.321  1.5179  1.3040 -1.0503
 6550SOL     OW20548   1.149   5.583   3.629  0.1289 -0.2655 -0.1970
 6550SOL    HW120549   1.163   5.660   3.567  0.1859 -0.3377 -0.2738
 6550SOL    HW220550   1.236   5.558   3.671  0.1723 -0.5000 -0.4239
 6551SOL     OW20551   4.240   4.062   1.448  0.4629  0.2677 -0.0075
 6551SOL    HW120552   4.162   4.001   1.455  0.5675  0.0848 -0.3905
 6551SOL    HW220553   4.279   4.078   1.539  0.7605 -0.6672  0.0370
 6552SOL     OW20554   2.171   2.253   5.709 -0.2937 -0.1126 -0.3154
 6552SOL    HW120555   2.255   2.199   5.716 -0.4767 -0.5031 -1.0535
 6552SOL    HW220556   2.172   2.307   5.625 -0.4748  0.4206  0.0167
 6553SOL     OW20557   5.765   1.368   3.329  0.3871  0.0484  0.5063
 6553SOL    HW120558   5.857   1.405   3.332 -0.3548  1.9116  1.4597
 6553SOL    HW220559   5.700   1.434   3.367 -1.4571 -0.8862 -0.8334
 6554SOL     OW20560   2.976   1.851   2.613  0.0862 -0.1762 -0.5804
 6554SOL    HW120561   3.069   1.816   2.616 -0.3072 -1.1876  0.5476
 6554SOL    HW220562   2.977   1.946   2.582  1.7013  0.5426  1.4525
 6555SOL     OW20563   5.309   5.951   6.884 -0.2290 -0.1700  0.4094
 6555SOL    HW120564   5.221   5.937   6.841  0.3710  0.1804 -0.9797
 6555SOL    HW220565   5.360   6.022   6.834  0.7454 -0.2018  1.3182
 6556SOL     OW20566   5.370   1.558   1.765 -0.2362  1.1969  0.0904
 6556SOL    HW120567   5.442   1.523   1.706  1.6229  1.4228  2.0909
 6556SOL    HW220568   5.341   1.487   1.829 -1.9674  1.0537 -0.7860
 6557SOL     OW20569   0.579   3.306   4.117 -0.2965  0.1122  0.7712
 6557SOL    HW120570   0.636   3.316   4.198  0.7698  0.3213  0.0235
 6557SOL    HW220571   0.598   3.218   4.073 -0.5566  0.1826  0.5141
 6558SOL     OW20572   3.852   6.552   4.102  0.0031 -0.1274 -0.8725
 6558SOL    HW120573   3.795   6.477   4.069  1.7050 -1.9962  0.1853
 6558SOL    HW220574   3.938   6.515   4.138  0.6648  2.2986  0.2487
 6559SOL     OW20575   5.886   4.696   4.512  0.0125  0.5594  0.1085
 6559SOL    HW120576   5.924   4.608   4.484  1.4984  1.5062 -0.9641
 6559SOL    HW220577   5.896   4.706   4.611  2.4082  0.6474 -0.0888
 6560SOL     OW20578   6.688   5.395   5.209 -0.4856  0.1131  0.2218
 6560SOL    HW120579   6.641   5.386   5.297  1.5444 -1.6196  1.2399
 6560SOL    HW220580   6.624   5.383   5.134 -1.8660 -0.8317  1.5058
 6561SOL     OW20581   1.317   1.208   3.256 -0.3557 -0.0861 -0.5240
 6561SOL    HW120582   1.403   1.159   3.268  0.3531  1.0009 -1.0239
 6561SOL    HW220583   1.247   1.145   3.222  0.4008 -0.8504 -0.6950
 6562SOL     OW20584   5.480   6.534   0.651  0.3298  0.6777  0.2500
 6562SOL    HW120585   5.454   6.446   0.610  1.1962  0.3915  0.3007
 6562SOL    HW220586   5.485   6.524   0.750  1.2520  0.5601  0.1939
 6563SOL     OW20587   0.242   6.377   6.586 -0.1800 -0.6382 -0.5690
 6563SOL    HW120588   0.341   6.385   6.573 -0.3283  0.6933 -1.1061
 6563SOL    HW220589   0.198   6.462   6.555 -1.3803 -0.6991  0.8610
 6564SOL     OW20590   7.007   4.360   1.947  0.3572  0.1033  0.3995
 6564SOL    HW120591   6.951   4.390   1.869  0.4432  1.5684  0.8631
 6564SOL    HW220592   7.081   4.425   1.962 -0.2821  0.4616  2.3607
 6565SOL     OW20593   4.643   5.286   0.038  0.1623  0.3287  0.0235
 6565SOL    HW120594   4.575   5.296   0.111  1.5687 -1.2617  1.6510
 6565SOL    HW220595   4.599   5.247  -0.043 -1.0055  0.0129  0.7821
 6566SOL     OW20596   5.771   2.199   5.819 -0.2637  0.4812 -0.7952
 6566SOL    HW120597   5.766   2.299   5.822 -2.9387  0.4070  0.6029
 6566SOL    HW220598   5.822   2.166   5.898  0.8430  0.7050 -1.3932
 6567SOL     OW20599   3.593   2.028   5.029 -0.6354  0.3939 -0.3521
 6567SOL    HW120600   3.551   2.047   5.117 -0.6983  0.3242 -0.3671
 6567SOL    HW220601   3.692   2.023   5.039 -0.7414 -1.4680  0.0569
 6568SOL     OW20602   4.675   1.042   2.251 -0.5341 -0.0642  0.2213
 6568SOL    HW120603   4.618   1.116   2.287 -1.2953  0.5110 -2.0207
 6568SOL    HW220604   4.618   0.976   2.201  0.5360 -0.3703 -0.6501
 6569SOL     OW20605   6.454   2.678   5.261  0.3679  0.3573 -0.0658
 6569SOL    HW120606   6.499   2.601   5.307 -2.2077 -1.5091 -0.4598
 6569SOL    HW220607   6.419   2.741   5.329 -1.0379 -0.9806  0.5108
 6570SOL     OW20608   6.655   2.218   2.950  0.0651  0.1219  0.3539
 6570SOL    HW120609   6.733   2.193   2.893  0.2768  1.9611 -0.2496
 6570SOL    HW220610   6.579   2.246   2.891 -0.0175  1.1956  0.9501
 6571SOL     OW20611   0.788   1.236   3.519 -0.3931 -0.0963 -0.2184
 6571SOL    HW120612   0.784   1.289   3.435 -0.2203  0.1618 -0.0659
 6571SOL    HW220613   0.698   1.235   3.563  0.0267  1.7796  0.8162
 6572SOL     OW20614   5.575   1.312   2.069  0.5394 -0.0634  0.1999
 6572SOL    HW120615   5.659   1.348   2.109  1.4026 -1.0322 -0.6915
 6572SOL    HW220616   5.565   1.216   2.093 -1.1066  0.3859  1.5218
 6573SOL     OW20617   5.277   2.750   6.056  0.1302 -0.3460 -0.2683
 6573SOL    HW120618   5.328   2.711   6.133 -0.9196  1.1164  1.2501
 6573SOL    HW220619   5.326   2.831   6.022 -0.0873 -0.2056 -0.2447
 6574SOL     OW20620   6.090   1.855   3.854 -0.2643 -0.0301  0.1184
 6574SOL    HW120621   6.042   1.769   3.833 -0.5183 -0.5971  2.7129
 6574SOL    HW220622   6.154   1.840   3.929  0.8197  1.7395 -0.3898
 6575SOL     OW20623   4.029   5.156   5.366 -0.2266  0.4532  0.0746
 6575SOL    HW120624   4.103   5.155   5.299  0.8970  0.5963  1.2589
 6575SOL    HW220625   4.046   5.085   5.435 -1.1266  0.5807  0.4403
 6576SOL     OW20626   6.108   5.598   2.678  0.2582 -0.3388 -0.0036
 6576SOL    HW120627   6.060   5.638   2.756  1.4862  0.7784  0.1971
 6576SOL    HW220628   6.175   5.662   2.642 -0.2458 -0.8309 -1.9907
 6577SOL     OW20629   0.996   5.175   1.855 -0.3306 -0.9125 -0.2669
 6577SOL    HW120630   1.021   5.173   1.758 -2.9308 -0.8342 -1.0194
 6577SOL    HW220631   0.896   5.178   1.864 -0.1495  0.3906  2.4141
 6578SOL     OW20632   0.066   1.733   4.307  0.0968  0.1040  0.0202
 6578SOL    HW120633   0.071   1.682   4.221  0.5312 -0.1049  0.1665
 6578SOL    HW220634   0.085   1.672   4.383 -3.2903 -0.4473  0.5587
 6579SOL     OW20635   5.627   4.871   6.386  0.2781  0.0444  0.5679
 6579SOL    HW120636   5.598   4.895   6.478  1.9430  0.2510  1.0601
 6579SOL    HW220637   5.659   4.952   6.338 -0.9799  0.0233 -0.3873
 6580SOL     OW20638   0.859   6.967   1.133 -0.0436 -0.4325  0.2734
 6580SOL    HW120639   0.900   6.893   1.079  0.2926  0.0505 -0.1411
 6580SOL    HW220640   0.768   6.988   1.099 -0.4392 -1.1496  0.8611
 6581SOL     OW20641   1.583   4.950   3.816  0.2750  0.6214 -0.3185
 6581SOL    HW120642   1.641   4.884   3.768  0.4477  1.0081 -0.6447
 6581SOL    HW220643   1.588   5.039   3.771  0.4847  1.0125  0.4542
 6582SOL     OW20644   2.192   2.918   1.967 -0.0416  0.0924 -0.8593
 6582SOL    HW120645   2.211   2.987   1.897  0.9143  1.2097  0.4519
 6582SOL    HW220646   2.244   2.836   1.947 -1.1243 -0.2643 -2.3930
 6583SOL     OW20647   2.990   2.595   5.664  0.1189  0.2525 -0.0512
 6583SOL    HW120648   2.939   2.608   5.579  2.3123  0.7487 -1.3878
 6583SOL    HW220649   2.977   2.501   5.697 -2.5566  0.6963  0.3850
 6584SOL     OW20650   6.717   4.272   4.985 -0.3154  0.2159  0.5498
 6584SOL    HW120651   6.686   4.325   5.063  0.8103 -0.7576  1.7040
 6584SOL    HW220652   6.653   4.196   4.969 -1.2418  1.1495 -0.3153
 6585SOL     OW20653   5.410   6.646   2.223 -0.1765 -0.1667 -0.3957
 6585SOL    HW120654   5.334   6.621   2.282  0.4627  0.6524  0.8182
 6585SOL    HW220655   5.446   6.564   2.179 -1.8840 -0.5379 -1.1796
 6586SOL     OW20656   1.575   1.838   1.635 -0.1344  0.3277  0.2027
 6586SOL    HW120657   1.525   1.788   1.565  1.3377  0.3038 -0.8703
 6586SOL    HW220658   1.552   1.801   1.725 -0.9015 -0.6509 -0.3734
 6587SOL     OW20659   3.006   5.292   1.194  0.0571 -0.7695  0.1176
 6587SOL    HW120660   3.049   5.240   1.120  1.9857 -0.0205  0.6497
 6587SOL    HW220661   2.966   5.229   1.260  0.6927 -1.5295 -0.2053
 6588SOL     OW20662   4.742   2.360   6.278  0.0625 -0.3750  0.4392
 6588SOL    HW120663   4.777   2.269   6.255  2.9360  0.4373  1.1235
 6588SOL    HW220664   4.764   2.423   6.204 -0.0553  0.1558  0.8505
 6589SOL     OW20665   5.283   5.786   2.149 -0.4286  0.1882  0.3496
 6589SOL    HW120666   5.225   5.740   2.215  1.1663 -0.2256  1.5336
 6589SOL    HW220667   5.357   5.834   2.197  0.5677  0.1845 -1.1063
 6590SOL     OW20668   6.034   5.062   4.848  0.2366  0.6090 -0.2765
 6590SOL    HW120669   5.935   5.072   4.852  0.2377  0.5377 -0.0270
 6590SOL    HW220670   6.076   5.148   4.822  0.0811  0.5218 -0.8239
 6591SOL     OW20671   5.203   3.374   0.779  0.3717  0.1427  1.1361
 6591SOL    HW120672   5.214   3.308   0.704 -1.7992  0.0257  0.8708
 6591SOL    HW220673   5.107   3.385   0.801  0.9328  0.1901  3.9636
 6592SOL     OW20674   6.503   0.045   5.990  0.3436  0.2311  0.1236
 6592SOL    HW120675   6.576  -0.022   5.977  0.1095 -0.0699  0.3362
 6592SOL    HW220676   6.531   0.113   6.058  0.1897 -0.2363  0.6622
 6593SOL     OW20677   4.249   1.004   4.085  0.4134 -0.2165  0.6553
 6593SOL    HW120678   4.293   0.987   4.173  0.3081  0.0261  0.7554
 6593SOL    HW220679   4.319   1.029   4.017  0.4659 -0.1445  0.7354
 6594SOL     OW20680   2.275   0.290   4.039 -0.4679 -0.2216  0.9688
 6594SOL    HW120681   2.333   0.290   3.958 -0.9821 -0.4906  0.5960
 6594SOL    HW220682   2.257   0.196   4.068 -3.7046 -0.4316 -1.1181
 6595SOL     OW20683   5.044   5.205   3.480 -0.1311  0.0712  0.0210
 6595SOL    HW120684   5.100   5.183   3.559  0.8054  0.8116 -0.4257
 6595SOL    HW220685   5.099   5.252   3.411 -0.2538 -2.6719 -2.1451
 6596SOL     OW20686   5.545   0.456   2.577 -0.5165 -0.5643 -0.3041
 6596SOL    HW120687   5.479   0.503   2.519  0.0303 -0.2441 -0.6747
 6596SOL    HW220688   5.595   0.388   2.523  0.4412  0.1750 -0.3876
 6597SOL     OW20689   3.551   4.284   0.437  0.2890  0.6226  0.2966
 6597SOL    HW120690   3.516   4.324   0.522 -0.3906 -0.3085  0.4764
 6597SOL    HW220691   3.631   4.228   0.457  0.9031  1.4136  0.1236
 6598SOL     OW20692   2.924   6.352   2.852  0.6229 -0.1364  0.2655
 6598SOL    HW120693   2.936   6.451   2.852  2.1936 -0.2880  1.0381
 6598SOL    HW220694   2.989   6.310   2.916 -0.5809 -1.6159  0.5926
 6599SOL     OW20695   4.616   6.666   0.782  0.0522 -0.0872  0.7399
 6599SOL    HW120696   4.637   6.635   0.689  0.0250 -0.3813  0.8309
 6599SOL    HW220697   4.528   6.714   0.781 -0.1472 -0.4524  0.6882
 6600SOL     OW20698   2.467   0.577   6.967  0.2701 -0.8195  0.2003
 6600SOL    HW120699   2.542   0.532   7.016 -0.1309 -0.7632  0.8692
 6600SOL    HW220700   2.476   0.558   6.869  2.7429  1.3796 -0.1253
 6601SOL     OW20701   5.042   6.483   0.391 -0.2495  0.0823  0.3576
 6601SOL    HW120702   5.044   6.506   0.294  1.0476  1.8451  0.7496
 6601SOL    HW220703   5.096   6.401   0.408 -0.4586 -0.2151 -0.3955
 6602SOL     OW20704   1.790   6.111   4.274 -0.1062 -0.2086  0.2513
 6602SOL    HW120705   1.860   6.145   4.211 -2.2797  1.8335 -1.2470
 6602SOL    HW220706   1.767   6.017   4.252 -0.5415  0.3324 -1.8523
 6603SOL     OW20707   5.829   4.808   2.624  0.0965  0.0573  0.2323
 6603SOL    HW120708   5.789   4.718   2.607  0.3003  0.4644 -3.0060
 6603SOL    HW220709   5.919   4.797   2.666  0.5406 -1.3460 -0.9831
 6604SOL     OW20710   1.795   6.476   6.971 -0.2792  0.0794 -0.2369
 6604SOL    HW120711   1.804   6.499   7.068 -1.0643 -0.1832 -0.0896
 6604SOL    HW220712   1.701   6.445   6.953  0.1155 -0.7877 -0.8866
 6605SOL     OW20713   4.307   5.787   3.097  0.1062 -0.0805 -0.0860
 6605SOL    HW120714   4.294   5.882   3.068  2.1970  0.5612  0.8931
 6605SOL    HW220715   4.315   5.728   3.016  0.3653  0.8183 -0.7278
 6606SOL     OW20716   0.006   6.704   1.534  0.0493 -0.5101 -0.0094
 6606SOL    HW120717  -0.045   6.788   1.554 -1.2369 -1.2923  0.0788
 6606SOL    HW220718   0.076   6.691   1.604 -0.8979 -0.4228  0.9820
 6607SOL     OW20719   6.220   1.822   4.902  0.5589 -0.5265 -0.1094
 6607SOL    HW120720   6.254   1.798   4.993 -1.3989  0.2593  0.8922
 6607SOL    HW220721   6.287   1.879   4.855  0.1920  2.0972  2.3086
 6608SOL     OW20722   1.140   4.812   5.855  0.2460 -0.6372 -0.2805
 6608SOL    HW120723   1.110   4.798   5.949  0.4709  2.6275  0.4073
 6608SOL    HW220724   1.186   4.730   5.821  0.4879 -1.7826  2.5778
 6609SOL     OW20725   0.854   3.237   2.967  0.2644  0.7309 -0.6240
 6609SOL    HW120726   0.890   3.161   2.912 -0.9269 -0.6560  0.4244
 6609SOL    HW220727   0.925   3.266   3.032  0.4516 -0.1185 -0.4258
 6610SOL     OW20728   5.392   0.958   6.819  0.4444  0.1059  0.4066
 6610SOL    HW120729   5.425   0.894   6.750 -1.9302 -0.2571 -0.5048
 6610SOL    HW220730   5.316   1.011   6.781  1.3268  2.3837  1.6610
 6611SOL     OW20731   3.955   4.889   5.066 -0.0068 -0.2758  0.4881
 6611SOL    HW120732   3.993   4.981   5.078 -1.0068  0.4065 -1.2026
 6611SOL    HW220733   3.899   4.866   5.146 -1.8398  1.6915 -0.1089
 6612SOL     OW20734   3.379   0.234   2.576  0.3956 -0.2349  0.4824
 6612SOL    HW120735   3.281   0.253   2.581  0.2005 -1.1943  0.5760
 6612SOL    HW220736   3.426   0.313   2.537 -0.4537  0.1184  0.1365
 6613SOL     OW20737   5.037   0.319   6.521  0.2215 -0.0254  0.3234
 6613SOL    HW120738   4.965   0.258   6.553  0.1823 -1.7193 -2.6488
 6613SOL    HW220739   5.073   0.286   6.433  4.1563  1.1344  1.2888
 6614SOL     OW20740   1.947   6.454   6.556  0.2554 -0.1499 -0.3566
 6614SOL    HW120741   1.958   6.420   6.650  0.9574  1.1041  0.0442
 6614SOL    HW220742   1.855   6.491   6.545  0.2363 -0.1112 -0.0906
 6615SOL     OW20743   1.856   1.400   1.867 -0.2420 -0.2088  0.4531
 6615SOL    HW120744   1.836   1.355   1.780 -0.2281  0.4674  0.0890
 6615SOL    HW220745   1.813   1.350   1.942 -1.5378  0.0522 -0.0935
 6616SOL     OW20746   0.019   3.926   1.026  0.0493  0.3566  0.7284
 6616SOL    HW120747  -0.028   3.857   1.081 -1.0546  1.0060  0.6152
 6616SOL    HW220748  -0.046   3.996   0.997  0.1117 -0.9483 -3.0787
 6617SOL     OW20749   6.452   2.909   4.827  0.2297  0.5915 -0.1331
 6617SOL    HW120750   6.426   2.813   4.841 -1.6423  0.8883 -1.1600
 6617SOL    HW220751   6.478   2.950   4.915 -0.0977 -0.5385  0.5137
 6618SOL     OW20752   1.040   2.720   4.499  0.2542  0.1305 -0.5519
 6618SOL    HW120753   1.002   2.760   4.416  2.4462  0.2178 -1.5807
 6618SOL    HW220754   0.995   2.759   4.579 -1.4125  0.5684 -1.6621
 6619SOL     OW20755   3.317   1.121   5.521  0.7698 -0.1424 -0.2069
 6619SOL    HW120756   3.334   1.085   5.429  0.0565 -0.8926 -0.0572
 6619SOL    HW220757   3.399   1.108   5.577  1.0913  0.0086 -0.6332
 6620SOL     OW20758   1.682   6.150   4.527 -0.1625  0.4169  0.1534
 6620SOL    HW120759   1.727   6.151   4.437 -1.5779  1.0821 -0.5839
 6620SOL    HW220760   1.656   6.244   4.552  0.5968  0.2920  1.4724
 6621SOL     OW20761   0.603   0.397   2.990  0.5957  0.1219 -0.3754
 6621SOL    HW120762   0.689   0.365   2.949  0.1132 -1.1409 -0.4584
 6621SOL    HW220763   0.530   0.393   2.921  0.1395 -0.3910  0.1219
 6622SOL     OW20764   2.678   5.312   2.573 -0.4089  0.1415 -0.1695
 6622SOL    HW120765   2.671   5.230   2.517 -1.2218 -0.7669  1.2038
 6622SOL    HW220766   2.598   5.318   2.633  1.7005 -0.5461  2.9842
 6623SOL     OW20767   3.640   1.378   5.135  0.2790 -0.1986 -0.0357
 6623SOL    HW120768   3.561   1.327   5.100 -1.1119  1.3185  0.7661
 6623SOL    HW220769   3.698   1.406   5.059 -0.4185 -0.5864 -0.7295
 6624SOL     OW20770   6.543   2.433   5.361  0.8626  0.2373 -0.1493
 6624SOL    HW120771   6.457   2.389   5.334 -0.5452  2.4572  0.3474
 6624SOL    HW220772   6.535   2.467   5.454  2.5530 -0.0460  0.1297
 6625SOL     OW20773   2.086   5.096   4.994 -0.2175  0.1634  0.7537
 6625SOL    HW120774   2.131   5.092   5.083 -0.2519  1.8406  0.8955
 6625SOL    HW220775   1.991   5.125   5.006  0.1362  1.7192  0.1287
 6626SOL     OW20776   1.761   5.199   6.696 -0.1310  0.6232 -0.0207
 6626SOL    HW120777   1.775   5.274   6.761  0.5765 -1.3344  2.2158
 6626SOL    HW220778   1.819   5.122   6.721 -0.0805 -0.3682 -2.8514
 6627SOL     OW20779   0.093   4.448   3.371  0.9162 -0.1775 -0.2232
 6627SOL    HW120780   0.107   4.534   3.322 -0.9773  1.2973  1.6530
 6627SOL    HW220781   0.006   4.408   3.345  0.9283 -0.5534  0.3015
 6628SOL     OW20782   5.490   5.171   3.799  1.2017 -0.6090 -0.1621
 6628SOL    HW120783   5.484   5.186   3.700  0.1566 -3.2900 -0.5816
 6628SOL    HW220784   5.576   5.126   3.821  1.9943  1.0902  0.3689
 6629SOL     OW20785   2.665   6.175   3.899  0.2383 -0.0433 -0.5152
 6629SOL    HW120786   2.721   6.104   3.944  0.8775 -0.6620 -2.1812
 6629SOL    HW220787   2.595   6.131   3.843  0.0170  0.6791 -0.8146
 6630SOL     OW20788   3.051   5.049   2.604 -0.1342  0.5921 -0.5738
 6630SOL    HW120789   3.140   5.033   2.647 -0.5884  0.2488  0.2696
 6630SOL    HW220790   3.031   5.147   2.604  0.2866  0.6787 -0.8514
 6631SOL     OW20791   1.314   0.066   2.652  0.0551  0.7346  0.0929
 6631SOL    HW120792   1.396   0.073   2.709 -0.2154  0.1084  0.5834
 6631SOL    HW220793   1.288  -0.030   2.644 -0.1358  0.8524 -0.7805
 6632SOL     OW20794   2.053   0.508   2.627 -0.0124  0.0339  0.0075
 6632SOL    HW120795   2.054   0.498   2.726 -1.4170  0.1804  0.0576
 6632SOL    HW220796   1.981   0.572   2.601  1.1511  0.9805 -1.0400
 6633SOL     OW20797   1.371   2.109   0.884  0.2563 -0.2961 -0.0875
 6633SOL    HW120798   1.315   2.110   0.802  0.2673  0.9199 -0.0989
 6633SOL    HW220799   1.354   2.025   0.936 -1.5500  0.0321 -0.0985
 6634SOL     OW20800   2.516   5.842   1.499  0.1690  0.7820 -0.7925
 6634SOL    HW120801   2.483   5.750   1.516  1.3337  0.2840 -1.1544
 6634SOL    HW220802   2.508   5.897   1.583 -1.3071  0.6269 -0.7978
 6635SOL     OW20803   3.974   4.862   4.577  0.4537  0.5901  0.4386
 6635SOL    HW120804   3.889   4.839   4.626  0.0803  1.7276  0.3554
 6635SOL    HW220805   3.963   4.950   4.532  0.6689 -0.5475 -2.0117
 6636SOL     OW20806   4.953   0.040   2.858 -0.1603 -0.1374  0.2122
 6636SOL    HW120807   4.886  -0.011   2.913 -1.4809  2.4488  1.1661
 6636SOL    HW220808   4.996   0.110   2.915  3.4853 -1.6700 -0.3699
 6637SOL     OW20809   1.110   2.452   6.806 -0.3240  0.0828 -0.0677
 6637SOL    HW120810   1.017   2.465   6.773  0.2409  0.4689 -1.5670
 6637SOL    HW220811   1.118   2.361   6.847 -1.1525 -0.2600 -0.6394
 6638SOL     OW20812   3.692   3.219   0.431  0.2099 -0.0567 -0.2311
 6638SOL    HW120813   3.618   3.222   0.363 -0.9062  1.9653  0.9833
 6638SOL    HW220814   3.714   3.312   0.461  0.0671 -0.8928  2.7816
 6639SOL     OW20815   4.619   3.662   1.624  0.4051 -0.0677  0.2789
 6639SOL    HW120816   4.530   3.630   1.656  0.9620 -1.5161  0.5003
 6639SOL    HW220817   4.609   3.710   1.537 -0.5738 -0.3420  0.2304
 6640SOL     OW20818   2.577   7.006   6.057  0.5771  0.4253 -0.6761
 6640SOL    HW120819   2.600   7.097   6.023 -0.1345 -0.1887 -3.0052
 6640SOL    HW220820   2.503   6.968   6.002  2.7024 -2.6433 -1.7024
 6641SOL     OW20821   4.695   1.049   0.758 -0.0030 -0.0894 -0.0193
 6641SOL    HW120822   4.604   1.086   0.744 -0.7680 -1.6642  0.5008
 6641SOL    HW220823   4.718   1.053   0.855  0.9761  1.3450 -0.2890
 6642SOL     OW20824   1.045   1.877   0.094 -0.4683  0.4949 -0.2285
 6642SOL    HW120825   0.951   1.898   0.121 -0.3639 -2.2768  3.0241
 6642SOL    HW220826   1.104   1.954   0.117 -1.6345  1.4952 -0.4629
 6643SOL     OW20827   3.606   5.514   6.731 -0.4535  0.1842  0.8676
 6643SOL    HW120828   3.566   5.491   6.643  0.4658 -2.7090  1.0985
 6643SOL    HW220829   3.700   5.545   6.718  0.4816 -2.4241  0.8685
 6644SOL     OW20830   5.671   2.607   0.576  0.3406  0.2715  0.2104
 6644SOL    HW120831   5.626   2.678   0.522 -1.1127 -0.1661  0.8006
 6644SOL    HW220832   5.672   2.634   0.672 -1.0200 -0.8465  0.5755
 6645SOL     OW20833   6.927   5.648   4.037  0.2318 -0.3485 -0.5442
 6645SOL    HW120834   6.874   5.615   3.959  0.7484  0.1075 -1.0943
 6645SOL    HW220835   7.008   5.696   4.004  0.9146 -0.8974  0.2797
 6646SOL     OW20836   0.154   2.331   5.094  0.1533 -0.7287 -0.5389
 6646SOL    HW120837   0.216   2.323   5.172  0.7542 -0.8000 -1.0142
 6646SOL    HW220838   0.060   2.343   5.126  0.6274  1.3691  0.2281
 6647SOL     OW20839   0.693   4.185   2.134  0.4011  0.4532  0.5786
 6647SOL    HW120840   0.600   4.153   2.117  0.6727  0.5519 -1.4144
 6647SOL    HW220841   0.699   4.228   2.224 -0.1390 -4.5246  3.3417
 6648SOL     OW20842   1.003   1.223   4.765  0.2671  0.6375  0.1877
 6648SOL    HW120843   1.029   1.231   4.668  1.4766 -0.3169  0.4034
 6648SOL    HW220844   1.033   1.134   4.800  1.5676  1.6950  1.9380
 6649SOL     OW20845   2.759   1.324   3.745 -0.0238  0.4455 -0.0562
 6649SOL    HW120846   2.736   1.392   3.814 -1.3300 -0.4714  0.4735
 6649SOL    HW220847   2.856   1.328   3.724  0.0581  1.9662  0.4800
 6650SOL     OW20848   0.364   1.697   6.401  0.3551  0.1371  0.0041
 6650SOL    HW120849   0.319   1.725   6.317 -1.1205  2.3728  1.4197
 6650SOL    HW220850   0.418   1.773   6.437 -0.0489 -0.3104  1.6695
 6651SOL     OW20851   1.256   3.952   0.893 -0.3322  0.1780  0.2721
 6651SOL    HW120852   1.230   4.036   0.940 -3.6130  1.0046 -2.6154
 6651SOL    HW220853   1.281   3.973   0.799 -1.8279 -2.0760 -0.7135
 6652SOL     OW20854   3.598   4.057   2.833  0.3953 -0.6572  0.2539
 6652SOL    HW120855   3.606   4.093   2.926  1.6576 -1.1679  0.3645
 6652SOL    HW220856   3.689   4.039   2.797 -0.1221 -3.5017  0.1289
 6653SOL     OW20857   1.957   1.804   3.506  0.3043  0.2548  0.6399
 6653SOL    HW120858   1.923   1.858   3.584  0.0506 -1.3987  1.7301
 6653SOL    HW220859   1.906   1.719   3.500  2.3361 -1.0199  0.5345
 6654SOL     OW20860   4.868   5.756   5.167 -0.4305 -0.2958  0.2421
 6654SOL    HW120861   4.784   5.706   5.145  0.6619 -1.6967 -1.0075
 6654SOL    HW220862   4.888   5.821   5.094 -0.9185  0.7719  1.0260
 6655SOL     OW20863   4.044   3.149   6.572 -0.2411  0.1959  0.0044
 6655SOL    HW120864   4.024   3.188   6.482 -0.7018  0.6074  0.2810
 6655SOL    HW220865   3.964   3.100   6.605 -0.6564  1.4394  0.9062
 6656SOL     OW20866   1.261   3.627   2.749 -0.0852  0.2483 -0.1533
 6656SOL    HW120867   1.280   3.542   2.797 -0.2560 -0.4215 -1.2254
 6656SOL    HW220868   1.199   3.608   2.672 -0.5924  1.4375 -0.0551
 6657SOL     OW20869   6.018   1.422   6.287 -0.0842 -0.2875 -0.3057
 6657SOL    HW120870   6.106   1.470   6.295  0.3698 -0.9359 -1.2111
 6657SOL    HW220871   6.034   1.324   6.292 -0.5518 -0.4798 -1.8902
 6658SOL     OW20872   0.904   4.282   4.969  0.3326  0.3640  0.7497
 6658SOL    HW120873   0.853   4.355   5.014 -1.7911 -1.4290  1.4098
 6658SOL    HW220874   0.916   4.205   5.032  0.8474 -0.6202 -0.4984
 6659SOL     OW20875   4.012   3.275   5.979  0.0887 -0.3234 -0.7182
 6659SOL    HW120876   4.062   3.355   5.945 -0.0792  0.2619  0.3618
 6659SOL    HW220877   3.916   3.299   5.994  0.0587 -0.6961 -0.2931
 6660SOL     OW20878   2.318   5.048   1.249  0.3195  0.4909  0.0893
 6660SOL    HW120879   2.264   5.118   1.295 -0.0272  0.3261 -0.0643
 6660SOL    HW220880   2.282   4.958   1.273 -0.5589  0.4294 -1.3421
 6661SOL     OW20881   2.146   5.305   5.472 -0.6746 -0.9004 -0.6950
 6661SOL    HW120882   2.104   5.342   5.555  2.1342 -0.4466  0.6712
 6661SOL    HW220883   2.104   5.217   5.449 -1.8706 -0.7880  0.9156
 6662SOL     OW20884   5.415   2.754   5.110  0.1273 -0.0412 -0.0195
 6662SOL    HW120885   5.510   2.769   5.085  0.9103 -0.6565  2.3088
 6662SOL    HW220886   5.377   2.837   5.151  0.1799 -0.2869  0.5320
 6663SOL     OW20887   4.001   0.452   3.324 -0.3878  0.0163 -0.0830
 6663SOL    HW120888   3.947   0.523   3.278 -0.0647 -0.1094 -0.6685
 6663SOL    HW220889   4.076   0.496   3.374  0.5495  0.0261 -1.4520
 6664SOL     OW20890   3.127   1.934   6.567 -0.3024  0.2263 -0.4633
 6664SOL    HW120891   3.058   1.866   6.593  1.2382 -1.8642 -1.4727
 6664SOL    HW220892   3.213   1.914   6.614  1.2251 -0.8862 -3.4458
 6665SOL     OW20893   5.461   4.742   1.586 -0.6374  0.1439  0.5204
 6665SOL    HW120894   5.561   4.738   1.588 -0.6096  0.4037  2.6752
 6665SOL    HW220895   5.427   4.685   1.512  1.1411  2.1674 -2.0103
 6666SOL     OW20896   2.228   4.251   5.167 -0.2952 -0.2375 -0.4482
 6666SOL    HW120897   2.285   4.173   5.142  0.2890 -0.5634  1.7391
 6666SOL    HW220898   2.174   4.228   5.247 -2.5011  0.5698 -1.6228
 6667SOL     OW20899   1.955   0.723   4.177 -0.1539  0.0540  0.2157
 6667SOL    HW120900   1.963   0.625   4.157 -1.8623 -0.0367 -0.1806
 6667SOL    HW220901   1.993   0.776   4.101 -0.3167 -0.3026 -0.1187
 6668SOL     OW20902   5.217   4.434   6.521  0.2482 -0.5639  0.1911
 6668SOL    HW120903   5.180   4.516   6.565  0.9739  1.5577 -2.8094
 6668SOL    HW220904   5.160   4.355   6.544 -2.9588  1.5174  0.0472
 6669SOL     OW20905   5.050   5.562   5.251  0.1548 -0.0396 -0.5148
 6669SOL    HW120906   4.993   5.492   5.295  1.4665 -1.6206 -1.2508
 6669SOL    HW220907   4.993   5.643   5.231 -1.5718 -1.1396 -0.2837
 6670SOL     OW20908   2.902   4.809   2.129 -0.6260 -0.4696 -0.1692
 6670SOL    HW120909   2.858   4.724   2.103 -0.7619 -0.4778  0.0887
 6670SOL    HW220910   2.881   4.830   2.224 -0.3271 -0.3150 -0.1363
 6671SOL     OW20911   3.723   6.521   2.529  0.3027 -0.3939  0.2407
 6671SOL    HW120912   3.808   6.562   2.496  1.0476 -2.2705 -0.3659
 6671SOL    HW220913   3.661   6.506   2.452 -0.6997  1.1634  0.7127
 6672SOL     OW20914   3.548   0.171   3.383  0.1385  0.5027  0.3044
 6672SOL    HW120915   3.543   0.251   3.443 -1.1311 -0.3879  1.4782
 6672SOL    HW220916   3.493   0.187   3.301 -1.0251  0.4621  1.0482
 6673SOL     OW20917   2.153   0.727   6.879  0.8752 -0.2030 -1.0088
 6673SOL    HW120918   2.226   0.765   6.936  0.5588 -0.0084 -0.7244
 6673SOL    HW220919   2.104   0.802   6.834 -0.0961 -0.2230 -0.0214
 6674SOL     OW20920   2.011   1.420   5.243 -0.2989 -0.1921  0.2194
 6674SOL    HW120921   1.911   1.427   5.240 -0.7477 -3.5850  2.1657
 6674SOL    HW220922   2.041   1.345   5.185  1.0941  0.5214 -0.0121
 6675SOL     OW20923   5.233   1.682   4.666 -0.1377 -0.3054  0.3297
 6675SOL    HW120924   5.255   1.780   4.665 -1.3392 -0.0241 -0.5377
 6675SOL    HW220925   5.191   1.659   4.753  1.6186 -0.4276  1.1990
 6676SOL     OW20926   4.766   0.719   6.073 -0.2693  0.7014 -0.2593
 6676SOL    HW120927   4.755   0.778   6.152  1.5942  0.3085  0.3385
 6676SOL    HW220928   4.806   0.771   5.997 -2.5630  1.2268 -1.2213
 6677SOL     OW20929   0.570   2.966   6.558 -0.8349  0.4661  0.1114
 6677SOL    HW120930   0.559   2.868   6.575 -2.3949  0.2595 -1.8573
 6677SOL    HW220931   0.495   3.017   6.601  0.1172  0.8759  1.3659
 6678SOL     OW20932   1.783   5.825   5.120 -0.1915  0.1296 -0.1534
 6678SOL    HW120933   1.807   5.888   5.047 -0.6507 -0.2798 -0.6638
 6678SOL    HW220934   1.855   5.824   5.189 -0.1943  1.2338 -0.1216
 6679SOL     OW20935   6.919   2.126   2.167  0.5604  0.1853 -0.3982
 6679SOL    HW120936   6.844   2.097   2.226  0.3978 -0.8734 -1.1015
 6679SOL    HW220937   6.904   2.092   2.074  2.1567 -0.4830 -0.4442
 6680SOL     OW20938   2.083   4.567   1.246  0.2381 -0.3970  0.4248
 6680SOL    HW120939   2.061   4.493   1.310  2.3815 -1.0477  0.5007
 6680SOL    HW220940   2.038   4.551   1.159 -0.4700 -0.9974  0.8897
 6681SOL     OW20941   5.137   1.338   4.930  0.3355  0.6619  0.3377
 6681SOL    HW120942   5.210   1.323   4.864 -0.3814 -0.9310 -0.1646
 6681SOL    HW220943   5.170   1.319   5.022  0.2042 -1.6395 -0.0312
 6682SOL     OW20944   4.057   4.528   5.335 -0.5995 -0.1085  0.3034
 6682SOL    HW120945   4.123   4.492   5.269 -1.0032 -1.8755  0.7830
 6682SOL    HW220946   4.104   4.551   5.420 -0.0202  2.5130 -0.6339
 6683SOL     OW20947   0.074   1.238   6.929 -0.3156  0.0554  0.4322
 6683SOL    HW120948   0.142   1.308   6.908 -0.2975  0.8415  2.8699
 6683SOL    HW220949   0.111   1.148   6.905  1.3032  0.5302  0.9876
 6684SOL     OW20950   5.505   3.061   3.703 -0.0663 -0.5328 -0.2735
 6684SOL    HW120951   5.437   3.080   3.632 -1.4018  1.4131  1.4106
 6684SOL    HW220952   5.596   3.055   3.660 -0.9987 -1.1561 -2.3165
 6685SOL     OW20953   5.644   6.367   2.783  0.5395 -0.0484  0.5667
 6685SOL    HW120954   5.647   6.412   2.872 -3.9584 -0.8452  1.3494
 6685SOL    HW220955   5.662   6.269   2.795 -1.5072 -0.4237  0.9745
 6686SOL     OW20956   0.513   3.604   2.045 -0.0147 -0.0499  0.4319
 6686SOL    HW120957   0.554   3.549   2.118  0.2836  0.8139  0.9250
 6686SOL    HW220958   0.414   3.593   2.046  0.0360 -0.4957  0.5941
 6687SOL     OW20959   1.257   6.582   2.186  0.0219  0.3042  0.2106
 6687SOL    HW120960   1.163   6.611   2.200 -0.1872 -0.5134  0.5780
 6687SOL    HW220961   1.260   6.511   2.116  0.3647  0.3238  0.2033
 6688SOL     OW20962   2.129   3.654   6.162 -0.6843  0.6456 -0.3389
 6688SOL    HW120963   2.033   3.631   6.146 -0.2482 -0.2727 -1.8334
 6688SOL    HW220964   2.142   3.752   6.148 -1.4681  0.8391  0.2415
 6689SOL     OW20965   5.150   0.224   6.272 -0.1894 -0.4920 -0.2678
 6689SOL    HW120966   5.092   0.159   6.223 -0.5502 -1.2214  1.0481
 6689SOL    HW220967   5.145   0.313   6.229 -0.5431 -1.0800 -1.4821
 6690SOL     OW20968   3.281   1.251   0.064  0.6916  0.0143 -0.2763
 6690SOL    HW120969   3.194   1.274   0.020  0.0946 -2.0758 -0.2773
 6690SOL    HW220970   3.329   1.336   0.088 -1.4963  1.2227  0.0741
 6691SOL     OW20971   3.064   2.753   6.954  0.9442 -0.0991  0.2453
 6691SOL    HW120972   3.036   2.848   6.964  0.6189 -0.1645 -0.0316
 6691SOL    HW220973   3.082   2.733   6.858 -0.7369 -0.7895  0.0496
 6692SOL     OW20974   1.603   6.724   5.505 -0.2591 -0.0151  0.0289
 6692SOL    HW120975   1.626   6.748   5.599 -0.9512 -0.1024  0.2259
 6692SOL    HW220976   1.658   6.645   5.476  0.7462  0.6770 -0.0207
 6693SOL     OW20977   6.687   5.689   3.461 -0.5042  0.3108  0.0784
 6693SOL    HW120978   6.597   5.656   3.488  0.3055 -1.0388  1.2392
 6693SOL    HW220979   6.723   5.633   3.386 -0.5569  0.7657 -0.2964
 6694SOL     OW20980   3.685   3.801   0.524  0.2255  0.3056 -0.4873
 6694SOL    HW120981   3.604   3.756   0.486  0.4039  0.6403 -1.2752
 6694SOL    HW220982   3.741   3.733   0.572 -1.2691  0.3442  1.4115
 6695SOL     OW20983   0.719   6.881   3.129 -0.2775 -0.0561 -0.0276
 6695SOL    HW120984   0.742   6.863   3.224  0.0585  0.4091 -0.0141
 6695SOL    HW220985   0.634   6.933   3.124 -0.6318 -0.6251 -0.0149
 6696SOL     OW20986   5.979   5.550   6.040 -0.5561  0.0172 -0.3214
 6696SOL    HW120987   5.988   5.451   6.051 -0.8181 -0.1587 -1.5931
 6696SOL    HW220988   5.955   5.591   6.128 -1.3061 -1.1513  0.0360
 6697SOL     OW20989   5.953   1.226   5.746  0.4886  0.2699 -0.2751
 6697SOL    HW120990   5.857   1.241   5.771  0.8454  0.0732  1.3506
 6697SOL    HW220991   5.992   1.312   5.713 -0.4628  0.1415 -1.7770
 6698SOL     OW20992   5.223   5.204   5.993  0.0779  0.4922 -0.5033
 6698SOL    HW120993   5.244   5.296   5.962 -0.2342  0.8774  0.3977
 6698SOL    HW220994   5.265   5.137   5.932  0.6681  1.2322 -0.9104
 6699SOL     OW20995   0.682   2.594   1.750  0.5237 -0.2647  0.4169
 6699SOL    HW120996   0.711   2.688   1.730 -0.6700  0.0494  0.0566
 6699SOL    HW220997   0.615   2.564   1.681 -0.4057 -0.7462  1.4821
 6700SOL     OW20998   3.464   2.176   6.584 -0.5451 -0.1467 -0.4200
 6700SOL    HW120999   3.426   2.262   6.620  0.9206  0.8421 -1.1607
 6700SOL    HW221000   3.536   2.143   6.646 -0.8912 -0.6886 -0.2994
 6701SOL     OW21001   2.696   5.966   4.758  0.2994  0.5346 -0.7430
 6701SOL    HW121002   2.642   6.003   4.682 -1.1109 -0.4191 -0.2535
 6701SOL    HW221003   2.686   6.025   4.838 -2.2327 -0.9299  0.1445
 6702SOL     OW21004   3.967   1.946   2.025  0.3292 -0.3876  0.2291
 6702SOL    HW121005   4.041   1.925   1.961 -0.1489  0.6350 -0.6976
 6702SOL    HW221006   3.886   1.892   2.000 -0.4846  1.4326 -1.3295
 6703SOL     OW21007   6.920   3.274   2.271 -0.0918 -0.2655 -0.1737
 6703SOL    HW121008   6.892   3.369   2.285 -1.7243 -0.7322 -0.0315
 6703SOL    HW221009   6.868   3.214   2.331  1.0642 -1.2538 -0.1108
 6704SOL     OW21010   6.919   4.894   0.813 -0.1605  0.0532  0.9111
 6704SOL    HW121011   6.896   4.874   0.908 -0.3430 -0.6086  0.7329
 6704SOL    HW221012   7.018   4.887   0.800 -0.3476 -2.5386  0.4692
 6705SOL     OW21013   1.597   6.729   4.285  0.2094 -0.1831  0.2886
 6705SOL    HW121014   1.573   6.640   4.247  0.7768 -0.1748 -0.1138
 6705SOL    HW221015   1.647   6.717   4.371  0.5321 -0.2632  0.0903
 6706SOL     OW21016   3.141   5.244   4.910 -0.0075  0.1238 -0.4952
 6706SOL    HW121017   3.201   5.319   4.935  0.0391  0.1215 -0.5989
 6706SOL    HW221018   3.189   5.181   4.848  0.5508 -0.9358  0.9666
 6707SOL     OW21019   0.020   1.468   1.008 -0.1388 -0.3380 -0.6555
 6707SOL    HW121020   0.067   1.423   1.084  0.9447 -2.0914 -2.2687
 6707SOL    HW221021  -0.078   1.471   1.026  0.0239 -1.2899  0.5302
 6708SOL     OW21022   4.293   1.568   2.511 -0.3228 -0.0764 -0.2599
 6708SOL    HW121023   4.320   1.628   2.436  1.3590 -1.4584 -0.8105
 6708SOL    HW221024   4.204   1.598   2.547 -1.4663  0.2986 -3.1454
 6709SOL     OW21025   3.253   6.854   3.264  0.0746  0.3689 -1.0812
 6709SOL    HW121026   3.218   6.762   3.247 -1.9190  0.9224 -0.2885
 6709SOL    HW221027   3.331   6.850   3.326  1.0778 -0.8737 -2.3530
 6710SOL     OW21028   2.812   0.163   0.414 -0.1410 -0.6315  0.5510
 6710SOL    HW121029   2.794   0.098   0.487  0.9655 -1.0720  0.4561
 6710SOL    HW221030   2.898   0.211   0.433 -0.6159  0.3390  0.2914
 6711SOL     OW21031   6.635   1.158   6.251 -0.3368 -0.2525  0.4839
 6711SOL    HW121032   6.721   1.107   6.264 -0.3161 -0.3550 -0.0165
 6711SOL    HW221033   6.633   1.235   6.314 -0.2000 -0.6563  0.9980
 6712SOL     OW21034   0.658   6.197   2.649  0.1363 -0.5705 -1.3974
 6712SOL    HW121035   0.714   6.179   2.729 -3.3656 -0.8758  1.2165
 6712SOL    HW221036   0.633   6.110   2.606  1.4862 -0.4369 -2.5325
 6713SOL     OW21037   1.665   3.766   2.472  0.0114 -0.2391  0.0229
 6713SOL    HW121038   1.677   3.682   2.419 -1.6922 -0.7220  0.3594
 6713SOL    HW221039   1.585   3.816   2.438 -0.0711  0.3262  1.0101
 6714SOL     OW21040   2.844   6.839   3.300 -0.2273  0.3162  0.1629
 6714SOL    HW121041   2.871   6.880   3.213 -0.9807 -0.8727 -0.6493
 6714SOL    HW221042   2.767   6.891   3.337  1.3027  2.0313  1.1430
 6715SOL     OW21043   4.729   3.780   0.391  0.8460  0.2067  0.2107
 6715SOL    HW121044   4.675   3.810   0.312 -0.5697  0.5376  1.2643
 6715SOL    HW221045   4.810   3.839   0.401  1.9712 -0.8580 -1.9202
 6716SOL     OW21046   3.036   5.880   2.655  0.3511  0.0261 -0.4058
 6716SOL    HW121047   2.988   5.922   2.578 -0.4843 -0.1448  0.0099
 6716SOL    HW221048   3.001   5.917   2.741  0.3501 -0.7458 -0.0649
 6717SOL     OW21049   1.984   5.246   2.690 -0.2113  0.1766  0.1264
 6717SOL    HW121050   2.002   5.165   2.634 -0.2889  0.1667  0.1151
 6717SOL    HW221051   2.011   5.328   2.639  1.6213  0.0697  0.8533
 6718SOL     OW21052   4.203   6.763   1.052  0.3270  0.3456  0.1043
 6718SOL    HW121053   4.215   6.846   0.998  0.4093  0.9798  1.0723
 6718SOL    HW221054   4.120   6.770   1.107  0.1040 -0.4000 -0.1289
 6719SOL     OW21055   1.137   4.963   0.656 -0.2503 -0.7944 -0.0334
 6719SOL    HW121056   1.053   4.969   0.710  0.9178  0.5718  1.7619
 6719SOL    HW221057   1.191   4.886   0.689 -0.2555 -0.9496 -0.3825
 6720SOL     OW21058   6.401   6.467   1.625 -0.4738  0.4019  0.0101
 6720SOL    HW121059   6.465   6.539   1.601  0.3208 -0.4185 -0.4001
 6720SOL    HW221060   6.368   6.481   1.718 -0.4095  1.3435 -0.1032
 6721SOL     OW21061   3.318   6.173   2.897 -0.1053 -0.1314  0.1051
 6721SOL    HW121062   3.337   6.147   2.802 -0.7249 -2.1032  0.4772
 6721SOL    HW221063   3.393   6.230   2.931 -0.5122  1.7695 -1.9524
 6722SOL     OW21064   4.361   3.066   6.202 -0.3414  0.0347  0.4811
 6722SOL    HW121065   4.421   3.112   6.137  0.5183  0.2729  1.4302
 6722SOL    HW221066   4.270   3.056   6.162 -0.1329  1.1996 -0.3123
 6723SOL     OW21067   1.245   6.335   6.382 -0.2619 -0.5901  0.0815
 6723SOL    HW121068   1.325   6.394   6.372 -0.4573 -0.1755  0.8697
 6723SOL    HW221069   1.169   6.372   6.328 -0.6368  0.3702  1.2188
 6724SOL     OW21070   0.710   6.480   4.040  0.2197  0.0111 -0.1004
 6724SOL    HW121071   0.632   6.419   4.057  0.1557  0.3568  0.9261
 6724SOL    HW221072   0.759   6.495   4.125  1.0061  0.3641 -0.6063
 6725SOL     OW21073   6.838   2.843   6.540 -0.5405  0.0834  0.0508
 6725SOL    HW121074   6.748   2.800   6.547 -1.4466  1.8155 -0.3328
 6725SOL    HW221075   6.895   2.816   6.617 -1.7814 -0.1820  0.8969
 6726SOL     OW21076   2.459   4.584   5.621 -0.4152  0.2571 -0.3610
 6726SOL    HW121077   2.450   4.656   5.689 -1.6498  0.4730 -0.7251
 6726SOL    HW221078   2.539   4.528   5.642 -1.0157  0.0346  1.5208
 6727SOL     OW21079   0.868   5.288   0.168 -0.9123  0.4273 -0.7665
 6727SOL    HW121080   0.801   5.350   0.209 -1.2954 -1.2131  1.2232
 6727SOL    HW221081   0.821   5.221   0.111 -1.2239 -1.3925  1.4711
 6728SOL     OW21082   2.767   0.392   2.368  0.0571 -0.0092 -0.2766
 6728SOL    HW121083   2.733   0.486   2.368  1.3268  0.4607 -0.3450
 6728SOL    HW221084   2.705   0.335   2.314 -1.8840  0.3358  1.4507
 6729SOL     OW21085   1.565   5.601   0.858  0.3033 -0.2280 -0.1858
 6729SOL    HW121086   1.617   5.515   0.861  1.7297  0.6010  0.0401
 6729SOL    HW221087   1.559   5.639   0.950  1.7529  1.0593 -0.5760
 6730SOL     OW21088   2.262   2.617   1.183  0.1023  0.1285  0.0073
 6730SOL    HW121089   2.201   2.538   1.172 -0.8930  0.8284  0.3857
 6730SOL    HW221090   2.245   2.660   1.272  1.6515 -0.0679  0.4343
 6731SOL     OW21091   3.252   2.338   0.488  0.2730 -0.1218 -0.5154
 6731SOL    HW121092   3.309   2.259   0.512  0.1162 -1.0415 -2.8281
 6731SOL    HW221093   3.295   2.422   0.520  2.4834 -0.8656 -1.3542
 6732SOL     OW21094   1.947   1.851   1.919  0.2946 -0.1490 -0.6062
 6732SOL    HW121095   2.004   1.770   1.908  1.6639  0.5627  0.8561
 6732SOL    HW221096   1.976   1.921   1.854  0.6517 -0.0388 -0.3351
 6733SOL     OW21097   4.032   3.866   4.482 -0.3205  0.3081  0.4303
 6733SOL    HW121098   4.050   3.787   4.541  1.5790  0.2958 -0.0942
 6733SOL    HW221099   3.955   3.918   4.518 -1.4533 -1.6047  0.9520
 6734SOL     OW21100   5.059   3.919   4.697 -0.0985  0.3174 -0.5861
 6734SOL    HW121101   5.119   3.868   4.637  0.3562  1.1930 -0.8957
 6734SOL    HW221102   5.088   3.908   4.792  0.0523  0.0829 -0.6604
 6735SOL     OW21103   2.717   3.355   0.361 -0.4659 -0.1439 -1.1091
 6735SOL    HW121104   2.626   3.317   0.373 -0.3104 -0.3749 -0.6380
 6735SOL    HW221105   2.764   3.305   0.288 -0.3096 -0.7754 -0.5806
 6736SOL     OW21106   2.971   5.321   2.587  0.3453 -0.2572 -0.4502
 6736SOL    HW121107   2.986   5.390   2.658  0.7967 -2.0858  1.3188
 6736SOL    HW221108   2.873   5.307   2.576  0.2515 -1.4902  1.4564
 6737SOL     OW21109   6.451   0.934   2.042  0.0898 -0.8849  0.3831
 6737SOL    HW121110   6.357   0.963   2.058  0.0594 -0.6135 -0.2405
 6737SOL    HW221111   6.475   0.860   2.104 -0.4524 -0.7816  0.7161
 6738SOL     OW21112   1.198   4.897   6.904  0.2696  0.0040  0.2769
 6738SOL    HW121113   1.112   4.849   6.915  0.9287 -0.9709  1.3649
 6738SOL    HW221114   1.274   4.838   6.930  1.1767  1.3119  0.7377
 6739SOL     OW21115   1.430   5.650   6.209 -0.0415 -0.6103 -0.2692
 6739SOL    HW121116   1.419   5.653   6.309  1.2208  2.1817 -0.1115
 6739SOL    HW221117   1.350   5.693   6.166 -0.0204 -0.7045 -0.4023
 6740SOL     OW21118   2.519   6.865   4.435 -0.3220 -0.1153  0.1601
 6740SOL    HW121119   2.608   6.822   4.421  0.6505  1.2998  1.6417
 6740SOL    HW221120   2.453   6.796   4.463  0.5785 -1.0297  0.0766
 6741SOL     OW21121   2.506   0.220   6.349  0.1212  0.1955  0.0134
 6741SOL    HW121122   2.455   0.194   6.267  0.2694 -0.0735  0.0037
 6741SOL    HW221123   2.587   0.274   6.323  0.7122 -0.7186 -0.1077
 6742SOL     OW21124   3.484   4.106   5.176  0.1234  0.2267  0.0767
 6742SOL    HW121125   3.462   4.088   5.080  0.6499 -1.6683  0.2702
 6742SOL    HW221126   3.573   4.152   5.181 -0.4937  1.5371 -0.3669
 6743SOL     OW21127   0.194   4.689   3.240 -0.1042 -0.5049 -0.0194
 6743SOL    HW121128   0.271   4.687   3.176  0.6408 -1.9293  0.8902
 6743SOL    HW221129   0.171   4.784   3.260 -0.4135 -0.0006 -2.4331
 6744SOL     OW21130   3.161   4.289   1.051  0.1117  0.7463 -0.0406
 6744SOL    HW121131   3.208   4.205   1.076 -1.9679 -0.2999  0.6206
 6744SOL    HW221132   3.192   4.365   1.109  0.6913  0.0117  0.6181
 6745SOL     OW21133   6.572   4.757   2.134 -0.6666  0.0459  0.7162
 6745SOL    HW121134   6.487   4.708   2.153 -1.0722  0.2886 -0.4182
 6745SOL    HW221135   6.647   4.691   2.129 -1.0550 -0.3524  0.1182
 6746SOL     OW21136   3.137   4.087   1.838  0.1410 -0.2987  0.2925
 6746SOL    HW121137   3.199   4.075   1.761 -0.7357 -0.0087 -0.4800
 6746SOL    HW221138   3.071   4.159   1.816  0.6368  0.6664  1.8083
 6747SOL     OW21139   3.057   3.603   4.901  0.6704  0.2397 -0.1491
 6747SOL    HW121140   3.136   3.542   4.892  1.5327  1.3218 -0.1164
 6747SOL    HW221141   3.018   3.593   4.993 -1.2502 -2.6256 -1.1321
 6748SOL     OW21142   6.439   5.586   3.517 -0.5318 -0.1954  0.3585
 6748SOL    HW121143   6.356   5.628   3.554 -0.1022  1.3761 -0.3611
 6748SOL    HW221144   6.414   5.517   3.450 -1.2827 -1.8551  2.2631
 6749SOL     OW21145   0.578   6.915   4.934  0.2081  0.2962  1.0150
 6749SOL    HW121146   0.596   6.867   4.848 -0.3860  2.0175 -0.1244
 6749SOL    HW221147   0.639   6.879   5.005 -2.8399 -5.0319  1.4934
 6750SOL     OW21148   0.633   3.975   1.045  0.1127  0.5247  0.2882
 6750SOL    HW121149   0.594   3.972   0.953  2.0533  0.5258 -0.5711
 6750SOL    HW221150   0.717   3.921   1.048  0.8801  1.7063  1.6726
 6751SOL     OW21151   5.023   5.973   3.189 -0.2509  0.1642 -0.0497
 6751SOL    HW121152   5.045   6.055   3.136 -2.3892  0.5281 -0.4716
 6751SOL    HW221153   5.024   5.893   3.130  0.7123  0.0334  0.1230
 6752SOL     OW21154   2.107   5.038   4.716  0.3296 -0.1037 -0.3085
 6752SOL    HW121155   2.014   5.056   4.684  0.6285  0.4200 -0.9042
 6752SOL    HW221156   2.112   5.056   4.815 -0.7497 -2.3499  0.2219
 6753SOL     OW21157   0.723   6.381   5.502  0.7103  0.2990  0.0137
 6753SOL    HW121158   0.711   6.427   5.414 -0.4068 -0.7909 -0.4270
 6753SOL    HW221159   0.667   6.427   5.571 -1.4232 -1.0734 -0.7039
 6754SOL     OW21160   1.976   0.634   1.113 -0.0307 -0.1949  0.1607
 6754SOL    HW121161   1.962   0.704   1.043  1.1286  0.4334  0.5239
 6754SOL    HW221162   1.948   0.545   1.078 -0.2443  0.2431 -0.7957
 6755SOL     OW21163   5.177   0.072   3.281 -0.0051 -0.5480 -0.6814
 6755SOL    HW121164   5.121  -0.010   3.273 -0.5330 -0.2629 -0.0137
 6755SOL    HW221165   5.219   0.093   3.193 -0.7016 -0.9442 -1.1105
 6756SOL     OW21166   4.867   3.601   3.922  0.3380 -0.0663  0.3494
 6756SOL    HW121167   4.901   3.584   3.830  1.0032  0.7515  0.4376
 6756SOL    HW221168   4.845   3.698   3.933  3.2197  0.5035  1.9847
 6757SOL     OW21169   1.088   5.480   2.865  0.3385 -0.2597 -0.0747
 6757SOL    HW121170   1.101   5.412   2.937  1.3974 -0.5396 -0.5077
 6757SOL    HW221171   1.042   5.437   2.787 -1.2857  0.1716  0.5997
 6758SOL     OW21172   4.704   4.863   0.589  0.4782  0.2750 -0.2692
 6758SOL    HW121173   4.630   4.895   0.648 -0.6612 -0.9224 -0.9867
 6758SOL    HW221174   4.792   4.888   0.628 -0.3006  1.7771  0.5895
 6759SOL     OW21175   5.856   5.001   1.941  0.3511 -0.1151 -0.2665
 6759SOL    HW121176   5.813   5.032   1.856 -0.5050 -2.2232 -0.6422
 6759SOL    HW221177   5.933   4.941   1.919  0.7359  0.0901  0.4705
 6760SOL     OW21178   3.689   2.176   1.188 -0.0634 -0.5435 -0.3853
 6760SOL    HW121179   3.774   2.132   1.216 -0.6877 -1.3505  0.2715
 6760SOL    HW221180   3.706   2.232   1.107  1.9494  2.2734  1.7366
 6761SOL     OW21181   4.714   5.314   1.780  0.1840 -0.4289 -0.6107
 6761SOL    HW121182   4.703   5.244   1.851  1.6990 -0.2261 -0.1273
 6761SOL    HW221183   4.712   5.270   1.690  2.5568 -1.4057 -0.2795
 6762SOL     OW21184   3.427   0.254   5.895  0.5998 -0.8384 -0.2408
 6762SOL    HW121185   3.501   0.270   5.961  1.9493 -0.8660 -1.6692
 6762SOL    HW221186   3.359   0.327   5.901  0.8161 -0.7316  1.0125
 6763SOL     OW21187   6.550   6.012   0.880 -0.0183 -0.3308  0.3293
 6763SOL    HW121188   6.620   6.047   0.819 -2.3283  0.9205 -1.7738
 6763SOL    HW221189   6.533   5.915   0.860 -1.0061  0.1573 -1.3686
 6764SOL     OW21190   5.114   1.089   4.553  0.1386 -0.4548 -0.1721
 6764SOL    HW121191   5.046   1.071   4.482 -0.4022  0.9679 -0.0534
 6764SOL    HW221192   5.069   1.125   4.634  1.1293  2.2632 -0.7127
 6765SOL     OW21193   5.220   0.341   2.866  0.0092 -0.5095  0.0891
 6765SOL    HW121194   5.192   0.425   2.913  1.2215  0.9246 -1.6340
 6765SOL    HW221195   5.319   0.343   2.851 -0.3700 -0.5664 -3.0305
 6766SOL     OW21196   5.241   5.086   0.696  0.1498 -0.7541 -0.1668
 6766SOL    HW121197   5.319   5.139   0.731  0.8688 -0.9419 -1.4080
 6766SOL    HW221198   5.212   5.125   0.608 -0.8892 -0.9555  0.0780
 6767SOL     OW21199   1.139   2.909   3.798  0.0165  0.3874 -0.1486
 6767SOL    HW121200   1.226   2.908   3.847  0.4380  0.6276 -0.8792
 6767SOL    HW221201   1.121   3.001   3.764  0.9278 -0.2417 -2.5223
 6768SOL     OW21202   6.670   6.241   1.639  0.3305  0.0154 -0.0694
 6768SOL    HW121203   6.607   6.299   1.588  0.5897  0.6366  0.3162
 6768SOL    HW221204   6.740   6.205   1.578  1.2827  1.6250  0.0310
 6769SOL     OW21205   3.762   5.211   5.997 -0.4536 -0.8477 -0.1318
 6769SOL    HW121206   3.685   5.254   6.045 -1.4418 -0.3501 -2.0582
 6769SOL    HW221207   3.793   5.271   5.924  1.6221 -1.1813  0.4194
 6770SOL     OW21208   1.350   5.751   3.063  0.2853  0.1706  0.8172
 6770SOL    HW121209   1.266   5.774   3.013 -0.1497  0.7603  1.7942
 6770SOL    HW221210   1.395   5.835   3.092  0.1260 -0.1689  2.0710
 6771SOL     OW21211   4.102   6.444   3.894  0.2868  0.2010  0.3445
 6771SOL    HW121212   4.054   6.377   3.951 -0.0792  0.9208  0.8995
 6771SOL    HW221213   4.095   6.535   3.936  1.3487  0.4804 -0.0422
 6772SOL     OW21214   2.686   2.021   2.349  0.2257  0.3137  0.5131
 6772SOL    HW121215   2.622   2.003   2.423  1.6377 -1.1032  1.4420
 6772SOL    HW221216   2.715   2.117   2.353 -2.7436  1.3909 -0.7445
 6773SOL     OW21217   4.689   3.969   5.965  0.1344 -0.4980 -0.1609
 6773SOL    HW121218   4.633   3.892   5.994 -1.5541  1.3923  1.9977
 6773SOL    HW221219   4.652   4.054   6.003  1.8573  1.4435 -2.4535
 6774SOL     OW21220   6.111   1.892   4.362  0.0917  0.1217 -0.1303
 6774SOL    HW121221   6.070   1.982   4.376 -0.4560 -0.0873 -0.3675
 6774SOL    HW221222   6.192   1.883   4.420 -0.7874  0.1421  1.1376
 6775SOL     OW21223   2.561   5.859   0.641 -0.5936  0.2466 -0.0354
 6775SOL    HW121224   2.653   5.859   0.602 -0.2785 -1.2982  0.6267
 6775SOL    HW221225   2.507   5.933   0.601  0.2689 -0.1432 -2.0276
 6776SOL     OW21226   1.843   1.011   3.168  0.4982 -0.1343  0.0223
 6776SOL    HW121227   1.877   1.099   3.200  1.0300 -0.8097  1.4216
 6776SOL    HW221228   1.873   0.996   3.074  2.0465  0.3516  0.4058
 6777SOL     OW21229   4.147   4.757   2.279  0.0117  0.3402  0.1071
 6777SOL    HW121230   4.196   4.756   2.192  0.3539 -1.1515  0.2875
 6777SOL    HW221231   4.164   4.672   2.328 -0.1283  1.1734  1.6790
 6778SOL     OW21232   1.941   1.434   0.886 -0.0486  0.5305  0.4487
 6778SOL    HW121233   1.864   1.434   0.822  1.8609  0.2659 -1.9705
 6778SOL    HW221234   1.941   1.348   0.938 -2.2451  1.2077  1.7023
 6779SOL     OW21235   2.310   4.690   3.325 -0.5077 -0.0999 -0.1790
 6779SOL    HW121236   2.403   4.660   3.308 -0.3569  0.2936 -0.0610
 6779SOL    HW221237   2.310   4.762   3.395 -0.6543  1.4337 -1.6787
 6780SOL     OW21238   0.562   4.536   5.708 -0.4165  0.4734 -0.4673
 6780SOL    HW121239   0.633   4.600   5.738  1.9719 -1.0004 -2.6110
 6780SOL    HW221240   0.560   4.458   5.770  0.3966  0.1551 -0.8356
 6781SOL     OW21241   2.372   1.030   1.780  0.2721 -0.3341 -0.1481
 6781SOL    HW121242   2.356   0.932   1.770 -0.1584 -0.2955  0.1345
 6781SOL    HW221243   2.469   1.050   1.768  0.2306 -0.6765 -1.1160
 6782SOL     OW21244   6.193   4.822   4.809 -0.2850  0.0381  0.5743
 6782SOL    HW121245   6.127   4.896   4.823 -0.4442  0.0179 -0.0517
 6782SOL    HW221246   6.278   4.859   4.771 -0.7479 -0.2329 -0.7633
 6783SOL     OW21247   5.839   2.818   3.905 -0.6115  0.7010 -0.3127
 6783SOL    HW121248   5.906   2.803   3.832  1.5550 -1.4075  1.9104
 6783SOL    HW221249   5.747   2.814   3.867  0.4138  0.1532 -2.9647
 6784SOL     OW21250   4.035   4.104   6.419 -0.1445 -0.7514  0.6760
 6784SOL    HW121251   4.106   4.034   6.424  1.6277  0.9216  0.2696
 6784SOL    HW221252   4.047   4.169   6.495  0.0717  0.6761 -0.5344
 6785SOL     OW21253   6.437   5.607   5.579 -0.1760  0.6350  0.3244
 6785SOL    HW121254   6.481   5.689   5.616 -0.7760  0.5889  1.1650
 6785SOL    HW221255   6.344   5.599   5.615 -0.7611  0.5264 -1.1338
 6786SOL     OW21256   5.174   4.435   6.253 -0.0169 -0.1890  0.4266
 6786SOL    HW121257   5.098   4.489   6.216 -0.9811 -1.6935  0.1201
 6786SOL    HW221258   5.181   4.450   6.351 -0.7223 -0.0303  0.4596
 6787SOL     OW21259   0.310   3.449   4.101 -0.2989 -0.4075  0.0106
 6787SOL    HW121260   0.361   3.364   4.093  1.1360  0.5074 -1.0891
 6787SOL    HW221261   0.270   3.472   4.012 -1.6099 -0.4671  0.5623
 6788SOL     OW21262   3.245   0.431   5.981  0.1773  0.7884  0.4524
 6788SOL    HW121263   3.242   0.437   6.081  1.5390  2.3139  0.4511
 6788SOL    HW221264   3.227   0.522   5.942 -1.8631 -0.0736 -0.7824
 6789SOL     OW21265   1.560   0.403   6.509  0.3087 -0.3978 -0.0579
 6789SOL    HW121266   1.651   0.363   6.521 -0.0593 -1.2377 -0.0796
 6789SOL    HW221267   1.497   0.366   6.577 -0.6119 -1.6405 -1.5242
 6790SOL     OW21268   2.782   6.150   1.217  0.1635 -0.0855 -0.2435
 6790SOL    HW121269   2.795   6.072   1.156  0.4715  0.3371 -0.7251
 6790SOL    HW221270   2.736   6.223   1.168  2.8149  1.3134 -0.8472
 6791SOL     OW21271   0.904   5.192   4.288 -0.0193  0.4227 -0.2836
 6791SOL    HW121272   1.000   5.172   4.270 -0.0632  0.9024 -1.0959
 6791SOL    HW221273   0.847   5.151   4.217 -0.3875  0.4808 -0.0275
 6792SOL     OW21274   0.022   0.500   0.526 -0.0721  0.0800 -0.0758
 6792SOL    HW121275   0.063   0.433   0.587 -0.7690  0.7992  1.2107
 6792SOL    HW221276   0.060   0.488   0.434  1.1271 -0.9002  0.5137
 6793SOL     OW21277   3.741   3.417   6.029  0.4549 -0.4077 -0.2522
 6793SOL    HW121278   3.775   3.424   5.935 -2.4538 -1.3342 -1.5252
 6793SOL    HW221279   3.671   3.488   6.044 -0.9479 -1.8382  0.2708
 6794SOL     OW21280   1.074   3.761   6.081  0.3564  0.3573 -0.0303
 6794SOL    HW121281   1.063   3.667   6.048 -0.9893  0.2262  0.7160
 6794SOL    HW221282   1.024   3.824   6.021 -2.1371  0.1119  1.6580
 6795SOL     OW21283   3.586   5.094   6.678 -0.5173  0.3338  0.5744
 6795SOL    HW121284   3.502   5.149   6.687 -0.2615  0.9813 -0.8676
 6795SOL    HW221285   3.649   5.138   6.615  0.0660 -1.1808  0.0448
 6796SOL     OW21286   1.926   4.391   5.211  0.3132 -0.1697 -0.0278
 6796SOL    HW121287   2.018   4.379   5.175 -0.0634  1.8372 -1.8237
 6796SOL    HW221288   1.928   4.458   5.285  0.3113 -0.2138  0.0121
 6797SOL     OW21289   5.014   4.061   0.644  0.1295  0.0075 -0.5835
 6797SOL    HW121290   5.058   4.084   0.731 -2.9625  0.9218  0.8900
 6797SOL    HW221291   4.980   4.145   0.601 -0.0140 -0.6257 -1.7458
 6798SOL     OW21292   3.949   0.380   6.640 -0.2567  0.5368  0.0899
 6798SOL    HW121293   4.004   0.342   6.566 -0.4087  1.3500 -0.4559
 6798SOL    HW221294   4.006   0.441   6.695 -0.6703  1.6190 -0.6581
 6799SOL     OW21295   0.418   3.556   1.596 -0.3908 -0.2833 -0.2431
 6799SOL    HW121296   0.416   3.471   1.649  1.8369  0.6515  1.5301
 6799SOL    HW221297   0.511   3.571   1.563 -0.9010  1.1518 -1.0817
 6800SOL     OW21298   1.335   3.953   2.178 -0.2202  0.0852 -0.2359
 6800SOL    HW121299   1.311   3.907   2.093 -1.0130 -0.9387  0.5010
 6800SOL    HW221300   1.262   4.016   2.204 -0.8536 -0.9212  0.5544
 6801SOL     OW21301   0.240   3.116   4.079 -0.2785 -0.4300 -0.1601
 6801SOL    HW121302   0.227   3.192   4.015  0.6235 -0.9768 -1.0077
 6801SOL    HW221303   0.293   3.044   4.036 -1.4009 -1.7119  0.5148
 6802SOL     OW21304   1.779   2.226   5.910 -0.4954 -0.6193 -0.4028
 6802SOL    HW121305   1.680   2.241   5.917 -0.7713 -2.4400  0.0044
 6802SOL    HW221306   1.805   2.145   5.963  1.3109  0.1087 -0.0909
 6803SOL     OW21307   4.880   5.436   3.594 -0.2183  0.7620  0.5160
 6803SOL    HW121308   4.799   5.462   3.541 -0.4563 -1.1058 -0.1064
 6803SOL    HW221309   4.924   5.357   3.551  0.8617  0.5752  1.8914
 6804SOL     OW21310   5.557   2.072   5.328  0.3821  0.4797  0.4463
 6804SOL    HW121311   5.591   1.978   5.336  0.1852  0.3425 -0.2460
 6804SOL    HW221312   5.550   2.113   5.419  1.5779  0.2202  0.6778
 6805SOL     OW21313   4.107   4.745   1.517 -0.3384  0.4354 -0.3055
 6805SOL    HW121314   4.025   4.695   1.546 -0.3799  0.5886 -0.1564
 6805SOL    HW221315   4.090   4.844   1.523 -0.9953  0.5234 -2.6191
 6806SOL     OW21316   1.713   0.655   1.887  0.0801 -0.3362  0.0080
 6806SOL    HW121317   1.654   0.579   1.858  0.2826 -1.1494  1.6241
 6806SOL    HW221318   1.768   0.685   1.809 -0.1554 -1.7080 -0.7372
 6807SOL     OW21319   5.643   2.000   4.923 -0.2818 -0.3218  0.2811
 6807SOL    HW121320   5.588   2.055   4.986  0.8577  0.7336  0.4028
 6807SOL    HW221321   5.734   1.986   4.963  1.2902  2.3386 -1.9930
 6808SOL     OW21322   6.276   6.105   0.954  0.1974 -0.4716 -0.2968
 6808SOL    HW121323   6.370   6.080   0.927  0.2381  0.0168 -0.6104
 6808SOL    HW221324   6.233   6.026   0.998  0.3198 -1.1238 -1.2923
 6809SOL     OW21325   5.152   5.051   1.422  0.1710 -0.1726 -0.2030
 6809SOL    HW121326   5.211   5.129   1.444  1.7370 -1.2617 -0.3655
 6809SOL    HW221327   5.085   5.038   1.495  0.7017  0.5760  0.4324
 6810SOL     OW21328   5.189   6.503   1.977  0.2647 -0.1211 -0.3261
 6810SOL    HW121329   5.114   6.484   1.915 -1.4058  1.4296  1.1188
 6810SOL    HW221330   5.273   6.516   1.924 -0.8673  0.1078 -2.1565
 6811SOL     OW21331   5.344   0.297   0.002  0.0180 -0.1212  0.0761
 6811SOL    HW121332   5.423   0.238   0.016  1.5872  1.0623 -2.8228
 6811SOL    HW221333   5.366   0.390   0.031 -0.0499  0.3223 -1.2025
 6812SOL     OW21334   2.133   6.619   6.841 -0.7103 -0.7948  0.0840
 6812SOL    HW121335   2.054   6.566   6.810 -1.4506  1.2588 -1.7819
 6812SOL    HW221336   2.209   6.606   6.778 -1.4430  1.5368 -1.3990
 6813SOL     OW21337   5.023   3.923   6.857  0.1182  0.0466 -0.4757
 6813SOL    HW121338   5.015   3.864   6.777 -1.5461 -1.0210  0.4259
 6813SOL    HW221339   4.941   3.978   6.867  0.7922  1.0287 -0.1385
 6814SOL     OW21340   3.944   5.633   0.709  0.1871 -0.1880  0.2682
 6814SOL    HW121341   4.040   5.614   0.691  0.1432  0.8679 -1.2747
 6814SOL    HW221342   3.928   5.732   0.708 -0.8879 -0.3401  0.6508
 6815SOL     OW21343   6.800   3.214   1.609 -0.2175  0.2241 -0.4058
 6815SOL    HW121344   6.861   3.216   1.688  0.1047  0.5248 -0.6564
 6815SOL    HW221345   6.721   3.156   1.629 -0.9530  1.5649  0.7218
 6816SOL     OW21346   4.517   3.737   6.010 -0.2746  0.5350 -0.3734
 6816SOL    HW121347   4.524   3.642   5.979  0.1219  0.9578 -1.6346
 6816SOL    HW221348   4.536   3.741   6.108 -0.1713 -0.6684 -0.3278
 6817SOL     OW21349   1.479   1.936   0.168 -0.0710 -0.2516  0.1978
 6817SOL    HW121350   1.439   1.998   0.235  0.1836  1.0703 -0.8303
 6817SOL    HW221351   1.429   1.943   0.082 -0.9675 -2.6037  0.4694
 6818SOL     OW21352   2.837   2.507   1.337  0.4244  0.5674  0.3804
 6818SOL    HW121353   2.899   2.481   1.263 -0.2059 -0.8859  0.3178
 6818SOL    HW221354   2.860   2.599   1.369  1.0607  1.0155 -1.2384
 6819SOL     OW21355   5.218   2.711   5.705  0.0630 -0.2763  0.4369
 6819SOL    HW121356   5.304   2.684   5.748 -0.1247 -1.6305  0.0235
 6819SOL    HW221357   5.170   2.776   5.763  0.6792 -0.6371  1.3717
 6820SOL     OW21358   4.818   3.303   6.599 -0.0041  0.4411 -0.1476
 6820SOL    HW121359   4.730   3.265   6.627 -0.3329  1.3828  0.0990
 6820SOL    HW221360   4.806   3.360   6.518  0.4335  0.3020 -0.3150
 6821SOL     OW21361   1.014   1.143   1.927 -0.9078 -0.1617  0.2982
 6821SOL    HW121362   0.949   1.095   1.868  0.0623  0.9333 -1.7895
 6821SOL    HW221363   1.097   1.088   1.936 -0.8322 -0.0716  0.1534
 6822SOL     OW21364   5.294   6.032   1.165  0.3893  0.1423 -0.8170
 6822SOL    HW121365   5.284   6.131   1.155  0.3627  0.0439 -1.8460
 6822SOL    HW221366   5.228   5.985   1.106  0.2034 -0.4981 -0.1234
 6823SOL     OW21367   2.265   0.400   5.124 -0.1025 -0.3334 -0.0189
 6823SOL    HW121368   2.212   0.317   5.140  1.3673 -1.6120 -1.3820
 6823SOL    HW221369   2.322   0.419   5.204 -1.0480 -0.1401  0.6237
 6824SOL     OW21370   6.255   1.554   1.186  0.3616 -0.0665 -0.4983
 6824SOL    HW121371   6.198   1.631   1.213  0.2295 -0.5336  0.5984
 6824SOL    HW221372   6.304   1.576   1.101  1.4464  1.7882  0.5457
 6825SOL     OW21373   1.564   4.786   0.943  0.1192  0.2832 -0.5266
 6825SOL    HW121374   1.533   4.691   0.949  2.5361 -0.4996  0.6586
 6825SOL    HW221375   1.604   4.803   0.854 -0.7413  0.3655 -0.9111
 6826SOL     OW21376   6.507   6.679   0.978 -0.0636 -0.1605  0.8895
 6826SOL    HW121377   6.479   6.774   0.986  0.8022  0.1499  0.3026
 6826SOL    HW221378   6.490   6.647   0.884  1.1842 -0.0730  0.6164
 6827SOL     OW21379   6.740   5.256   6.440  0.2489  0.3345 -0.1127
 6827SOL    HW121380   6.755   5.184   6.372  0.5150 -0.3144  0.6174
 6827SOL    HW221381   6.642   5.268   6.456  0.1168  1.3448 -1.4900
 6828SOL     OW21382   2.798   4.146   6.895  0.2242  0.5500 -0.7429
 6828SOL    HW121383   2.893   4.116   6.889 -0.3718 -1.6538 -0.3509
 6828SOL    HW221384   2.738   4.071   6.864 -1.4787  0.9774  1.3067
 6829SOL     OW21385   1.296   4.018   6.552 -0.0034 -0.0335  0.3153
 6829SOL    HW121386   1.261   4.096   6.501 -2.0617 -1.8282 -1.1989
 6829SOL    HW221387   1.266   4.023   6.647 -1.7188  0.1297 -0.2051
 6830SOL     OW21388   3.739   4.938   3.594  0.1706  0.0774  0.3823
 6830SOL    HW121389   3.820   4.900   3.639 -0.2022 -2.2185 -0.7589
 6830SOL    HW221390   3.732   4.903   3.501 -1.5817  1.0575  0.0960
 6831SOL     OW21391   1.556   0.129   6.335 -0.5772  0.4122  0.4248
 6831SOL    HW121392   1.654   0.147   6.329 -0.3049 -0.6880  1.2653
 6831SOL    HW221393   1.520   0.167   6.420 -1.1957  2.0624 -0.5252
 6832SOL     OW21394   1.013   6.085   5.506 -0.0338 -0.1435 -0.5332
 6832SOL    HW121395   0.964   6.135   5.577  1.9941  1.7491 -0.3635
 6832SOL    HW221396   0.973   6.107   5.417 -1.2271 -0.8723 -0.2135
 6833SOL     OW21397   0.633   1.131   1.199 -0.0041  0.1832 -0.0585
 6833SOL    HW121398   0.657   1.208   1.259 -0.1950  0.6607 -0.5897
 6833SOL    HW221399   0.698   1.125   1.124 -0.5577  0.4267 -0.5577
 6834SOL     OW21400   0.538   4.956   6.298 -0.4164  0.3876 -0.3009
 6834SOL    HW121401   0.565   5.008   6.379 -0.2187  0.2196 -0.2586
 6834SOL    HW221402   0.550   5.014   6.217  1.3603 -0.1037 -0.4261
 6835SOL     OW21403   0.515   6.546   2.973  0.3173  0.3872 -0.1943
 6835SOL    HW121404   0.433   6.593   3.006  0.1632 -0.0708  0.0819
 6835SOL    HW221405   0.542   6.476   3.039  1.8692  1.5993  0.5176
 6836SOL     OW21406   2.113   1.196   5.128  0.2055 -0.3792 -0.2759
 6836SOL    HW121407   2.036   1.156   5.078  0.6438 -0.6603 -0.7345
 6836SOL    HW221408   2.142   1.134   5.201 -0.7828  0.2661  0.7149
 6837SOL     OW21409   1.283   3.331   3.983  0.0642 -0.0515  0.0371
 6837SOL    HW121410   1.199   3.315   4.035 -0.1775  0.3705 -0.2188
 6837SOL    HW221411   1.361   3.336   4.046 -0.0539 -0.7696  0.2477
 6838SOL     OW21412   5.566   0.107   0.918  0.0770  0.4985  0.5661
 6838SOL    HW121413   5.555   0.020   0.966  0.6591 -0.1946 -0.5111
 6838SOL    HW221414   5.476   0.141   0.890 -0.3104  1.0964  2.3982
 6839SOL     OW21415   5.480   6.866   4.650  0.1323 -0.1788 -0.0515
 6839SOL    HW121416   5.459   6.959   4.619  2.2313 -0.2124 -1.7252
 6839SOL    HW221417   5.394   6.818   4.671 -1.0256  1.8588  0.1307
 6840SOL     OW21418   0.668   4.618   6.635 -0.1257 -0.1523  0.1872
 6840SOL    HW121419   0.729   4.685   6.592 -0.6652 -0.0155 -0.3780
 6840SOL    HW221420   0.723   4.550   6.683  0.4569  0.2581  0.1219
 6841SOL     OW21421   1.288   6.133   4.016 -0.4649  0.5699  0.1951
 6841SOL    HW121422   1.351   6.170   3.947  1.1570  0.5164  1.5893
 6841SOL    HW221423   1.209   6.094   3.970  1.0731 -0.4883 -1.7352
 6842SOL     OW21424   0.577   2.286   3.197 -0.4367 -0.1660 -0.3077
 6842SOL    HW121425   0.501   2.258   3.138 -0.7568  0.2069 -0.0761
 6842SOL    HW221426   0.569   2.383   3.218  0.9848  0.2801 -1.5995
 6843SOL     OW21427   6.638   2.034   6.734 -0.3452  0.1927 -0.0619
 6843SOL    HW121428   6.664   1.991   6.647 -0.5280  1.0106 -0.5353
 6843SOL    HW221429   6.685   1.988   6.809 -1.9678 -2.0506 -0.3473
 6844SOL     OW21430   2.809   6.072   6.608 -0.2352 -0.3030 -0.4379
 6844SOL    HW121431   2.788   6.105   6.516  2.0488  0.7972 -0.6355
 6844SOL    HW221432   2.783   6.141   6.675  0.1561 -0.1230 -0.4648
 6845SOL     OW21433   0.299   5.859   5.560 -0.1645  0.0607  0.1637
 6845SOL    HW121434   0.237   5.929   5.526 -0.9581 -0.1990  1.0363
 6845SOL    HW221435   0.382   5.902   5.595  0.8768  0.3183 -2.3916
 6846SOL     OW21436   4.961   1.616   6.164 -0.4235  0.0916  0.4483
 6846SOL    HW121437   4.910   1.654   6.086 -1.6774 -0.1338  1.1360
 6846SOL    HW221438   4.897   1.593   6.237  0.6503 -0.5319  1.2083
 6847SOL     OW21439   5.956   1.621   2.661  0.4263  0.2251 -0.7575
 6847SOL    HW121440   5.866   1.579   2.674  1.6048 -2.1614  0.3426
 6847SOL    HW221441   5.976   1.680   2.739  0.3738 -0.3950 -0.2574
 6848SOL     OW21442   3.484   5.759   6.309 -0.2183  0.3366  0.7151
 6848SOL    HW121443   3.536   5.842   6.330  1.5899 -0.4674 -0.2948
 6848SOL    HW221444   3.504   5.689   6.377  0.9273 -0.3223 -0.2610
 6849SOL     OW21445   2.431   4.110   1.782 -0.1719  0.4581 -0.3506
 6849SOL    HW121446   2.483   4.196   1.786 -1.8374  1.4781  1.7006
 6849SOL    HW221447   2.335   4.131   1.763 -0.7663 -0.8526  1.0242
 6850SOL     OW21448   6.386   0.892   2.913 -0.0795  0.1603 -0.2544
 6850SOL    HW121449   6.388   0.984   2.954 -2.1187  0.4179 -0.6241
 6850SOL    HW221450   6.403   0.824   2.983 -2.6177  0.6400  0.9184
 6851SOL     OW21451   3.265   4.946   5.626  0.3470  0.4732  0.6232
 6851SOL    HW121452   3.272   4.902   5.715 -0.5897 -1.8900 -0.3971
 6851SOL    HW221453   3.247   5.044   5.639 -1.5130 -0.0756  3.0459
 6852SOL     OW21454   4.749   4.450   0.263  0.6329  0.0413  0.1544
 6852SOL    HW121455   4.694   4.485   0.187  0.9417 -0.1817 -0.1758
 6852SOL    HW221456   4.716   4.489   0.349  0.3872  0.4272 -0.1108
 6853SOL     OW21457   0.445   1.396   3.496  0.0229 -0.0839  0.0857
 6853SOL    HW121458   0.470   1.458   3.569  0.6704  0.1741 -0.3483
 6853SOL    HW221459   0.436   1.447   3.410 -0.2245 -0.4604 -0.1175
 6854SOL     OW21460   3.197   6.409   5.291  0.4034 -0.6008 -0.3145
 6854SOL    HW121461   3.283   6.428   5.338 -0.8572  4.4157  0.5223
 6854SOL    HW221462   3.193   6.462   5.206 -2.5198  0.9355  0.6580
 6855SOL     OW21463   2.580   3.131   0.811  0.0631 -0.1190  0.1456
 6855SOL    HW121464   2.565   3.039   0.846  2.0573 -0.3311  0.5927
 6855SOL    HW221465   2.639   3.127   0.730  0.2377  0.7674  0.2158
 6856SOL     OW21466   1.502   3.948   3.244  0.1625  0.1006 -0.2034
 6856SOL    HW121467   1.514   4.048   3.249  0.0978  0.2533 -2.3246
 6856SOL    HW221468   1.592   3.905   3.234  0.1676 -0.0551  0.4537
 6857SOL     OW21469   6.696   6.605   1.826  0.0519 -0.0698 -0.2667
 6857SOL    HW121470   6.695   6.517   1.872  0.0924  0.5756  1.0068
 6857SOL    HW221471   6.658   6.595   1.734 -0.7838 -1.2239  0.1848
 6858SOL     OW21472   4.168   4.869   6.937 -0.0903  0.2684  0.7643
 6858SOL    HW121473   4.092   4.804   6.939  1.1823 -1.2652  0.8826
 6858SOL    HW221474   4.217   4.866   7.024 -0.0012  1.4033  0.7700
 6859SOL     OW21475   0.335   0.747   1.141  0.1062 -0.7177 -0.2672
 6859SOL    HW121476   0.332   0.844   1.165  0.7575 -0.6543 -0.4373
 6859SOL    HW221477   0.406   0.701   1.194  0.4276 -0.9141 -0.8582
 6860SOL     OW21478   6.416   4.011   2.863  0.1401  0.0314  0.3598
 6860SOL    HW121479   6.467   4.010   2.777 -0.3584 -0.4933  0.0582
 6860SOL    HW221480   6.416   3.920   2.903 -1.5603 -0.2933 -0.2705
 6861SOL     OW21481   1.069   3.415   6.365 -0.3498 -0.4718  0.4846
 6861SOL    HW121482   1.095   3.509   6.342  2.4715 -1.4058 -0.4947
 6861SOL    HW221483   1.108   3.390   6.454 -1.2350 -0.6810  0.8243
 6862SOL     OW21484   0.665   4.635   3.586 -0.9370 -0.5592 -0.0743
 6862SOL    HW121485   0.765   4.645   3.582 -0.9611 -0.0016  0.5551
 6862SOL    HW221486   0.626   4.656   3.497 -0.6848  1.6349  0.2782
 6863SOL     OW21487   3.964   1.985   5.836  0.4666 -0.0726  0.2750
 6863SOL    HW121488   3.979   2.042   5.755  2.4614  0.5989  1.0579
 6863SOL    HW221489   3.915   1.902   5.810  1.5838 -0.1580 -1.7375
 6864SOL     OW21490   5.434   6.284   2.338  0.1628  0.2678  0.5898
 6864SOL    HW121491   5.364   6.255   2.403 -0.8702 -0.3583 -0.7398
 6864SOL    HW221492   5.511   6.221   2.341  0.0490  0.1499  1.0836
 6865SOL     OW21493   4.474   0.378   6.421 -0.5328  0.0367 -0.6523
 6865SOL    HW121494   4.376   0.376   6.398 -0.9508  2.0313  0.6644
 6865SOL    HW221495   4.492   0.313   6.494 -1.3296  1.0219  0.4633
 6866SOL     OW21496   0.453   2.087   4.385  0.5270  0.4878  0.4296
 6866SOL    HW121497   0.414   2.089   4.293  0.0984 -2.0336  0.4779
 6866SOL    HW221498   0.419   2.165   4.437  0.5355  1.7910 -1.4335
 6867SOL     OW21499   4.981   3.673   0.847 -0.2406  0.4138 -0.2295
 6867SOL    HW121500   5.062   3.685   0.904  0.6874 -0.3689 -1.3238
 6867SOL    HW221501   4.949   3.578   0.854 -0.3300  0.4053 -0.7103
 6868SOL     OW21502   6.348   0.452   1.056  0.7566 -0.1133  0.2479
 6868SOL    HW121503   6.395   0.368   1.082  0.1659 -0.4424  0.2708
 6868SOL    HW221504   6.315   0.444   0.962  2.9244  1.0885 -0.6893
 6869SOL     OW21505   6.218   4.444   1.404  0.4107  0.6612  0.1912
 6869SOL    HW121506   6.232   4.347   1.386  0.8590  0.9028 -0.7954
 6869SOL    HW221507   6.153   4.481   1.338 -2.5034  0.3154  2.5934
 6870SOL     OW21508   5.738   0.036   4.915 -0.1985  0.0787  0.2144
 6870SOL    HW121509   5.802   0.111   4.934 -0.8928  0.5015  0.9681
 6870SOL    HW221510   5.726   0.027   4.816  1.3600 -0.3183  0.0312
 6871SOL     OW21511   5.534   6.911   0.078 -0.3062  0.4883  0.8038
 6871SOL    HW121512   5.591   6.989   0.052 -1.3616  1.2257  0.6321
 6871SOL    HW221513   5.574   6.826   0.042 -0.3632  1.2037 -1.0227
 6872SOL     OW21514   3.055   2.203   4.757  0.2094  0.0512 -0.7406
 6872SOL    HW121515   2.961   2.170   4.747 -0.7013  2.8828 -2.5111
 6872SOL    HW221516   3.065   2.247   4.847  0.6625 -2.3576  0.4865
 6873SOL     OW21517   0.598   2.096   3.406 -0.0160  0.1101 -0.0456
 6873SOL    HW121518   0.561   2.013   3.446 -0.3829  0.5508  0.5555
 6873SOL    HW221519   0.569   2.103   3.310 -2.8776  1.1946  0.7967
 6874SOL     OW21520   4.187   2.830   1.363 -0.2429 -0.1923  0.4838
 6874SOL    HW121521   4.195   2.928   1.344 -0.6379 -0.3758 -0.7560
 6874SOL    HW221522   4.279   2.791   1.375  0.1541 -0.2014 -2.0778
 6875SOL     OW21523   5.423   5.900   6.524  0.3455 -0.2872 -0.2347
 6875SOL    HW121524   5.442   5.827   6.591  1.6962 -0.4945 -0.8055
 6875SOL    HW221525   5.492   5.897   6.452  1.0268  2.2024  0.2448
 6876SOL     OW21526   6.342   0.807   1.754 -0.2951  0.0105  0.3087
 6876SOL    HW121527   6.320   0.885   1.696 -3.1784 -0.5619  0.4822
 6876SOL    HW221528   6.365   0.840   1.846 -1.4606  0.7006  0.3741
 6877SOL     OW21529   1.721   3.376   4.721  0.1811  0.0971 -0.5335
 6877SOL    HW121530   1.668   3.452   4.685  0.6072 -0.7010 -3.0273
 6877SOL    HW221531   1.817   3.386   4.693  1.3116  1.0382  3.1206
 6878SOL     OW21532   6.324   1.999   0.555 -0.1835 -0.1402 -0.1758
 6878SOL    HW121533   6.326   1.904   0.523 -1.6309  0.2605 -1.5570
 6878SOL    HW221534   6.274   2.003   0.642  0.7498 -0.7549  0.4110
 6879SOL     OW21535   6.362   0.936   1.252 -0.4010  0.0910  0.2932
 6879SOL    HW121536   6.358   0.837   1.265  0.8749  0.0781  0.6824
 6879SOL    HW221537   6.348   0.958   1.156  1.0601 -0.5987 -0.0963
 6880SOL     OW21538   1.706   0.651   3.421 -0.3648  0.2742 -0.3872
 6880SOL    HW121539   1.700   0.571   3.361 -1.2453  0.4798 -0.5816
 6880SOL    HW221540   1.627   0.654   3.482  0.3318  0.2771  0.5358
 6881SOL     OW21541   6.594   4.356   2.498 -0.3781 -0.5933 -0.8533
 6881SOL    HW121542   6.597   4.256   2.498 -0.1076 -0.5980  0.3161
 6881SOL    HW221543   6.521   4.387   2.437 -1.1133 -1.5385 -0.4804
 6882SOL     OW21544   0.477   1.253   1.701  0.2634 -0.0265 -0.4116
 6882SOL    HW121545   0.568   1.241   1.662  1.3152 -1.7014  2.3258
 6882SOL    HW221546   0.475   1.336   1.758  0.4722 -0.6280  0.4898
 6883SOL     OW21547   6.307   5.849   0.176  0.1304 -0.2978  0.0784
 6883SOL    HW121548   6.260   5.804   0.101 -0.2671 -1.3103  0.9170
 6883SOL    HW221549   6.357   5.928   0.141 -0.0053 -0.7781 -1.2473
 6884SOL     OW21550   3.596   6.345   6.824  0.0422  0.2325 -0.1178
 6884SOL    HW121551   3.636   6.399   6.750  1.5105  1.0736  1.2275
 6884SOL    HW221552   3.651   6.263   6.839  1.3508  1.3966  1.7483
 6885SOL     OW21553   1.381   0.699   5.624  0.4556 -0.5235  0.4589
 6885SOL    HW121554   1.454   0.749   5.579  1.7085 -2.4546  0.2252
 6885SOL    HW221555   1.296   0.712   5.573  0.7814  1.0725  0.2552
 6886SOL     OW21556   5.961   0.194   5.006  0.0657 -0.4247  0.3080
 6886SOL    HW121557   5.965   0.293   4.990 -0.3671 -0.3969  0.3417
 6886SOL    HW221558   5.944   0.176   5.102  3.4615 -0.6155  0.9748
 6887SOL     OW21559   1.647   0.625   4.661  0.0346 -0.2586  0.1445
 6887SOL    HW121560   1.725   0.688   4.654 -2.0791  3.0747  3.1204
 6887SOL    HW221561   1.575   0.654   4.599 -1.6473  1.6536  2.7662
 6888SOL     OW21562   1.969   4.494   6.257  0.1061 -0.3886 -1.4308
 6888SOL    HW121563   1.891   4.432   6.244  0.0712 -0.8411  0.6591
 6888SOL    HW221564   2.015   4.473   6.343  0.9200  1.6264 -1.3153
 6889SOL     OW21565   6.836   6.276   3.840 -0.2691  0.3516  0.9264
 6889SOL    HW121566   6.773   6.271   3.763  0.0318  1.2792  0.6071
 6889SOL    HW221567   6.880   6.188   3.854  1.0913  0.6321 -1.1785
 6890SOL     OW21568   2.803   5.873   0.538  0.5650 -0.1359  0.2319
 6890SOL    HW121569   2.812   5.895   0.441 -0.7310 -1.0631 -0.1422
 6890SOL    HW221570   2.893   5.853   0.577  1.3122  2.0156 -0.3047
 6891SOL     OW21571   2.079   3.324   5.581 -0.1845  0.5332  0.4975
 6891SOL    HW121572   2.024   3.241   5.577  1.2313 -0.4229  0.1055
 6891SOL    HW221573   2.043   3.384   5.652 -1.5318 -0.1948  0.4511
 6892SOL     OW21574   0.368   3.793   5.506 -0.2091  0.1591  0.4436
 6892SOL    HW121575   0.278   3.827   5.534  0.6925  2.3562  0.8948
 6892SOL    HW221576   0.398   3.841   5.423  0.3532 -0.9158 -0.0043
 6893SOL     OW21577   6.216   4.009   1.063 -0.3617 -0.1204 -0.3283
 6893SOL    HW121578   6.163   3.924   1.060  0.0837 -0.3991 -0.3815
 6893SOL    HW221579   6.171   4.078   1.006  0.0125 -0.7488 -1.4048
 6894SOL     OW21580   3.228   1.272   0.372 -0.0422  0.2755  0.6340
 6894SOL    HW121581   3.240   1.366   0.339  1.4680 -0.3334 -0.6928
 6894SOL    HW221582   3.193   1.216   0.297 -3.7403  0.2567  2.1449
 6895SOL     OW21583   4.642   0.226   2.983  0.2263  0.0239  0.3530
 6895SOL    HW121584   4.681   0.205   3.072 -0.2276 -0.5712  0.4168
 6895SOL    HW221585   4.690   0.304   2.943  2.8981 -1.8973 -0.4842
 6896SOL     OW21586   1.782   0.303   6.603  0.3967 -0.6599  0.0238
 6896SOL    HW121587   1.851   0.232   6.587  1.0818  0.2006 -0.9377
 6896SOL    HW221588   1.786   0.333   6.698  1.5000 -0.4594 -0.0787
 6897SOL     OW21589   3.666   3.849   4.378  0.3826  0.2491  0.2026
 6897SOL    HW121590   3.576   3.866   4.339  0.3135 -2.2282 -0.9601
 6897SOL    HW221591   3.736   3.865   4.308  0.5158 -1.1528 -0.0250
 6898SOL     OW21592   4.920   2.607   1.439  0.0225  0.0798 -0.4098
 6898SOL    HW121593   5.005   2.561   1.466 -1.1083 -1.4262  0.7896
 6898SOL    HW221594   4.874   2.552   1.369 -2.3596 -1.9413  2.4804
 6899SOL     OW21595   6.742   2.361   0.863 -0.1059  0.0575 -0.6890
 6899SOL    HW121596   6.825   2.323   0.903 -0.6990 -0.8930 -0.3039
 6899SOL    HW221597   6.760   2.390   0.769  1.0422  1.3569 -0.0914
 6900SOL     OW21598   0.313   5.963   3.108 -0.0332 -0.5557 -0.6397
 6900SOL    HW121599   0.289   6.004   3.196  0.2160 -0.1565 -0.7542
 6900SOL    HW221600   0.300   6.030   3.035 -0.1861 -0.8671 -0.9016
 6901SOL     OW21601   1.594   2.287   2.962  0.1324  0.3372 -0.3045
 6901SOL    HW121602   1.591   2.353   2.887 -1.3531 -0.8347 -1.3397
 6901SOL    HW221603   1.660   2.215   2.941 -0.3558 -0.0446 -0.5515
 6902SOL     OW21604   3.306   5.169   1.214  0.1863 -0.0432 -0.0256
 6902SOL    HW121605   3.399   5.167   1.250 -0.2832 -0.2134  1.2224
 6902SOL    HW221606   3.243   5.200   1.285 -0.7818 -0.3956 -0.7034
 6903SOL     OW21607   4.913   3.931   1.684  0.4492  0.0976 -0.0426
 6903SOL    HW121608   4.880   3.995   1.753 -1.8475 -0.2255 -0.7789
 6903SOL    HW221609   4.896   3.837   1.715 -0.2553 -0.0529 -0.8654
 6904SOL     OW21610   4.480   5.782   6.135 -0.6141  0.1151 -0.2149
 6904SOL    HW121611   4.516   5.689   6.133 -0.1075  0.2912  0.3451
 6904SOL    HW221612   4.491   5.824   6.046  3.0405  1.0643  0.5130
 6905SOL     OW21613   2.427   2.381   2.267 -0.0353  0.2776 -0.0256
 6905SOL    HW121614   2.498   2.356   2.201 -0.5124  1.2233 -0.9286
 6905SOL    HW221615   2.443   2.332   2.353  0.0716 -1.7117 -1.1122
 6906SOL     OW21616   6.394   5.572   6.927 -0.2437 -0.1664 -0.0605
 6906SOL    HW121617   6.363   5.478   6.941  0.2326  0.0396  3.1679
 6906SOL    HW221618   6.485   5.572   6.885 -0.2037 -1.1423  0.0181
 6907SOL     OW21619   3.256   3.177   3.668 -0.4334  0.3670 -0.2129
 6907SOL    HW121620   3.159   3.199   3.677 -0.2080  0.8083  1.5249
 6907SOL    HW221621   3.282   3.109   3.737  0.8659  1.6959  0.6795
 6908SOL     OW21622   1.122   4.472   0.932  0.6907  0.4083  0.0065
 6908SOL    HW121623   1.068   4.449   0.851  0.1437  0.3906  0.3676
 6908SOL    HW221624   1.060   4.502   1.006  1.1889  0.5361  0.3771
 6909SOL     OW21625   6.798   2.552   0.301 -0.4022  0.4077 -0.0754
 6909SOL    HW121626   6.872   2.619   0.295  1.5292 -1.5443  0.7894
 6909SOL    HW221627   6.734   2.580   0.374  0.8480  0.8880  0.8724
 6910SOL     OW21628   3.860   6.602   2.165  0.4307 -0.3784 -0.3579
 6910SOL    HW121629   3.944   6.644   2.129  0.4082  1.2875  1.3421
 6910SOL    HW221630   3.841   6.640   2.256 -1.6157 -1.4937 -0.2726
 6911SOL     OW21631   6.297   1.772   6.448  0.1173 -0.3850 -0.0259
 6911SOL    HW121632   6.299   1.676   6.419  0.5393 -0.3755 -0.0245
 6911SOL    HW221633   6.202   1.803   6.450 -0.1530 -1.1945  1.2229
 6912SOL     OW21634   2.090   6.868   5.979  0.1984 -0.7945 -0.5079
 6912SOL    HW121635   2.009   6.922   5.955 -0.1777 -0.0748  2.0773
 6912SOL    HW221636   2.106   6.874   6.077  3.6694 -0.6025 -0.9635
 6913SOL     OW21637   2.156   3.175   2.103 -0.0074 -0.0880  0.3288
 6913SOL    HW121638   2.177   3.255   2.047  0.4064 -0.3733  0.0819
 6913SOL    HW221639   2.191   3.092   2.060  2.4294 -0.0890  2.1176
 6914SOL     OW21640   1.456   1.704   4.474  0.2001  0.1973 -0.1363
 6914SOL    HW121641   1.488   1.762   4.549  0.0596 -0.2634  0.2941
 6914SOL    HW221642   1.509   1.619   4.473 -0.1754 -0.0392 -0.2009
 6915SOL     OW21643   6.967   2.003   5.059 -0.0569 -0.2410  0.1448
 6915SOL    HW121644   7.066   2.009   5.047 -0.0429  1.1113  0.7082
 6915SOL    HW221645   6.927   2.095   5.055 -1.2004 -0.6947  0.5923
 6916SOL     OW21646   6.301   1.745   5.175 -0.0848 -0.1567 -0.1838
 6916SOL    HW121647   6.379   1.689   5.144  0.2908  0.5004 -0.4419
 6916SOL    HW221648   6.241   1.688   5.231 -0.6629 -1.3184 -1.8891
 6917SOL     OW21649   0.302   4.963   1.279 -0.0435 -0.3686  0.1471
 6917SOL    HW121650   0.228   4.973   1.346  1.6278 -0.2553  2.1061
 6917SOL    HW221651   0.386   4.936   1.327  1.1740 -0.6054 -1.9951
 6918SOL     OW21652   3.336   4.235   6.150  0.2405 -0.5433  0.1490
 6918SOL    HW121653   3.395   4.292   6.206  1.0302 -2.7967  1.7613
 6918SOL    HW221654   3.361   4.244   6.054 -1.7663  4.1554 -0.1923
 6919SOL     OW21655   4.740   2.872   4.224 -0.1593  0.1373 -0.6806
 6919SOL    HW121656   4.753   2.970   4.211 -2.3423  0.4479 -0.8786
 6919SOL    HW221657   4.772   2.846   4.315 -0.6247  1.2713 -0.1687
 6920SOL     OW21658   0.377   4.818   0.181 -0.1492  0.6379 -0.8817
 6920SOL    HW121659   0.376   4.795   0.278 -0.2338  1.1561 -0.7626
 6920SOL    HW221660   0.335   4.907   0.166 -0.0929  0.5853 -1.3904
 6921SOL     OW21661   1.151   2.923   4.961 -0.0611  0.2152 -0.2215
 6921SOL    HW121662   1.195   2.865   5.030  0.3483  0.7496 -0.0236
 6921SOL    HW221663   1.221   2.978   4.915 -0.2570 -0.5115 -1.4412
 6922SOL     OW21664   0.091   2.621   3.362  1.1569 -1.0888 -0.2053
 6922SOL    HW121665   0.095   2.718   3.338  0.2436 -1.2062 -0.8658
 6922SOL    HW221666   0.015   2.606   3.425  0.9666 -1.4631 -0.5212
 6923SOL     OW21667   5.949   3.738   0.405  0.5887 -0.1846  0.3615
 6923SOL    HW121668   5.936   3.834   0.380  2.0574 -0.3967 -1.5378
 6923SOL    HW221669   6.041   3.709   0.377 -0.1422 -2.3804  0.0440
 6924SOL     OW21670   2.628   5.562   6.881 -0.6092 -0.3172 -0.5703
 6924SOL    HW121671   2.604   5.558   6.979 -0.0318  0.2211 -0.4016
 6924SOL    HW221672   2.618   5.655   6.848  1.1911 -0.0555 -0.4959
 6925SOL     OW21673   4.260   4.722   3.173  0.6852  0.1699  0.3648
 6925SOL    HW121674   4.276   4.780   3.092 -0.7789  1.1393  0.7381
 6925SOL    HW221675   4.179   4.754   3.221 -0.5289 -2.5850  0.2806
 6926SOL     OW21676   4.792   0.875   3.051  0.6440  0.8447 -0.5121
 6926SOL    HW121677   4.758   0.963   3.086  1.0203  1.1594 -0.9196
 6926SOL    HW221678   4.723   0.833   2.993 -0.7347 -0.5511  1.9667
 6927SOL     OW21679   6.755   1.327   5.204  0.3390 -0.0220  0.0482
 6927SOL    HW121680   6.820   1.360   5.272  0.3144 -0.9766  0.5597
 6927SOL    HW221681   6.716   1.239   5.235 -3.4612  1.8540  1.2982
 6928SOL     OW21682   6.637   3.066   0.159  0.2650 -0.3827  0.2045
 6928SOL    HW121683   6.628   3.022   0.070 -2.2579  0.5833 -0.1171
 6928SOL    HW221684   6.680   3.156   0.148  0.7946 -0.6422  0.1204
 6929SOL     OW21685   0.003   6.842   1.893  0.6485 -0.3926  0.4957
 6929SOL    HW121686  -0.019   6.775   1.821  0.7487 -0.1250  0.2126
 6929SOL    HW221687   0.059   6.799   1.963  1.2868 -0.4279 -0.0323
 6930SOL     OW21688   5.748   1.624   1.962 -0.3062  0.3476  0.1583
 6930SOL    HW121689   5.786   1.654   2.049  0.0566  1.2341 -0.2873
 6930SOL    HW221690   5.791   1.537   1.935  0.2036  0.5006  0.4536
 6931SOL     OW21691   1.909   2.464   6.067  0.3092 -0.1835  0.1019
 6931SOL    HW121692   1.837   2.514   6.115  1.3792  0.6839  0.8519
 6931SOL    HW221693   1.875   2.373   6.043 -1.9074  1.0252 -1.8287
 6932SOL     OW21694   4.518   2.129   3.053  0.4199  0.2481 -0.1607
 6932SOL    HW121695   4.610   2.137   3.015 -0.3837  0.6504 -2.1523
 6932SOL    HW221696   4.453   2.115   2.979 -1.1616  0.1339  1.1945
 6933SOL     OW21697   1.963   6.956   5.077 -0.0180  0.0998  0.3319
 6933SOL    HW121698   1.920   6.898   5.146 -0.6507 -1.0057 -0.9257
 6933SOL    HW221699   1.954   6.912   4.987  0.7551  1.4939 -0.4621
 6934SOL     OW21700   6.743   4.892   5.820 -0.5499 -0.2302 -0.4947
 6934SOL    HW121701   6.750   4.951   5.740  0.9416  0.1397 -0.1341
 6934SOL    HW221702   6.827   4.838   5.829 -1.6205 -1.9436 -0.4443
 6935SOL     OW21703   2.722   5.638   1.682  0.4128  0.5553 -0.0425
 6935SOL    HW121704   2.707   5.636   1.781  0.6945  0.9147  0.0096
 6935SOL    HW221705   2.749   5.547   1.651 -2.5375 -0.3524 -0.2699
 6936SOL     OW21706   5.313   2.869   3.311 -0.1899  0.1031  0.7407
 6936SOL    HW121707   5.293   2.871   3.213  0.2005 -0.2732  0.6484
 6936SOL    HW221708   5.412   2.875   3.324 -0.3328  2.1623  1.1879
 6937SOL     OW21709   3.209   2.022   5.083 -0.4935  0.3632 -0.0452
 6937SOL    HW121710   3.294   2.033   5.134  0.0541 -0.2678 -0.8041
 6937SOL    HW221711   3.163   2.110   5.076 -1.2998  0.2639  2.7064
 6938SOL     OW21712   4.404   2.413   0.986  0.7758  0.4966 -0.3648
 6938SOL    HW121713   4.311   2.444   1.008  0.2694  0.4668 -2.3459
 6938SOL    HW221714   4.402   2.315   0.965  1.0796  0.7100 -1.4096
 6939SOL     OW21715   1.233   1.722   1.580  0.7815 -0.2061  0.0342
 6939SOL    HW121716   1.187   1.687   1.499 -1.2952 -1.0935  1.5083
 6939SOL    HW221717   1.278   1.809   1.559 -0.4600  0.0284 -1.8202
 6940SOL     OW21718   4.445   1.681   4.119 -0.1192  0.4586  0.4340
 6940SOL    HW121719   4.419   1.723   4.206 -1.6494  3.1588 -1.1856
 6940SOL    HW221720   4.536   1.713   4.093 -0.2110  0.7261  0.4327
 6941SOL     OW21721   6.586   5.823   0.262 -0.1446  0.3328 -0.4135
 6941SOL    HW121722   6.653   5.756   0.232 -0.4281 -0.7974  1.3025
 6941SOL    HW221723   6.494   5.786   0.250 -0.5663  2.0356 -3.1576
 6942SOL     OW21724   0.990   1.826   4.759 -0.1866 -0.4915  0.0553
 6942SOL    HW121725   1.060   1.838   4.689 -2.2024 -4.2552 -2.9555
 6942SOL    HW221726   0.900   1.822   4.716 -1.7459 -1.3881  3.0973
 6943SOL     OW21727   6.959   6.953   0.171 -0.3244  0.2637 -0.4904
 6943SOL    HW121728   6.958   6.990   0.264 -2.9755 -0.4042 -0.1534
 6943SOL    HW221729   6.916   6.862   0.171 -0.5503  0.3278 -2.3977
 6944SOL     OW21730   5.673   4.197   4.159 -0.2385  0.4468  0.6492
 6944SOL    HW121731   5.758   4.222   4.207  0.0495  1.1931 -0.2370
 6944SOL    HW221732   5.671   4.240   4.069 -0.0242 -2.2148 -0.7166
 6945SOL     OW21733   6.779   4.549   2.499  0.7683 -0.2054 -0.3917
 6945SOL    HW121734   6.712   4.475   2.504  1.7538 -1.0448  2.0886
 6945SOL    HW221735   6.832   4.541   2.415 -1.3348 -0.2814 -1.7752
 6946SOL     OW21736   5.491   6.072   4.578 -0.6760 -0.3738 -0.2922
 6946SOL    HW121737   5.517   6.137   4.650 -1.1575  2.1512 -2.2686
 6946SOL    HW221738   5.395   6.085   4.556  0.2092  1.5233 -3.7429
 6947SOL     OW21739   6.912   2.319   5.841 -0.7188 -0.8560  0.3276
 6947SOL    HW121740   6.865   2.320   5.930 -0.3685  0.0229  0.5172
 6947SOL    HW221741   7.008   2.294   5.855 -0.3424  0.5186  0.3917
 6948SOL     OW21742   4.320   1.260   3.193  0.4613  0.2386  0.0874
 6948SOL    HW121743   4.271   1.197   3.133  3.7204 -2.7274  0.1711
 6948SOL    HW221744   4.366   1.330   3.138  0.3785 -0.1676 -0.4999
 6949SOL     OW21745   6.568   2.707   2.454 -0.5355  0.5622  0.2178
 6949SOL    HW121746   6.557   2.715   2.553  0.9159  1.2319  0.3520
 6949SOL    HW221747   6.487   2.744   2.408 -1.4003 -0.1325  1.1445
 6950SOL     OW21748   0.356   5.043   1.037  0.1188  0.2526  0.1711
 6950SOL    HW121749   0.339   5.021   1.133 -1.4484  0.2418 -0.0801
 6950SOL    HW221750   0.363   4.959   0.983  1.2073  0.2535  0.2963
 6951SOL     OW21751   1.044   2.174   2.261  0.7168  0.4684 -0.5191
 6951SOL    HW121752   0.963   2.165   2.203  0.5530  0.0033 -0.2201
 6951SOL    HW221753   1.023   2.234   2.338  0.6554  0.3448 -0.4396
 6952SOL     OW21754   0.324   2.292   4.515  0.0429  0.0247 -0.0673
 6952SOL    HW121755   0.290   2.271   4.607  2.1354 -0.1617  0.7129
 6952SOL    HW221756   0.256   2.348   4.467 -2.7028 -2.7780  0.2382
 6953SOL     OW21757   1.508   3.299   5.157 -0.2493 -0.3696 -0.2687
 6953SOL    HW121758   1.540   3.270   5.067  1.7581  3.2004 -0.9022
 6953SOL    HW221759   1.571   3.265   5.227  2.1195  2.1154 -0.9971
 6954SOL     OW21760   6.900   3.993   4.028  0.3811  0.0770  0.6874
 6954SOL    HW121761   6.857   3.980   4.117  2.3597  1.1444  1.8719
 6954SOL    HW221762   6.976   3.928   4.018  0.4587  0.2683 -0.0238
 6955SOL     OW21763   4.205   4.853   3.984  0.6295 -0.2041 -0.2205
 6955SOL    HW121764   4.232   4.861   3.888 -1.0628 -0.7295 -0.7921
 6955SOL    HW221765   4.262   4.912   4.041  1.7344  0.0305 -1.5340
 6956SOL     OW21766   4.731   4.516   2.372 -0.2325  0.4653  0.5059
 6956SOL    HW121767   4.680   4.529   2.288 -1.2529 -1.1834  0.8270
 6956SOL    HW221768   4.740   4.603   2.420 -2.3942  0.8822  0.2340
 6957SOL     OW21769   2.329   3.100   6.334  0.1801 -0.0705 -0.0921
 6957SOL    HW121770   2.280   3.180   6.299 -0.2016 -0.5989 -0.7877
 6957SOL    HW221771   2.274   3.018   6.318  1.2667 -0.6680 -0.8103
 6958SOL     OW21772   1.453   4.991   4.263 -0.4937 -1.3006  0.0036
 6958SOL    HW121773   1.425   4.933   4.187  0.3811 -0.8459 -0.6742
 6958SOL    HW221774   1.544   5.028   4.246 -1.2621  0.7645  0.1294
 6959SOL     OW21775   6.777   6.701   4.030  0.0852  0.0417  0.5722
 6959SOL    HW121776   6.757   6.628   4.094  0.6243 -2.0536 -1.5240
 6959SOL    HW221777   6.872   6.695   4.000 -0.1158  0.9913 -0.3516
 6960SOL     OW21778   2.446   4.109   0.635  0.0126  0.0533 -0.5526
 6960SOL    HW121779   2.354   4.088   0.669  0.2316  0.7506  0.5226
 6960SOL    HW221780   2.473   4.041   0.567 -0.4794 -1.3636  0.6166
 6961SOL     OW21781   6.332   1.760   2.701 -0.2334 -0.1580  0.3880
 6961SOL    HW121782   6.254   1.709   2.665 -0.4293 -0.1118  0.7372
 6961SOL    HW221783   6.417   1.724   2.661 -0.4439 -0.1118 -0.1015
 6962SOL     OW21784   1.342   2.983   0.927 -0.0828 -0.0119 -0.5954
 6962SOL    HW121785   1.427   3.031   0.904 -0.1976  0.7144  0.4323
 6962SOL    HW221786   1.279   3.046   0.971  0.0798 -1.2703  1.5552
 6963SOL     OW21787   4.845   1.514   5.459  0.3475  0.0124  0.0205
 6963SOL    HW121788   4.825   1.424   5.419  1.1888  0.1117 -0.6383
 6963SOL    HW221789   4.916   1.505   5.529 -0.0652  0.0680  0.4536
 6964SOL     OW21790   1.138   0.166   5.879  0.2755  0.2534 -0.0367
 6964SOL    HW121791   1.185   0.157   5.791  1.1877  2.1415  0.2108
 6964SOL    HW221792   1.046   0.128   5.872  0.3352  0.3705 -1.8011
 6965SOL     OW21793   6.258   4.431   0.010 -0.2326  0.1732 -0.1887
 6965SOL    HW121794   6.345   4.417  -0.037 -0.0532 -0.1617  0.2282
 6965SOL    HW221795   6.212   4.512  -0.026  0.3946  0.5259 -0.2083
 6966SOL     OW21796   5.830   0.441   3.694  0.5136 -0.2019 -0.5032
 6966SOL    HW121797   5.900   0.431   3.765 -0.4714  0.3631  0.5990
 6966SOL    HW221798   5.743   0.468   3.737 -0.3051 -0.5722 -1.8562
 6967SOL     OW21799   4.844   2.491   6.940  0.6434 -0.2522 -0.5765
 6967SOL    HW121800   4.844   2.404   6.990 -1.2365 -0.6704 -1.2272
 6967SOL    HW221801   4.907   2.485   6.863  0.3445 -1.1396 -0.7611
 6968SOL     OW21802   2.487   1.272   6.010  0.0508 -0.1246  0.5696
 6968SOL    HW121803   2.413   1.280   5.942  0.2412  0.2776  0.4042
 6968SOL    HW221804   2.454   1.303   6.099 -0.3018 -0.9668  0.7474
 6969SOL     OW21805   6.087   0.135   6.511  0.7188  0.2693  0.2590
 6969SOL    HW121806   6.070   0.071   6.437 -0.6468  2.0113 -1.0323
 6969SOL    HW221807   6.174   0.112   6.556  1.2903 -1.1994 -1.4739
 6970SOL     OW21808   1.561   5.442   4.568 -0.8645  0.5241 -0.3904
 6970SOL    HW121809   1.488   5.424   4.634  0.6623 -2.8227  0.6122
 6970SOL    HW221810   1.647   5.457   4.617 -0.5275  2.9103 -1.5816
 6971SOL     OW21811   0.380   6.377   1.962  0.1748  0.7714 -0.3778
 6971SOL    HW121812   0.464   6.387   2.015  0.6998 -3.5195 -0.0738
 6971SOL    HW221813   0.386   6.434   1.880  2.5871  1.8428  0.4419
 6972SOL     OW21814   0.116   3.619   6.921  0.1059 -0.3218 -0.5218
 6972SOL    HW121815   0.021   3.599   6.898  0.6959 -0.7600 -2.8096
 6972SOL    HW221816   0.144   3.705   6.878  1.2682 -1.1592 -1.5157
 6973SOL     OW21817   3.358   3.199   6.177  0.1356  0.6330 -0.3265
 6973SOL    HW121818   3.359   3.282   6.232  1.5078  2.2474 -2.5978
 6973SOL    HW221819   3.288   3.206   6.106  0.7985  0.2257 -1.0398
 6974SOL     OW21820   4.329   2.140   1.752 -0.4616  0.0046  0.4165
 6974SOL    HW121821   4.287   2.228   1.774 -0.5258 -0.6105  3.0636
 6974SOL    HW221822   4.412   2.128   1.806 -0.7056 -1.7617  0.4642
 6975SOL     OW21823   5.127   5.282   3.158 -0.9107 -0.4705  0.6159
 6975SOL    HW121824   5.221   5.306   3.137 -1.4050  0.0993 -1.0763
 6975SOL    HW221825   5.113   5.184   3.141 -1.7267  0.2292 -3.8587
 6976SOL     OW21826   4.331   6.285   1.176  0.1449  0.0389 -0.5978
 6976SOL    HW121827   4.365   6.334   1.256 -1.2589 -0.3136  0.2555
 6976SOL    HW221828   4.277   6.347   1.120  1.9487  0.5482 -1.8454
 6977SOL     OW21829   0.097   6.469   5.536  0.3588  0.4721  0.0129
 6977SOL    HW121830   0.079   6.553   5.588  0.1894 -0.2035  1.0585
 6977SOL    HW221831   0.164   6.489   5.464 -0.3544  1.7080 -0.3456
 6978SOL     OW21832   3.615   5.535   7.010 -0.1796  0.1517  0.1168
 6978SOL    HW121833   3.531   5.516   7.061 -0.2539 -0.2528 -0.1529
 6978SOL    HW221834   3.594   5.537   6.912  0.0023  0.7097  0.0863
 6979SOL     OW21835   1.681   4.097   2.816  0.5879 -0.5037  0.8701
 6979SOL    HW121836   1.676   4.023   2.883 -0.8333 -0.9448  0.3076
 6979SOL    HW221837   1.749   4.074   2.746  1.6400 -0.3170  1.8038
 6980SOL     OW21838   3.246   5.603   2.350  0.5212  0.4130  0.0681
 6980SOL    HW121839   3.252   5.562   2.441  0.0398 -1.4235 -0.6690
 6980SOL    HW221840   3.329   5.655   2.331 -0.0324  2.1505  2.1213
 6981SOL     OW21841   3.515   4.861   5.207  0.3486 -0.4196  0.4531
 6981SOL    HW121842   3.519   4.761   5.205 -0.1998 -0.5616  3.0158
 6981SOL    HW221843   3.554   4.895   5.292  1.6131  1.6836 -0.8570
 6982SOL     OW21844   0.290   6.202   3.983  0.4853 -0.0247  0.9203
 6982SOL    HW121845   0.259   6.110   4.009  0.1188 -0.1283  0.1652
 6982SOL    HW221846   0.320   6.201   3.887 -0.8751  0.9446  0.4513
 6983SOL     OW21847   3.985   6.694   5.258 -0.1407  0.4248 -0.1798
 6983SOL    HW121848   3.916   6.659   5.321 -0.3744 -0.5655 -0.9624
 6983SOL    HW221849   3.943   6.758   5.194 -0.2678  0.1267 -0.4011
 6984SOL     OW21850   1.597   4.651   4.161 -0.0072  0.2103  0.6575
 6984SOL    HW121851   1.552   4.657   4.251 -0.1078 -1.0553  0.7008
 6984SOL    HW221852   1.545   4.705   4.095 -1.7407 -1.3498  0.6686
 6985SOL     OW21853   4.262   3.974   0.940  0.2560 -0.4257  0.0994
 6985SOL    HW121854   4.294   4.052   0.886 -2.0816  1.5640  1.3680
 6985SOL    HW221855   4.322   3.896   0.925  1.0135  0.6631 -3.5710
 6986SOL     OW21856   3.228   5.366   0.798  0.5404  0.0078  0.1773
 6986SOL    HW121857   3.214   5.462   0.820  0.3588  0.0552 -0.1350
 6986SOL    HW221858   3.141   5.317   0.806  0.7390 -0.2465  0.8871
 6987SOL     OW21859   6.943   3.679   2.771  0.1316 -0.0559 -0.1710
 6987SOL    HW121860   6.994   3.685   2.685  1.4903  2.4436  0.7063
 6987SOL    HW221861   6.966   3.757   2.829 -0.7187 -1.6616  2.5070
 6988SOL     OW21862   6.816   6.851   4.289 -0.0874  0.0064  0.6772
 6988SOL    HW121863   6.737   6.803   4.251 -0.0413 -0.1930  0.8263
 6988SOL    HW221864   6.844   6.924   4.228 -0.2735 -0.0412  0.5338
 6989SOL     OW21865   4.529   0.387   0.982 -0.2629  0.3973  0.2948
 6989SOL    HW121866   4.531   0.295   0.941 -0.2942  0.6149 -0.2054
 6989SOL    HW221867   4.464   0.444   0.931 -0.7205  0.5164  0.9925
 6990SOL     OW21868   0.077   4.878   6.262 -0.1990  0.8975  0.6353
 6990SOL    HW121869   0.078   4.920   6.171 -0.7887 -1.2201 -0.4005
 6990SOL    HW221870   0.084   4.950   6.331 -2.0450  2.8083 -0.9948
 6991SOL     OW21871   0.205   5.764   1.594 -0.2694  0.2734 -0.4175
 6991SOL    HW121872   0.171   5.848   1.636 -1.4199  0.3445 -1.4522
 6991SOL    HW221873   0.237   5.784   1.501  0.8230 -0.1737 -0.1643
 6992SOL     OW21874   2.584   2.894   6.987 -0.1001 -0.5592 -0.2055
 6992SOL    HW121875   2.615   2.801   6.970  0.1219 -0.1809 -2.0632
 6992SOL    HW221876   2.633   2.932   7.066  1.1523 -1.3662 -0.5787
 6993SOL     OW21877   4.931   0.738   0.466 -0.2571  0.0541  0.3964
 6993SOL    HW121878   4.987   0.762   0.546  1.4108 -0.5514 -0.5434
 6993SOL    HW221879   4.892   0.647   0.479  1.8252 -1.0143 -0.3491
 6994SOL     OW21880   2.765   6.903   5.898  0.6326  0.3493 -0.3545
 6994SOL    HW121881   2.726   6.973   5.959 -0.7824 -0.9705  0.3209
 6994SOL    HW221882   2.762   6.814   5.943  1.9926 -0.2469 -1.3786
 6995SOL     OW21883   0.998   0.601   2.234 -0.0375 -0.5386  0.2211
 6995SOL    HW121884   0.977   0.688   2.189 -0.6154 -1.0047 -0.4297
 6995SOL    HW221885   0.918   0.570   2.285 -0.0987 -1.0594 -0.1766
 6996SOL     OW21886   5.854   5.362   0.092  0.3506 -1.0337  0.1582
 6996SOL    HW121887   5.787   5.360   0.166  2.1544  0.2173  1.9538
 6996SOL    HW221888   5.843   5.446   0.039  2.0593  0.6046  2.1728
 6997SOL     OW21889   2.120   2.953   5.572  0.4062  0.3483 -0.2146
 6997SOL    HW121890   2.164   2.924   5.657  1.3461 -1.3449 -1.2264
 6997SOL    HW221891   2.024   2.925   5.573  0.4232  0.3018  0.2569
 6998SOL     OW21892   4.605   6.915   5.299  0.6339 -0.5443 -0.2872
 6998SOL    HW121893   4.665   6.975   5.351  1.0891 -0.0417 -1.3590
 6998SOL    HW221894   4.658   6.837   5.265  0.5237 -0.4630 -0.6469
 6999SOL     OW21895   5.898   0.487   6.034 -0.4516 -0.1551  0.2483
 6999SOL    HW121896   5.874   0.390   6.028  2.5212 -0.9662 -0.5264
 6999SOL    HW221897   5.919   0.521   5.942 -0.0516  0.7995  0.6824
 7000SOL     OW21898   6.544   0.618   6.815 -0.2086  0.3982 -0.5885
 7000SOL    HW121899   6.524   0.626   6.717  2.1107  0.9904 -1.0921
 7000SOL    HW221900   6.526   0.525   6.845 -0.4290  0.0549 -1.7402
 7001SOL     OW21901   5.226   0.499   6.467 -0.0750  0.4214 -0.0146
 7001SOL    HW121902   5.323   0.479   6.479 -0.2915 -0.6384 -0.0173
 7001SOL    HW221903   5.171   0.421   6.496 -0.8954  0.5749 -1.0816
 7002SOL     OW21904   2.910   0.715   5.951 -0.5915  0.1409  0.0313
 7002SOL    HW121905   3.006   0.705   5.979 -0.7620  0.2683  0.6857
 7002SOL    HW221906   2.905   0.776   5.872 -0.1638  0.4657  0.2451
 7003SOL     OW21907   0.102   2.714   6.117  0.1149  0.0588  0.0813
 7003SOL    HW121908   0.048   2.675   6.042 -1.6306  0.5676  1.0227
 7003SOL    HW221909   0.083   2.812   6.124 -1.7169 -0.3590  2.6587
 7004SOL     OW21910   1.772   2.617   2.810  0.2062  0.0581 -0.1581
 7004SOL    HW121911   1.698   2.555   2.785  0.9020 -0.8636 -0.0175
 7004SOL    HW221912   1.766   2.640   2.907  0.5024 -0.5874  0.0175
 7005SOL     OW21913   6.901   2.689   1.269 -0.3319 -0.3199 -0.9946
 7005SOL    HW121914   6.894   2.753   1.345 -0.9236  1.2985 -2.3405
 7005SOL    HW221915   6.888   2.596   1.302 -0.2775  0.3095  0.9063
 7006SOL     OW21916   6.671   0.950   0.865  0.4507 -0.2581 -0.0461
 7006SOL    HW121917   6.671   0.991   0.773 -0.5145 -1.6817 -0.7185
 7006SOL    HW221918   6.764   0.924   0.889  0.6511 -0.2936 -0.8244
 7007SOL     OW21919   4.865   5.342   5.276  0.0531  0.3074 -0.6151
 7007SOL    HW121920   4.810   5.421   5.248 -2.4775 -1.2596 -0.3635
 7007SOL    HW221921   4.900   5.295   5.195  1.1415  1.3271 -0.7744
 7008SOL     OW21922   2.753   5.221   3.667  1.1673  0.2117 -0.3672
 7008SOL    HW121923   2.820   5.282   3.710  0.2781  1.2609 -0.4600
 7008SOL    HW221924   2.716   5.159   3.737 -0.6747  2.2645  0.5744
 7009SOL     OW21925   2.848   0.344   1.727 -0.2090 -0.7576 -0.1706
 7009SOL    HW121926   2.793   0.332   1.810  1.6034 -4.0526  0.7240
 7009SOL    HW221927   2.933   0.393   1.750 -0.3076 -0.4777 -0.3942
 7010SOL     OW21928   2.758   0.990   1.504  0.2845 -0.1567  0.3020
 7010SOL    HW121929   2.725   1.049   1.430  0.0074 -1.0151 -0.2785
 7010SOL    HW221930   2.736   0.894   1.483 -0.7649 -0.3344  2.0071
 7011SOL     OW21931   6.200   3.051   3.429 -0.2770  0.1355  0.3712
 7011SOL    HW121932   6.176   3.076   3.335 -0.9360 -1.6863  0.0253
 7011SOL    HW221933   6.289   3.091   3.451  0.0351  0.3642 -1.1314
 7012SOL     OW21934   0.560   1.848   1.783  0.1788  0.2365 -0.3413
 7012SOL    HW121935   0.491   1.794   1.832  0.2225 -0.5066 -1.0774
 7012SOL    HW221936   0.634   1.873   1.846  0.1749 -0.5959  0.0017
 7013SOL     OW21937   5.265   1.284   0.513 -0.1300  0.3496  0.4841
 7013SOL    HW121938   5.243   1.320   0.422 -0.3620 -1.7380 -0.3579
 7013SOL    HW221939   5.181   1.272   0.565 -0.6119 -2.6078 -0.7542
 7014SOL     OW21940   0.006   6.658   3.293  0.0211  0.4872  0.1144
 7014SOL    HW121941   0.087   6.703   3.330  2.8988 -3.9406 -0.1503
 7014SOL    HW221942  -0.018   6.700   3.205  1.4009  2.4747  0.6201
 7015SOL     OW21943   1.086   1.399   3.595  0.2858 -0.0671 -0.3140
 7015SOL    HW121944   1.050   1.424   3.685  0.5416 -0.2196 -0.1671
 7015SOL    HW221945   1.164   1.338   3.607 -1.7321 -2.9209 -0.6903
 7016SOL     OW21946   2.507   2.249   1.662 -0.2708  0.3404 -0.1002
 7016SOL    HW121947   2.518   2.169   1.604 -1.6241  0.8527 -1.1051
 7016SOL    HW221948   2.581   2.314   1.644  0.3308 -0.2868  0.0794
 7017SOL     OW21949   3.623   3.076   0.037  0.9969  0.1220  0.0201
 7017SOL    HW121950   3.714   3.035   0.033  0.6088 -0.6490 -2.1605
 7017SOL    HW221951   3.626   3.169   0.001  1.1299  0.5540  1.1205
 7018SOL     OW21952   5.229   5.504   2.907 -0.2233  0.6462  0.3566
 7018SOL    HW121953   5.229   5.405   2.892 -1.9157  0.7875 -0.8887
 7018SOL    HW221954   5.152   5.545   2.857  0.0489  2.5129  1.3955
 7019SOL     OW21955   6.202   6.071   6.197 -0.2986 -0.1428  0.2740
 7019SOL    HW121956   6.209   5.999   6.266  1.3574 -0.7471 -0.4852
 7019SOL    HW221957   6.125   6.052   6.136 -1.5858  0.2366  1.7196
 7020SOL     OW21958   5.409   5.364   2.098  0.7578  0.1110  0.2436
 7020SOL    HW121959   5.317   5.387   2.068 -0.1010 -1.2241  1.7278
 7020SOL    HW221960   5.450   5.298   2.034  0.2874 -0.0907  0.1498
 7021SOL     OW21961   6.337   4.981   5.871  0.3497 -0.1112  0.9344
 7021SOL    HW121962   6.368   4.889   5.845 -1.3432 -0.3688 -0.3240
 7021SOL    HW221963   6.344   5.042   5.793 -0.4713  0.2922  1.1628
 7022SOL     OW21964   1.477   0.006   4.152 -0.2393  0.0748  0.4072
 7022SOL    HW121965   1.383   0.033   4.174  0.3997  2.7887  0.1737
 7022SOL    HW221966   1.475  -0.070   4.087 -2.2400 -0.6906  1.2846
 7023SOL     OW21967   6.169   3.866   6.117 -0.0747 -0.1268 -0.3755
 7023SOL    HW121968   6.096   3.831   6.059 -2.1731 -1.8054  2.9829
 7023SOL    HW221969   6.179   3.808   6.198  1.6255  2.8149  1.7354
 7024SOL     OW21970   1.550   1.580   4.072  0.0608  0.6091  0.2627
 7024SOL    HW121971   1.473   1.625   4.118 -0.1050  1.0440 -0.4353
 7024SOL    HW221972   1.539   1.481   4.081 -0.2281  0.6782  0.7427
 7025SOL     OW21973   0.342   4.629   3.568  0.7801 -0.2045  0.0535
 7025SOL    HW121974   0.324   4.556   3.501 -0.7770 -0.2406  0.4707
 7025SOL    HW221975   0.282   4.617   3.647 -0.2526  2.1015 -0.3111
 7026SOL     OW21976   6.785   3.303   5.675  0.6318 -0.3084 -0.3614
 7026SOL    HW121977   6.699   3.319   5.626  0.1971 -0.9108  0.1927
 7026SOL    HW221978   6.837   3.232   5.627  0.9023  0.1697 -0.7872
 7027SOL     OW21979   1.556   5.613   2.180 -0.1834 -0.1007  0.2042
 7027SOL    HW121980   1.594   5.700   2.151  0.7800 -0.4924  0.2477
 7027SOL    HW221981   1.498   5.576   2.108 -1.8322  1.2608  0.7580
 7028SOL     OW21982   2.602   1.259   2.105  0.0948  0.3035 -0.6318
 7028SOL    HW121983   2.525   1.290   2.161 -0.3753 -0.7964 -0.6477
 7028SOL    HW221984   2.656   1.192   2.156 -1.1911 -1.8543 -1.9591
 7029SOL     OW21985   3.566   0.801   6.380 -0.5436  0.7631 -0.0463
 7029SOL    HW121986   3.501   0.779   6.452 -0.7684  1.7461  0.0618
 7029SOL    HW221987   3.647   0.742   6.389 -1.5405 -0.7165 -0.3937
 7030SOL     OW21988   6.957   4.148   5.080 -0.1699  0.0127  0.2180
 7030SOL    HW121989   6.991   4.076   5.019  0.0096 -0.1383  0.4963
 7030SOL    HW221990   6.880   4.194   5.036  0.1958  0.1545 -0.2804
 7031SOL     OW21991   3.540   6.977   4.736  0.8987 -0.3163  0.4744
 7031SOL    HW121992   3.522   6.993   4.639  1.3833 -0.4186  0.3618
 7031SOL    HW221993   3.483   7.038   4.791 -0.2785 -1.0973  0.1639
 7032SOL     OW21994   3.468   0.279   4.091 -0.4283  0.4933 -0.3274
 7032SOL    HW121995   3.430   0.371   4.096 -2.0724 -0.0151 -2.2770
 7032SOL    HW221996   3.544   0.271   4.156 -0.1309  3.2405 -0.2207
 7033SOL     OW21997   1.594   1.837   2.689  0.2045 -0.5702  0.8284
 7033SOL    HW121998   1.533   1.907   2.725  0.3025 -0.9067  1.6750
 7033SOL    HW221999   1.547   1.786   2.617  0.1842  0.4447  0.0940
 7034SOL     OW22000   3.909   6.906   5.114 -0.3317 -0.6035 -0.2568
 7034SOL    HW122001   3.842   6.967   5.157  0.4490 -0.1992  0.4103
 7034SOL    HW222002   3.926   6.937   5.021  2.2515  2.1295  0.9275
 7035SOL     OW22003   5.524   6.824   2.060 -0.2134  0.8335 -0.5261
 7035SOL    HW122004   5.474   6.768   2.127  1.3101 -1.3909 -1.1029
 7035SOL    HW222005   5.568   6.900   2.107 -1.0019  0.6278  0.6026
 7036SOL     OW22006   1.319   5.537   0.777  0.3131  0.7746 -0.2157
 7036SOL    HW122007   1.268   5.622   0.789 -0.2384  0.2837  1.2035
 7036SOL    HW222008   1.412   5.550   0.812  0.9055  1.3880 -1.9305
 7037SOL     OW22009   2.833   0.015   5.261 -0.0090  0.3282  0.2827
 7037SOL    HW122010   2.758  -0.039   5.297 -0.3729  1.6122  1.5469
 7037SOL    HW222011   2.801   0.072   5.186 -0.3275  0.9034  0.8467
 7038SOL     OW22012   5.901   2.952   1.120  0.3708 -0.8077 -0.1500
 7038SOL    HW122013   5.940   3.028   1.068  0.8893 -1.7341 -1.1383
 7038SOL    HW222014   5.957   2.936   1.202 -1.0326  1.3327  1.3662
 7039SOL     OW22015   2.721   1.689   1.001 -0.3989  0.0039 -0.0366
 7039SOL    HW122016   2.812   1.709   1.039  0.4829 -3.2671 -0.0764
 7039SOL    HW222017   2.729   1.674   0.902 -0.7391 -1.4024  0.1378
 7040SOL     OW22018   0.316   1.529   6.599  0.1847 -0.2151  0.3436
 7040SOL    HW122019   0.385   1.524   6.670 -1.1374 -0.6004  1.6455
 7040SOL    HW222020   0.340   1.601   6.534  2.4278 -1.1514  0.0373
 7041SOL     OW22021   3.926   4.932   1.166  0.2443 -0.3300 -0.7823
 7041SOL    HW122022   3.859   4.922   1.092 -0.7250 -2.8815  0.3251
 7041SOL    HW222023   3.895   4.880   1.246  1.9262  1.2195  0.9853
 7042SOL     OW22024   1.616   5.300   0.821 -0.0368  0.4146 -0.7140
 7042SOL    HW122025   1.630   5.298   0.722  0.0355 -2.7833 -0.7437
 7042SOL    HW222026   1.574   5.214   0.850 -0.0713  1.2852  2.0578
 7043SOL     OW22027   1.070   0.792   1.805 -0.2439  0.3855 -0.3372
 7043SOL    HW122028   1.101   0.797   1.711  1.0785  1.0443  0.1077
 7043SOL    HW222029   1.121   0.858   1.861 -1.2782  0.3024  0.7696
 7044SOL     OW22030   0.207   4.164   0.370 -0.2639  0.1760  0.0004
 7044SOL    HW122031   0.233   4.076   0.409 -0.5828  0.5384  1.0846
 7044SOL    HW222032   0.136   4.151   0.301 -0.7427 -0.3712  0.5870
 7045SOL     OW22033   4.494   6.197   6.433 -0.5734 -0.2933 -0.2663
 7045SOL    HW122034   4.585   6.172   6.402  0.4309  0.7354  1.6884
 7045SOL    HW222035   4.478   6.294   6.413 -0.9027 -0.2516  0.1980
 7046SOL     OW22036   4.717   1.113   6.868 -0.2955  0.2311  0.2380
 7046SOL    HW122037   4.760   1.034   6.912 -2.4529 -0.6463  0.8958
 7046SOL    HW222038   4.636   1.139   6.920 -1.2655  1.0384 -1.6104
 7047SOL     OW22039   6.289   4.658   2.937 -0.4309  0.5219 -0.4969
 7047SOL    HW122040   6.382   4.662   2.902 -0.0548  1.0315  0.5136
 7047SOL    HW222041   6.291   4.652   3.037 -1.4820  0.6722 -0.4543
 7048SOL     OW22042   5.199   6.539   6.089  0.4403 -0.5919  0.0664
 7048SOL    HW122043   5.284   6.493   6.117  0.5160 -0.3865  0.1778
 7048SOL    HW222044   5.151   6.572   6.170 -2.1477 -4.7548  0.5379
 7049SOL     OW22045   3.554   4.336   1.122  0.3620 -0.2457 -0.6426
 7049SOL    HW122046   3.602   4.269   1.178  0.1102 -0.0822 -0.2342
 7049SOL    HW222047   3.613   4.416   1.107 -0.2984  0.5905  1.0610
 7050SOL     OW22048   3.716   3.294   1.681  0.1477 -0.1032 -0.5807
 7050SOL    HW122049   3.746   3.202   1.704 -1.4623 -0.4256  0.4269
 7050SOL    HW222050   3.644   3.289   1.612  0.5349  0.4560 -1.0343
 7051SOL     OW22051   0.344   1.019   3.005 -0.1214  0.3255  0.1564
 7051SOL    HW122052   0.368   1.109   3.041 -0.9395  0.8333 -0.5348
 7051SOL    HW222053   0.369   0.949   3.071  0.8013  1.0290  0.5813
 7052SOL     OW22054   3.503   0.035   2.969 -0.1894  0.9309 -0.2602
 7052SOL    HW122055   3.462   0.023   2.879 -0.1747  0.6485 -0.2299
 7052SOL    HW222056   3.433   0.022   3.039  0.2412 -1.0230 -0.1496
 7053SOL     OW22057   3.829   3.502   6.704  0.0080  0.4035  1.1814
 7053SOL    HW122058   3.748   3.505   6.646  1.1468  1.4367 -0.4417
 7053SOL    HW222059   3.855   3.407   6.720 -0.5100  0.0814  0.2195
 7054SOL     OW22060   0.967   4.104   6.803 -0.1915  0.0177 -0.0450
 7054SOL    HW122061   1.035   4.174   6.779 -0.4653 -0.1985 -1.5562
 7054SOL    HW222062   1.010   4.035   6.860  0.5362  0.5242  0.0435
 7055SOL     OW22063   2.683   1.900   6.976 -0.0016 -0.4055 -0.5921
 7055SOL    HW122064   2.657   1.840   6.900  0.2944 -0.0362 -0.9911
 7055SOL    HW222065   2.616   1.974   6.985  0.6947  0.3494 -1.3995
 7056SOL     OW22066   2.447   2.751   1.536 -0.2918  0.0556  0.2718
 7056SOL    HW122067   2.380   2.677   1.543 -0.8620  0.1713 -2.6385
 7056SOL    HW222068   2.407   2.837   1.568 -0.7844 -0.2809  0.5536
 7057SOL     OW22069   3.415   6.325   1.783  0.5284 -0.1067 -0.4143
 7057SOL    HW122070   3.512   6.340   1.800  0.3416 -0.9935  1.6574
 7057SOL    HW222071   3.361   6.379   1.848 -0.3269 -0.8286 -0.5085
 7058SOL     OW22072   4.113   4.607   0.446  0.2351  0.1810 -0.3421
 7058SOL    HW122073   4.050   4.665   0.498  0.2804  0.5394 -0.6844
 7058SOL    HW222074   4.205   4.616   0.484  0.2142  0.2226 -0.3005
 7059SOL     OW22075   1.586   0.396   6.877 -0.2658 -0.1852 -0.2362
 7059SOL    HW122076   1.615   0.485   6.842 -1.1517  0.9575  1.7233
 7059SOL    HW222077   1.642   0.371   6.956 -0.6939 -0.8428 -0.1319
 7060SOL     OW22078   6.092   6.368   0.061 -0.0773 -0.0377 -0.1868
 7060SOL    HW122079   6.101   6.377   0.160  3.2690 -2.0261 -0.1662
 7060SOL    HW222080   6.127   6.451   0.017 -0.8785  0.5475  0.2612
 7061SOL     OW22081   1.185   5.458   1.326 -0.6435  0.2766 -0.1833
 7061SOL    HW122082   1.122   5.512   1.382 -1.6645 -0.9495 -0.1084
 7061SOL    HW222083   1.157   5.462   1.230  1.0095  2.2440 -0.6570
 7062SOL     OW22084   4.352   0.419   5.989 -0.3315  0.2217  0.0176
 7062SOL    HW122085   4.432   0.478   5.979 -1.1873  1.8156  1.9609
 7062SOL    HW222086   4.269   0.475   5.987 -1.4291 -1.3351 -1.4208
 7063SOL     OW22087   4.656   2.613   4.351  0.0116  0.1629  0.3413
 7063SOL    HW122088   4.719   2.634   4.426 -1.1959  1.6857  0.9935
 7063SOL    HW222089   4.661   2.686   4.282 -2.2595  1.3152  1.2823
 7064SOL     OW22090   6.039   0.679   1.544 -0.3417  0.1449 -0.1034
 7064SOL    HW122091   5.990   0.760   1.513  1.4266  1.0569 -0.6247
 7064SOL    HW222092   6.129   0.675   1.500  0.2313 -1.2496  1.1088
 7065SOL     OW22093   5.131   0.202   0.524 -0.0831 -0.5223  0.1617
 7065SOL    HW122094   5.132   0.202   0.624  0.3940  0.0247  0.1639
 7065SOL    HW222095   5.217   0.242   0.490 -0.9718  0.9263 -0.4527
 7066SOL     OW22096   3.719   4.604   0.675  0.4149 -0.2451 -0.3443
 7066SOL    HW122097   3.748   4.629   0.583  0.4689  0.8800 -0.0333
 7066SOL    HW222098   3.791   4.550   0.720  0.0716 -1.4875 -1.2161
 7067SOL     OW22099   3.001   4.703   0.232 -0.2580 -0.5213 -1.1135
 7067SOL    HW122100   2.976   4.643   0.156 -2.4617 -0.1430 -0.7544
 7067SOL    HW222101   2.927   4.769   0.247  0.0528 -0.6789  1.4270
 7068SOL     OW22102   0.174   1.486   3.284 -0.0552  0.5871 -0.4252
 7068SOL    HW122103   0.129   1.558   3.231 -0.0900  0.4430 -0.5911
 7068SOL    HW222104   0.200   1.522   3.373  0.1926  0.8924 -0.6190
 7069SOL     OW22105   0.189   3.068   4.721  0.5302  0.0767 -0.3165
 7069SOL    HW122106   0.280   3.108   4.736 -0.6752  2.5677  0.9392
 7069SOL    HW222107   0.127   3.139   4.688 -1.1526 -1.4092 -0.4761
 7070SOL     OW22108   3.474   6.442   5.149 -0.3493 -0.4784  0.1564
 7070SOL    HW122109   3.557   6.476   5.105 -2.2671  1.7802 -2.0159
 7070SOL    HW222110   3.467   6.480   5.241 -0.0628  1.2153 -0.4895
 7071SOL     OW22111   0.392   1.596   5.296  0.0478 -0.1395  0.3255
 7071SOL    HW122112   0.352   1.624   5.384  0.6541  0.1630  0.5036
 7071SOL    HW222113   0.319   1.590   5.228 -0.6541 -1.7098  1.1680
 7072SOL     OW22114   3.957   5.132   4.493  0.9037  0.3367  0.4462
 7072SOL    HW122115   3.934   5.185   4.575 -1.2304 -0.2452  0.3046
 7072SOL    HW222116   4.055   5.133   4.478  1.2349  1.3400  2.4119
 7073SOL     OW22117   5.231   3.056   5.704  0.1194 -0.0422 -0.1071
 7073SOL    HW122118   5.237   3.129   5.772  0.1651 -0.6586  0.5737
 7073SOL    HW222119   5.200   2.972   5.750  1.3128 -0.7791 -0.6226
 7074SOL     OW22120   5.797   5.636   6.573  0.0148  0.3503  0.2697
 7074SOL    HW122121   5.703   5.648   6.542 -0.3880 -1.0790  0.8435
 7074SOL    HW222122   5.803   5.554   6.630  1.6662  0.2324 -0.0120
 7075SOL     OW22123   4.925   2.303   2.399 -0.3507  0.4408  0.0192
 7075SOL    HW122124   5.016   2.337   2.422  1.0362 -3.6266  1.4425
 7075SOL    HW222125   4.868   2.302   2.480 -1.4870  2.1985 -0.6980
 7076SOL     OW22126   4.754   3.967   6.827 -0.6973 -0.2092 -0.4621
 7076SOL    HW122127   4.674   3.943   6.882 -1.0404  2.2296  0.2142
 7076SOL    HW222128   4.725   4.016   6.745  0.0663  0.9894 -0.0518
 7077SOL     OW22129   1.457   6.602   0.167 -0.0166  0.1507 -0.0040
 7077SOL    HW122130   1.376   6.549   0.141  0.8333 -0.5903 -1.3050
 7077SOL    HW222131   1.463   6.683   0.109 -0.4931  0.8958  0.9610
 7078SOL     OW22132   5.097   6.806   0.666  0.2204  0.0119 -0.2392
 7078SOL    HW122133   5.015   6.760   0.700 -1.3240  1.8834 -1.2338
 7078SOL    HW222134   5.152   6.742   0.612 -0.5870 -1.2628  0.4147
 7079SOL     OW22135   5.582   6.787   0.588 -0.5238  0.0483 -0.5252
 7079SOL    HW122136   5.563   6.691   0.570 -3.9482  0.4321  0.4023
 7079SOL    HW222137   5.675   6.796   0.625 -0.4278 -2.9953  0.2104
 7080SOL     OW22138   6.058   2.230   1.982 -0.2340 -0.6196 -0.2465
 7080SOL    HW122139   6.142   2.229   2.035 -0.1403 -1.3151 -0.3912
 7080SOL    HW222140   5.984   2.187   2.034 -1.0428  1.7788  0.6964
 7081SOL     OW22141   5.494   5.945   5.513 -0.9460  0.2514  0.2807
 7081SOL    HW122142   5.481   5.904   5.422 -0.4886  1.1031 -0.1743
 7081SOL    HW222143   5.510   6.043   5.504  0.4850  0.1362  1.1783
 7082SOL     OW22144   1.871   2.368   5.692  0.0020 -0.4490  0.4866
 7082SOL    HW122145   1.933   2.441   5.722  0.1269  0.1465 -1.1222
 7082SOL    HW222146   1.859   2.302   5.766  2.5968 -0.6113  0.8611
 7083SOL     OW22147   3.145   4.147   0.175  0.3768 -0.1790 -0.8100
 7083SOL    HW122148   3.104   4.238   0.179  0.1900 -0.2915 -0.2291
 7083SOL    HW222149   3.243   4.154   0.198  0.0662 -0.3186  0.6346
 7084SOL     OW22150   3.590   5.778   6.579 -0.8247  0.1617 -0.2275
 7084SOL    HW122151   3.576   5.680   6.564  0.2032 -0.5903  2.8773
 7084SOL    HW222152   3.516   5.813   6.638  0.4343  0.4460  1.2504
 7085SOL     OW22153   0.797   3.457   4.733 -0.0567  0.0374  0.0316
 7085SOL    HW122154   0.741   3.382   4.768  1.2771 -0.7754  0.4930
 7085SOL    HW222155   0.881   3.464   4.787  0.8787  0.4094 -1.4266
 7086SOL     OW22156   5.434   3.367   6.599  0.3558  0.2191 -0.0814
 7086SOL    HW122157   5.350   3.408   6.632  1.2120  2.1012 -0.1478
 7086SOL    HW222158   5.497   3.351   6.675  1.0988  1.6500 -0.3603
 7087SOL     OW22159   0.139   0.008   1.423 -0.0714 -0.2607 -0.4688
 7087SOL    HW122160   0.138  -0.023   1.329 -1.3396  0.8962 -0.8823
 7087SOL    HW222161   0.047   0.038   1.449  0.7486  1.8686  0.2598
 7088SOL     OW22162   2.250   6.627   5.217  0.5113 -0.2594  0.2214
 7088SOL    HW122163   2.239   6.652   5.313 -0.4834 -0.8338  0.2745
 7088SOL    HW222164   2.215   6.534   5.203  1.7138 -0.6314 -0.4725
 7089SOL     OW22165   0.803   2.871   2.997  1.1241 -0.2897  0.3478
 7089SOL    HW122166   0.748   2.954   2.999  0.0434 -0.9825  0.4518
 7089SOL    HW222167   0.884   2.882   3.054 -0.5621 -0.3525  2.9079
 7090SOL     OW22168   3.319   1.289   1.839  1.3115  0.3149 -0.3781
 7090SOL    HW122169   3.241   1.234   1.809  0.0026  1.4301  0.8032
 7090SOL    HW222170   3.391   1.230   1.873  0.6145 -0.7113 -0.6403
 7091SOL     OW22171   5.282   4.151   5.444  0.4782 -0.1040  0.0946
 7091SOL    HW122172   5.272   4.053   5.464  1.8991 -0.3967 -0.5056
 7091SOL    HW222173   5.368   4.184   5.483  0.4844  0.6665 -0.5447
 7092SOL     OW22174   5.541   2.623   4.383  0.3103 -0.0739  0.3984
 7092SOL    HW122175   5.559   2.549   4.318  1.0553 -0.8210  1.4164
 7092SOL    HW222176   5.617   2.630   4.448 -0.5786  0.3694  1.4367
 7093SOL     OW22177   1.719   1.404   0.706  0.0763  0.2938  0.2215
 7093SOL    HW122178   1.666   1.345   0.645  2.0595 -0.0652 -1.2384
 7093SOL    HW222179   1.658   1.446   0.773 -1.9151 -0.6508 -0.9236
 7094SOL     OW22180   2.748   6.334   3.251  0.1854  0.4605  0.8709
 7094SOL    HW122181   2.661   6.353   3.297 -0.9219 -0.7028 -0.6316
 7094SOL    HW222182   2.799   6.266   3.304  0.0479  0.9095  1.5992
 7095SOL     OW22183   1.334   1.093   5.947  0.3538  0.6263 -0.2693
 7095SOL    HW122184   1.421   1.043   5.937  1.6115  2.5975  0.1889
 7095SOL    HW222185   1.351   1.177   5.999 -2.2015  0.1728  1.4706
 7096SOL     OW22186   2.478   0.674   0.758 -0.4816  0.3333 -0.1438
 7096SOL    HW122187   2.540   0.734   0.808 -0.4778 -0.2184  0.5276
 7096SOL    HW222188   2.403   0.646   0.817 -0.0185 -1.0134 -0.1618
 7097SOL     OW22189   2.493   4.280   6.352 -0.3255  0.6603  0.1411
 7097SOL    HW122190   2.452   4.196   6.316 -0.3783 -0.0705  1.8246
 7097SOL    HW222191   2.542   4.327   6.278  0.7706 -1.4869 -0.5979
 7098SOL     OW22192   3.274   4.421   1.661 -0.0026 -0.2129 -0.0504
 7098SOL    HW122193   3.369   4.409   1.688  0.0917  0.6633  0.0508
 7098SOL    HW222194   3.248   4.517   1.673 -0.8473 -0.4106 -0.2380
 7099SOL     OW22195   6.300   4.165   4.978  0.4821  0.6348  1.1077
 7099SOL    HW122196   6.343   4.176   4.888 -0.7884  0.1197  0.4082
 7099SOL    HW222197   6.263   4.073   4.986 -1.2648  1.3228  1.3042
 7100SOL     OW22198   6.500   2.260   6.398 -0.0693  0.0958  0.3156
 7100SOL    HW122199   6.593   2.242   6.431  0.4429  0.4760 -0.8788
 7100SOL    HW222200   6.497   2.350   6.355 -0.5957 -0.5460 -1.0595
 7101SOL     OW22201   4.037   6.314   2.055 -0.3137  0.5949  0.0635
 7101SOL    HW122202   3.970   6.368   2.005 -2.4232 -0.0813  1.9539
 7101SOL    HW222203   4.062   6.234   2.001  0.3616  1.7439 -1.3986
 7102SOL     OW22204   5.420   3.962   3.922  0.1566 -0.5316 -0.0291
 7102SOL    HW122205   5.477   3.932   3.998  0.5539 -0.4102 -0.2761
 7102SOL    HW222206   5.441   3.909   3.841  1.3842  0.8619 -0.6629
 7103SOL     OW22207   4.609   4.426   4.553  0.0239  1.0934  0.3555
 7103SOL    HW122208   4.676   4.360   4.522  1.3713  1.9762  1.2823
 7103SOL    HW222209   4.563   4.467   4.474 -2.1566 -2.1412 -0.2416
 7104SOL     OW22210   1.949   4.719   3.548  0.4302  0.2635  0.2340
 7104SOL    HW122211   2.035   4.718   3.600  0.0473 -0.3146  0.8823
 7104SOL    HW222212   1.963   4.677   3.459  0.9957  0.8611  0.0347
 7105SOL     OW22213   6.195   5.235   4.310  0.1344  0.2960  0.0844
 7105SOL    HW122214   6.250   5.152   4.324 -0.0763  0.5263  2.8197
 7105SOL    HW222215   6.101   5.216   4.337 -0.6070  0.6698 -2.0450
 7106SOL     OW22216   4.238   5.651   0.656 -0.0123 -0.4996  0.6185
 7106SOL    HW122217   4.305   5.577   0.650  0.2504 -0.2157 -0.0214
 7106SOL    HW222218   4.276   5.727   0.709 -0.7533 -1.3078  2.3941
 7107SOL     OW22219   6.349   4.664   3.201 -0.2278  0.1837 -0.5536
 7107SOL    HW122220   6.278   4.643   3.268  0.1431 -0.2487 -0.2897
 7107SOL    HW222221   6.346   4.761   3.179 -1.0307  0.1327 -0.6993
 7108SOL     OW22222   4.348   0.076   1.134  0.5434 -0.5876  0.3217
 7108SOL    HW122223   4.269   0.084   1.195 -0.4172 -1.8834 -0.6774
 7108SOL    HW222224   4.317   0.040   1.046  1.8616  1.3643 -0.9940
 7109SOL     OW22225   4.160   4.562   5.973  0.3819 -0.5557 -0.5384
 7109SOL    HW122226   4.178   4.465   5.961 -1.9760 -1.3424  1.3884
 7109SOL    HW222227   4.135   4.603   5.885 -0.0236 -2.0523 -1.1498
 7110SOL     OW22228   0.526   4.804   3.767  0.2274  0.5385 -0.0577
 7110SOL    HW122229   0.580   4.797   3.851  0.5482  0.2121 -0.2853
 7110SOL    HW222230   0.556   4.733   3.702  1.9660  2.5293 -1.5631
 7111SOL     OW22231   1.780   1.929   6.238 -0.1584  0.0893 -0.3210
 7111SOL    HW122232   1.783   2.027   6.253 -1.3223  0.0323  0.4086
 7111SOL    HW222233   1.848   1.903   6.169  0.9112  1.2439  0.2634
 7112SOL     OW22234   2.384   0.020   1.584  0.7363  0.2941 -0.0907
 7112SOL    HW122235   2.376   0.024   1.485  0.2053  0.3578 -0.0443
 7112SOL    HW222236   2.472   0.059   1.612  0.9970  0.0384 -0.5512
 7113SOL     OW22237   1.593   2.369   0.117  0.2647 -0.1411 -1.0362
 7113SOL    HW122238   1.499   2.389   0.091  0.0565 -0.4116 -0.5080
 7113SOL    HW222239   1.647   2.453   0.116  0.0865 -0.0272 -1.5974
 7114SOL     OW22240   4.191   3.775   1.295 -0.7112  0.2030  0.0287
 7114SOL    HW122241   4.230   3.740   1.380 -1.0168 -0.1342  0.0314
 7114SOL    HW222242   4.132   3.853   1.314 -1.1275 -0.1441  0.1782
 7115SOL     OW22243   6.874   4.479   1.423 -0.1233 -0.0236 -0.3501
 7115SOL    HW122244   6.953   4.530   1.458  0.3819  1.0238 -2.8212
 7115SOL    HW222245   6.825   4.535   1.356 -2.5868 -0.9239  0.5707
 7116SOL     OW22246   3.534   4.875   2.715  0.3213 -0.3976 -0.1629
 7116SOL    HW122247   3.580   4.964   2.712  0.3662 -0.3690  0.8655
 7116SOL    HW222248   3.506   4.849   2.623 -0.4090  1.0462 -0.3806
 7117SOL     OW22249   3.223   3.839   0.333 -0.4842  0.0505 -0.4093
 7117SOL    HW122250   3.143   3.896   0.315  0.9885  1.6821 -2.2724
 7117SOL    HW222251   3.268   3.870   0.416  0.4286  1.8825 -1.5207
 7118SOL     OW22252   2.419   5.306   2.705 -0.7354 -0.1146  0.1691
 7118SOL    HW122253   2.350   5.298   2.633 -1.4074  0.4483  0.7344
 7118SOL    HW222254   2.430   5.402   2.729  1.0192 -0.0744 -0.6340
 7119SOL     OW22255   1.887   1.275   6.151  0.6456 -0.4391 -0.2319
 7119SOL    HW122256   1.843   1.363   6.138 -0.0624 -0.7743 -0.1663
 7119SOL    HW222257   1.940   1.276   6.236  2.0207  0.4601 -1.0640
 7120SOL     OW22258   3.638   3.669   1.707 -0.2783  0.3219 -0.3079
 7120SOL    HW122259   3.565   3.737   1.717  0.9499  1.6772 -0.1892
 7120SOL    HW222260   3.710   3.707   1.649  0.2187 -1.1060 -0.6574
 7121SOL     OW22261   0.166   3.970   3.931 -0.0928  0.4881  0.7130
 7121SOL    HW122262   0.134   4.044   3.871 -0.6289  0.0339  0.4332
 7121SOL    HW222263   0.220   3.905   3.877  0.1755  0.5469  0.9097
 7122SOL     OW22264   4.486   4.545   4.315 -0.2072  0.3454 -0.0611
 7122SOL    HW122265   4.550   4.481   4.272 -1.0137 -0.8936  0.5195
 7122SOL    HW222266   4.416   4.572   4.249 -1.0562 -1.0280  0.2351
 7123SOL     OW22267   5.016   6.417   2.696  0.3803 -0.3271 -0.0306
 7123SOL    HW122268   5.013   6.435   2.794  1.8005 -0.6723  0.1001
 7123SOL    HW222269   4.929   6.444   2.654  0.1815  0.9033  1.1263
 7124SOL     OW22270   2.259   6.985   5.468 -0.0836 -0.3360 -0.2670
 7124SOL    HW122271   2.198   7.061   5.446  0.7339 -0.2807 -2.6847
 7124SOL    HW222272   2.205   6.901   5.479 -0.9619  0.4493  2.1580
 7125SOL     OW22273   0.340   3.827   5.884 -0.3868 -0.2175 -0.2163
 7125SOL    HW122274   0.359   3.783   5.972  0.6227  1.5462  0.5121
 7125SOL    HW222275   0.426   3.844   5.836 -0.8404 -0.0772 -0.9936
 7126SOL     OW22276   0.887   6.221   1.033  0.2593 -0.0228  0.3461
 7126SOL    HW122277   0.830   6.189   1.109  1.0007 -0.7864  0.5940
 7126SOL    HW222278   0.831   6.230   0.951 -0.0391 -1.8483  0.2964
 7127SOL     OW22279   2.784   0.757   6.575  0.2146 -0.2045 -0.2757
 7127SOL    HW122280   2.738   0.838   6.613 -0.8174 -1.1318  0.5245
 7127SOL    HW222281   2.812   0.776   6.481 -0.4287  0.9254 -0.2645
 7128SOL     OW22282   4.553   5.619   4.517  0.4379 -0.6667  0.0863
 7128SOL    HW122283   4.524   5.713   4.499 -0.2541 -1.2154 -1.9049
 7128SOL    HW222284   4.477   5.568   4.557  0.3327 -0.7698 -0.2467
 7129SOL     OW22285   0.835   6.325   1.470  0.1173  0.1448  0.1455
 7129SOL    HW122286   0.799   6.330   1.563  0.0818  0.7708  0.1001
 7129SOL    HW222287   0.842   6.229   1.442 -3.3244 -0.0419 -0.5510
 7130SOL     OW22288   5.241   2.616   3.413  0.0863  0.2857  0.1080
 7130SOL    HW122289   5.171   2.658   3.470 -2.9880  0.2762 -3.2663
 7130SOL    HW222290   5.288   2.687   3.360  2.1738  0.2107  1.7574
 7131SOL     OW22291   0.168   0.344   6.783 -0.7377 -0.0104 -0.0463
 7131SOL    HW122292   0.137   0.387   6.867 -0.6079 -1.1103  0.5782
 7131SOL    HW222293   0.122   0.386   6.705 -0.4793  1.3551  0.5229
 7132SOL     OW22294   1.195   4.870   2.662 -0.2867  0.2216 -0.4088
 7132SOL    HW122295   1.181   4.952   2.717  0.6670  0.2740 -0.2324
 7132SOL    HW222296   1.281   4.879   2.610  0.1674 -0.9318  0.1172
 7133SOL     OW22297   1.141   1.955   6.368  0.1902  0.0624 -0.1938
 7133SOL    HW122298   1.084   1.881   6.404  1.9759 -0.4633  1.7643
 7133SOL    HW222299   1.132   2.035   6.426  1.0871  0.1120 -0.1116
 7134SOL     OW22300   6.233   4.581   3.808  0.4856  0.4656  0.3207
 7134SOL    HW122301   6.140   4.555   3.835 -0.3943  1.7034 -1.2974
 7134SOL    HW222302   6.281   4.500   3.774 -0.8183  0.1782 -0.9579
 7135SOL     OW22303   5.887   4.529   6.010  1.2894 -0.4892  0.1513
 7135SOL    HW122304   5.802   4.484   6.036  0.1018  0.3606 -2.0446
 7135SOL    HW222305   5.943   4.544   6.092 -0.5771 -1.2052  1.6271
 7136SOL     OW22306   1.360   1.833   6.265  0.1327  0.7238 -0.5304
 7136SOL    HW122307   1.269   1.869   6.288 -0.4029 -0.6964 -0.3541
 7136SOL    HW222308   1.426   1.866   6.331 -0.0175  2.6607 -1.2696
 7137SOL     OW22309   0.603   1.425   6.940  0.0180  0.6416  0.4014
 7137SOL    HW122310   0.680   1.366   6.917 -0.4885 -0.1044  0.5853
 7137SOL    HW222311   0.635   1.504   6.992  0.2652 -1.7312  4.3081
 7138SOL     OW22312   4.813   2.987   6.241 -0.5529  0.1557  0.1262
 7138SOL    HW122313   4.891   2.925   6.248 -0.8018  0.0459  2.7938
 7138SOL    HW222314   4.730   2.939   6.267 -0.8577  1.3498  1.5262
 7139SOL     OW22315   6.702   1.489   4.397 -0.0745 -0.4377 -0.0061
 7139SOL    HW122316   6.728   1.425   4.325  0.4024 -0.3687  0.1007
 7139SOL    HW222317   6.756   1.573   4.388 -1.1765  0.2322 -0.5664
 7140SOL     OW22318   1.264   3.156   2.186  0.0433  0.1373  0.0961
 7140SOL    HW122319   1.276   3.115   2.096  1.8983 -2.6469  1.4599
 7140SOL    HW222320   1.167   3.171   2.204 -0.4059  0.0525 -2.0290
 7141SOL     OW22321   0.664   3.086   3.106 -0.1998  0.1647 -0.0051
 7141SOL    HW122322   0.573   3.084   3.064 -0.3631  1.4796  0.2527
 7141SOL    HW222323   0.717   3.160   3.065  1.4682 -1.7662 -1.5451
 7142SOL     OW22324   2.281   5.475   3.693  0.1086 -0.3222  0.3902
 7142SOL    HW122325   2.379   5.459   3.703  0.6664  1.1112 -2.1161
 7142SOL    HW222326   2.264   5.535   3.615 -2.7128  0.4278  1.4585
 7143SOL     OW22327   3.136   1.029   0.488  0.1007 -0.2491  0.3031
 7143SOL    HW122328   3.168   1.120   0.459 -0.0203 -0.6065 -1.0143
 7143SOL    HW222329   3.037   1.032   0.501  0.1073 -0.1779  0.3415
 7144SOL     OW22330   6.989   2.728   0.227  0.3798 -0.0148 -0.3604
 7144SOL    HW122331   7.081   2.753   0.199  1.2707 -0.3895  2.0604
 7144SOL    HW222332   6.932   2.810   0.231 -0.0175  0.0151 -3.6584
 7145SOL     OW22333   5.850   6.085   6.494  0.0034 -0.3354 -0.0639
 7145SOL    HW122334   5.765   6.071   6.442 -0.4386  1.3350  0.1686
 7145SOL    HW222335   5.846   6.173   6.541  1.8941 -0.2063 -0.0802
 7146SOL     OW22336   2.624   3.333   6.520 -0.3558  0.5578  0.2211
 7146SOL    HW122337   2.639   3.306   6.615  1.0652  1.0913  0.1770
 7146SOL    HW222338   2.553   3.276   6.479 -0.9764  0.3221  1.5979
 7147SOL     OW22339   5.491   3.575   3.226 -0.5454  0.4253  0.4620
 7147SOL    HW122340   5.428   3.652   3.220 -0.1549  0.6970 -0.1896
 7147SOL    HW222341   5.522   3.549   3.135 -0.5913 -0.4455  0.6777
 7148SOL     OW22342   3.751   4.098   4.433  0.0285 -0.2185  0.1675
 7148SOL    HW122343   3.700   4.012   4.429  0.5029 -0.4793 -0.5114
 7148SOL    HW222344   3.775   4.127   4.340  1.3064 -0.2199  0.4786
 7149SOL     OW22345   0.325   5.394   3.277 -0.4585 -0.0791 -0.4324
 7149SOL    HW122346   0.370   5.470   3.232  0.5847 -0.9889 -0.9754
 7149SOL    HW222347   0.379   5.311   3.264 -0.8544 -0.6568  1.2968
 7150SOL     OW22348   0.540   4.708   1.223  0.2373  1.1201  0.4177
 7150SOL    HW122349   0.558   4.763   1.305  0.5084  0.3794  0.8629
 7150SOL    HW222350   0.573   4.615   1.238 -4.7878 -0.7639  1.7569
 7151SOL     OW22351   6.847   2.789   4.701  0.5805 -0.1470 -0.2436
 7151SOL    HW122352   6.903   2.707   4.685  0.6387 -0.3776  0.9869
 7151SOL    HW222353   6.876   2.832   4.786 -1.3313 -0.4855  0.6454
 7152SOL     OW22354   4.804   4.794   4.263 -0.0637  0.1752  0.2036
 7152SOL    HW122355   4.844   4.873   4.216  0.5587 -0.7573 -0.8783
 7152SOL    HW222356   4.793   4.719   4.198  0.6550 -1.1035  1.5100
 7153SOL     OW22357   4.356   0.662   5.278  0.7200 -0.0252  0.0251
 7153SOL    HW122358   4.289   0.622   5.215  1.3088 -0.8321 -0.0953
 7153SOL    HW222359   4.310   0.729   5.337 -0.1484 -0.4197 -0.1898
 7154SOL     OW22360   5.694   2.741   4.816  0.1636  0.5853  0.1639
 7154SOL    HW122361   5.741   2.705   4.896 -0.0456 -1.9000 -0.7717
 7154SOL    HW222362   5.762   2.778   4.752  0.3436  2.4151  1.3033
 7155SOL     OW22363   1.030   1.183   1.365  0.2215  0.5319 -0.2503
 7155SOL    HW122364   0.942   1.141   1.387  0.7665 -1.1692 -1.1353
 7155SOL    HW222365   1.035   1.274   1.407 -1.7117  0.4409  0.2787
 7156SOL     OW22366   1.503   4.065   1.030 -0.4161 -0.2026 -0.7128
 7156SOL    HW122367   1.481   3.988   0.970 -0.3755 -0.1927 -0.7411
 7156SOL    HW222368   1.590   4.048   1.076  0.2624  0.4038 -1.7225
 7157SOL     OW22369   0.998   0.184   3.679  0.5524  0.3078  0.1382
 7157SOL    HW122370   0.950   0.248   3.618 -0.3780 -0.3658  0.1474
 7157SOL    HW222371   1.065   0.235   3.734  2.1451  0.7989 -2.1217
 7158SOL     OW22372   2.917   1.993   0.133 -0.1451  0.4834 -0.6352
 7158SOL    HW122373   2.899   1.966   0.038  0.2932  0.4927 -0.7232
 7158SOL    HW222374   2.864   2.075   0.155 -2.3201 -1.0112 -0.0285
 7159SOL     OW22375   3.652   6.542   6.637  0.1136 -0.5426 -0.0286
 7159SOL    HW122376   3.690   6.634   6.646  0.4789 -0.7605  0.7672
 7159SOL    HW222377   3.600   6.535   6.552 -1.5007  0.9571  0.7755
 7160SOL     OW22378   1.009   2.999   3.138  0.7920 -0.2350  0.3733
 7160SOL    HW122379   0.985   2.998   3.236 -0.1247  0.1591  0.1685
 7160SOL    HW222380   1.090   3.055   3.124 -0.0217  1.0564  0.7196
 7161SOL     OW22381   4.779   0.500   0.381 -0.4964 -0.0793  0.0799
 7161SOL    HW122382   4.817   0.513   0.289 -1.6982 -4.5443 -1.3008
 7161SOL    HW222383   4.680   0.514   0.377 -0.2985  2.1336  1.4041
 7162SOL     OW22384   6.507   3.909   3.372 -0.2033 -0.1901 -0.8034
 7162SOL    HW122385   6.539   3.901   3.466 -0.7213  0.4045 -0.5792
 7162SOL    HW222386   6.412   3.878   3.366  0.3024 -1.7603 -1.4353
 7163SOL     OW22387   0.110   3.433   2.614  0.3917  0.1856 -0.3594
 7163SOL    HW122388   0.149   3.374   2.684  2.1046  0.3053 -1.1555
 7163SOL    HW222389   0.010   3.424   2.615  0.4009 -0.2514  1.6646
 7164SOL     OW22390   3.306   6.542   6.519 -0.2803 -0.2775 -0.2035
 7164SOL    HW122391   3.319   6.551   6.618  0.0977 -1.5168 -0.1262
 7164SOL    HW222392   3.395   6.540   6.474 -0.4305  2.8101 -0.8702
 7165SOL     OW22393   4.466   6.356   0.655  0.2882 -0.2847  0.6803
 7165SOL    HW122394   4.539   6.296   0.623  0.5702  0.7751 -0.7811
 7165SOL    HW222395   4.396   6.302   0.701  1.4859 -1.4470  1.2122
 7166SOL     OW22396   6.119   3.638   1.653  0.3022 -0.4563  0.2735
 7166SOL    HW122397   6.063   3.721   1.658  0.3561 -0.4270  0.3924
 7166SOL    HW222398   6.172   3.638   1.568  0.3275 -0.3539  0.2896
 7167SOL     OW22399   2.342   5.519   4.017 -0.3244 -0.1770 -0.3385
 7167SOL    HW122400   2.358   5.424   3.991 -0.7361 -0.2231 -0.4285
 7167SOL    HW222401   2.294   5.566   3.943  0.6627  0.3386 -0.6650
 7168SOL     OW22402   4.710   1.479   5.797 -0.0292 -0.1928  0.3048
 7168SOL    HW122403   4.748   1.570   5.784 -0.9487  0.2980  0.9126
 7168SOL    HW222404   4.779   1.419   5.839  0.4817  0.3011  0.1734
 7169SOL     OW22405   4.309   6.420   0.418  0.5785  1.1304  0.0160
 7169SOL    HW122406   4.358   6.404   0.504  0.2785  0.9701  0.1611
 7169SOL    HW222407   4.246   6.496   0.429  1.2223  1.7342 -0.3532
 7170SOL     OW22408   1.127   1.220   2.944  0.3349 -1.2154  0.0692
 7170SOL    HW122409   1.169   1.309   2.960 -0.3360 -1.0204  0.8119
 7170SOL    HW222410   1.092   1.216   2.851  0.4399 -0.7288  0.0063
 7171SOL     OW22411   1.356   5.779   2.612 -0.2526 -0.7519 -0.0286
 7171SOL    HW122412   1.455   5.767   2.620 -0.3049 -1.5688 -0.5529
 7171SOL    HW222413   1.323   5.732   2.530 -0.8557  0.7868 -0.7101
 7172SOL     OW22414   5.449   1.892   1.607 -0.0754  0.0160 -0.2290
 7172SOL    HW122415   5.367   1.879   1.662  0.7154  1.9149  1.5179
 7172SOL    HW222416   5.464   1.811   1.550 -2.7352 -0.6629 -0.1126
 7173SOL     OW22417   1.569   6.504   6.150 -0.6893  0.1032  0.2759
 7173SOL    HW122418   1.474   6.535   6.142 -0.4932  0.6924  0.1940
 7173SOL    HW222419   1.624   6.544   6.077 -0.9284 -2.5061 -1.4565
 7174SOL     OW22420   3.507   4.426   1.434  0.5806  0.4074 -0.9386
 7174SOL    HW122421   3.522   4.404   1.530 -2.9399 -0.1359 -0.3915
 7174SOL    HW222422   3.480   4.522   1.425  1.1168  0.5225 -1.4534
 7175SOL     OW22423   3.521   0.337   0.211 -0.0292 -0.1077  0.1710
 7175SOL    HW122424   3.568   0.418   0.245 -0.5869  0.5591 -0.6087
 7175SOL    HW222425   3.433   0.363   0.172 -0.5648 -1.1955  0.6065
 7176SOL     OW22426   6.630   4.627   5.101  0.0162  0.1594 -0.2598
 7176SOL    HW122427   6.616   4.567   5.181 -0.0470 -0.0704 -0.4416
 7176SOL    HW222428   6.727   4.651   5.094  0.1896 -0.6305 -0.6854
 7177SOL     OW22429   6.754   4.466   5.693  0.0968  0.1955  0.0391
 7177SOL    HW122430   6.774   4.370   5.711  1.3335  0.6994  1.7210
 7177SOL    HW222431   6.661   4.487   5.721 -0.2352 -0.5482 -0.4976
 7178SOL     OW22432   3.589   6.166   3.269 -0.1646  0.1797  0.5985
 7178SOL    HW122433   3.623   6.260   3.271  0.7751 -0.1470  0.3386
 7178SOL    HW222434   3.514   6.156   3.335 -2.1617  1.7898 -1.2762
 7179SOL     OW22435   0.806   3.802   1.336 -0.0194  0.5991 -0.4898
 7179SOL    HW122436   0.800   3.852   1.250 -1.8964  1.2213 -0.0606
 7179SOL    HW222437   0.806   3.703   1.317 -2.9027  0.6289 -1.2380
 7180SOL     OW22438   5.391   6.780   6.267  0.4157  0.3829 -0.5102
 7180SOL    HW122439   5.306   6.737   6.299  1.1897  0.1836  1.3756
 7180SOL    HW222440   5.440   6.715   6.208 -1.2318  0.9210 -2.6395
 7181SOL     OW22441   2.246   4.008   5.824  0.3739  0.5399 -0.7865
 7181SOL    HW122442   2.167   3.974   5.874 -0.2640  1.5520 -1.0806
 7181SOL    HW222443   2.251   3.963   5.735  2.0414 -1.9531  0.4742
 7182SOL     OW22444   1.633   5.558   1.767 -0.0925  0.6009  0.1270
 7182SOL    HW122445   1.539   5.555   1.801  0.0797  0.8184  0.6492
 7182SOL    HW222446   1.658   5.654   1.749  0.0924  0.5629  0.1822
 7183SOL     OW22447   6.830   5.078   5.608  1.1185 -0.1635  0.6933
 7183SOL    HW122448   6.836   5.173   5.579 -0.6981 -0.5232 -1.0424
 7183SOL    HW222449   6.881   5.020   5.543  0.6134 -0.5572  0.6434
 7184SOL     OW22450   5.889   5.511   0.407 -1.0618 -0.1321 -0.1960
 7184SOL    HW122451   5.816   5.554   0.355  0.1092  1.1221 -0.8800
 7184SOL    HW222452   5.974   5.562   0.393 -0.4631 -0.3970  2.1065
 7185SOL     OW22453   3.894   0.548   2.963 -1.0000 -0.0522 -0.3248
 7185SOL    HW122454   3.856   0.563   3.055 -1.1726 -2.4511  0.0535
 7185SOL    HW222455   3.833   0.488   2.912  0.8584 -1.6700 -0.7167
 7186SOL     OW22456   6.693   3.747   1.783 -0.1607  0.5903 -0.2855
 7186SOL    HW122457   6.762   3.683   1.749  1.5174  1.5690  1.0811
 7186SOL    HW222458   6.634   3.700   1.849  2.0988  0.6859  1.9912
 7187SOL     OW22459   5.603   1.300   4.971 -0.6434 -0.1768 -0.4332
 7187SOL    HW122460   5.533   1.311   5.042 -0.3941 -2.8712  0.3137
 7187SOL    HW222461   5.685   1.259   5.010  0.5118  0.7229 -1.7930
 7188SOL     OW22462   3.970   2.436   5.359 -0.1589 -0.3629  0.6283
 7188SOL    HW122463   4.032   2.475   5.291  1.2478 -1.3141  1.3251
 7188SOL    HW222464   4.022   2.403   5.437 -1.4828 -1.7673  0.9644
 7189SOL     OW22465   1.027   1.207   2.624  0.0374 -0.3121 -0.0529
 7189SOL    HW122466   0.941   1.211   2.575 -0.1410  0.0289  0.2799
 7189SOL    HW222467   1.084   1.133   2.587 -0.4738 -0.6657 -0.1429
 7190SOL     OW22468   2.740   1.518   2.069  0.1530 -0.4190 -0.2148
 7190SOL    HW122469   2.834   1.484   2.064 -0.1006 -1.1579 -0.0776
 7190SOL    HW222470   2.678   1.441   2.087 -0.5642 -0.0630 -1.0862
 7191SOL     OW22471   4.361   4.574   2.409 -0.4173 -0.2736  0.0805
 7191SOL    HW122472   4.427   4.521   2.462 -0.5986 -1.4605 -0.8471
 7191SOL    HW222473   4.387   4.572   2.312 -1.5968 -0.4088 -0.2416
 7192SOL     OW22474   5.763   0.792   4.469 -0.0506  0.6307 -0.1674
 7192SOL    HW122475   5.828   0.768   4.540 -0.7223  0.4087  0.3802
 7192SOL    HW222476   5.695   0.856   4.505 -0.6044  0.2432 -0.5112
 7193SOL     OW22477   3.439   5.713   5.692  0.2962 -0.6897 -0.3068
 7193SOL    HW122478   3.441   5.654   5.773  0.0479 -0.2920 -0.0047
 7193SOL    HW222479   3.344   5.731   5.666  0.3481  0.3041  0.1501
 7194SOL     OW22480   3.509   2.124   0.867  0.4855  0.4814  0.5299
 7194SOL    HW122481   3.589   2.182   0.885  1.5022 -0.5591 -0.4925
 7194SOL    HW222482   3.539   2.035   0.834 -1.1244  0.6269 -1.5453
 7195SOL     OW22483   5.007   0.837   4.021 -0.0402 -0.1578  0.5982
 7195SOL    HW122484   5.104   0.830   3.996 -0.3598 -0.9366 -0.5191
 7195SOL    HW222485   4.991   0.785   4.105  0.7953  1.3089  1.6929
 7196SOL     OW22486   4.126   5.178   1.517  0.0643 -0.2318  1.0477
 7196SOL    HW122487   4.049   5.213   1.571  0.5576  0.7198  1.1533
 7196SOL    HW222488   4.176   5.255   1.478  1.1579 -0.8319  1.2427
 7197SOL     OW22489   3.282   6.343   4.962 -0.6836  0.5894 -0.0653
 7197SOL    HW122490   3.348   6.355   5.036  1.0964 -2.8527 -0.8796
 7197SOL    HW222491   3.306   6.401   4.885 -0.1766  1.2600  0.5882
 7198SOL     OW22492   5.201   6.800   1.670  0.2780 -0.4616 -0.1446
 7198SOL    HW122493   5.258   6.735   1.621 -1.0448 -3.1078  1.5451
 7198SOL    HW222494   5.108   6.798   1.632  0.3299  0.8614 -0.3849
 7199SOL     OW22495   5.693   6.704   1.343 -0.6112  0.1045  0.1990
 7199SOL    HW122496   5.759   6.628   1.345 -0.0570  0.5898  0.7978
 7199SOL    HW222497   5.683   6.741   1.435  0.1755  1.6497 -0.3097
 7200SOL     OW22498   1.186   2.672   3.283 -0.0688 -0.0131  0.0130
 7200SOL    HW122499   1.206   2.756   3.334 -2.4148  0.0897  0.8999
 7200SOL    HW222500   1.252   2.602   3.307  0.9446  1.0870  0.5326
 7201SOL     OW22501   1.669   3.733   0.180  0.3304 -0.5129 -0.1133
 7201SOL    HW122502   1.740   3.803   0.169 -0.9014  0.8775  0.4743
 7201SOL    HW222503   1.670   3.672   0.101  1.5256  0.0770 -0.5828
 7202SOL     OW22504   1.568   0.961   5.915  0.4849  0.1275  0.4106
 7202SOL    HW122505   1.667   0.976   5.918  0.4646  0.1952  0.9244
 7202SOL    HW222506   1.549   0.863   5.913  0.5721  0.1238 -0.2578
 7203SOL     OW22507   2.744   6.308   5.154 -0.1797 -0.3016 -0.3267
 7203SOL    HW122508   2.820   6.366   5.124 -0.2741  0.8851  1.5342
 7203SOL    HW222509   2.768   6.265   5.241 -2.0495  1.0690  0.9303
 7204SOL     OW22510   1.231   6.920   3.899 -0.1055  0.0958  0.1436
 7204SOL    HW122511   1.152   6.969   3.935  0.3622  0.5168  0.6288
 7204SOL    HW222512   1.231   6.925   3.799  0.0452  1.2966  0.1879
 7205SOL     OW22513   6.977   5.393   4.493 -0.5102 -0.1357 -0.8131
 7205SOL    HW122514   6.909   5.333   4.534 -0.3573  0.1634 -0.0957
 7205SOL    HW222515   7.005   5.357   4.404 -0.2360 -1.2491 -0.2909
 7206SOL     OW22516   3.247   3.510   5.984 -0.1321  0.2730 -0.2688
 7206SOL    HW122517   3.234   3.411   5.991 -1.1438  0.4275  0.1253
 7206SOL    HW222518   3.188   3.547   5.913  0.0935  0.6245 -0.2748
 7207SOL     OW22519   4.018   1.154   5.517  0.0674 -0.1086 -0.0465
 7207SOL    HW122520   3.962   1.191   5.444 -0.3881  3.0975  1.7529
 7207SOL    HW222521   4.110   1.134   5.482 -0.3291  0.7023 -1.6390
 7208SOL     OW22522   2.659   1.638   6.814  0.3461 -0.1112 -0.3397
 7208SOL    HW122523   2.577   1.691   6.797 -0.0675 -0.3031  0.9489
 7208SOL    HW222524   2.700   1.610   6.727 -0.6057  0.4969 -0.9935
 7209SOL     OW22525   6.195   1.226   3.181 -0.1244 -0.3172 -0.0987
 7209SOL    HW122526   6.266   1.294   3.162 -0.1190 -0.2614  0.1278
 7209SOL    HW222527   6.155   1.243   3.270  1.3200 -1.8449  0.9103
 7210SOL     OW22528   1.949   1.226   1.071  0.3073  0.3460 -0.0540
 7210SOL    HW122529   1.865   1.186   1.109 -0.0459  0.3697 -0.7969
 7210SOL    HW222530   2.028   1.192   1.123 -0.1518  0.2451  0.5858
 7211SOL     OW22531   4.832   4.924   2.767 -0.3532 -0.2443 -0.3302
 7211SOL    HW122532   4.739   4.889   2.776 -0.4515  0.1696  0.3683
 7211SOL    HW222533   4.895   4.865   2.818 -0.4221  0.1969  0.2738
 7212SOL     OW22534   2.574   3.632   6.141  0.5301 -0.3907  0.2795
 7212SOL    HW122535   2.667   3.643   6.176  1.2849 -0.2068 -1.6421
 7212SOL    HW222536   2.530   3.721   6.135  0.2292 -0.4711  1.1335
 7213SOL     OW22537   6.152   3.345   3.469  0.7435  0.2731 -0.2325
 7213SOL    HW122538   6.211   3.370   3.392 -0.8408  0.6090 -1.3847
 7213SOL    HW222539   6.095   3.423   3.494 -0.0871 -0.3970  0.0193
 7214SOL     OW22540   1.224   6.242   6.624  0.4152  0.1125  0.1652
 7214SOL    HW122541   1.273   6.155   6.616  0.5507  0.1919  0.1296
 7214SOL    HW222542   1.214   6.283   6.534  0.5401  0.2369  0.2073
 7215SOL     OW22543   3.006   1.569   2.249  0.3637 -0.4025  0.3598
 7215SOL    HW122544   2.966   1.657   2.273 -2.9849 -1.0859 -1.9828
 7215SOL    HW222545   2.964   1.497   2.305  0.1840 -0.8873 -0.3879
 7216SOL     OW22546   3.404   4.124   0.269 -0.2890 -0.1165 -0.3657
 7216SOL    HW122547   3.410   4.025   0.276 -0.4512 -0.0466  1.2142
 7216SOL    HW222548   3.482   4.165   0.317  0.3413  0.5274 -1.8743
 7217SOL     OW22549   0.258   0.074   0.707  0.2982  0.3622  0.1769
 7217SOL    HW122550   0.294   0.062   0.615 -1.2068 -0.5553 -0.3273
 7217SOL    HW222551   0.197   0.153   0.710 -2.4101 -1.5626 -0.5682
 7218SOL     OW22552   2.980   4.371   0.352  0.6112  0.2469 -0.1909
 7218SOL    HW122553   2.882   4.362   0.368  0.6535 -2.2537 -0.9855
 7218SOL    HW222554   2.996   4.406   0.259  0.4465 -1.0426 -0.7228
 7219SOL     OW22555   3.927   5.388   1.045 -0.6902  0.4766  0.1199
 7219SOL    HW122556   3.909   5.482   1.076  0.2591  1.0378 -0.9296
 7219SOL    HW222557   3.931   5.387   0.945  0.8118 -0.3811  0.1614
 7220SOL     OW22558   1.107   6.719   5.348  0.3156 -0.3569 -0.4408
 7220SOL    HW122559   1.092   6.623   5.372  0.4419  0.0011  1.1431
 7220SOL    HW222560   1.020   6.763   5.329  0.2128 -0.6445 -0.6447
 7221SOL     OW22561   4.203   0.344   1.228  0.4512  0.2101  0.0832
 7221SOL    HW122562   4.178   0.270   1.289  0.5694  1.3185  1.5216
 7221SOL    HW222563   4.289   0.385   1.258  0.9934  0.2006 -1.3786
 7222SOL     OW22564   1.057   3.677   1.214 -0.1354 -0.1987  0.1317
 7222SOL    HW122565   1.120   3.692   1.290  0.1831  0.8727 -0.3379
 7222SOL    HW222566   1.035   3.764   1.170 -1.8267 -0.5623  0.1824
 7223SOL     OW22567   5.436   6.356   6.662  0.5342  0.1978 -0.3763
 7223SOL    HW122568   5.507   6.426   6.666 -0.7900  1.5251  1.0135
 7223SOL    HW222569   5.347   6.399   6.654 -0.2161 -1.4077 -1.1184
 7224SOL     OW22570   5.986   0.720   5.377  0.0921 -0.5948 -0.0888
 7224SOL    HW122571   5.986   0.646   5.310  2.6989 -2.9773  2.2455
 7224SOL    HW222572   5.913   0.706   5.444  0.1569 -0.6901 -0.0375
 7225SOL     OW22573   4.529   3.194   6.011 -0.2372  0.4962 -0.6683
 7225SOL    HW122574   4.459   3.265   6.023 -1.0878 -0.4328  0.0287
 7225SOL    HW222575   4.571   3.204   5.921 -1.2703  1.0733 -1.1126
 7226SOL     OW22576   6.392   3.975   5.549 -1.0813 -0.0150 -0.1392
 7226SOL    HW122577   6.397   4.035   5.628  1.4341 -1.6551  1.0729
 7226SOL    HW222578   6.367   3.883   5.579  0.4276 -0.7821 -1.1440
 7227SOL     OW22579   6.954   4.361   6.980 -0.3462 -0.0316  0.3213
 7227SOL    HW122580   6.931   4.459   6.981 -0.5958 -0.0899  0.5122
 7227SOL    HW222581   7.045   4.348   7.020 -0.1599  0.1588 -0.0364
 7228SOL     OW22582   4.556   1.197   5.347 -0.2370  0.1893 -0.7292
 7228SOL    HW122583   4.630   1.213   5.412 -0.6592 -0.1095 -0.1667
 7228SOL    HW222584   4.537   1.281   5.296  0.2314  0.3674 -0.6153
 7229SOL     OW22585   5.659   3.663   4.731  0.3614  0.5287  0.3927
 7229SOL    HW122586   5.565   3.684   4.756  0.0745 -0.3653  0.0712
 7229SOL    HW222587   5.674   3.685   4.635  0.3874  0.3366  0.3537
 7230SOL     OW22588   5.046   0.331   4.069 -0.4939 -0.1448  0.8524
 7230SOL    HW122589   4.980   0.345   3.996  0.0472 -0.8016  0.2176
 7230SOL    HW222590   4.998   0.315   4.155 -1.1608 -0.6590  0.3922
 7231SOL     OW22591   2.342   1.455   3.438 -0.2707  0.2469 -0.6644
 7231SOL    HW122592   2.419   1.391   3.445  0.2812  0.6915 -2.1692
 7231SOL    HW222593   2.279   1.441   3.514  1.3444 -0.0666  0.6532
 7232SOL     OW22594   5.487   2.530   5.506  0.0354 -0.7085  0.0133
 7232SOL    HW122595   5.472   2.553   5.410 -0.5575  0.1313  0.2923
 7232SOL    HW222596   5.438   2.445   5.528  0.1740 -0.9047 -0.4236
 7233SOL     OW22597   2.366   1.970   0.243  0.5040 -0.0848 -0.0316
 7233SOL    HW122598   2.394   1.964   0.148 -2.1237 -0.3727 -0.8734
 7233SOL    HW222599   2.392   2.059   0.280  1.3315  0.1244 -1.0837
 7234SOL     OW22600   1.151   5.062   2.858  0.1118 -0.0962 -0.3849
 7234SOL    HW122601   1.116   5.127   2.925  0.3711 -0.9091  0.5686
 7234SOL    HW222602   1.251   5.058   2.865  0.3208  1.2255 -2.1608
 7235SOL     OW22603   3.320   2.146   3.431  0.6330 -0.1797  0.1944
 7235SOL    HW122604   3.385   2.210   3.472 -0.5018  1.2067 -0.1266
 7235SOL    HW222605   3.332   2.056   3.473  1.0858  0.6326  1.8995
 7236SOL     OW22606   4.359   2.602   6.260  0.2773  0.1081  0.8565
 7236SOL    HW122607   4.365   2.615   6.161  0.8715 -1.3535  0.6875
 7236SOL    HW222608   4.355   2.692   6.304 -1.2216  0.7899 -0.5427
 7237SOL     OW22609   5.823   0.700   5.090  0.4117  0.2567  0.1608
 7237SOL    HW122610   5.837   0.711   4.992  0.8762 -1.9271 -0.0558
 7237SOL    HW222611   5.847   0.786   5.136  2.3762  0.6352 -1.4201
 7238SOL     OW22612   2.584   4.816   0.418 -0.4717  0.1237  0.0579
 7238SOL    HW122613   2.665   4.811   0.477 -0.2826  1.5146 -0.0375
 7238SOL    HW222614   2.515   4.873   0.461 -1.8231 -1.8110  0.5652
 7239SOL     OW22615   5.914   3.709   3.274  0.0323  0.4318  0.3983
 7239SOL    HW122616   5.937   3.621   3.232  1.0495 -0.0528  1.8762
 7239SOL    HW222617   5.904   3.778   3.202  0.9922 -0.4995 -0.6878
 7240SOL     OW22618   6.073   0.019   6.922 -0.3572 -0.1731 -0.4566
 7240SOL    HW122619   6.032   0.015   6.831 -3.0148  1.7690  0.5322
 7240SOL    HW222620   6.019   0.080   6.980  1.7314 -0.6865  2.2092
 7241SOL     OW22621   1.625   3.276   6.596  0.2347  0.5296 -0.4370
 7241SOL    HW122622   1.676   3.300   6.679 -1.2730  1.3163  0.3098
 7241SOL    HW222623   1.528   3.274   6.617 -0.1073 -0.2152 -1.9882
 7242SOL     OW22624   1.481   4.854   1.686  0.7592 -0.1208 -0.4817
 7242SOL    HW122625   1.491   4.777   1.623 -0.0371 -1.6010  1.1489
 7242SOL    HW222626   1.570   4.873   1.728  1.1125  0.3439 -1.3983
 7243SOL     OW22627   3.547   0.000   0.666 -0.5186 -0.4256  0.0368
 7243SOL    HW122628   3.628   0.031   0.716  0.3628 -1.0990 -0.9348
 7243SOL    HW222629   3.568  -0.084   0.616 -1.2793  0.3573 -1.6799
 7244SOL     OW22630   1.670   6.312   2.521  0.0706  0.3973 -0.1094
 7244SOL    HW122631   1.699   6.269   2.436 -0.7398 -3.1051  1.2323
 7244SOL    HW222632   1.580   6.354   2.508  0.2083  0.4221 -1.0797
 7245SOL     OW22633   4.753   2.070   0.990 -0.3407 -0.3162 -0.3844
 7245SOL    HW122634   4.778   2.089   1.085 -2.1653 -0.5732  0.1904
 7245SOL    HW222635   4.832   2.086   0.931  0.4305  1.3036  0.9871
 7246SOL     OW22636   0.239   3.759   1.706 -0.0988 -0.0252  0.3578
 7246SOL    HW122637   0.151   3.741   1.663 -1.2419  0.6121  2.3089
 7246SOL    HW222638   0.304   3.688   1.680 -1.2443 -0.6427 -0.9342
 7247SOL     OW22639   3.750   4.047   5.388  0.7301  0.1988  0.3426
 7247SOL    HW122640   3.839   4.068   5.428  0.8631  0.8036 -0.2457
 7247SOL    HW222641   3.730   4.113   5.316  0.7599 -1.2305 -1.0038
 7248SOL     OW22642   0.497   6.128   4.940  0.4960 -0.4650  0.7878
 7248SOL    HW122643   0.485   6.199   5.009  2.2170 -0.3559  1.0185
 7248SOL    HW222644   0.591   6.095   4.943  0.1915 -1.5157 -0.5159
 7249SOL     OW22645   0.693   4.328   1.573  0.4807 -0.3292  0.1322
 7249SOL    HW122646   0.702   4.246   1.629  0.8486 -1.2393 -1.2061
 7249SOL    HW222647   0.596   4.348   1.560  0.3692 -0.9956 -0.1302
 7250SOL     OW22648   6.095   2.102   5.107 -0.1145  0.1010  0.1712
 7250SOL    HW122649   6.129   2.132   5.018 -0.3721  0.6397  0.2499
 7250SOL    HW222650   6.146   2.148   5.180  0.2944 -0.5565  0.3133
 7251SOL     OW22651   1.425   0.014   6.777 -0.1302 -0.2635 -0.0657
 7251SOL    HW122652   1.524   0.004   6.775 -0.2772 -1.6747 -1.6440
 7251SOL    HW222653   1.386  -0.052   6.842 -0.0080  1.0249  1.3843
 7252SOL     OW22654   6.191   6.496   6.674 -0.6339 -0.2186  0.5249
 7252SOL    HW122655   6.199   6.596   6.668 -3.4615  0.1227  1.0217
 7252SOL    HW222656   6.107   6.472   6.723 -0.2408 -2.8528  0.0579
 7253SOL     OW22657   3.816   3.315   1.383  0.3275  0.0709  0.1865
 7253SOL    HW122658   3.911   3.304   1.410  0.9591  0.4192 -1.7208
 7253SOL    HW222659   3.795   3.412   1.372 -0.1362 -0.0228  0.2018
 7254SOL     OW22660   5.773   1.192   3.594 -0.3880 -0.4001  0.2485
 7254SOL    HW122661   5.813   1.145   3.515  1.3120 -1.5069  1.6820
 7254SOL    HW222662   5.846   1.221   3.655 -1.7072 -0.6015  1.9812
 7255SOL     OW22663   5.152   1.153   6.115  0.0893  0.1814  0.2003
 7255SOL    HW122664   5.165   1.231   6.054 -1.3723  0.0842 -0.2762
 7255SOL    HW222665   5.235   1.098   6.118  0.4890  0.7062 -0.9726
 7256SOL     OW22666   5.290   0.412   1.800  0.2785 -0.2753  0.2445
 7256SOL    HW122667   5.313   0.317   1.821 -0.5602 -0.6981 -0.6592
 7256SOL    HW222668   5.275   0.421   1.702  3.8671  1.5691 -0.3041
 7257SOL     OW22669   4.890   5.998   5.649  0.5820  0.6536 -0.2147
 7257SOL    HW122670   4.923   6.071   5.590  1.1493  1.2187  0.7693
 7257SOL    HW222671   4.956   5.922   5.649  0.4470  0.5356 -0.5158
 7258SOL     OW22672   0.619   0.905   0.252  0.0339 -0.2731 -0.3564
 7258SOL    HW122673   0.680   0.828   0.236  0.3678  0.1260 -1.0780
 7258SOL    HW222674   0.604   0.918   0.350  0.3720 -0.9413 -0.2189
 7259SOL     OW22675   2.027   5.400   5.710 -0.3367  0.3934  0.2850
 7259SOL    HW122676   2.077   5.477   5.750  0.8909  0.2232 -0.8415
 7259SOL    HW222677   2.057   5.315   5.753  0.3066  0.3000 -0.3296
 7260SOL     OW22678   4.007   3.310   5.499 -0.4437 -0.2590  0.6259
 7260SOL    HW122679   3.910   3.312   5.478 -0.5363  1.3175  1.1113
 7260SOL    HW222680   4.054   3.248   5.435 -1.4616  0.4875 -0.8992
 7261SOL     OW22681   6.386   1.078   4.505 -0.1178  0.5762  0.2576
 7261SOL    HW122682   6.304   1.024   4.489 -1.2711  2.6652 -1.3493
 7261SOL    HW222683   6.363   1.175   4.503  2.5904  1.2782 -1.6735
 7262SOL     OW22684   5.123   1.133   4.013 -0.5781  0.6837  0.5130
 7262SOL    HW122685   5.125   1.216   4.069 -2.3618 -0.0720  1.7663
 7262SOL    HW222686   5.037   1.129   3.962  0.7834  1.0987 -1.9857
 7263SOL     OW22687   1.799   2.542   4.661 -0.4938 -0.0191  0.2963
 7263SOL    HW122688   1.786   2.445   4.642 -2.3321  0.4435 -1.1731
 7263SOL    HW222689   1.887   2.556   4.706 -0.0281 -2.3001  0.2273
 7264SOL     OW22690   0.961   6.394   1.230 -0.0416 -0.0977  0.0783
 7264SOL    HW122691   0.985   6.315   1.173 -0.7616  0.6690 -1.3388
 7264SOL    HW222692   0.900   6.364   1.304  0.6924 -1.0622  0.3218
 7265SOL     OW22693   1.562   4.437   3.354 -0.8755 -0.5450 -0.2490
 7265SOL    HW122694   1.574   4.537   3.354  1.5895 -0.7766  0.5976
 7265SOL    HW222695   1.493   4.413   3.422 -1.4644  0.5618 -0.4187
 7266SOL     OW22696   5.806   4.716   3.913 -0.4702  0.4871  0.5828
 7266SOL    HW122697   5.899   4.684   3.930  0.2614  2.0988 -0.1697
 7266SOL    HW222698   5.742   4.668   3.973  0.7580 -1.0905  0.6746
 7267SOL     OW22699   0.573   3.585   3.067 -0.1882  0.2445 -0.5996
 7267SOL    HW122700   0.643   3.520   3.097 -0.8390 -0.2562 -0.1549
 7267SOL    HW222701   0.482   3.546   3.081 -0.6658  1.8331  1.0936
 7268SOL     OW22702   3.711   6.262   1.519 -0.0571  0.2511  1.1529
 7268SOL    HW122703   3.731   6.350   1.560 -0.0855  2.3282 -2.8101
 7268SOL    HW222704   3.628   6.269   1.463  1.1428 -1.5579 -1.0436
 7269SOL     OW22705   3.276   2.024   4.730  0.1921 -0.1311  0.0030
 7269SOL    HW122706   3.321   2.050   4.645 -0.3488  0.1410 -0.2077
 7269SOL    HW222707   3.219   2.099   4.762 -1.2090 -0.9352 -0.4839
 7270SOL     OW22708   0.311   1.920   2.540  0.5993  0.0725  0.3761
 7270SOL    HW122709   0.267   1.830   2.528 -0.6688  0.7483 -0.3198
 7270SOL    HW222710   0.259   1.973   2.606 -0.8286  1.5664 -1.8009
 7271SOL     OW22711   1.389   2.512   0.970  0.6298 -0.1592 -0.2780
 7271SOL    HW122712   1.291   2.519   0.991  0.9508 -0.6434  1.4671
 7271SOL    HW222713   1.434   2.455   1.039  2.2826  0.6421 -0.6629
 7272SOL     OW22714   3.974   0.175   1.700  0.0046  1.1578 -0.4369
 7272SOL    HW122715   3.965   0.148   1.796  1.9600 -0.1060 -0.5661
 7272SOL    HW222716   3.940   0.102   1.641  0.4802  1.1806 -0.7389
 7273SOL     OW22717   5.345   1.243   0.839  0.1112 -0.7925 -0.1763
 7273SOL    HW122718   5.383   1.259   0.930 -0.0055  0.3403 -0.3179
 7273SOL    HW222719   5.306   1.151   0.836  3.4109 -2.3559 -0.2380
 7274SOL     OW22720   4.105   2.083   4.520  0.2618  0.5400  0.5260
 7274SOL    HW122721   4.195   2.094   4.562  0.0605  2.3633  0.5356
 7274SOL    HW222722   4.035   2.119   4.582 -0.4286 -0.3778  0.2883
 7275SOL     OW22723   4.603   0.871   6.572 -0.2648 -0.0082 -0.5075
 7275SOL    HW122724   4.638   0.948   6.517  0.8278  0.1085  0.3104
 7275SOL    HW222725   4.614   0.786   6.521  0.6583  0.1087 -0.5236
 7276SOL     OW22726   0.890   0.617   6.371 -0.2896 -0.1074  0.4050
 7276SOL    HW122727   0.966   0.682   6.376  2.1252 -2.3105 -2.8797
 7276SOL    HW222728   0.820   0.653   6.309 -0.6866  0.8126  1.3693
 7277SOL     OW22729   6.422   3.496   4.375  0.2091  0.3141  0.1532
 7277SOL    HW122730   6.497   3.452   4.424 -0.9185 -1.3942  0.4360
 7277SOL    HW222731   6.360   3.426   4.340 -2.7476  1.6690  2.2447
 7278SOL     OW22732   4.441   1.240   4.122 -0.3633 -0.1322 -0.0894
 7278SOL    HW122733   4.405   1.291   4.045 -0.8175  1.5582  1.1793
 7278SOL    HW222734   4.541   1.241   4.120 -0.2398  3.4098  1.4047
 7279SOL     OW22735   3.391   1.580   6.553  0.5963  0.3946  0.0713
 7279SOL    HW122736   3.459   1.512   6.526  0.6344  0.3440  0.2871
 7279SOL    HW222737   3.402   1.663   6.497  0.4523  0.1684 -0.2935
 7280SOL     OW22738   6.239   0.982   0.439  0.4155  0.2667  0.0857
 7280SOL    HW122739   6.315   0.930   0.477 -0.2931 -2.1074 -1.5076
 7280SOL    HW222740   6.177   1.009   0.512  1.3274 -0.2741  1.0833
 7281SOL     OW22741   6.753   2.742   3.954 -0.8747  0.3163 -0.1682
 7281SOL    HW122742   6.729   2.665   4.013  0.2477  0.0972  0.0253
 7281SOL    HW222743   6.733   2.719   3.858 -1.1259  0.0364 -0.0487
 7282SOL     OW22744   3.656   2.125   4.510  0.1644  0.0584 -0.1439
 7282SOL    HW122745   3.750   2.120   4.478 -0.0634 -0.5997 -0.7317
 7282SOL    HW222746   3.653   2.110   4.608  0.7509  0.8820  0.0127
 7283SOL     OW22747   3.601   5.173   3.523 -0.2063  0.0389  0.2064
 7283SOL    HW122748   3.508   5.150   3.550  0.3290 -0.5448  1.6901
 7283SOL    HW222749   3.663   5.099   3.551  0.6722  0.2700 -1.0340
 7284SOL     OW22750   3.226   0.284   2.854  0.5214  0.1937  0.0756
 7284SOL    HW122751   3.286   0.247   2.924  0.3040 -1.4089 -0.5426
 7284SOL    HW222752   3.149   0.222   2.838 -0.1872  1.1934 -0.6119
 7285SOL     OW22753   5.563   6.059   2.103  0.1169 -0.8533 -0.4721
 7285SOL    HW122754   5.512   6.086   2.022 -0.7313 -0.8720  0.0412
 7285SOL    HW222755   5.644   6.117   2.112 -0.0054 -0.5735 -1.0960
 7286SOL     OW22756   2.290   6.083   5.065  0.1127  0.4148 -0.6374
 7286SOL    HW122757   2.366   6.147   5.077 -0.1628  0.9324 -1.5929
 7286SOL    HW222758   2.325   5.989   5.072 -0.0179  0.4357  4.6697
 7287SOL     OW22759   2.307   2.068   0.925  0.2207  0.5605 -0.3779
 7287SOL    HW122760   2.247   2.072   1.005 -0.9771  0.9383 -1.2677
 7287SOL    HW222761   2.342   1.975   0.915  0.7390  0.6114  0.8282
 7288SOL     OW22762   0.674   5.492   3.528 -0.6532 -0.4924  0.3847
 7288SOL    HW122763   0.583   5.451   3.527 -0.6441 -0.5289  0.7815
 7288SOL    HW222764   0.684   5.548   3.611 -0.6571  0.2935 -0.1336
 7289SOL     OW22765   6.125   3.640   2.670 -0.3749  0.6292 -0.1191
 7289SOL    HW122766   6.185   3.720   2.673  1.5923 -0.8201  0.6388
 7289SOL    HW222767   6.047   3.655   2.731  0.7711  1.3386  1.2185
 7290SOL     OW22768   6.350   5.491   1.173 -0.2638  0.2868 -0.2027
 7290SOL    HW122769   6.262   5.450   1.196 -0.8585  2.1115  1.0660
 7290SOL    HW222770   6.342   5.538   1.085 -0.3160 -0.2346 -0.4774
 7291SOL     OW22771   2.873   4.284   6.118 -0.1687 -0.0766  0.3160
 7291SOL    HW122772   2.877   4.238   6.030 -1.8752  2.3396 -1.1464
 7291SOL    HW222773   2.839   4.221   6.187 -1.8625 -1.2001 -1.4474
 7292SOL     OW22774   0.121   0.735   6.667 -0.0633 -0.1026  0.0433
 7292SOL    HW122775   0.181   0.778   6.734 -0.7925  0.0913  0.5870
 7292SOL    HW222776   0.036   0.786   6.661  0.1376  0.1009 -1.3208
 7293SOL     OW22777   5.178   4.701   5.936 -0.5775 -0.4011 -0.6106
 7293SOL    HW122778   5.140   4.629   5.878 -0.7885 -1.0376  0.2870
 7293SOL    HW222779   5.272   4.720   5.908 -0.6288 -0.8042 -1.0619
 7294SOL     OW22780   0.001   5.797   2.583  0.1864 -0.5575 -0.1865
 7294SOL    HW122781  -0.074   5.738   2.613  0.6975 -0.1037  2.2198
 7294SOL    HW222782   0.062   5.745   2.523 -0.4407 -1.8367  0.2372
 7295SOL     OW22783   1.145   6.400   4.633 -0.5651  0.1588  0.1244
 7295SOL    HW122784   1.146   6.318   4.575 -1.2292  0.8036 -0.8419
 7295SOL    HW222785   1.147   6.481   4.574 -0.1065  0.8376  1.0620
 7296SOL     OW22786   1.106   3.901   2.617 -0.5933 -0.0345  0.7392
 7296SOL    HW122787   1.024   3.845   2.609 -1.8704  1.3459  3.1417
 7296SOL    HW222788   1.139   3.898   2.712  2.3905 -0.8274 -0.2194
 7297SOL     OW22789   4.298   4.860   2.928 -0.1545 -0.5804  0.3819
 7297SOL    HW122790   4.243   4.795   2.876  0.2500 -2.4104  2.0951
 7297SOL    HW222791   4.270   4.953   2.907 -0.5872 -1.2568 -2.3724
 7298SOL     OW22792   4.263   5.402   7.003  0.2001  0.5943  0.1459
 7298SOL    HW122793   4.228   5.397   6.910  0.5920 -0.2719  0.0418
 7298SOL    HW222794   4.289   5.497   7.023  0.5118  0.7118 -0.7666
 7299SOL     OW22795   5.596   3.921   4.252 -0.2103 -0.4039 -0.3310
 7299SOL    HW122796   5.614   4.019   4.241  2.1867 -0.8189 -0.6565
 7299SOL    HW222797   5.647   3.869   4.184 -2.6100 -1.8616 -1.1414
 7300SOL     OW22798   6.876   6.756   6.914  0.0178 -0.0658  0.1580
 7300SOL    HW122799   6.958   6.698   6.913 -0.8868 -1.4212  0.8226
 7300SOL    HW222800   6.802   6.708   6.962 -1.9630 -0.0047 -2.5882
 7301SOL     OW22801   0.567   4.880   5.060 -0.5307 -0.1436 -0.4878
 7301SOL    HW122802   0.536   4.813   4.992  0.2341 -1.1437  0.1282
 7301SOL    HW222803   0.545   4.847   5.152  1.8040 -0.6232 -0.0481
 7302SOL     OW22804   2.502   5.930   0.961  0.2911  0.2730 -0.4929
 7302SOL    HW122805   2.495   5.928   1.060  2.1554  0.7983 -0.3141
 7302SOL    HW222806   2.578   5.872   0.931  0.5756  1.1090 -1.4910
 7303SOL     OW22807   1.804   6.531   5.388 -0.1942  0.4874 -0.2838
 7303SOL    HW122808   1.851   6.490   5.310 -0.6995 -1.8976  0.5594
 7303SOL    HW222809   1.838   6.490   5.473 -0.3803  2.2612  0.6851
 7304SOL     OW22810   1.957   2.210   2.204  0.0405  0.0473 -0.3375
 7304SOL    HW122811   1.866   2.170   2.191 -0.0858  0.0600  0.4806
 7304SOL    HW222812   2.018   2.142   2.245 -0.1747  0.6530  1.0600
 7305SOL     OW22813   6.427   2.388   3.569  0.4230 -0.2398  0.6603
 7305SOL    HW122814   6.418   2.433   3.480  0.7174 -2.2694 -0.4492
 7305SOL    HW222815   6.343   2.403   3.622 -0.2609 -0.0101 -0.4460
 7306SOL     OW22816   6.409   2.597   2.122 -0.1615  0.5484  0.1390
 7306SOL    HW122817   6.490   2.601   2.064 -1.9901  1.7705 -2.4922
 7306SOL    HW222818   6.369   2.688   2.130 -1.3414 -0.0322  1.3456
 7307SOL     OW22819   5.348   4.994   3.967 -0.5204  0.8803  0.2998
 7307SOL    HW122820   5.397   5.059   3.909  2.0911 -0.1991  1.1439
 7307SOL    HW222821   5.321   5.039   4.053 -0.1700  1.2647  0.2098
 7308SOL     OW22822   4.311   4.098   6.682 -0.0654  0.4032 -0.2369
 7308SOL    HW122823   4.227   4.140   6.649 -0.0730  0.9456  0.4374
 7308SOL    HW222824   4.312   4.098   6.782 -0.0105 -1.1320 -0.2119
 7309SOL     OW22825   0.696   3.599   4.224  0.3336 -0.5431 -0.1069
 7309SOL    HW122826   0.702   3.639   4.132 -0.1895 -0.3921 -0.0767
 7309SOL    HW222827   0.600   3.581   4.246  0.0167  2.5825  1.7510
 7310SOL     OW22828   4.800   0.088   6.541  0.1578 -0.0852 -0.2248
 7310SOL    HW122829   4.787   0.057   6.447 -0.2652 -0.4346 -0.0529
 7310SOL    HW222830   4.849   0.018   6.593 -2.2760 -1.2872  0.6180
 7311SOL     OW22831   6.375   5.102   0.674  0.7921 -0.1345  0.7004
 7311SOL    HW122832   6.474   5.117   0.676  0.6525  0.9828 -0.0851
 7311SOL    HW222833   6.339   5.126   0.584 -0.3723  0.7063  1.3576
 7312SOL     OW22834   1.342   6.235   2.135  0.2628 -0.2585 -0.2832
 7312SOL    HW122835   1.328   6.151   2.187  1.0199  0.9729  2.0537
 7312SOL    HW222836   1.254   6.266   2.098 -0.8671  0.0822  2.4145
 7313SOL     OW22837   5.006   5.109   4.633  0.0268 -0.1027 -0.0610
 7313SOL    HW122838   5.001   5.173   4.710 -0.3847  0.7158 -0.7504
 7313SOL    HW222839   4.930   5.045   4.637 -1.1549  1.1898 -0.8453
 7314SOL     OW22840   2.465   5.139   6.817  0.2147 -0.0895 -0.0711
 7314SOL    HW122841   2.467   5.048   6.774  1.6526 -0.0471 -0.1575
 7314SOL    HW222842   2.386   5.190   6.784  0.2213 -0.7688 -1.2087
 7315SOL     OW22843   4.578   4.899   4.929 -0.2813 -0.0578 -0.3625
 7315SOL    HW122844   4.585   4.845   5.013 -1.2083  0.5321  0.1145
 7315SOL    HW222845   4.646   4.867   4.863  0.2827 -0.7108  0.5089
 7316SOL     OW22846   1.285   4.627   2.770  0.8528 -0.2428  0.0730
 7316SOL    HW122847   1.342   4.578   2.703  0.7775  0.7874 -0.7724
 7316SOL    HW222848   1.243   4.706   2.726 -1.3856 -1.0511  0.6265
 7317SOL     OW22849   3.799   1.129   6.214 -0.3549 -0.0142  0.2238
 7317SOL    HW122850   3.811   1.225   6.186 -1.1142 -0.0826 -0.3841
 7317SOL    HW222851   3.701   1.108   6.215 -0.1925 -0.7534  0.4625
 7318SOL     OW22852   5.443   5.525   5.544  0.0313  0.4326 -0.2539
 7318SOL    HW122853   5.422   5.561   5.453 -0.0511 -1.2163 -0.9291
 7318SOL    HW222854   5.509   5.450   5.537  1.1017  1.1773  1.2078
 7319SOL     OW22855   0.506   1.532   4.517  0.0933 -0.2557 -0.1193
 7319SOL    HW122856   0.585   1.471   4.521  1.2026  1.1675  0.9458
 7319SOL    HW222857   0.504   1.578   4.429  2.2930  1.9227  0.8491
 7320SOL     OW22858   1.761   1.541   6.140  0.0788 -0.0633 -0.2556
 7320SOL    HW122859   1.668   1.573   6.157 -0.3168  0.5587 -3.1553
 7320SOL    HW222860   1.808   1.605   6.079  2.3574 -0.5092  0.9052
 7321SOL     OW22861   5.137   2.102   4.114  0.0795  0.6315  0.2846
 7321SOL    HW122862   5.074   2.173   4.080 -0.3101 -0.0034 -0.3316
 7321SOL    HW222863   5.229   2.122   4.083 -0.3745 -0.3473 -1.8619
 7322SOL     OW22864   3.119   6.966   6.145  0.0742 -0.0822 -0.3725
 7322SOL    HW122865   3.056   6.889   6.158  0.1298 -0.5068 -2.2856
 7322SOL    HW222866   3.168   6.954   6.058  1.6474  1.0483  0.3063
 7323SOL     OW22867   0.997   6.541   0.179  0.2127  0.3130 -0.6107
 7323SOL    HW122868   0.990   6.555   0.278  1.2314  0.8809 -0.6135
 7323SOL    HW222869   0.956   6.618   0.131 -0.2032  0.0785 -0.6369
 7324SOL     OW22870   0.046   1.793   3.842  0.4545 -0.0186  0.0966
 7324SOL    HW122871  -0.007   1.870   3.877  0.1942 -0.8240  1.5744
 7324SOL    HW222872   0.067   1.808   3.746 -0.9654  1.1260 -0.0733
 7325SOL     OW22873   3.928   4.987   0.853  0.1327 -0.0702 -0.3228
 7325SOL    HW122874   3.867   5.048   0.804 -0.8048  0.9796  2.0069
 7325SOL    HW222875   3.874   4.916   0.899  0.8462 -0.2254  0.2860
 7326SOL     OW22876   5.281   1.985   0.257  0.2740  0.3402 -0.1041
 7326SOL    HW122877   5.362   1.927   0.272 -1.0697 -1.1569  1.9275
 7326SOL    HW222878   5.255   1.981   0.161  0.9562 -1.4814 -0.2595
 7327SOL     OW22879   0.889   2.478   1.893  0.2092 -0.3640 -0.5618
 7327SOL    HW122880   0.817   2.513   1.834  1.5363  2.6909 -0.5921
 7327SOL    HW222881   0.871   2.504   1.988  0.5706 -0.8304 -0.3578
 7328SOL     OW22882   0.074   6.615   0.304  0.1326  0.1876  0.1221
 7328SOL    HW122883   0.067   6.558   0.387 -3.8461 -1.4528 -1.0694
 7328SOL    HW222884   0.127   6.566   0.235 -0.1806 -0.4713  0.3317
 7329SOL     OW22885   5.520   2.702   0.192  0.9234 -0.4597 -0.2758
 7329SOL    HW122886   5.498   2.619   0.244  0.8239 -0.5809 -0.5124
 7329SOL    HW222887   5.572   2.678   0.110  0.0146 -0.4041 -0.8858
 7330SOL     OW22888   5.642   4.621   5.121 -0.9087 -0.6847  0.1138
 7330SOL    HW122889   5.612   4.653   5.031 -0.8256  0.3360  0.4276
 7330SOL    HW222890   5.664   4.700   5.178 -0.4758 -1.3340  0.8677
 7331SOL     OW22891   5.577   1.592   1.537 -0.6291  0.2643 -0.1286
 7331SOL    HW122892   5.662   1.630   1.574 -1.5026  2.2618 -0.0227
 7331SOL    HW222893   5.585   1.583   1.438 -1.1555  3.1313 -0.5271
 7332SOL     OW22894   5.769   0.856   4.843  0.2444 -0.2760 -0.1995
 7332SOL    HW122895   5.723   0.899   4.766 -0.2461 -0.1240  0.1790
 7332SOL    HW222896   5.713   0.864   4.925  1.9653  2.1217  0.8853
 7333SOL     OW22897   4.580   1.554   5.497  0.0153 -0.3276  0.1267
 7333SOL    HW122898   4.679   1.537   5.503 -0.1876 -1.3494  0.7225
 7333SOL    HW222899   4.551   1.541   5.402  0.2749 -1.1133  0.1437
 7334SOL     OW22900   4.894   0.196   0.175 -0.0493  0.1461  0.3211
 7334SOL    HW122901   4.858   0.117   0.226  1.0006 -1.8108 -1.7545
 7334SOL    HW222902   4.982   0.171   0.135  0.1146  2.2681 -0.7502
 7335SOL     OW22903   3.897   1.425   1.349 -0.6602 -0.3149 -0.2944
 7335SOL    HW122904   3.988   1.397   1.318 -0.4838  0.2034 -0.2479
 7335SOL    HW222905   3.905   1.507   1.405 -0.8838 -1.5622  1.6798
 7336SOL     OW22906   6.926   4.853   1.728  0.1075 -0.0177  0.0920
 7336SOL    HW122907   6.866   4.782   1.766 -1.0441  1.5489  1.3474
 7336SOL    HW222908   6.870   4.920   1.678  0.7317  1.6636  1.5736
 7337SOL     OW22909   3.566   5.220   3.208  0.0834 -0.4060  0.1578
 7337SOL    HW122910   3.555   5.148   3.139 -1.4219 -0.7253  0.6756
 7337SOL    HW222911   3.558   5.180   3.299  2.0166  0.0207  0.5514
 7338SOL     OW22912   3.336   0.059   2.339 -0.1051  0.9964  0.2183
 7338SOL    HW122913   3.408   0.002   2.379 -0.8740  0.0834  0.3267
 7338SOL    HW222914   3.269   0.082   2.409 -1.8929 -1.2850 -0.6120
 7339SOL     OW22915   2.027   0.068   0.564  0.0389 -0.1826 -0.0687
 7339SOL    HW122916   1.978   0.151   0.539  1.4179  0.9398  0.7436
 7339SOL    HW222917   2.118   0.093   0.599 -0.1380 -1.9047  1.8008
 7340SOL     OW22918   3.724   3.065   5.908 -0.0895 -0.4341 -0.1381
 7340SOL    HW122919   3.666   2.984   5.909 -1.4438  0.4966 -0.4620
 7340SOL    HW222920   3.691   3.130   5.976  0.2076  0.3612 -0.7391
 7341SOL     OW22921   3.708   5.028   2.395 -0.0119 -0.4228 -0.1022
 7341SOL    HW122922   3.785   4.966   2.412 -0.0949 -0.2065  1.1493
 7341SOL    HW222923   3.624   4.974   2.384 -0.2101 -0.5420  1.7087
 7342SOL     OW22924   5.919   3.867   1.697 -0.0119 -0.1283 -0.0580
 7342SOL    HW122925   5.839   3.878   1.638 -1.6513 -3.3725  1.3084
 7342SOL    HW222926   5.963   3.956   1.710 -1.5450  1.2584 -3.3197
 7343SOL     OW22927   0.417   3.495   4.364  0.1398  0.1608  0.4207
 7343SOL    HW122928   0.366   3.517   4.447  0.3861  0.1817  0.5671
 7343SOL    HW222929   0.356   3.501   4.285  0.3853  2.1865  0.3500
 7344SOL     OW22930   0.950   3.547   4.960  0.1589  0.1571 -0.0866
 7344SOL    HW122931   1.034   3.601   4.956  0.3524 -0.1410  0.0142
 7344SOL    HW222932   0.934   3.516   5.054  0.5704 -0.8047 -0.3356
 7345SOL     OW22933   1.047   5.730   5.214  0.4225 -0.0773  0.3851
 7345SOL    HW122934   1.141   5.714   5.184 -0.0854 -1.8456 -0.4192
 7345SOL    HW222935   1.021   5.663   5.283 -0.2185  0.4766  0.7037
 7346SOL     OW22936   3.122   4.968   1.622 -0.2638  0.0770 -0.8004
 7346SOL    HW122937   3.031   4.930   1.607 -0.6857  0.8348 -0.2795
 7346SOL    HW222938   3.181   4.900   1.665 -1.0686  0.0550  0.3219
 7347SOL     OW22939   6.673   5.512   0.959  0.2413 -0.2591 -0.2313
 7347SOL    HW122940   6.625   5.436   0.915  0.6151  0.6270 -2.3018
 7347SOL    HW222941   6.771   5.504   0.941  0.1577  1.3955 -1.7029
 7348SOL     OW22942   6.197   0.879   5.455  0.7804 -0.0627 -0.0090
 7348SOL    HW122943   6.144   0.801   5.423  1.2163  0.3057 -1.7585
 7348SOL    HW222944   6.294   0.855   5.457  1.1774  0.9324 -2.5543
 7349SOL     OW22945   5.542   3.008   5.170 -0.0945  0.7031 -0.5252
 7349SOL    HW122946   5.484   3.046   5.243 -1.2886 -1.4100 -0.3007
 7349SOL    HW222947   5.493   3.012   5.083  0.5531  1.3956 -0.8780
 7350SOL     OW22948   4.804   2.602   0.626 -0.1391 -0.5516 -0.4433
 7350SOL    HW122949   4.752   2.673   0.674 -0.8606 -0.2377 -1.6663
 7350SOL    HW222950   4.746   2.559   0.557  0.8683 -1.0290 -1.0120
 7351SOL     OW22951   3.262   3.533   2.911  0.2913  0.5127 -0.1254
 7351SOL    HW122952   3.354   3.571   2.920  0.4506  0.7432 -2.1908
 7351SOL    HW222953   3.235   3.533   2.814 -1.3551 -0.7872  0.2782
 7352SOL     OW22954   1.642   2.585   3.074 -0.0118  0.2503 -0.3418
 7352SOL    HW122955   1.641   2.485   3.078 -0.0171  0.2483 -0.3948
 7352SOL    HW222956   1.556   2.621   3.110 -0.3505  0.2077 -1.0688
 7353SOL     OW22957   0.792   4.899   6.140 -0.5005  0.4273 -0.2040
 7353SOL    HW122958   0.747   4.892   6.050 -0.4099 -4.2040 -0.1248
 7353SOL    HW222959   0.723   4.888   6.212 -0.3220  2.4100  0.3318
 7354SOL     OW22960   5.757   4.522   2.524  0.0733  0.0091 -0.0159
 7354SOL    HW122961   5.788   4.520   2.429 -0.9461  0.7188 -0.3820
 7354SOL    HW222962   5.773   4.433   2.567  1.1474 -0.1160 -0.6451
 7355SOL     OW22963   5.834   2.365   1.349 -0.1154  0.4989 -0.2934
 7355SOL    HW122964   5.852   2.269   1.327 -3.4963 -0.3424  0.1353
 7355SOL    HW222965   5.806   2.372   1.445  1.4921  2.1833  0.0998
 7356SOL     OW22966   5.153   2.796   4.732 -0.4326 -0.3337  0.1102
 7356SOL    HW122967   5.126   2.777   4.638 -2.1780 -0.6790  0.6500
 7356SOL    HW222968   5.252   2.785   4.741 -0.5798 -3.4563 -0.9638
 7357SOL     OW22969   3.803   6.337   2.223  0.2909  0.0996 -0.1365
 7357SOL    HW122970   3.737   6.342   2.298  0.2876 -0.1678 -0.1192
 7357SOL    HW222971   3.848   6.425   2.213 -0.7147  0.5499 -0.7556
 7358SOL     OW22972   5.763   3.451   0.859 -0.3348 -0.0821  0.4572
 7358SOL    HW122973   5.776   3.393   0.779  2.7346 -0.2870  0.9972
 7358SOL    HW222974   5.815   3.414   0.937 -0.5935  1.8420  1.6161
 7359SOL     OW22975   3.820   6.108   3.130  0.1185 -0.3226 -0.0253
 7359SOL    HW122976   3.832   6.011   3.111 -0.4972 -0.0841 -1.7838
 7359SOL    HW222977   3.754   6.119   3.204  0.3580 -1.2362  0.3360
 7360SOL     OW22978   0.896   0.803   0.466  0.5537 -0.8817 -0.0139
 7360SOL    HW122979   0.821   0.867   0.485 -0.3508 -1.9414  0.0870
 7360SOL    HW222980   0.870   0.742   0.392  0.1922 -2.9942  1.7370
 7361SOL     OW22981   2.438   1.077   6.885 -0.0161 -0.2926 -0.0004
 7361SOL    HW122982   2.375   1.101   6.811  0.8027 -0.1571 -0.6648
 7361SOL    HW222983   2.424   0.981   6.910 -1.1390 -0.0157  0.5309
 7362SOL     OW22984   4.040   2.983   5.549  0.1781 -0.5733 -0.1939
 7362SOL    HW122985   4.123   3.035   5.529 -0.4469  0.8942  0.8563
 7362SOL    HW222986   4.014   2.928   5.469  0.1213  1.7830 -1.8843
 7363SOL     OW22987   2.343   5.405   1.983  0.1320 -0.3502  0.1538
 7363SOL    HW122988   2.255   5.430   2.024  0.6813  3.2195 -0.5116
 7363SOL    HW222989   2.402   5.366   2.053 -0.6447  0.9530  1.5957
 7364SOL     OW22990   3.545   3.804   4.686 -0.1151 -0.3587  0.5312
 7364SOL    HW122991   3.501   3.888   4.657  0.5362  0.4264  1.7528
 7364SOL    HW222992   3.616   3.824   4.753  1.5107 -1.6751 -0.7035
 7365SOL     OW22993   3.970   3.904   4.022  0.3359  0.1582 -0.0320
 7365SOL    HW122994   4.022   3.882   4.104 -0.6080  1.8838  1.0818
 7365SOL    HW222995   3.923   3.821   3.989  0.6254 -0.5313  1.2331
 7366SOL     OW22996   2.787   6.857   1.987 -0.0121 -0.2376 -0.1509
 7366SOL    HW122997   2.719   6.906   2.041 -0.2061 -1.1592  0.4636
 7366SOL    HW222998   2.804   6.767   2.028  0.3370 -0.6858 -1.2372
 7367SOL     OW22999   2.184   3.340   4.126  1.0096  0.3952  0.2052
 7367SOL    HW123000   2.182   3.404   4.203  0.7105  0.2180  0.3415
 7367SOL    HW223001   2.220   3.252   4.156 -0.2596 -0.0580  0.4242
 7368SOL     OW23002   1.539   0.399   1.310  0.0064 -0.1537  0.4209
 7368SOL    HW123003   1.637   0.383   1.299  0.4219  1.3112  1.6211
 7368SOL    HW223004   1.490   0.363   1.230  1.6223  0.1369 -0.7535
 7369SOL     OW23005   0.927   4.509   4.183  0.3026  0.1079  0.0279
 7369SOL    HW123006   0.916   4.565   4.265 -3.3147  0.9089 -0.8424
 7369SOL    HW223007   0.991   4.434   4.203  0.8298  1.2059  3.0226
 7370SOL     OW23008   2.857   1.926   3.765 -0.3029 -0.2938 -0.2280
 7370SOL    HW123009   2.906   2.010   3.743  1.0006 -0.9548  0.0229
 7370SOL    HW223010   2.795   1.942   3.841 -0.5479  0.5902 -0.6058
 7371SOL     OW23011   1.907   6.609   2.464  0.0911  0.5946 -0.0864
 7371SOL    HW123012   1.951   6.614   2.554 -0.0292  1.0282 -0.0475
 7371SOL    HW223013   1.944   6.680   2.405 -1.3107  1.6952  0.2893
 7372SOL     OW23014   1.053   5.272   3.047  0.4343  0.2788 -0.5348
 7372SOL    HW123015   1.093   5.239   3.132  1.2283 -2.2191 -1.7889
 7372SOL    HW223016   0.956   5.248   3.045  0.0643  1.6359  0.2505
 7373SOL     OW23017   5.699   0.321   1.934 -0.0743 -0.3582 -0.4539
 7373SOL    HW123018   5.797   0.334   1.918  0.4719 -0.1960  2.5527
 7373SOL    HW223019   5.685   0.254   2.007 -2.2245 -0.2861 -0.7196
 7374SOL     OW23020   5.052   4.939   1.652 -0.1118 -0.3087  0.9660
 7374SOL    HW123021   5.086   4.846   1.644  0.9878  0.1943 -0.9858
 7374SOL    HW223022   4.972   4.941   1.712 -1.0465 -2.7340 -0.0892
 7375SOL     OW23023   0.366   0.694   0.057  0.1953  0.1009  0.4930
 7375SOL    HW123024   0.420   0.772   0.090  1.1928 -0.3797  0.0500
 7375SOL    HW223025   0.417   0.647  -0.015 -1.9111  1.1735 -1.8735
 7376SOL     OW23026   1.434   4.528   1.258 -0.4014  0.2530 -0.4081
 7376SOL    HW123027   1.435   4.442   1.207 -0.8046 -0.6035  0.9674
 7376SOL    HW223028   1.344   4.539   1.301 -0.3429  1.3650 -0.5635
 7377SOL     OW23029   4.437   6.639   4.412  0.2650  0.0945 -0.2077
 7377SOL    HW123030   4.349   6.685   4.405 -0.6470 -1.1427  1.8821
 7377SOL    HW223031   4.484   6.642   4.324 -1.6171  1.2468 -1.2385
 7378SOL     OW23032   0.345   6.578   2.288 -0.6044 -0.0957  0.1263
 7378SOL    HW123033   0.381   6.510   2.351  1.1262  1.0389  0.4503
 7378SOL    HW223034   0.246   6.583   2.297 -0.4579 -0.1186  2.6714
 7379SOL     OW23035   3.612   5.565   4.107 -0.1755 -0.4156 -0.2558
 7379SOL    HW123036   3.636   5.658   4.078 -1.3350 -0.3513 -1.0441
 7379SOL    HW223037   3.573   5.568   4.199  0.6100 -0.2395  0.0799
 7380SOL     OW23038   0.484   3.110   0.752  0.4689  0.2311 -0.2540
 7380SOL    HW123039   0.403   3.102   0.694  1.4135  1.1968 -1.7745
 7380SOL    HW223040   0.471   3.184   0.818 -0.8839 -1.3128  1.3084
 7381SOL     OW23041   4.670   5.563   5.715 -0.5474 -0.0373  0.4518
 7381SOL    HW123042   4.584   5.543   5.762 -1.1362 -0.6332 -0.8097
 7381SOL    HW223043   4.691   5.488   5.651 -0.1343  1.0157 -0.6887
 7382SOL     OW23044   2.880   0.893   2.995 -0.1320 -0.2254 -0.1258
 7382SOL    HW123045   2.794   0.908   2.947  0.0619  0.3934 -0.2929
 7382SOL    HW223046   2.908   0.978   3.040 -0.1222 -0.6986  0.7745
 7383SOL     OW23047   5.235   3.628   3.511  0.0021 -0.0915  0.6654
 7383SOL    HW123048   5.293   3.686   3.455  1.1215 -0.4702  1.3974
 7383SOL    HW223049   5.142   3.664   3.511  0.5036  1.2527  0.4915
 7384SOL     OW23050   3.579   5.512   6.432 -0.8344  0.1887  0.3752
 7384SOL    HW123051   3.662   5.486   6.382 -1.4850  1.6710 -1.6417
 7384SOL    HW223052   3.520   5.432   6.442 -0.2704 -0.3514 -0.4735
 7385SOL     OW23053   2.345   4.287   2.760 -0.2908  0.2689  0.6473
 7385SOL    HW123054   2.310   4.253   2.848 -0.7251  1.6681  1.0416
 7385SOL    HW223055   2.334   4.216   2.690 -0.0086 -0.8466  1.6834
 7386SOL     OW23056   1.916   5.594   0.851 -0.0942 -0.4348  0.6817
 7386SOL    HW123057   1.907   5.540   0.934 -0.0449 -0.4183  0.6976
 7386SOL    HW223058   1.881   5.686   0.868 -0.9949 -0.7131  0.4032
 7387SOL     OW23059   0.391   4.415   4.832  0.3039 -0.3235 -0.3146
 7387SOL    HW123060   0.319   4.347   4.817 -1.6367  1.5007  0.3739
 7387SOL    HW223061   0.407   4.426   4.930 -0.7770  1.5436 -0.3194
 7388SOL     OW23062   2.483   6.071   6.645  0.6458 -0.1685  0.0405
 7388SOL    HW123063   2.415   6.122   6.593  0.3495 -0.0191  0.5667
 7388SOL    HW223064   2.539   6.016   6.583  1.9107  1.8575 -0.6969
 7389SOL     OW23065   6.279   4.252   2.833  0.0928 -0.0632  0.5222
 7389SOL    HW123066   6.244   4.293   2.917  3.7486  2.1251  1.1762
 7389SOL    HW223067   6.325   4.166   2.855 -0.5167 -0.4262  0.4179
 7390SOL     OW23068   3.847   1.245   5.257  0.5830 -0.2202 -0.7829
 7390SOL    HW123069   3.766   1.296   5.228  0.8907  0.4070 -0.5523
 7390SOL    HW223070   3.848   1.156   5.211 -0.9755 -0.8374  0.2824
 7391SOL     OW23071   3.390   3.468   2.593  0.3833  0.4055 -0.2491
 7391SOL    HW123072   3.482   3.431   2.586 -0.4559 -1.6780 -1.0729
 7391SOL    HW223073   3.323   3.398   2.566 -1.4223  2.0052 -0.1780
 7392SOL     OW23074   6.376   1.073   6.710  0.5259  0.5005  0.0488
 7392SOL    HW123075   6.292   1.126   6.722  0.3153  0.1273  0.2599
 7392SOL    HW223076   6.353   0.982   6.677  0.8440  0.3819  0.1481
 7393SOL     OW23077   1.336   4.980   3.147 -0.2687  0.0801 -0.5640
 7393SOL    HW123078   1.297   4.922   3.075  0.0328  1.4498 -1.8741
 7393SOL    HW223079   1.414   4.934   3.188  0.4493 -0.1425 -2.1179
 7394SOL     OW23080   2.173   3.163   5.813 -0.5971 -0.1572 -0.3758
 7394SOL    HW123081   2.248   3.207   5.862  0.5505 -1.3032 -1.0468
 7394SOL    HW223082   2.092   3.161   5.872  0.5388 -0.8898  1.2323
 7395SOL     OW23083   4.399   2.180   6.684  0.3699  0.3970 -0.5640
 7395SOL    HW123084   4.406   2.120   6.763  1.0244  0.2229 -0.7411
 7395SOL    HW223085   4.359   2.130   6.607  1.4602 -0.0122 -0.8870
 7396SOL     OW23086   0.119   6.125   6.511 -0.3235  0.7075  0.3448
 7396SOL    HW123087   0.116   6.083   6.601  0.1462  0.7975  0.4046
 7396SOL    HW223088   0.172   6.210   6.515  1.5950 -0.4087 -0.4740
 7397SOL     OW23089   1.897   1.247   2.585  0.2149 -0.2784 -0.5113
 7397SOL    HW123090   1.868   1.152   2.577 -0.5889 -0.3349  2.0242
 7397SOL    HW223091   1.827   1.307   2.547 -0.7316 -0.6213  0.6375
 7398SOL     OW23092   2.206   6.033   3.958 -0.4170 -0.5938 -0.1484
 7398SOL    HW123093   2.187   5.947   4.005 -0.2687  0.6834  2.4178
 7398SOL    HW223094   2.189   6.022   3.860 -1.6822 -3.1349  0.2722
 7399SOL     OW23095   5.982   5.172   3.905  0.0572 -0.2455  0.1772
 7399SOL    HW123096   5.909   5.109   3.878  2.1798 -2.6869 -0.1867
 7399SOL    HW223097   6.050   5.177   3.833  1.1772  0.5447  1.2454
 7400SOL     OW23098   1.519   2.796   5.810 -0.3853  0.3138  0.7268
 7400SOL    HW123099   1.475   2.720   5.858 -1.1708  0.2179 -0.1064
 7400SOL    HW223100   1.615   2.774   5.792 -0.4836 -0.2800  0.9181
 7401SOL     OW23101   5.153   0.751   0.848 -0.2774  0.0577 -0.2913
 7401SOL    HW123102   5.126   0.673   0.792 -2.5032  1.1847 -0.8995
 7401SOL    HW223103   5.077   0.779   0.907  1.5135 -0.2008  2.3675
 7402SOL     OW23104   6.747   4.145   1.043 -0.0900 -0.3730  0.1926
 7402SOL    HW123105   6.775   4.232   1.084 -1.4362 -0.3174  1.0329
 7402SOL    HW223106   6.747   4.155   0.943  4.4026 -0.8721 -0.0531
 7403SOL     OW23107   1.379   2.081   5.963 -0.1206 -0.9931  0.1301
 7403SOL    HW123108   1.328   2.079   5.877 -0.5221  1.8339  0.2041
 7403SOL    HW223109   1.323   2.041   6.036 -2.4432  2.0884  0.2233
 7404SOL     OW23110   3.972   6.056   5.558 -0.4318  0.0688 -0.6364
 7404SOL    HW123111   4.045   6.081   5.494 -0.3896 -1.3665 -1.1744
 7404SOL    HW223112   3.984   5.962   5.587 -0.8983  0.4653  0.9193
 7405SOL     OW23113   2.977   2.974   5.599 -0.0363  0.1077  0.0558
 7405SOL    HW123114   2.993   3.058   5.546 -1.3211 -0.1702 -0.8263
 7405SOL    HW223115   3.027   2.898   5.558  1.8640  0.5731  1.3819
 7406SOL     OW23116   0.626   4.899   5.888  0.3140 -0.2645  0.0124
 7406SOL    HW123117   0.632   4.998   5.899  0.1133 -0.3553  1.0022
 7406SOL    HW223118   0.532   4.869   5.900  0.4483 -0.6288  0.1806
 7407SOL     OW23119   0.022   4.105   6.615  0.1623  0.2821 -0.4646
 7407SOL    HW123120   0.013   4.194   6.568 -0.0215 -0.0063 -0.9840
 7407SOL    HW223121   0.098   4.110   6.680 -0.5442  1.1732  0.3331
 7408SOL     OW23122   4.662   0.777   0.712 -0.2421  0.0225 -0.0944
 7408SOL    HW123123   4.583   0.736   0.665 -0.6609  1.0292 -0.2901
 7408SOL    HW223124   4.671   0.873   0.685  0.1100  0.3494  1.1254
 7409SOL     OW23125   6.001   0.601   5.813  0.1116 -0.4457 -0.1549
 7409SOL    HW123126   5.944   0.658   5.753  1.9927  0.9844 -0.6800
 7409SOL    HW223127   6.097   0.614   5.789  0.7425 -2.0889  1.2992
 7410SOL     OW23128   1.431   5.318   0.162 -0.3775 -0.1984  0.6026
 7410SOL    HW123129   1.405   5.240   0.106 -0.7008 -0.6606  1.3922
 7410SOL    HW223130   1.527   5.340   0.145 -0.4185 -0.4577  0.0168
 7411SOL     OW23131   6.772   6.204   2.496  0.2210  0.0315 -0.2295
 7411SOL    HW123132   6.797   6.145   2.419 -0.0882 -1.0201  0.4427
 7411SOL    HW223133   6.683   6.245   2.479  0.4120  0.2724 -0.6785
 7412SOL     OW23134   2.028   4.570   2.676 -0.4588  0.3335  0.1638
 7412SOL    HW123135   2.111   4.625   2.678 -0.3193  0.1882 -1.1349
 7412SOL    HW223136   2.041   4.491   2.616 -1.1886 -0.2636  0.7710
 7413SOL     OW23137   0.148   1.704   2.446  0.7613 -0.1067 -0.2808
 7413SOL    HW123138   0.160   1.611   2.479 -2.7665 -1.5755 -2.5305
 7413SOL    HW223139   0.188   1.713   2.355 -2.1830 -0.7813 -1.7613
 7414SOL     OW23140   3.787   2.116   4.236 -0.4760 -0.0030  0.0618
 7414SOL    HW123141   3.765   2.020   4.250 -2.2971  0.0856 -1.6641
 7414SOL    HW223142   3.797   2.133   4.138 -0.2248  1.5753  0.3396
 7415SOL     OW23143   6.776   3.955   1.607 -0.0531  0.1144  0.2908
 7415SOL    HW123144   6.808   3.866   1.575  0.9930  0.2933  0.7936
 7415SOL    HW223145   6.689   3.944   1.654  0.2123 -0.6988  0.6202
 7416SOL     OW23146   0.195   5.254   4.816 -0.2118 -0.8585 -0.6635
 7416SOL    HW123147   0.166   5.183   4.752 -4.3540 -0.4320  0.4947
 7416SOL    HW223148   0.165   5.343   4.784  0.0948 -0.2998  0.5195
 7417SOL     OW23149   3.051   3.953   5.624  0.3267  0.3461  0.9618
 7417SOL    HW123150   3.077   3.930   5.530 -0.9331  0.9175  0.4523
 7417SOL    HW223151   2.970   4.011   5.623  1.8174  2.6339  2.2767
 7418SOL     OW23152   2.462   3.033   5.668  0.4596 -0.1539  0.0905
 7418SOL    HW123153   2.492   2.950   5.620  1.0826 -0.1292  0.4208
 7418SOL    HW223154   2.468   3.018   5.767 -1.7921 -0.5632  0.2261
 7419SOL     OW23155   6.988   1.622   6.338  0.5503 -0.1031 -0.3215
 7419SOL    HW123156   6.929   1.593   6.414 -0.5062 -0.4426 -1.2463
 7419SOL    HW223157   6.956   1.580   6.254  1.2116  0.9142 -1.1011
 7420SOL     OW23158   6.611   1.135   4.005  0.2317 -0.2555 -0.0014
 7420SOL    HW123159   6.595   1.146   4.103  3.9105  2.3465  0.5369
 7420SOL    HW223160   6.565   1.209   3.955 -0.8440 -1.0100 -0.1348
 7421SOL     OW23161   6.602   1.687   2.992  0.1377  0.3862  0.6241
 7421SOL    HW123162   6.676   1.637   3.038 -1.1595  0.0835  2.5051
 7421SOL    HW223163   6.601   1.782   3.024  0.2697  0.6276 -0.0856
 7422SOL     OW23164   0.496   6.318   4.097  0.0675  1.0259  0.1802
 7422SOL    HW123165   0.490   6.349   4.191  1.5018 -1.3037  1.1346
 7422SOL    HW223166   0.411   6.272   4.070  0.6133 -0.7863  1.3743
 7423SOL     OW23167   5.200   2.520   0.408  0.3677  0.5269  0.3421
 7423SOL    HW123168   5.212   2.539   0.311  0.0400 -0.8605  0.0196
 7423SOL    HW223169   5.290   2.517   0.452  0.6076 -0.1625 -0.1805
 7424SOL     OW23170   1.957   6.312   0.548  0.5758 -0.0970  1.1172
 7424SOL    HW123171   1.877   6.253   0.559  0.0788  0.6516  1.6502
 7424SOL    HW223172   1.927   6.404   0.525  1.3913 -0.2950 -0.9071
 7425SOL     OW23173   6.888   0.376   0.270  0.5868 -0.3249 -0.1166
 7425SOL    HW123174   6.913   0.312   0.197  0.3278  0.0683 -0.5549
 7425SOL    HW223175   6.881   0.326   0.357  2.1297 -0.5756 -0.1205
 7426SOL     OW23176   1.404   1.890   2.116  0.0393  0.0925 -0.0057
 7426SOL    HW123177   1.498   1.880   2.150  0.2863 -0.1225 -0.7370
 7426SOL    HW223178   1.366   1.977   2.149  0.2430 -0.1338  0.8663
 7427SOL     OW23179   5.675   2.057   0.004 -0.1423  0.5046 -0.3736
 7427SOL    HW123180   5.689   1.959   0.019 -0.9334  0.4489  0.1113
 7427SOL    HW223181   5.682   2.105   0.092  0.7174  0.9537 -0.6773
 7428SOL     OW23182   0.749   6.946   1.763 -0.0373  0.4334  0.2358
 7428SOL    HW123183   0.848   6.936   1.753 -0.2838 -1.6257 -0.9214
 7428SOL    HW223184   0.714   6.877   1.826 -1.0317 -1.0302 -1.7860
 7429SOL     OW23185   6.204   1.158   5.218 -0.4200 -0.5875  0.0514
 7429SOL    HW123186   6.158   1.079   5.178 -0.0237 -0.4928 -0.6146
 7429SOL    HW223187   6.217   1.228   5.147 -1.6129  0.4692  0.8432
 7430SOL     OW23188   5.684   4.140   2.690 -0.2436 -0.1386  0.6944
 7430SOL    HW123189   5.708   4.236   2.705 -0.1428  0.2647 -1.6985
 7430SOL    HW223190   5.758   4.081   2.723  1.6948  0.8527 -1.5671
 7431SOL     OW23191   3.657   0.360   3.001 -0.8326 -0.1772  0.3372
 7431SOL    HW123192   3.578   0.367   3.061  0.2472 -1.3345  2.0012
 7431SOL    HW223193   3.709   0.277   3.024 -0.8305 -1.1620 -2.8394
 7432SOL     OW23194   5.785   2.990   5.931 -0.7815  0.5115 -0.2918
 7432SOL    HW123195   5.847   2.912   5.935  0.4611  1.4926  1.6327
 7432SOL    HW223196   5.832   3.068   5.888 -0.6990  1.2009  0.9909
 7433SOL     OW23197   3.824   2.945   1.170  0.1876  1.2993  0.1907
 7433SOL    HW123198   3.902   3.002   1.199  1.8284 -1.1267  0.8622
 7433SOL    HW223199   3.778   2.910   1.251 -0.0833  0.7450 -0.2024
 7434SOL     OW23200   1.014   0.383   7.013 -0.3744  0.0315  0.1526
 7434SOL    HW123201   0.966   0.432   6.940  0.5340  0.5949 -0.0783
 7434SOL    HW223202   1.108   0.416   7.020 -0.7020  0.6712  2.2197
 7435SOL     OW23203   1.675   6.621   2.208  0.5010  0.5942  0.0047
 7435SOL    HW123204   1.625   6.615   2.294 -1.9474  2.3113 -1.1815
 7435SOL    HW223205   1.661   6.538   2.155  0.1936  0.4383  0.3296
 7436SOL     OW23206   2.204   1.089   1.128  0.0039 -0.0944 -0.1184
 7436SOL    HW123207   2.229   1.184   1.108  1.5704 -0.3846  0.3851
 7436SOL    HW223208   2.270   1.028   1.085 -1.8980 -1.0760 -1.8689
 7437SOL     OW23209   4.992   4.734   4.427  0.9535 -0.0498 -0.3475
 7437SOL    HW123210   5.064   4.803   4.413 -0.7235  1.9281  0.2440
 7437SOL    HW223211   4.912   4.758   4.372  0.0311 -1.0986  0.4851
 7438SOL     OW23212   2.274   1.660   0.596 -0.5334  0.3471 -0.1593
 7438SOL    HW123213   2.300   1.697   0.685 -0.0038 -0.3195 -0.0241
 7438SOL    HW223214   2.284   1.731   0.526 -2.7202  1.4469  0.5444
 7439SOL     OW23215   0.491   3.138   3.780  0.0190 -0.6167  0.0899
 7439SOL    HW123216   0.564   3.200   3.810  0.7726 -1.4558  0.0323
 7439SOL    HW223217   0.478   3.147   3.682 -1.2714  0.8977  0.3722
 7440SOL     OW23218   3.405   5.382   1.563  0.0937  0.9084 -0.1139
 7440SOL    HW123219   3.388   5.314   1.634 -1.7708 -0.2579 -1.5683
 7440SOL    HW223220   3.444   5.465   1.604  2.9665 -1.1353  1.6442
 7441SOL     OW23221   2.259   5.768   2.066  0.1418  0.5069  0.0672
 7441SOL    HW123222   2.354   5.774   2.097 -0.4724  1.1001  1.9686
 7441SOL    HW223223   2.223   5.860   2.050 -0.1943  0.2957 -0.4277
 7442SOL     OW23224   0.854   4.771   5.159 -0.0217 -0.0202  0.6346
 7442SOL    HW123225   0.914   4.784   5.080  1.3713  1.0443  1.8074
 7442SOL    HW223226   0.788   4.845   5.163 -1.5578 -1.2597 -0.7287
 7443SOL     OW23227   5.699   0.011   5.872  0.1323  0.2434  0.5312
 7443SOL    HW123228   5.744   0.100   5.868 -0.2974  0.4317 -0.3986
 7443SOL    HW223229   5.732  -0.040   5.952  0.2145  1.3202  1.1967
 7444SOL     OW23230   5.411   6.975   0.563  0.3391  0.3689 -0.6281
 7444SOL    HW123231   5.475   6.901   0.583 -0.0960 -0.3182 -1.6822
 7444SOL    HW223232   5.393   6.978   0.464 -0.5922  1.0811 -0.4512
 7445SOL     OW23233   0.984   0.403   3.518 -0.3758 -0.7915  0.7843
 7445SOL    HW123234   0.939   0.448   3.595 -0.1205 -1.8818  1.5860
 7445SOL    HW223235   1.042   0.469   3.471 -3.2033  0.8550 -0.6817
 7446SOL     OW23236   4.753   4.404   5.408 -0.1051 -0.3812 -0.5127
 7446SOL    HW123237   4.828   4.399   5.342 -0.4456  0.0156 -0.9400
 7446SOL    HW223238   4.669   4.430   5.360 -0.1236  1.0440  0.2390
 7447SOL     OW23239   0.554   3.327   0.442 -0.1741 -0.0915 -0.2503
 7447SOL    HW123240   0.519   3.378   0.521  1.1410 -1.3401  1.2021
 7447SOL    HW223241   0.482   3.266   0.408 -0.4736 -0.2413  0.6053
 7448SOL     OW23242   4.902   3.075   0.039  0.2885  0.0167  0.4342
 7448SOL    HW123243   4.901   3.054  -0.059 -0.6541 -1.3857  0.7062
 7448SOL    HW223244   4.814   3.114   0.065 -0.0298 -1.0457  0.9870
 7449SOL     OW23245   6.855   0.066   2.585  0.0861 -0.2796  0.1544
 7449SOL    HW123246   6.783   0.118   2.541 -0.6642 -2.7231 -1.7421
 7449SOL    HW223247   6.824   0.034   2.675  0.2257  1.6588  0.9293
 7450SOL     OW23248   5.247   6.890   6.982  0.0032  0.1324  0.6476
 7450SOL    HW123249   5.243   6.820   6.911  0.9167  0.1255  0.6014
 7450SOL    HW223250   5.340   6.926   6.989 -0.2429  0.6548  1.3375
 7451SOL     OW23251   1.346   2.655   4.865 -0.6480 -0.2311  0.2366
 7451SOL    HW123252   1.315   2.596   4.790  1.3283  0.4797 -1.2209
 7451SOL    HW223253   1.327   2.750   4.842 -1.3488 -0.0821  1.3483
 7452SOL     OW23254   1.521   4.545   3.077 -0.1337 -0.2653  0.4212
 7452SOL    HW123255   1.589   4.588   3.137 -1.9918  0.7051  1.9343
 7452SOL    HW223256   1.565   4.473   3.023  1.2979 -2.9184  4.6400
 7453SOL     OW23257   4.073   0.934   0.704  0.4222  0.1977  0.3328
 7453SOL    HW123258   4.100   1.028   0.685 -0.8698  0.6682  0.7349
 7453SOL    HW223259   3.973   0.927   0.705  0.4733 -1.4262 -0.8945
 7454SOL     OW23260   5.591   1.426   6.364 -0.5388  0.0920  0.3190
 7454SOL    HW123261   5.636   1.384   6.443 -0.6462  0.6798  0.6927
 7454SOL    HW223262   5.493   1.406   6.366 -0.2894 -1.5021 -0.6894
 7455SOL     OW23263   3.358   6.682   1.010  1.2841  0.3908  0.4723
 7455SOL    HW123264   3.291   6.691   0.935  1.6185  0.1257  0.1403
 7455SOL    HW223265   3.427   6.614   0.986  0.8679 -0.3945  1.4285
 7456SOL     OW23266   2.875   1.332   1.787 -0.5242  0.2531 -0.1533
 7456SOL    HW123267   2.802   1.397   1.765 -2.2195 -1.1256  1.0345
 7456SOL    HW223268   2.940   1.375   1.850 -1.8612  0.7074  0.9668
 7457SOL     OW23269   0.344   1.340   0.443  0.2850  0.5761  0.5299
 7457SOL    HW123270   0.434   1.301   0.460  0.1353  0.0944  0.2357
 7457SOL    HW223271   0.285   1.271   0.402 -0.3840  0.7260  1.2237
 7458SOL     OW23272   5.917   2.577   3.311  0.1613 -0.6876 -0.0524
 7458SOL    HW123273   5.860   2.598   3.391 -1.4959  0.5345 -1.4569
 7458SOL    HW223274   5.912   2.479   3.292  1.4499 -1.1895  1.9179
 7459SOL     OW23275   5.238   4.654   5.494 -0.1437  0.2976  0.4267
 7459SOL    HW123276   5.179   4.608   5.427  0.2729 -0.9761  0.9174
 7459SOL    HW223277   5.271   4.740   5.454 -1.5064  0.5431 -0.2331
 7460SOL     OW23278   0.837   0.958   4.400  0.5450 -0.6996 -0.1017
 7460SOL    HW123279   0.845   0.935   4.303  1.5613  1.0411 -0.4633
 7460SOL    HW223280   0.915   0.921   4.450  1.4104  0.6417 -0.4279
 7461SOL     OW23281   3.510   5.456   2.456 -0.3049 -0.2062 -0.5878
 7461SOL    HW123282   3.481   5.543   2.416 -0.4799 -0.0409 -0.1042
 7461SOL    HW223283   3.592   5.471   2.512  0.0177 -0.4622 -0.9787
 7462SOL     OW23284   0.542   0.672   5.650  0.2868 -0.0723  0.8021
 7462SOL    HW123285   0.588   0.668   5.561  0.4150 -0.4479  0.8851
 7462SOL    HW223286   0.575   0.751   5.701 -0.1761  0.4545  0.3001
 7463SOL     OW23287   1.209   1.689   2.146  0.3053  0.0485 -0.3538
 7463SOL    HW123288   1.278   1.617   2.149  1.0037  0.6712 -0.9251
 7463SOL    HW223289   1.254   1.778   2.148 -0.5024  0.4700 -0.4090
 7464SOL     OW23290   1.689   4.928   5.405 -0.3368  0.3851 -0.4870
 7464SOL    HW123291   1.626   4.853   5.426 -0.8461  0.4554 -1.6594
 7464SOL    HW223292   1.652   5.013   5.441  0.5043  0.0251  1.3197
 7465SOL     OW23293   6.558   5.704   4.187  0.2835  0.1968 -0.0970
 7465SOL    HW123294   6.517   5.729   4.274  1.0428  0.3953  0.2175
 7465SOL    HW223295   6.487   5.697   4.117  0.0467  4.4708 -0.5373
 7466SOL     OW23296   4.242   4.500   0.860  0.1029  0.2744 -0.0506
 7466SOL    HW123297   4.276   4.517   0.952 -0.2772  1.5646 -0.1265
 7466SOL    HW223298   4.255   4.404   0.837 -0.6320 -0.2848  1.6913
 7467SOL     OW23299   1.754   5.122   2.762 -0.4115  0.2673 -0.1794
 7467SOL    HW123300   1.848   5.154   2.755 -0.3920  1.3257  3.0992
 7467SOL    HW223301   1.717   5.148   2.851 -3.1609 -1.8832 -0.5630
 7468SOL     OW23302   2.526   5.245   4.759 -0.6794  0.0814  0.0254
 7468SOL    HW123303   2.475   5.216   4.679 -1.2463 -0.4367  0.5640
 7468SOL    HW223304   2.468   5.301   4.817 -1.1377 -1.6825  1.3537
 7469SOL     OW23305   5.376   2.520   2.389  0.3525  0.3546  0.1356
 7469SOL    HW123306   5.415   2.443   2.440  0.8262  0.0205 -0.6993
 7469SOL    HW223307   5.450   2.582   2.362  0.1550  0.3524 -0.4120
 7470SOL     OW23308   4.862   4.860   4.655  1.0587 -0.1955  0.5929
 7470SOL    HW123309   4.787   4.797   4.676 -0.4608  1.7424  1.3556
 7470SOL    HW223310   4.912   4.827   4.575 -0.7323 -1.4820 -0.0703
 7471SOL     OW23311   3.527   5.340   2.872 -0.1900 -0.0093  0.5395
 7471SOL    HW123312   3.521   5.347   2.972 -1.0522  3.8436  0.3784
 7471SOL    HW223313   3.590   5.410   2.838 -0.2583 -0.9533 -1.6938
 7472SOL     OW23314   6.540   3.705   5.436 -0.6259  0.6250  0.1014
 7472SOL    HW123315   6.618   3.768   5.432 -1.5518  1.7740 -0.3935
 7472SOL    HW223316   6.513   3.693   5.532 -0.5913  1.1928  0.1903
 7473SOL     OW23317   1.685   1.320   2.098 -0.1544 -0.2140 -0.3242
 7473SOL    HW123318   1.606   1.297   2.155  0.8769 -0.9627  0.8297
 7473SOL    HW223319   1.728   1.237   2.064 -0.2185  0.2032 -1.5127
 7474SOL     OW23320   3.432   3.883   3.569 -0.0262 -0.7972 -0.1637
 7474SOL    HW123321   3.390   3.793   3.577 -2.1214  0.2524  1.6733
 7474SOL    HW223322   3.518   3.885   3.619  0.0582 -1.7882 -0.2632
 7475SOL     OW23323   3.791   0.758   1.927  0.1066 -0.2689  0.3671
 7475SOL    HW123324   3.742   0.673   1.908  0.1574 -0.1912 -0.1288
 7475SOL    HW223325   3.790   0.816   1.845 -0.8608  0.6797  1.0287
 7476SOL     OW23326   0.883   6.561   4.762 -0.3249 -0.1120  0.0122
 7476SOL    HW123327   0.785   6.542   4.764 -0.3917 -0.2459 -2.2945
 7476SOL    HW223328   0.927   6.504   4.692  1.2007  0.8455  0.1431
 7477SOL     OW23329   4.964   6.445   4.935 -0.0558 -0.3548  0.5003
 7477SOL    HW123330   5.028   6.497   4.879 -0.5515 -1.2246 -0.9426
 7477SOL    HW223331   4.875   6.442   4.889 -0.1590 -2.0840  0.7302
 7478SOL     OW23332   1.432   4.825   4.918 -0.2470  0.1072 -0.1805
 7478SOL    HW123333   1.519   4.873   4.916  0.5346 -1.2044  0.6515
 7478SOL    HW223334   1.357   4.891   4.926  0.7570  1.1923  0.4824
 7479SOL     OW23335   6.381   6.438   5.277  0.0274  0.2100 -0.4454
 7479SOL    HW123336   6.310   6.419   5.209 -0.8570 -3.6094  1.3227
 7479SOL    HW223337   6.339   6.445   5.368  1.6380  1.0769  0.2684
 7480SOL     OW23338   0.979   3.504   6.784  0.6975 -0.1740 -0.1716
 7480SOL    HW123339   0.997   3.569   6.711  0.6235  0.3229  0.2460
 7480SOL    HW223340   0.949   3.553   6.866 -0.0190 -0.7904 -0.0574
 7481SOL     OW23341   3.459   1.337   6.162 -0.0182 -0.1797  0.4238
 7481SOL    HW123342   3.427   1.243   6.171  0.4565 -0.3241  0.6287
 7481SOL    HW223343   3.422   1.377   6.078  0.3333 -0.7740 -0.0222
 7482SOL     OW23344   5.589   5.174   0.143  0.9401 -0.3347 -0.4415
 7482SOL    HW123345   5.665   5.222   0.186 -0.4604  1.2296  0.3975
 7482SOL    HW223346   5.550   5.109   0.208 -0.3857  1.1352  0.3032
 7483SOL     OW23347   4.112   3.472   3.433 -0.0971 -0.0758 -0.1729
 7483SOL    HW123348   4.211   3.481   3.438  0.0618 -1.4677 -0.2662
 7483SOL    HW223349   4.081   3.411   3.506 -1.1106  1.7256  0.9567
 7484SOL     OW23350   4.704   1.238   6.121 -0.1372 -0.0644 -0.0527
 7484SOL    HW123351   4.705   1.283   6.210 -2.3466  0.2205 -0.1272
 7484SOL    HW223352   4.621   1.184   6.112 -0.2318  0.3542 -2.1554
 7485SOL     OW23353   1.075   6.390   3.191  0.1477 -0.3104 -0.2937
 7485SOL    HW123354   1.044   6.324   3.259 -0.4753  0.2173 -0.0536
 7485SOL    HW223355   1.166   6.423   3.214  0.2468 -0.7003 -0.1328
 7486SOL     OW23356   4.243   0.747   2.021 -0.1467 -0.0657  0.2332
 7486SOL    HW123357   4.158   0.798   2.001 -0.3228 -0.1919  0.6552
 7486SOL    HW223358   4.272   0.698   1.938 -1.2113 -1.0840  0.4334
 7487SOL     OW23359   1.576   0.675   1.250 -0.1475 -0.0557  0.2785
 7487SOL    HW123360   1.670   0.697   1.274 -0.1197  0.8807 -0.6126
 7487SOL    HW223361   1.554   0.582   1.280  1.5914 -0.8981 -0.9404
 7488SOL     OW23362   3.933   3.712   5.228  0.0106  0.1580 -0.2309
 7488SOL    HW123363   3.911   3.749   5.318 -0.9126 -0.5486 -0.1533
 7488SOL    HW223364   3.855   3.659   5.194  1.4212 -2.0619 -0.1779
 7489SOL     OW23365   0.497   5.955   1.470 -0.0782 -0.0044  0.1468
 7489SOL    HW123366   0.519   6.052   1.482 -1.0462 -0.0794  3.5535
 7489SOL    HW223367   0.397   5.943   1.472  0.0702 -1.2110  1.4700
 7490SOL     OW23368   1.186   4.357   0.263  0.4615 -0.0216  0.3540
 7490SOL    HW123369   1.130   4.416   0.205  0.1009 -1.6088 -1.0129
 7490SOL    HW223370   1.128   4.309   0.328  0.1823 -1.5622 -0.9703
 7491SOL     OW23371   0.749   2.238   5.470  0.0144 -0.1894 -0.3579
 7491SOL    HW123372   0.778   2.291   5.549 -1.2632 -0.6292  0.4297
 7491SOL    HW223373   0.792   2.275   5.388 -0.1317  1.4805  0.2822
 7492SOL     OW23374   3.469   5.935   3.939 -0.4474 -0.3231 -0.1067
 7492SOL    HW123375   3.402   5.931   4.013 -1.7313 -0.5741 -1.2410
 7492SOL    HW223376   3.550   5.985   3.971 -0.4099 -1.5240  1.8492
 7493SOL     OW23377   4.538   0.994   1.173  0.5122  0.3816  0.5898
 7493SOL    HW123378   4.546   0.903   1.132  0.3944  0.1396  1.0930
 7493SOL    HW223379   4.628   1.023   1.206  0.6563  0.6817 -0.0441
 7494SOL     OW23380   5.665   5.900   4.910  0.3526  0.5185  0.0560
 7494SOL    HW123381   5.587   5.961   4.925 -0.4105  0.1008 -1.9016
 7494SOL    HW223382   5.737   5.950   4.862 -0.5844 -0.2405 -2.2576
 7495SOL     OW23383   4.410   4.985   2.036 -0.0908 -0.2580  0.7026
 7495SOL    HW123384   4.365   4.896   2.043 -1.2014  0.1720 -0.5063
 7495SOL    HW223385   4.341   5.057   2.028  0.7827  0.5040 -0.3367
 7496SOL     OW23386   2.637   0.469   5.755 -0.1202  0.2486 -0.2814
 7496SOL    HW123387   2.666   0.379   5.721 -0.6563 -0.4714  1.0555
 7496SOL    HW223388   2.538   0.478   5.744 -0.0049  0.8732 -0.8295
 7497SOL     OW23389   0.912   2.644   3.226  0.0003 -0.6465 -0.0024
 7497SOL    HW123390   1.001   2.669   3.264 -0.7244  1.0606  0.6738
 7497SOL    HW223391   0.924   2.571   3.158  2.0917  0.5595 -1.0141
 7498SOL     OW23392   3.349   0.829   2.980 -0.0352 -0.1969 -0.0374
 7498SOL    HW123393   3.418   0.757   2.970  0.5555  0.5649 -1.9414
 7498SOL    HW223394   3.380   0.895   3.048  1.5704  0.5651 -1.4293
 7499SOL     OW23395   5.127   2.736   4.461 -0.3990  0.0509 -0.2963
 7499SOL    HW123396   5.035   2.742   4.424 -0.8467  1.5942  0.9237
 7499SOL    HW223397   5.161   2.642   4.453 -2.0211 -0.5199 -0.8470
 7500SOL     OW23398   4.019   1.029   4.277 -0.0051 -0.1939 -0.1094
 7500SOL    HW123399   4.031   1.024   4.178  1.3754  2.7696 -0.1972
 7500SOL    HW223400   4.100   0.990   4.322 -0.0216 -0.3180 -0.1863
 7501SOL     OW23401   3.011   1.456   0.479  0.1734  0.0535 -0.0726
 7501SOL    HW123402   2.997   1.510   0.396 -1.7439  0.9244  0.7724
 7501SOL    HW223403   3.020   1.359   0.454 -1.5714  0.1520 -1.2462
 7502SOL     OW23404   2.748   5.792   0.131 -0.3753  0.1636  0.5984
 7502SOL    HW123405   2.805   5.810   0.212  1.5295 -1.2202 -0.3422
 7502SOL    HW223406   2.674   5.729   0.156  0.0231 -0.0297  1.3421
 7503SOL     OW23407   0.006   3.961   3.088  0.2089  0.6043 -0.0296
 7503SOL    HW123408  -0.089   3.970   3.058 -0.4076 -0.4557  1.4729
 7503SOL    HW223409   0.031   4.039   3.146  0.2770  0.9001 -0.4532
 7504SOL     OW23410   4.708   6.962   2.948 -0.9531  0.1566 -0.1764
 7504SOL    HW123411   4.652   6.923   2.874 -2.5331  2.2677 -0.1739
 7504SOL    HW223412   4.689   7.059   2.957 -0.0133  0.1862  2.3608
 7505SOL     OW23413   4.923   2.069   4.521 -0.0834  0.0984 -0.2485
 7505SOL    HW123414   4.904   2.136   4.593  0.8118  0.0827  0.0078
 7505SOL    HW223415   4.861   1.991   4.531 -1.0662  0.8269 -0.4902
 7506SOL     OW23416   5.405   7.010   5.935  0.1078 -0.0315 -0.2639
 7506SOL    HW123417   5.503   7.010   5.918  0.4010 -0.3133  1.2971
 7506SOL    HW223418   5.372   6.916   5.942 -0.5687  0.0193 -2.2004
 7507SOL     OW23419   6.589   3.053   5.038  0.4492  0.0429  0.1830
 7507SOL    HW123420   6.683   3.064   5.007  0.5081 -0.2811  0.2500
 7507SOL    HW223421   6.544   3.143   5.039  0.6248  0.1400 -0.2607
 7508SOL     OW23422   1.255   2.883   6.109 -0.4577 -0.2877  0.0045
 7508SOL    HW123423   1.171   2.919   6.148 -0.2346 -0.6355  0.8160
 7508SOL    HW223424   1.291   2.809   6.167  0.5786  0.0815 -0.1392
 7509SOL     OW23425   6.979   1.506   3.874 -0.2174 -0.2810 -0.3941
 7509SOL    HW123426   6.960   1.442   3.799 -0.1135  0.4185 -1.0298
 7509SOL    HW223427   6.971   1.600   3.840 -0.3832  0.0481  0.5300
 7510SOL     OW23428   4.836   3.906   3.604  0.0104 -0.4174 -0.3836
 7510SOL    HW123429   4.785   3.874   3.684 -1.7867  2.3673 -0.2744
 7510SOL    HW223430   4.908   3.970   3.633 -0.1056 -0.0404 -0.9072
 7511SOL     OW23431   5.821   1.093   6.412  0.7672  0.4346 -0.0799
 7511SOL    HW123432   5.920   1.110   6.406  1.1197 -0.7564  1.6516
 7511SOL    HW223433   5.779   1.165   6.468  0.8352  0.3361  0.0976
 7512SOL     OW23434   1.256   0.216   0.515 -0.0799 -0.4751 -1.0746
 7512SOL    HW123435   1.332   0.186   0.457  1.2405  1.0577 -0.2354
 7512SOL    HW223436   1.239   0.148   0.586  2.1043  0.1405  0.1352
 7513SOL     OW23437   5.170   3.994   0.878 -0.0882  0.3382  0.6341
 7513SOL    HW123438   5.113   3.937   0.937  0.2508  1.6458  2.2891
 7513SOL    HW223439   5.242   3.938   0.837 -0.2871 -0.5826  1.5167
 7514SOL     OW23440   5.375   3.053   7.004  0.5231 -0.2387  0.2175
 7514SOL    HW123441   5.386   2.993   6.925 -0.7323 -1.5790  1.0029
 7514SOL    HW223442   5.299   3.019   7.061  0.6311  1.3603  1.3776
 7515SOL     OW23443   5.651   6.601   3.318  0.0597 -1.0533 -0.0297
 7515SOL    HW123444   5.657   6.693   3.278 -2.2032 -0.0889  1.6573
 7515SOL    HW223445   5.726   6.588   3.383  0.9584 -0.8045 -0.9899
 7516SOL     OW23446   0.471   0.821   3.198 -0.6140  0.4327 -0.1868
 7516SOL    HW123447   0.414   0.818   3.280 -1.3198 -1.4055 -0.6846
 7516SOL    HW223448   0.567   0.830   3.224 -0.7478 -0.9842  0.9270
 7517SOL     OW23449   6.047   6.727   2.259 -0.3486  0.1771 -0.2333
 7517SOL    HW123450   5.958   6.691   2.288 -0.4427 -0.0851 -0.8266
 7517SOL    HW223451   6.046   6.740   2.159 -0.0336  1.0415 -0.1325
 7518SOL     OW23452   2.503   2.080   6.244 -0.3469  0.3469  0.1195
 7518SOL    HW123453   2.435   2.104   6.175  1.3371  3.0042 -0.7898
 7518SOL    HW223454   2.558   2.003   6.211  0.2867  1.4308 -1.4581
 7519SOL     OW23455   2.312   0.509   1.891 -0.6621  0.4837 -0.3373
 7519SOL    HW123456   2.233   0.495   1.830  0.7084 -0.6304 -1.9558
 7519SOL    HW223457   2.325   0.607   1.907 -1.7026  0.7422 -0.9388
 7520SOL     OW23458   5.647   1.808   5.898 -0.2471 -0.1883  0.3782
 7520SOL    HW123459   5.736   1.775   5.929 -0.1919 -0.1153  0.2976
 7520SOL    HW223460   5.575   1.766   5.953 -0.0870  0.9939  1.5149
 7521SOL     OW23461   4.485   1.625   5.731 -0.1786 -0.2028 -0.5470
 7521SOL    HW123462   4.555   1.567   5.772 -1.4841 -1.8009 -0.4825
 7521SOL    HW223463   4.484   1.611   5.632  0.4497  0.8072 -0.7066
 7522SOL     OW23464   1.727   1.094   1.199 -0.3079 -0.1299 -0.8793
 7522SOL    HW123465   1.664   1.022   1.229 -0.1016 -0.8779 -2.1483
 7522SOL    HW223466   1.766   1.140   1.279 -0.3642 -1.5095 -0.0234
 7523SOL     OW23467   0.232   3.559   6.338  0.3112 -0.1735  0.2659
 7523SOL    HW123468   0.275   3.486   6.286  0.6068 -0.6117  1.1096
 7523SOL    HW223469   0.137   3.570   6.309  0.5068 -0.3271 -0.4401
 7524SOL     OW23470   3.139   5.950   4.710  0.2478  0.0831  0.5887
 7524SOL    HW123471   3.214   5.885   4.719  0.2114 -0.0027  0.2765
 7524SOL    HW223472   3.053   5.905   4.736 -0.1082 -0.6806 -1.7103
 7525SOL     OW23473   5.879   2.220   6.424 -0.3416  0.2494  0.5324
 7525SOL    HW123474   5.912   2.311   6.445  2.8048 -0.7816  0.6709
 7525SOL    HW223475   5.933   2.152   6.474 -0.8414 -1.7674 -1.4622
 7526SOL     OW23476   1.432   0.224   3.955 -0.5763  0.0568  0.7826
 7526SOL    HW123477   1.462   0.139   3.998  1.8876  1.2710  1.6764
 7526SOL    HW223478   1.461   0.224   3.859 -0.0412  0.1196  0.9407
 7527SOL     OW23479   5.764   1.683   3.052 -0.1396  0.2160  0.4265
 7527SOL    HW123480   5.789   1.721   3.141 -0.7818 -1.3035  1.2880
 7527SOL    HW223481   5.844   1.636   3.012 -0.5726 -1.6002  1.5700
 7528SOL     OW23482   6.481   0.165   0.464  0.1114 -0.0424 -0.4195
 7528SOL    HW123483   6.539   0.178   0.543  0.2114 -1.6043 -0.2070
 7528SOL    HW223484   6.399   0.223   0.472  1.0224  1.2454 -0.1426
 7529SOL     OW23485   3.373   3.617   3.521 -0.5645  0.0527  0.1090
 7529SOL    HW123486   3.400   3.537   3.576  1.4364  0.9011  0.4685
 7529SOL    HW223487   3.444   3.635   3.453 -1.7808  0.5777 -1.0483
 7530SOL     OW23488   5.741   2.169   0.862 -0.0092 -0.2549  0.1995
 7530SOL    HW123489   5.829   2.201   0.827 -0.0963  1.0046  1.0538
 7530SOL    HW223490   5.746   2.156   0.961 -0.5862 -0.8850  0.1560
 7531SOL     OW23491   4.008   5.486   6.564 -0.4115  0.1703 -0.1067
 7531SOL    HW123492   3.981   5.568   6.615 -2.3673 -0.6745  0.3164
 7531SOL    HW223493   3.948   5.475   6.485  0.4603 -0.3502 -0.7133
 7532SOL     OW23494   3.789   4.370   6.052  0.4588 -0.4897  0.3623
 7532SOL    HW123495   3.758   4.313   6.128  2.3818 -2.5018 -0.2475
 7532SOL    HW223496   3.884   4.396   6.067  1.1937 -1.7263 -1.7312
 7533SOL     OW23497   0.046   1.683   1.360 -0.2123  0.7925 -0.1925
 7533SOL    HW123498   0.061   1.597   1.409  1.4542  1.1530 -0.0112
 7533SOL    HW223499   0.132   1.711   1.316 -1.0617  1.7185 -1.3045
 7534SOL     OW23500   6.787   3.810   5.529 -0.2208 -0.2494 -0.2652
 7534SOL    HW123501   6.873   3.833   5.483 -0.2392 -0.5494 -0.4557
 7534SOL    HW223502   6.799   3.725   5.580 -1.1618 -1.8912 -2.5712
 7535SOL     OW23503   5.338   1.612   0.332  0.3356 -0.8078  0.0849
 7535SOL    HW123504   5.306   1.610   0.427 -0.3953 -0.3170 -0.1399
 7535SOL    HW223505   5.398   1.691   0.320 -1.3047  0.4363 -0.3665
 7536SOL     OW23506   5.874   6.388   2.581 -0.0883 -0.2086  0.1691
 7536SOL    HW123507   5.925   6.467   2.546  0.1442 -0.7349 -0.7054
 7536SOL    HW223508   5.800   6.420   2.640 -0.2690  0.7008 -0.5162
 7537SOL     OW23509   4.876   3.948   6.462  0.3892 -0.0712 -0.4948
 7537SOL    HW123510   4.901   3.854   6.486  1.0749 -0.0633 -1.1279
 7537SOL    HW223511   4.916   3.971   6.373 -1.2167  0.2392 -1.1700
 7538SOL     OW23512   3.435   6.245   0.012 -0.0324  0.3078  0.9447
 7538SOL    HW123513   3.343   6.229  -0.024 -0.7779  0.6808  2.5687
 7538SOL    HW223514   3.490   6.291  -0.057 -0.7407 -0.7795 -0.4099
 7539SOL     OW23515   1.116   5.958   6.377  0.8015 -0.0574  0.1026
 7539SOL    HW123516   1.140   5.865   6.351 -0.8841 -0.7783  1.0168
 7539SOL    HW223517   1.198   6.004   6.413  1.3751 -1.6107  0.8631
 7540SOL     OW23518   4.633   4.475   5.638 -0.1759 -0.3948  0.0895
 7540SOL    HW123519   4.540   4.442   5.623 -0.2382 -0.1784 -0.0024
 7540SOL    HW223520   4.688   4.458   5.556 -1.1043  2.8522 -1.4080
 7541SOL     OW23521   7.002   6.670   4.432  0.0830  0.1113  0.1492
 7541SOL    HW123522   7.055   6.596   4.390  1.3758  1.1643 -0.1151
 7541SOL    HW223523   6.980   6.738   4.362 -1.0526  0.0251  0.4070
 7542SOL     OW23524   5.926   2.930   2.393 -0.8065 -0.6574  0.1651
 7542SOL    HW123525   5.979   2.915   2.476  0.2727 -2.2063 -0.7556
 7542SOL    HW223526   5.933   2.850   2.333  0.2088  1.1688 -2.3554
 7543SOL     OW23527   1.161   4.155   2.287 -0.1649  0.5370 -0.5065
 7543SOL    HW123528   1.102   4.213   2.343 -0.1185  0.2991 -0.2073
 7543SOL    HW223529   1.255   4.188   2.291  0.6664 -1.6994  2.7938
 7544SOL     OW23530   6.700   4.548   6.710 -0.2677  0.0121 -0.6211
 7544SOL    HW123531   6.685   4.553   6.611 -0.4595 -1.7835 -0.7223
 7544SOL    HW223532   6.689   4.639   6.750 -0.9127  0.6446 -2.1472
 7545SOL     OW23533   0.241   6.116   2.905 -0.1330 -0.0567  0.2054
 7545SOL    HW123534   0.194   6.090   2.820 -0.4082  1.5436 -0.1722
 7545SOL    HW223535   0.322   6.169   2.883 -0.1758  0.3233  0.9410
 7546SOL     OW23536   2.337   2.061   1.864 -0.5384  0.3637  0.1624
 7546SOL    HW123537   2.395   2.127   1.817 -2.9758  1.2833 -1.7943
 7546SOL    HW223538   2.246   2.100   1.876 -1.3785 -1.7623  1.2037
 7547SOL     OW23539   1.920   3.689   2.653  0.2903 -0.4539 -0.5506
 7547SOL    HW123540   1.984   3.706   2.577 -0.1727  0.8734 -0.6740
 7547SOL    HW223541   1.827   3.705   2.621  0.1482  1.1297  0.5303
 7548SOL     OW23542   0.101   4.502   5.669  0.0470  0.0090 -0.4303
 7548SOL    HW123543   0.174   4.550   5.620  0.5668 -1.3528 -1.0404
 7548SOL    HW223544   0.079   4.417   5.621  0.0082 -0.9816  1.2631
 7549SOL     OW23545   0.474   1.889   3.541 -0.7878  0.2895  0.0632
 7549SOL    HW123546   0.471   1.829   3.621  0.9495  0.0990  0.0290
 7549SOL    HW223547   0.400   1.865   3.478 -2.9048  1.1595  2.0487
 7550SOL     OW23548   5.558   6.467   2.528  0.1048 -0.2505 -0.4030
 7550SOL    HW123549   5.554   6.423   2.618 -1.5626 -0.9131 -0.7588
 7550SOL    HW223550   5.504   6.414   2.463  1.0949  0.3459 -1.7585
 7551SOL     OW23551   0.690   2.963   3.724 -0.1644  0.0326  0.3654
 7551SOL    HW123552   0.623   3.019   3.774 -1.1624 -0.5839 -0.2565
 7551SOL    HW223553   0.643   2.899   3.664  0.9666  1.2188 -1.9414
 7552SOL     OW23554   0.893   6.229   3.963 -0.1169  0.4587 -0.9745
 7552SOL    HW123555   0.853   6.285   3.891  0.0550  0.3272 -1.1726
 7552SOL    HW223556   0.895   6.281   4.048 -1.6876  0.1194 -0.6991
 7553SOL     OW23557   3.022   6.909   5.146  0.0610  0.1724  0.3086
 7553SOL    HW123558   3.091   6.877   5.211 -0.3126 -2.4375 -0.4604
 7553SOL    HW223559   2.952   6.960   5.195  2.4689  3.0107  1.1064
 7554SOL     OW23560   4.671   1.441   4.245  0.1171 -0.5601  0.2634
 7554SOL    HW123561   4.693   1.371   4.313 -0.5048  0.7376  1.8930
 7554SOL    HW223562   4.575   1.467   4.254  0.3763  0.6175 -0.1801
 7555SOL     OW23563   1.359   5.060   1.538  0.7623  0.3116  0.6577
 7555SOL    HW123564   1.444   5.079   1.490  0.1519  0.6357 -0.3414
 7555SOL    HW223565   1.371   4.979   1.597  1.1452 -1.0622 -1.2015
 7556SOL     OW23566   4.250   6.641   2.288 -0.5092 -0.4474 -0.2547
 7556SOL    HW123567   4.341   6.662   2.325 -0.0387 -0.8600 -1.1390
 7556SOL    HW223568   4.194   6.600   2.360 -0.2896  0.5791  0.5316
 7557SOL     OW23569   0.202   3.847   6.811 -0.5277 -0.0204  0.4269
 7557SOL    HW123570   0.190   3.945   6.826  0.6076  0.2893 -0.5365
 7557SOL    HW223571   0.201   3.828   6.713 -0.3041 -0.9141  0.5887
 7558SOL     OW23572   1.363   6.987   1.227 -0.1482 -0.6493 -0.4298
 7558SOL    HW123573   1.275   7.033   1.237 -0.2672 -0.7101 -1.1627
 7558SOL    HW223574   1.351   6.901   1.178  0.2297 -0.9655  0.0231
 7559SOL     OW23575   5.306   5.703   1.748 -0.3398  0.2095 -0.3716
 7559SOL    HW123576   5.215   5.674   1.776 -1.1663  2.9903  0.2166
 7559SOL    HW223577   5.364   5.713   1.829  1.1411 -3.1453 -0.8568
 7560SOL     OW23578   0.729   0.508   6.569 -0.5646 -0.6996 -0.1866
 7560SOL    HW123579   0.694   0.593   6.610  0.7209 -0.3039  0.1359
 7560SOL    HW223580   0.756   0.526   6.475  1.3812 -0.2515  0.4071
 7561SOL     OW23581   4.371   0.414   2.320 -0.0099  0.0688 -0.2214
 7561SOL    HW123582   4.300   0.480   2.345 -0.4782 -0.7392  0.6739
 7561SOL    HW223583   4.375   0.405   2.221 -0.4921  0.8497 -0.3184
 7562SOL     OW23584   2.565   1.395   0.264 -0.1167  0.1698 -0.4095
 7562SOL    HW123585   2.554   1.322   0.197 -0.3798  0.7778 -1.0392
 7562SOL    HW223586   2.491   1.391   0.331  0.7896 -1.1597  0.5617
 7563SOL     OW23587   3.798   0.847   4.834 -0.2943  0.0895  0.3959
 7563SOL    HW123588   3.808   0.935   4.880  0.1846 -0.0347  0.5411
 7563SOL    HW223589   3.741   0.857   4.754  1.6660  1.0384 -0.9699
 7564SOL     OW23590   3.892   1.382   6.129 -0.3680 -0.3539  0.7214
 7564SOL    HW123591   3.833   1.453   6.092 -0.0162 -0.9306 -1.0080
 7564SOL    HW223592   3.954   1.423   6.197 -1.3234  0.6328  1.0253
 7565SOL     OW23593   5.252   4.463   3.478  0.2309  0.2132  0.1198
 7565SOL    HW123594   5.337   4.515   3.479  0.2426  0.2045  1.1704
 7565SOL    HW223595   5.229   4.436   3.571 -1.2438  0.7261 -0.0719
 7566SOL     OW23596   6.520   5.691   1.668 -0.7975  0.8433 -0.0170
 7566SOL    HW123597   6.590   5.667   1.735  0.7957 -0.2657 -1.9689
 7566SOL    HW223598   6.528   5.631   1.588 -2.1969  2.5286 -1.5115
 7567SOL     OW23599   0.250   6.164   2.441  0.9874 -0.2125  0.0799
 7567SOL    HW123600   0.252   6.255   2.482 -0.0782 -0.2390  0.2341
 7567SOL    HW223601   0.225   6.173   2.344  0.8784 -0.3376  0.0965
 7568SOL     OW23602   2.682   5.981   2.884  0.0906  0.2562  0.1470
 7568SOL    HW123603   2.659   6.059   2.943  1.1624 -0.0047  0.9501
 7568SOL    HW223604   2.655   5.896   2.929  0.3009  0.0875 -0.0423
 7569SOL     OW23605   6.783   0.563   1.720  0.2157 -0.0925 -0.6180
 7569SOL    HW123606   6.823   0.586   1.631 -0.7262  1.3456 -0.7048
 7569SOL    HW223607   6.778   0.646   1.776 -2.3077 -0.2635 -0.5009
 7570SOL     OW23608   5.964   6.270   6.686 -0.2251  0.1237 -0.2149
 7570SOL    HW123609   5.916   6.352   6.716  0.5001  0.6658 -0.5064
 7570SOL    HW223610   5.974   6.207   6.764 -2.1244 -0.3903 -0.3393
 7571SOL     OW23611   6.329   5.986   4.179 -0.2956  0.0737  0.1503
 7571SOL    HW123612   6.383   5.936   4.248 -2.5543 -0.5012  1.5970
 7571SOL    HW223613   6.233   5.985   4.205 -0.9915  1.4469 -2.1215
 7572SOL     OW23614   4.782   2.059   2.924 -0.7329  0.3726  0.1687
 7572SOL    HW123615   4.831   2.020   2.846  2.1283  0.4222  1.8062
 7572SOL    HW223616   4.735   1.986   2.974 -0.9692  0.0600 -0.4984
 7573SOL     OW23617   3.016   6.066   4.414  0.2182 -0.0075  0.0655
 7573SOL    HW123618   3.090   6.088   4.478  1.5374 -0.7682 -1.1374
 7573SOL    HW223619   2.977   5.977   4.439 -0.0706  0.2403  0.5057
 7574SOL     OW23620   0.938   1.560   5.894 -0.0475 -0.1401  0.8024
 7574SOL    HW123621   0.954   1.633   5.828 -1.0069  0.6037  1.3615
 7574SOL    HW223622   0.953   1.472   5.849 -0.6931  0.3416 -0.4298
 7575SOL     OW23623   3.051   6.680   0.557 -0.0979  0.2364 -0.3648
 7575SOL    HW123624   3.107   6.610   0.514 -0.2313 -0.0797 -0.0253
 7575SOL    HW223625   2.955   6.653   0.552  0.0855 -2.0526  4.0045
 7576SOL     OW23626   3.569   6.076   4.817  0.2525 -0.5541 -0.3403
 7576SOL    HW123627   3.521   6.022   4.885 -0.1297 -0.3128 -0.4159
 7576SOL    HW223628   3.530   6.168   4.813  1.0251 -0.2023 -0.0739
 7577SOL     OW23629   5.223   5.624   4.373  0.1627  0.1563  0.1680
 7577SOL    HW123630   5.245   5.657   4.465  0.1398  2.1211 -0.4845
 7577SOL    HW223631   5.194   5.701   4.316 -0.7959 -1.1685 -1.2238
 7578SOL     OW23632   0.139   4.643   3.769  0.3361 -0.1180 -0.1589
 7578SOL    HW123633   0.077   4.710   3.809  0.0480 -0.2389 -0.3995
 7578SOL    HW223634   0.211   4.620   3.835  0.2991  0.2487  0.0082
 7579SOL     OW23635   5.549   4.445   0.812 -0.1684 -0.5652  0.4856
 7579SOL    HW123636   5.466   4.470   0.762  0.3580  0.0868 -0.0960
 7579SOL    HW223637   5.531   4.445   0.910 -0.7133  0.1277  0.3900
 7580SOL     OW23638   0.292   3.213   3.483  0.2405 -0.2062  0.0511
 7580SOL    HW123639   0.196   3.201   3.508 -0.0805  0.2037 -0.9091
 7580SOL    HW223640   0.343   3.131   3.506 -0.0853  0.0106  1.6723
 7581SOL     OW23641   2.610   0.827   4.832  0.0598 -0.4129 -0.1617
 7581SOL    HW123642   2.533   0.890   4.843 -0.5356 -1.2784  0.7748
 7581SOL    HW223643   2.690   0.863   4.881 -0.2231 -0.2915  0.2158
 7582SOL     OW23644   5.069   5.046   3.007  0.0108  0.1497  0.7042
 7582SOL    HW123645   5.051   4.949   2.988 -2.4617  0.7799 -0.5880
 7582SOL    HW223646   5.136   5.080   2.941  0.1993 -0.4781  0.5641
 7583SOL     OW23647   4.598   6.000   3.131 -0.3645  0.0017  0.2931
 7583SOL    HW123648   4.499   5.998   3.141 -0.4768 -1.8500 -0.6885
 7583SOL    HW223649   4.622   5.971   3.038  1.0935  0.9142  0.3575
 7584SOL     OW23650   4.837   1.337   0.463  0.3024 -0.5856  0.9608
 7584SOL    HW123651   4.882   1.413   0.415  1.5076 -2.7074 -1.5715
 7584SOL    HW223652   4.897   1.303   0.535  0.6539 -0.4112  0.7553
 7585SOL     OW23653   5.380   4.606   3.074  0.1483 -0.3835  0.2341
 7585SOL    HW123654   5.429   4.677   3.023 -0.9477  0.4382  0.2806
 7585SOL    HW223655   5.367   4.635   3.168 -0.4314 -0.5749  0.2177
 7586SOL     OW23656   3.293   5.757   5.326  0.1776  0.1922 -0.5111
 7586SOL    HW123657   3.293   5.857   5.329 -0.3605  0.3089 -2.7852
 7586SOL    HW223658   3.351   5.726   5.251  0.3135 -1.2308  0.1448
 7587SOL     OW23659   5.675   4.153   5.323  0.8990  0.0589  0.1681
 7587SOL    HW123660   5.596   4.155   5.384  3.0629 -2.2245  3.3897
 7587SOL    HW223661   5.729   4.236   5.336  0.7673  0.0970  0.4699
 7588SOL     OW23662   3.714   3.741   5.658  0.3739 -0.1337  0.4532
 7588SOL    HW123663   3.667   3.826   5.633  1.7806  0.5951  0.1815
 7588SOL    HW223664   3.802   3.738   5.611  0.4856 -1.5983  0.7345
 7589SOL     OW23665   5.206   2.173   1.803 -0.6809  0.3390  0.4144
 7589SOL    HW123666   5.245   2.182   1.711  2.0943  0.1665  1.4811
 7589SOL    HW223667   5.178   2.078   1.818 -0.1219  0.1131  0.0904
 7590SOL     OW23668   0.706   6.780   4.209 -0.7194  0.1252 -0.3333
 7590SOL    HW123669   0.739   6.687   4.223 -0.6525  0.1371 -0.4152
 7590SOL    HW223670   0.656   6.785   4.123 -0.1613  0.3177 -0.6460
 7591SOL     OW23671   5.478   5.911   2.778  0.0770 -0.6271  0.4160
 7591SOL    HW123672   5.463   5.837   2.712 -0.1086  0.4653 -0.8041
 7591SOL    HW223673   5.395   5.923   2.834 -1.0918  0.6595 -1.4787
 7592SOL     OW23674   3.001   0.151   3.559  0.4975 -0.0741 -0.5080
 7592SOL    HW123675   2.976   0.234   3.508 -0.2721 -0.6541 -1.0874
 7592SOL    HW223676   3.081   0.109   3.516  1.0522  0.4912 -0.0601
 7593SOL     OW23677   3.814   1.485   0.629  0.0513  0.3248  0.0102
 7593SOL    HW123678   3.893   1.520   0.680  0.0545 -0.9105  0.9084
 7593SOL    HW223679   3.746   1.450   0.693 -1.6744  2.2102 -0.7119
 7594SOL     OW23680   4.520   3.943   6.961 -0.1004 -0.2336 -0.1655
 7594SOL    HW123681   4.525   3.933   7.060  1.9269 -0.3604 -0.2257
 7594SOL    HW223682   4.428   3.922   6.929 -0.7501 -0.3089  1.6696
 7595SOL     OW23683   1.336   6.257   1.385 -0.6275  0.2612 -0.1727
 7595SOL    HW123684   1.409   6.250   1.453 -1.7654  1.5939  1.2756
 7595SOL    HW223685   1.371   6.300   1.302 -0.0950  2.4686  1.1154
 7596SOL     OW23686   5.476   3.741   6.605 -0.3980 -0.0424  0.1621
 7596SOL    HW123687   5.424   3.658   6.626  0.3831 -0.5955 -0.0558
 7596SOL    HW223688   5.506   3.784   6.690 -1.2295  0.3046  0.2923
 7597SOL     OW23689   6.819   1.379   4.065  0.3445  0.5290  0.0456
 7597SOL    HW123690   6.741   1.427   4.024  0.0872  1.1995  1.2901
 7597SOL    HW223691   6.901   1.396   4.011 -0.5893 -1.4449 -2.2257
 7598SOL     OW23692   6.101   2.518   1.894  0.2456 -0.3564  0.1408
 7598SOL    HW123693   6.085   2.429   1.935 -2.4250  0.8808  2.0749
 7598SOL    HW223694   6.087   2.513   1.795  0.8728 -2.1898  0.1211
 7599SOL     OW23695   3.718   6.043   6.605  0.2738  0.1304 -0.0764
 7599SOL    HW123696   3.663   5.970   6.645  0.3501 -0.0560 -0.3096
 7599SOL    HW223697   3.728   6.028   6.507  0.9458  0.0288  0.0028
 7600SOL     OW23698   1.140   4.262   1.566 -0.1966  0.2381 -0.0173
 7600SOL    HW123699   1.111   4.323   1.640 -1.5674  1.7818 -1.7451
 7600SOL    HW223700   1.192   4.186   1.605 -0.3084  1.3178  2.4489
 7601SOL     OW23701   6.284   1.296   3.667  0.5636  0.2048 -0.4008
 7601SOL    HW123702   6.312   1.370   3.606  0.5767  0.0365 -0.6012
 7601SOL    HW223703   6.219   1.236   3.619  0.1427  0.3878 -0.0613
 7602SOL     OW23704   4.245   1.575   3.408 -0.2234  0.1615  0.8092
 7602SOL    HW123705   4.185   1.534   3.339  1.7372 -1.9502  0.2231
 7602SOL    HW223706   4.273   1.504   3.473  2.1307  0.8545  0.6483
 7603SOL     OW23707   5.782   6.088   0.869  0.3386 -0.3014 -0.2226
 7603SOL    HW123708   5.832   6.173   0.881 -2.1131  1.3868 -1.0453
 7603SOL    HW223709   5.758   6.050   0.959 -0.3931  1.1071  0.2119
 7604SOL     OW23710   3.705   0.099   6.355  0.5825 -0.3784  0.4525
 7604SOL    HW123711   3.681   0.085   6.451 -1.4083  1.2175  0.2562
 7604SOL    HW223712   3.780   0.037   6.330  0.6559 -1.3511  2.8040
 7605SOL     OW23713   6.075   4.943   0.567  0.0765 -0.8235  0.0084
 7605SOL    HW123714   5.986   4.988   0.573 -0.9010 -2.6413 -0.1201
 7605SOL    HW223715   6.098   4.904   0.657  1.6219  1.1293  0.5305
 7606SOL     OW23716   5.073   2.866   4.148 -0.3615  0.1587 -0.4352
 7606SOL    HW123717   5.148   2.887   4.085 -0.4574  1.0896 -0.2465
 7606SOL    HW223718   5.023   2.949   4.170 -1.8651 -0.5321 -1.0548
 7607SOL     OW23719   3.641   3.863   5.181  0.4884  0.1502  0.0403
 7607SOL    HW123720   3.700   3.909   5.248 -0.0271  1.2723 -0.2579
 7607SOL    HW223721   3.557   3.915   5.169 -0.0436 -0.7884 -0.4536
 7608SOL     OW23722   1.405   1.036   1.717  0.5053  0.5962  0.5294
 7608SOL    HW123723   1.343   1.029   1.638 -0.2161  2.0389  0.9342
 7608SOL    HW223724   1.499   1.027   1.685  0.2380  1.3364 -0.5535
 7609SOL     OW23725   2.666   4.009   0.841 -0.0710 -0.7191  0.0918
 7609SOL    HW123726   2.571   4.029   0.818 -0.1168 -0.0962  0.7952
 7609SOL    HW223727   2.721   4.005   0.757 -0.6911 -0.9606 -0.3061
 7610SOL     OW23728   1.138   5.672   4.051  0.4161  0.6786 -0.1437
 7610SOL    HW123729   1.081   5.589   4.053  0.2978  0.7323 -0.9628
 7610SOL    HW223730   1.079   5.753   4.050  0.5310  0.8110  1.1729
 7611SOL     OW23731   1.293   6.616   4.930 -0.0252 -0.7083  0.8456
 7611SOL    HW123732   1.339   6.651   4.848 -0.7701 -2.7691 -0.5668
 7611SOL    HW223733   1.199   6.651   4.933  0.1487 -0.2625  1.0738
 7612SOL     OW23734   6.994   3.051   3.783 -0.2062  0.2582 -0.2286
 7612SOL    HW123735   6.981   3.095   3.872 -0.7188  1.2900 -0.7906
 7612SOL    HW223736   6.911   3.064   3.728 -0.4519 -1.6005 -0.3583
 7613SOL     OW23737   1.346   2.704   0.066  0.1380  0.1791  0.4226
 7613SOL    HW123738   1.248   2.694   0.048 -0.2400  2.1732  1.1674
 7613SOL    HW223739   1.361   2.755   0.151  1.8617 -1.5477  1.2425
 7614SOL     OW23740   4.906   2.175   5.022  0.0075 -0.6546  0.7413
 7614SOL    HW123741   4.914   2.111   4.946 -1.9629 -0.5184  0.3870
 7614SOL    HW223742   4.815   2.216   5.023  1.7484  3.8956 -0.4163
 7615SOL     OW23743   4.589   1.009   0.347  0.4387  0.0616  0.3413
 7615SOL    HW123744   4.666   0.972   0.295 -0.2304  1.8542 -2.1430
 7615SOL    HW223745   4.585   1.109   0.334 -1.6330  0.1611  1.3057
 7616SOL     OW23746   2.986   5.462   4.951 -0.1789  0.3911  0.1801
 7616SOL    HW123747   3.018   5.380   5.000  1.9545 -0.8267 -2.9309
 7616SOL    HW223748   3.006   5.543   5.005  0.4225 -0.9399  2.0684
 7617SOL     OW23749   2.816   3.408   5.951  0.1992 -0.2378  0.1855
 7617SOL    HW123750   2.794   3.398   5.854 -0.5733 -1.2490  0.4458
 7617SOL    HW223751   2.797   3.322   5.999  1.9492 -0.2135  0.9980
 7618SOL     OW23752   3.331   1.754   1.045  0.0497 -0.1222  0.4782
 7618SOL    HW123753   3.350   1.666   1.088  1.8187 -0.3468 -0.6541
 7618SOL    HW223754   3.402   1.819   1.072  0.5241  0.0539 -1.1316
 7619SOL     OW23755   1.869   3.922   5.309 -0.3153  0.4874  0.7505
 7619SOL    HW123756   1.933   3.909   5.384  0.2239 -0.8683  0.0814
 7619SOL    HW223757   1.920   3.949   5.227 -0.3781 -1.9580 -0.1561
 7620SOL     OW23758   2.216   4.331   6.133 -0.3495  0.4255  0.6200
 7620SOL    HW123759   2.215   4.231   6.144 -3.3665  0.6271  3.9650
 7620SOL    HW223760   2.146   4.358   6.068  0.2728  0.3940 -0.0689
 7621SOL     OW23761   6.189   2.546   0.499  0.1305 -0.5495 -0.2055
 7621SOL    HW123762   6.244   2.463   0.499  1.2565  0.1781  0.1089
 7621SOL    HW223763   6.189   2.587   0.590 -0.0971 -0.0072 -0.4403
 7622SOL     OW23764   1.892   6.507   6.210 -0.3192  0.8477 -0.1302
 7622SOL    HW123765   1.985   6.475   6.195 -0.5237  0.3083 -0.2535
 7622SOL    HW223766   1.880   6.596   6.164  0.2063  1.0438  0.1075
 7623SOL     OW23767   2.070   2.491   0.800  0.0259  0.8473 -0.3457
 7623SOL    HW123768   2.112   2.481   0.710  1.6051 -1.0988  0.5506
 7623SOL    HW223769   2.014   2.410   0.820  0.8604  0.5768  0.9885
 7624SOL     OW23770   2.170   6.079   1.159 -0.3075  0.3107  0.4054
 7624SOL    HW123771   2.146   6.131   1.241  1.1766  2.4496 -0.4330
 7624SOL    HW223772   2.140   6.129   1.078 -0.2127 -0.9282 -0.4269
 7625SOL     OW23773   0.133   6.600   6.482 -0.2746  0.3582 -0.3202
 7625SOL    HW123774   0.183   6.642   6.406  0.8243 -0.2869  0.0126
 7625SOL    HW223775   0.094   6.671   6.540 -1.1240  0.8551 -1.4778
 7626SOL     OW23776   1.254   2.269   2.629  0.2767  0.0528  0.0886
 7626SOL    HW123777   1.174   2.240   2.576  0.5809 -1.6872  0.5136
 7626SOL    HW223778   1.226   2.289   2.723  0.1608  0.5433 -0.0507
 7627SOL     OW23779   6.018   0.716   1.215  0.6565 -0.1403  0.6364
 7627SOL    HW123780   6.008   0.617   1.202  2.0762 -0.1806 -0.4379
 7627SOL    HW223781   5.983   0.764   1.134  0.4195  0.2112  0.9445
 7628SOL     OW23782   1.788   6.851   6.513  0.0168 -0.1674 -0.0379
 7628SOL    HW123783   1.791   6.900   6.426  2.7871 -1.6270 -0.8771
 7628SOL    HW223784   1.784   6.753   6.496 -1.4790 -0.4349  1.5541
 7629SOL     OW23785   0.964   5.007   1.496 -0.0083 -0.7320 -0.4427
 7629SOL    HW123786   0.903   4.978   1.570  0.2647 -0.4381 -0.0985
 7629SOL    HW223787   0.988   4.927   1.440 -1.8748 -0.6095 -1.4821
 7630SOL     OW23788   1.382   2.316   6.646 -0.1011  0.3845  0.2895
 7630SOL    HW123789   1.420   2.375   6.575 -1.2501  1.9896  0.9656
 7630SOL    HW223790   1.393   2.359   6.736 -2.1061  0.2049  0.6669
 7631SOL     OW23791   6.906   0.195   0.059  0.3077  0.7351 -0.1715
 7631SOL    HW123792   6.921   0.106   0.102  0.5214  0.6901 -0.3363
 7631SOL    HW223793   6.983   0.216  -0.002 -0.7123  0.0985 -1.7320
 7632SOL     OW23794   1.915   0.961   5.171 -0.4817 -0.0384  0.0503
 7632SOL    HW123795   1.854   1.037   5.194  1.0363  1.1756  0.2629
 7632SOL    HW223796   1.898   0.884   5.233 -0.2734  1.1193  1.6200
 7633SOL     OW23797   2.956   6.916   2.649  0.4869 -0.0256 -0.0079
 7633SOL    HW123798   2.987   6.828   2.613 -0.9430 -0.9657  0.9154
 7633SOL    HW223799   2.871   6.942   2.604  0.9889  0.9803 -0.3898
 7634SOL     OW23800   6.860   3.628   5.062  0.1736  0.6528 -0.0624
 7634SOL    HW123801   6.922   3.687   5.115 -0.8897  1.2384  0.5748
 7634SOL    HW223802   6.898   3.612   4.971  0.6498  2.0647 -0.1343
 7635SOL     OW23803   5.683   5.656   0.239  0.0190  0.0274  0.0392
 7635SOL    HW123804   5.666   5.638   0.142 -2.3980  0.4274  0.3237
 7635SOL    HW223805   5.710   5.752   0.251  1.3220 -0.2770 -0.3032
 7636SOL     OW23806   3.323   6.994   2.797  0.0918  0.1410  0.1290
 7636SOL    HW123807   3.280   6.950   2.876 -1.6079  0.2434 -0.7005
 7636SOL    HW223808   3.260   7.061   2.758  1.1782  0.5873 -0.9147
 7637SOL     OW23809   6.391   3.589   5.245 -0.0042 -0.2680  0.0711
 7637SOL    HW123810   6.301   3.631   5.256 -0.4231 -0.6232 -1.7545
 7637SOL    HW223811   6.460   3.645   5.292 -1.1336  0.0295  1.4532
 7638SOL     OW23812   5.292   1.507   0.828 -0.1861  0.8125  0.7471
 7638SOL    HW123813   5.316   1.411   0.839 -1.4617  0.0113 -2.3022
 7638SOL    HW223814   5.194   1.519   0.843 -0.5080  1.0714 -1.2060
 7639SOL     OW23815   2.167   2.302   2.968  0.5824 -0.4448  0.2674
 7639SOL    HW123816   2.247   2.278   2.913  0.3346  1.0831 -0.8298
 7639SOL    HW223817   2.142   2.397   2.950 -1.1638 -0.7337  1.0108
 7640SOL     OW23818   5.847   4.504   2.259 -0.3110  0.4051  0.0008
 7640SOL    HW123819   5.900   4.582   2.226 -0.0842  0.3470  0.2160
 7640SOL    HW223820   5.907   4.424   2.266  0.0641  0.8076  2.0721
 7641SOL     OW23821   1.291   6.834   3.644 -0.2961 -0.1388  0.2954
 7641SOL    HW123822   1.307   6.741   3.677  2.4759  0.4214  0.8172
 7641SOL    HW223823   1.297   6.835   3.544 -0.4918 -0.5470  0.2768
 7642SOL     OW23824   4.051   5.784   2.688 -0.0720  0.7348 -0.4091
 7642SOL    HW123825   4.060   5.862   2.750  2.5953  0.7113 -0.6530
 7642SOL    HW223826   3.966   5.792   2.636 -2.2037  0.9783  2.8504
 7643SOL     OW23827   6.557   1.632   5.225 -0.5654 -0.0305  0.1931
 7643SOL    HW123828   6.609   1.641   5.140 -1.3893 -1.2943 -0.4748
 7643SOL    HW223829   6.527   1.537   5.236 -3.3984  0.7714  0.1263
 7644SOL     OW23830   1.503   0.086   0.347  0.6348 -0.0409  0.2632
 7644SOL    HW123831   1.570   0.153   0.380  0.6636  1.2508 -2.1674
 7644SOL    HW223832   1.544   0.032   0.274 -0.9285  0.8487 -1.3527
 7645SOL     OW23833   6.292   2.154   6.050  0.3145  0.1043 -0.2760
 7645SOL    HW123834   6.337   2.074   6.011  0.0062 -0.2699  0.1236
 7645SOL    HW223835   6.239   2.127   6.131 -1.7106  0.2689 -1.4628
 7646SOL     OW23836   6.489   6.742   4.210 -0.1149 -0.4869 -0.3938
 7646SOL    HW123837   6.487   6.642   4.206 -0.7642 -0.5135  0.3445
 7646SOL    HW223838   6.443   6.780   4.130  3.0970 -0.6913 -2.5435
 7647SOL     OW23839   2.958   3.349   1.729  0.0947 -0.7364 -0.2963
 7647SOL    HW123840   3.052   3.369   1.701  0.2824 -1.0314  0.1106
 7647SOL    HW223841   2.944   3.380   1.823 -0.0671 -1.1339 -0.1859
 7648SOL     OW23842   4.715   5.227   0.419 -0.1743 -0.0910  0.1592
 7648SOL    HW123843   4.646   5.211   0.490 -1.5858 -0.1393 -1.1680
 7648SOL    HW223844   4.710   5.322   0.388 -0.5337 -0.4098 -0.8122
 7649SOL     OW23845   0.611   2.156   1.482 -0.5530 -0.4141  0.0352
 7649SOL    HW123846   0.533   2.125   1.537  0.1774 -1.1633  0.6757
 7649SOL    HW223847   0.682   2.086   1.483  1.0224  1.1188  1.2489
 7650SOL     OW23848   0.672   2.723   0.975 -0.1355  0.3283 -0.1790
 7650SOL    HW123849   0.716   2.790   0.915 -0.3080  1.1710  0.6264
 7650SOL    HW223850   0.636   2.648   0.919 -1.5955  1.7887 -1.3098
 7651SOL     OW23851   5.075   3.874   1.239  0.0388 -0.0579 -0.3957
 7651SOL    HW123852   5.031   3.849   1.152  0.1092 -1.2231 -0.1172
 7651SOL    HW223853   5.075   3.794   1.300  0.9815  0.4316  0.2620
 7652SOL     OW23854   0.180   0.503   6.299  0.0919  0.2845 -0.3631
 7652SOL    HW123855   0.093   0.549   6.287  1.0644  1.9816 -1.2533
 7652SOL    HW223856   0.181   0.457   6.388 -0.6924  2.5983  0.9345
 7653SOL     OW23857   2.427   3.484   6.667  0.0409  0.1537  0.3309
 7653SOL    HW123858   2.392   3.563   6.616 -0.5187  0.3009  0.9347
 7653SOL    HW223859   2.408   3.400   6.615  0.3864  0.3836 -0.1795
 7654SOL     OW23860   1.067   4.988   1.052 -0.3475  0.0484  0.9736
 7654SOL    HW123861   1.141   4.920   1.055 -0.1104  0.1955 -0.6859
 7654SOL    HW223862   1.000   4.966   1.123  0.5194 -0.9689  1.5246
 7655SOL     OW23863   1.738   4.326   4.454  0.6402  0.3006 -0.5844
 7655SOL    HW123864   1.726   4.417   4.493 -0.0380 -0.0275  0.0007
 7655SOL    HW223865   1.822   4.323   4.400 -0.3148  1.8414 -2.2794
 7656SOL     OW23866   6.115   6.013   4.910 -0.3028 -0.0977 -0.1728
 7656SOL    HW123867   6.033   6.032   4.855 -0.1980 -1.5671 -0.8727
 7656SOL    HW223868   6.193   6.000   4.850  0.5290  1.4811  0.4991
 7657SOL     OW23869   3.415   6.985   6.912 -0.0192  0.0977  0.0991
 7657SOL    HW123870   3.354   6.911   6.938  0.0022 -0.0025 -0.1401
 7657SOL    HW223871   3.462   7.019   6.994  1.9939 -1.9220 -0.1243
 7658SOL     OW23872   5.694   6.474   1.922 -0.0870 -0.1172  0.3633
 7658SOL    HW123873   5.624   6.451   1.989 -0.3048 -0.4406  0.0309
 7658SOL    HW223874   5.714   6.572   1.927 -1.1241  0.1280 -0.0666
 7659SOL     OW23875   5.312   5.437   5.914 -0.5435 -0.5035  0.0986
 7659SOL    HW123876   5.266   5.479   5.836 -1.1123  1.6843  1.5154
 7659SOL    HW223877   5.380   5.502   5.951 -1.0466 -1.0295  2.0448
 7660SOL     OW23878   4.025   6.690   1.261 -0.0013 -0.5819 -0.6258
 7660SOL    HW123879   4.005   6.592   1.272 -2.0633 -0.0269  1.1069
 7660SOL    HW223880   4.028   6.734   1.351  2.9081  0.6542 -1.2171
 7661SOL     OW23881   2.248   1.566   4.274 -0.2232 -0.1261 -0.2165
 7661SOL    HW123882   2.251   1.517   4.187  1.9051  2.4234 -1.7074
 7661SOL    HW223883   2.289   1.508   4.345  3.2235 -0.2865 -2.1154
 7662SOL     OW23884   6.640   3.076   4.589  0.3484  0.0847 -0.2418
 7662SOL    HW123885   6.666   3.112   4.679  0.0386 -0.3518  0.0287
 7662SOL    HW223886   6.630   2.977   4.595  0.2904  0.0598 -0.7522
 7663SOL     OW23887   4.256   1.925   5.601 -0.1250 -0.1606  0.2586
 7663SOL    HW123888   4.221   1.896   5.512 -0.9001 -0.5893  0.6951
 7663SOL    HW223889   4.189   1.985   5.645 -0.7334 -1.6634  1.4674
 7664SOL     OW23890   4.901   4.689   5.490  0.1924  0.1992 -0.2648
 7664SOL    HW123891   4.808   4.669   5.457 -0.2233  1.4366  0.0762
 7664SOL    HW223892   4.967   4.637   5.436 -0.7019 -0.8072 -0.4303
 7665SOL     OW23893   0.096   4.828   1.099  0.3327 -0.1348  0.4093
 7665SOL    HW123894   0.099   4.912   1.044 -1.6242 -0.6779 -0.6425
 7665SOL    HW223895   0.108   4.851   1.196 -0.6367  1.4393  0.2015
 7666SOL     OW23896   6.812   1.212   4.302 -0.6438 -0.1894  0.0538
 7666SOL    HW123897   6.845   1.239   4.212 -0.9047 -0.2622 -0.0630
 7666SOL    HW223898   6.714   1.193   4.298 -0.5336 -0.8428  0.1971
 7667SOL     OW23899   0.081   0.222   6.467  0.1662 -0.2558  0.1417
 7667SOL    HW123900   0.092   0.311   6.511  1.0898 -0.2825 -0.0035
 7667SOL    HW223901   0.088   0.150   6.536 -1.1208 -0.2166  0.3433
 7668SOL     OW23902   5.858   6.028   4.043  0.1505 -0.1033  0.2995
 7668SOL    HW123903   5.878   6.010   3.947 -3.3655  2.4670 -1.1805
 7668SOL    HW223904   5.858   5.943   4.094 -0.5347 -2.0075 -2.6198
 7669SOL     OW23905   4.395   5.242   0.172  0.4380  0.3501 -0.1983
 7669SOL    HW123906   4.344   5.253   0.257  0.5557  1.0026 -0.2039
 7669SOL    HW223907   4.358   5.304   0.103  1.3486  0.9807 -0.1396
 7670SOL     OW23908   3.213   1.451   6.331  0.3784 -0.1092  0.2279
 7670SOL    HW123909   3.308   1.425   6.311  0.1361 -0.4749 -0.4767
 7670SOL    HW223910   3.210   1.500   6.418  1.0683 -0.9894  0.7642
 7671SOL     OW23911   1.692   6.142   3.881 -0.1975  1.0523 -0.2802
 7671SOL    HW123912   1.619   6.097   3.932  0.6151 -0.9149 -0.7295
 7671SOL    HW223913   1.755   6.072   3.845  1.0938  2.5839 -1.1312
 7672SOL     OW23914   5.678   0.901   0.271 -0.2150  0.1135  0.2277
 7672SOL    HW123915   5.764   0.859   0.243  0.1212  1.6428 -1.2135
 7672SOL    HW223916   5.694   0.961   0.350  0.2930  1.2235 -0.6944
 7673SOL     OW23917   2.563   4.451   1.817 -0.0346 -0.0356  0.1679
 7673SOL    HW123918   2.603   4.435   1.727  0.5840 -0.3834  0.5019
 7673SOL    HW223919   2.619   4.516   1.867 -0.2902  0.0310  0.3708
 7674SOL     OW23920   5.025   2.660   3.551  0.6829  0.0818  0.0157
 7674SOL    HW123921   4.997   2.752   3.578  0.5290  0.3040 -0.8694
 7674SOL    HW223922   4.968   2.629   3.474  0.2013 -1.0746  0.8092
 7675SOL     OW23923   3.877   6.444   6.791  0.5155  0.0029  0.0562
 7675SOL    HW123924   3.856   6.401   6.879 -0.1098  0.7588  0.2854
 7675SOL    HW223925   3.797   6.492   6.757  1.1589  0.8913 -0.2494
 7676SOL     OW23926   2.491   0.254   5.940 -0.6143 -0.0929  0.7311
 7676SOL    HW123927   2.586   0.282   5.956 -0.3543  0.0821 -0.9020
 7676SOL    HW223928   2.446   0.320   5.880 -0.0898 -2.7674 -2.9829
 7677SOL     OW23929   2.021   0.878   6.282 -0.4573  0.5753  0.6740
 7677SOL    HW123930   2.107   0.886   6.231  0.4894 -0.9537  1.9459
 7677SOL    HW223931   1.955   0.826   6.228 -0.6764  1.8848 -0.3742
 7678SOL     OW23932   2.198   1.344   0.694 -0.0281 -0.2119 -0.0208
 7678SOL    HW123933   2.241   1.366   0.606 -0.8214  0.7257 -0.1855
 7678SOL    HW223934   2.153   1.255   0.687  0.1687 -0.2788 -0.4791
 7679SOL     OW23935   1.013   1.695   2.682 -0.0367  0.1618 -0.1808
 7679SOL    HW123936   1.009   1.680   2.781 -1.8943 -1.1775 -0.4194
 7679SOL    HW223937   1.039   1.790   2.664  0.1176  0.4872  1.5733
 7680SOL     OW23938   5.646   4.478   3.205  0.4073  0.6422  0.5607
 7680SOL    HW123939   5.716   4.447   3.269 -0.1475 -0.0448  0.8494
 7680SOL    HW223940   5.623   4.574   3.224  0.0800  0.3776  1.5486
 7681SOL     OW23941   0.949   5.897   2.690 -0.1142  0.3593 -0.0497
 7681SOL    HW123942   1.010   5.842   2.632  0.1841 -0.0174  0.6130
 7681SOL    HW223943   1.000   5.932   2.768 -0.6209  0.4857  0.2259
 7682SOL     OW23944   5.223   5.913   4.002  0.0019  0.1649  0.9411
 7682SOL    HW123945   5.130   5.923   3.966 -0.3553 -1.0555  1.4653
 7682SOL    HW223946   5.222   5.928   4.101  0.8040  2.4972  0.6672
 7683SOL     OW23947   1.374   2.324   4.441  0.0757  0.4987  0.4885
 7683SOL    HW123948   1.448   2.284   4.496  1.0466  1.7231  0.1201
 7683SOL    HW223949   1.294   2.264   4.445  1.3044 -1.2237  0.3268
 7684SOL     OW23950   2.638   4.717   4.264  0.1576  0.3797  0.0243
 7684SOL    HW123951   2.554   4.673   4.298 -0.7204 -0.6280 -3.1656
 7684SOL    HW223952   2.708   4.712   4.335 -1.4492 -1.7459  1.6092
 7685SOL     OW23953   0.111   5.651   6.688  0.3261 -0.2498 -0.4209
 7685SOL    HW123954   0.037   5.711   6.658  1.0198  1.8483  1.7590
 7685SOL    HW223955   0.165   5.622   6.609 -0.2310  1.7689 -1.6151
 7686SOL     OW23956   6.593   0.733   6.220 -0.1241 -0.5474  0.1850
 7686SOL    HW123957   6.604   0.804   6.151  0.6658 -1.4172 -0.6182
 7686SOL    HW223958   6.563   0.648   6.176  0.0605 -1.0181  0.9516
 7687SOL     OW23959   5.210   3.718   1.004  0.4366  0.5681 -0.4500
 7687SOL    HW123960   5.284   3.768   1.049 -0.0849 -0.1741  1.3476
 7687SOL    HW223961   5.229   3.620   1.009 -1.0140  0.3043  0.8147
 7688SOL     OW23962   2.902   5.079   1.310 -0.2457  0.0460 -0.8486
 7688SOL    HW123963   2.810   5.078   1.350 -0.3490  3.5002 -0.6900
 7688SOL    HW223964   2.912   5.002   1.248 -3.4779 -0.1405 -1.3262
 7689SOL     OW23965   3.978   6.834   1.828  0.3270  0.7666 -0.2651
 7689SOL    HW123966   3.894   6.836   1.883  1.5862 -3.2661  2.2772
 7689SOL    HW223967   4.049   6.886   1.874  0.6975 -0.5873  0.7791
 7690SOL     OW23968   5.801   2.270   2.852  0.2130 -0.3438  0.4974
 7690SOL    HW123969   5.854   2.197   2.809 -0.9050 -0.0576 -1.4811
 7690SOL    HW223970   5.863   2.341   2.885  1.2019 -1.3391  0.8664
 7691SOL     OW23971   3.064   1.028   6.324 -0.4398 -0.3459 -0.3948
 7691SOL    HW123972   3.106   1.061   6.240  0.0046 -0.1767 -0.1129
 7691SOL    HW223973   2.964   1.034   6.317 -0.4302  3.0715  0.3726
 7692SOL     OW23974   4.836   1.054   6.470 -0.7274 -0.8219  0.3349
 7692SOL    HW123975   4.900   1.108   6.416  0.1733 -2.1883 -0.0132
 7692SOL    HW223976   4.886   0.996   6.534 -1.7196 -0.3079  1.6412
 7693SOL     OW23977   0.809   0.286   5.844 -0.1179  0.1204  0.3795
 7693SOL    HW123978   0.802   0.223   5.922 -1.0795  0.1224  0.3005
 7693SOL    HW223979   0.724   0.337   5.835  0.1747  0.4821 -0.3700
 7694SOL     OW23980   3.686   4.229   5.829  0.1375 -0.2190  0.1713
 7694SOL    HW123981   3.716   4.134   5.834  0.2339 -0.1572  0.9249
 7694SOL    HW223982   3.725   4.280   5.906  0.7806  0.6317 -0.6914
 7695SOL     OW23983   2.657   3.580   0.025 -0.1186 -0.3467  0.4963
 7695SOL    HW123984   2.644   3.616  -0.068  1.0682 -0.9520  0.0744
 7695SOL    HW223985   2.636   3.482   0.025  1.6441 -0.7566  0.4109
 7696SOL     OW23986   4.153   0.182   4.345  0.1141 -0.1935  0.0392
 7696SOL    HW123987   4.252   0.179   4.353  0.1139 -2.4387 -0.2491
 7696SOL    HW223988   4.113   0.115   4.407 -1.4617  2.6871  2.4580
 7697SOL     OW23989   1.506   1.802   5.025 -0.0026  0.2088  0.4367
 7697SOL    HW123990   1.425   1.825   5.079  0.3164 -1.8994  1.9254
 7697SOL    HW223991   1.481   1.738   4.952 -0.7542  4.1969 -3.2427
 7698SOL     OW23992   4.955   2.468   2.851  0.0065 -0.5471  0.8729
 7698SOL    HW123993   4.858   2.468   2.876 -0.8407 -3.2000 -1.7962
 7698SOL    HW223994   4.988   2.374   2.842  2.2333  0.2563 -0.3441
 7699SOL     OW23995   5.134   4.686   1.562  0.2312 -0.1019 -0.4357
 7699SOL    HW123996   5.182   4.731   1.487 -0.0479 -0.5736 -0.9019
 7699SOL    HW223997   5.199   4.635   1.618  0.3046 -0.5778 -0.9507
 7700SOL     OW23998   2.836   6.199   0.184 -0.3775 -0.1752  0.8515
 7700SOL    HW123999   2.783   6.134   0.130  0.0003  0.4004 -0.2314
 7700SOL    HW224000   2.775   6.272   0.217 -0.1612  1.0747 -1.2847
 7701SOL     OW24001   1.381   5.834   0.233  0.0223 -0.5904  0.2063
 7701SOL    HW124002   1.442   5.756   0.224  1.5355  0.5944 -0.2968
 7701SOL    HW224003   1.373   5.859   0.329 -0.3278 -1.2394  0.3513
 7702SOL     OW24004   2.470   0.897   6.200  0.0457 -0.1461 -0.2420
 7702SOL    HW124005   2.546   0.850   6.154 -0.3977 -1.7821  0.5968
 7702SOL    HW224006   2.444   0.845   6.281  0.3276  2.2469  1.4960
 7703SOL     OW24007   2.196   5.073   1.991  0.1208  0.2496  0.6349
 7703SOL    HW124008   2.120   5.007   1.997 -0.4061  0.7557 -0.3001
 7703SOL    HW224009   2.160   5.163   1.967  1.1389  0.2167 -1.1860
 7704SOL     OW24010   1.401   2.074   5.365 -0.2748  0.0270 -0.6800
 7704SOL    HW124011   1.338   2.145   5.332 -0.6863  1.0539  2.0853
 7704SOL    HW224012   1.349   1.993   5.392 -0.0062 -0.5229 -1.7344
 7705SOL     OW24013   1.028   1.201   3.214  0.6300 -0.8043 -0.4298
 7705SOL    HW124014   1.015   1.294   3.249  2.1753 -0.3031 -1.1174
 7705SOL    HW224015   1.039   1.204   3.115 -0.0520 -1.8157 -0.5480
 7706SOL     OW24016   2.816   6.065   1.846  0.5484 -0.1891  0.0494
 7706SOL    HW124017   2.872   5.983   1.832  1.4224  0.5091 -0.6121
 7706SOL    HW224018   2.724   6.048   1.810  0.6706 -0.9336  0.0619
 7707SOL     OW24019   1.218   6.145   5.885 -0.0378  1.0684 -0.4245
 7707SOL    HW124020   1.159   6.126   5.963  2.2817  0.1847  1.2011
 7707SOL    HW224021   1.243   6.242   5.884  0.3824  0.9668  0.2612
 7708SOL     OW24022   4.842   5.195   4.430 -0.7525 -0.5486  0.5847
 7708SOL    HW124023   4.768   5.196   4.497 -1.4514  0.2666 -0.1809
 7708SOL    HW224024   4.930   5.192   4.478 -1.2091  0.7663  1.5658
 7709SOL     OW24025   5.218   1.662   6.177 -0.0162 -0.1091  0.1800
 7709SOL    HW124026   5.122   1.636   6.189  0.1407 -1.1119 -0.5910
 7709SOL    HW224027   5.260   1.678   6.266 -0.3062 -1.9566  0.6943
 7710SOL     OW24028   1.300   1.932   6.976  0.4591 -0.3567 -0.0761
 7710SOL    HW124029   1.349   1.921   6.889  1.3554  1.1871  0.1843
 7710SOL    HW224030   1.248   1.849   6.996  1.7242 -1.4594 -1.1573
 7711SOL     OW24031   3.648   5.011   5.702 -0.2416 -0.6497  0.5393
 7711SOL    HW124032   3.619   4.916   5.717 -0.3092 -0.8225 -0.6094
 7711SOL    HW224033   3.597   5.071   5.763 -1.9499 -1.1084 -0.3762
 7712SOL     OW24034   0.673   0.917   2.746 -0.0917 -0.4441  1.1012
 7712SOL    HW124035   0.604   0.962   2.690  1.4283 -1.5449 -1.9347
 7712SOL    HW224036   0.632   0.838   2.792 -1.0285 -0.8104 -0.2685
 7713SOL     OW24037   2.273   5.325   2.444  0.5588 -0.5915 -0.1669
 7713SOL    HW124038   2.321   5.400   2.399  0.9882 -0.6544  0.1759
 7713SOL    HW224039   2.246   5.257   2.376  0.2700 -0.1827 -0.4636
 7714SOL     OW24040   1.453   4.070   5.256 -0.1310  0.1115 -0.3930
 7714SOL    HW124041   1.516   4.067   5.178  1.4317  0.0800  0.8301
 7714SOL    HW224042   1.474   3.996   5.319 -0.5083  0.9086  0.7018
 7715SOL     OW24043   5.980   4.475   3.896 -0.3550  0.1780 -0.4516
 7715SOL    HW124044   5.947   4.391   3.853  0.0677  0.6540 -1.7838
 7715SOL    HW224045   5.966   4.470   3.994 -0.5897 -1.3378 -0.5286
 7716SOL     OW24046   4.066   0.245   0.222  0.0156  0.0166  0.4995
 7716SOL    HW124047   4.002   0.213   0.153 -0.6782 -0.3335  1.2871
 7716SOL    HW224048   4.082   0.172   0.289 -1.3411  1.1531  2.1391
 7717SOL     OW24049   5.221   1.616   0.584  0.6827 -0.1703 -0.0620
 7717SOL    HW124050   5.188   1.710   0.591 -1.2545 -0.8894  1.4628
 7717SOL    HW224051   5.249   1.583   0.674  2.5228 -0.7089 -0.7735
 7718SOL     OW24052   3.520   2.142   6.070  0.4524  0.7132 -0.8309
 7718SOL    HW124053   3.490   2.187   6.155  0.3561  0.5766 -0.7920
 7718SOL    HW224054   3.582   2.067   6.092 -0.9574 -0.4770 -0.7454
 7719SOL     OW24055   4.882   0.364   3.880 -0.4436  0.9406 -0.3572
 7719SOL    HW124056   4.907   0.349   3.785  0.0728  0.8900 -0.2167
 7719SOL    HW224057   4.789   0.329   3.896 -0.5363  0.9613 -0.8411
 7720SOL     OW24058   2.607   0.469   1.039  0.3997  0.8129  0.0991
 7720SOL    HW124059   2.517   0.433   1.064 -0.1857  1.9467 -0.2795
 7720SOL    HW224060   2.677   0.427   1.097 -0.1465 -1.2855 -0.6782
 7721SOL     OW24061   2.110   4.430   6.536  0.1531 -0.6150 -0.1864
 7721SOL    HW124062   2.157   4.489   6.602  0.1583 -1.6224  0.7386
 7721SOL    HW224063   2.071   4.352   6.584 -2.4671  0.1539 -0.9432
 7722SOL     OW24064   0.727   1.905   1.569 -0.3665 -0.0723  0.6405
 7722SOL    HW124065   0.671   1.861   1.640  1.2408 -2.2174  0.6816
 7722SOL    HW224066   0.752   1.837   1.500 -3.3110  2.2490 -3.1430
 7723SOL     OW24067   4.850   4.914   6.973 -0.1718  0.0514 -0.1365
 7723SOL    HW124068   4.887   4.821   6.982  0.3140  0.2762  0.2471
 7723SOL    HW224069   4.794   4.935   7.053 -2.6813 -0.9445 -1.5145
 7724SOL     OW24070   3.430   5.571   4.300 -0.7692  0.3149  0.0864
 7724SOL    HW124071   3.389   5.662   4.306  0.9134  1.3043 -2.1253
 7724SOL    HW224072   3.377   5.507   4.356 -2.9517  2.2904  0.4333
 7725SOL     OW24073   6.149   7.003   3.411  0.0700 -0.1471 -0.4674
 7725SOL    HW124074   6.194   6.957   3.488  3.8275  0.2464 -2.2057
 7725SOL    HW224075   6.174   7.099   3.411 -3.2880  0.8680  0.0061
 7726SOL     OW24076   4.685   0.243   1.405 -0.2140  0.3389  0.3471
 7726SOL    HW124077   4.751   0.221   1.477  0.6197 -2.0225 -1.0258
 7726SOL    HW224078   4.718   0.207   1.317 -2.8195 -0.0132 -0.5858
 7727SOL     OW24079   3.987   3.940   1.449  0.2110 -0.2388  0.4759
 7727SOL    HW124080   3.942   3.856   1.479  2.1312 -0.7333  2.1130
 7727SOL    HW224081   3.967   4.013   1.515 -1.1839  0.5700 -0.7706
 7728SOL     OW24082   1.206   1.457   5.774  0.2286 -0.6401 -0.0540
 7728SOL    HW124083   1.278   1.451   5.844 -0.2426 -1.6584  0.3658
 7728SOL    HW224084   1.192   1.367   5.733 -1.1133 -0.5667  0.1890
 7729SOL     OW24085   1.384   4.998   4.544  0.4388  0.1740  0.2472
 7729SOL    HW124086   1.445   5.054   4.600  1.1673 -1.5415  1.2241
 7729SOL    HW224087   1.417   4.997   4.450  1.1322  0.3731  0.4782
 7730SOL     OW24088   4.963   3.694   3.518  0.3478  0.5138  0.6257
 7730SOL    HW124089   4.963   3.685   3.418  0.2036 -2.1896  0.8121
 7730SOL    HW224090   4.916   3.779   3.543  0.6335  1.3900 -1.5920
 7731SOL     OW24091   3.282   0.063   6.336  0.4506  0.7770 -0.0529
 7731SOL    HW124092   3.326  -0.016   6.379  2.0483  1.0863 -1.0599
 7731SOL    HW224093   3.241   0.036   6.249 -0.0560  0.8226  0.1636
 7732SOL     OW24094   0.785   3.019   4.196 -0.6595 -0.1911  0.5419
 7732SOL    HW124095   0.827   3.086   4.256  1.0066 -1.1863  0.5498
 7732SOL    HW224096   0.856   2.958   4.159 -1.9047 -0.9167 -0.7603
 7733SOL     OW24097   1.058   0.014   1.528  0.1962  0.4454 -0.3666
 7733SOL    HW124098   1.153   0.040   1.512  0.7983 -0.8923  0.7782
 7733SOL    HW224099   1.021   0.064   1.606  0.8763 -0.9485  0.9015
 7734SOL     OW24100   2.619   3.100   1.451 -0.3959 -0.0961 -0.1343
 7734SOL    HW124101   2.618   3.085   1.352 -0.1515  0.5894 -0.2473
 7734SOL    HW224102   2.691   3.044   1.492  0.7126  0.9338 -0.5906
 7735SOL     OW24103   5.400   0.222   3.448 -0.5663  0.0664 -0.2612
 7735SOL    HW124104   5.333   0.285   3.488 -0.1233  1.0459 -1.0276
 7735SOL    HW224105   5.355   0.162   3.382 -0.4048  2.0795 -2.3182
 7736SOL     OW24106   6.680   2.928   0.647  0.3018  0.4707  0.1429
 7736SOL    HW124107   6.603   2.863   0.643  2.0927 -1.8495  1.0699
 7736SOL    HW224108   6.723   2.923   0.737  2.4101  0.6164 -0.7951
 7737SOL     OW24109   1.412   1.358   0.290  0.0066  0.0644  0.0830
 7737SOL    HW124110   1.434   1.455   0.295  0.9652 -0.1174 -0.3631
 7737SOL    HW224111   1.422   1.317   0.381  0.7362  0.1583  0.0535
 7738SOL     OW24112   5.910   0.250   2.864  0.0087  0.1889  0.0297
 7738SOL    HW124113   5.830   0.278   2.917  1.0914  0.8682  1.3798
 7738SOL    HW224114   5.961   0.181   2.915  0.1114 -0.4922 -0.9738
 7739SOL     OW24115   0.336   1.322   0.005  0.3702  0.4572 -0.2740
 7739SOL    HW124116   0.309   1.394   0.069 -1.5384 -0.0558 -0.4385
 7739SOL    HW224117   0.426   1.343  -0.033 -0.6119  3.4221 -1.2637
 7740SOL     OW24118   1.835   1.765   1.429  0.0783 -0.0864 -0.4725
 7740SOL    HW124119   1.776   1.846   1.427  1.7998  1.2646 -0.1106
 7740SOL    HW224120   1.801   1.697   1.364 -3.4080 -0.5993  1.6303
 7741SOL     OW24121   6.102   2.334   0.133  0.5518 -0.0852  0.3595
 7741SOL    HW124122   6.191   2.303   0.101  0.7649 -1.0171  1.7721
 7741SOL    HW224123   6.114   2.410   0.197  0.3330 -0.2248  0.5664
 7742SOL     OW24124   5.378   1.187   1.348  0.1332 -0.2575  0.6752
 7742SOL    HW124125   5.421   1.099   1.331 -0.9862 -0.7792  0.4437
 7742SOL    HW224126   5.411   1.224   1.435  0.6634 -0.8765  0.7433
 7743SOL     OW24127   0.849   3.211   5.096  0.7103  0.4516  0.4938
 7743SOL    HW124128   0.862   3.111   5.097  0.3165  0.3998  0.5697
 7743SOL    HW224129   0.794   3.238   5.175  0.7380  0.7211  0.4219
 7744SOL     OW24130   1.046   4.543   0.131  0.1087 -0.3901 -0.1985
 7744SOL    HW124131   1.112   4.616   0.111 -0.2808 -0.0866 -0.3870
 7744SOL    HW224132   0.956   4.569   0.097 -0.6008  0.1702  1.9349
 7745SOL     OW24133   4.590   4.369   1.350  0.6962  0.1010 -0.3633
 7745SOL    HW124134   4.681   4.405   1.332  0.8959 -0.1997  0.0332
 7745SOL    HW224135   4.562   4.393   1.443  0.9099 -0.9132 -0.0208
 7746SOL     OW24136   4.324   5.536   4.687  0.1476  0.2219 -0.7894
 7746SOL    HW124137   4.287   5.578   4.769  0.0429 -1.4546  0.0697
 7746SOL    HW224138   4.332   5.437   4.701  2.6475  0.1920 -1.8134
 7747SOL     OW24139   2.586   2.074   1.437  0.2291  0.6070  0.8804
 7747SOL    HW124140   2.501   2.116   1.405 -0.1766  0.7655  2.1008
 7747SOL    HW224141   2.565   1.987   1.483  0.6952  0.7534  1.3811
 7748SOL     OW24142   1.202   4.460   1.369  0.1186 -0.3378 -0.8896
 7748SOL    HW124143   1.162   4.426   1.284  0.5895 -1.3435 -0.7313
 7748SOL    HW224144   1.165   4.408   1.446  0.7972 -0.4457 -0.6246
 7749SOL     OW24145   5.712   5.830   2.902  0.1658 -0.0611 -0.2744
 7749SOL    HW124146   5.693   5.760   2.970  0.8844 -1.0531 -1.0585
 7749SOL    HW224147   5.627   5.862   2.862 -0.2466  0.3288  0.8640
 7750SOL     OW24148   1.483   4.592   3.697  0.5560  0.3935  0.2818
 7750SOL    HW124149   1.572   4.637   3.699 -0.0758  1.7472 -0.1554
 7750SOL    HW224150   1.442   4.595   3.788  0.5853  0.5885  0.2898
 7751SOL     OW24151   6.969   6.432   3.020 -0.0529  0.0170  0.0961
 7751SOL    HW124152   6.930   6.346   3.052  0.4452  0.2521  1.3907
 7751SOL    HW224153   7.047   6.414   2.960 -0.9505 -0.4255 -0.9825
 7752SOL     OW24154   4.529   6.170   6.006 -0.2486 -0.1146  0.1939
 7752SOL    HW124155   4.603   6.106   5.985 -0.5453 -1.1514  2.0818
 7752SOL    HW224156   4.487   6.145   6.093 -0.8687  2.2410  0.6462
 7753SOL     OW24157   6.793   6.900   0.626  0.1403  0.4518 -0.3163
 7753SOL    HW124158   6.693   6.895   0.625  0.0469  1.7025  0.5516
 7753SOL    HW224159   6.827   6.885   0.719  0.6732  1.2552 -0.3727
 7754SOL     OW24160   2.082   1.119   6.000  0.0010 -0.3477  0.2113
 7754SOL    HW124161   2.149   1.060   6.045 -0.2564  0.0572  1.1492
 7754SOL    HW224162   2.023   1.161   6.069  0.3843  1.2580 -0.4014
 7755SOL     OW24163   1.366   6.950   3.107  0.8413 -0.3822  0.3681
 7755SOL    HW124164   1.299   6.971   3.036  0.9741  0.5871  0.5159
 7755SOL    HW224165   1.348   7.008   3.187  2.5225  0.7118 -0.0042
 7756SOL     OW24166   1.820   1.231   0.126  0.0286 -0.1474  0.1690
 7756SOL    HW124167   1.755   1.252   0.053 -0.8684 -1.2119  0.6286
 7756SOL    HW224168   1.814   1.300   0.197  1.6434  1.4881 -1.1850
 7757SOL     OW24169   1.231   4.811   2.965  0.5049  0.2351  0.3042
 7757SOL    HW124170   1.251   4.722   2.925 -0.6659  0.3353 -0.5363
 7757SOL    HW224171   1.175   4.865   2.902  1.1439  1.5540  0.8147
 7758SOL     OW24172   0.300   3.533   3.107 -0.4001  0.4971 -0.2181
 7758SOL    HW124173   0.239   3.609   3.127 -0.9810  0.3415 -1.3429
 7758SOL    HW224174   0.261   3.448   3.143 -0.4841  0.5079 -0.2837
 7759SOL     OW24175   0.504   4.382   3.063 -0.5590  0.0254 -0.7624
 7759SOL    HW124176   0.474   4.475   3.042 -1.4036 -0.0258  0.1519
 7759SOL    HW224177   0.550   4.380   3.152  0.2366 -0.2921 -1.1673
 7760SOL     OW24178   3.787   6.094   1.938  0.4037  0.1780 -0.2200
 7760SOL    HW124179   3.820   6.113   2.031 -2.1639 -0.0288  0.8196
 7760SOL    HW224180   3.803   5.997   1.917  0.0563 -0.0411  0.4688
 7761SOL     OW24181   0.230   6.180   0.813  0.1685 -0.4597 -0.0426
 7761SOL    HW124182   0.325   6.152   0.815  1.0167  2.1723  2.1891
 7761SOL    HW224183   0.223   6.270   0.769 -1.1693 -0.2820  0.4888
 7762SOL     OW24184   4.175   3.817   6.273  0.0506  0.2034  0.1359
 7762SOL    HW124185   4.240   3.742   6.289 -0.3568  0.0176  0.9733
 7762SOL    HW224186   4.171   3.837   6.175  2.3174  1.0802  0.1663
 7763SOL     OW24187   0.392   0.242   3.444 -0.1085  0.3494 -0.3433
 7763SOL    HW124188   0.346   0.172   3.389 -0.4914  2.0964 -2.3773
 7763SOL    HW224189   0.473   0.275   3.396 -0.1006  1.5291  0.4411
 7764SOL     OW24190   2.086   2.672   3.843  0.3766 -0.2047  0.6571
 7764SOL    HW124191   2.044   2.698   3.929 -0.6915 -0.1708  0.1448
 7764SOL    HW224192   2.150   2.596   3.858 -0.4185 -0.7545  1.3609
 7765SOL     OW24193   1.335   6.180   6.920  0.0496 -0.2214  0.0032
 7765SOL    HW124194   1.284   6.097   6.901  1.3750 -0.3491 -4.0555
 7765SOL    HW224195   1.279   6.260   6.899 -0.1937 -0.1861  0.7799
 7766SOL     OW24196   2.888   0.693   5.024  0.2387 -0.3817  0.4546
 7766SOL    HW124197   2.933   0.781   5.036 -0.3546  0.3190 -1.8996
 7766SOL    HW224198   2.950   0.630   4.976 -0.6586  0.0832 -1.3979
 7767SOL     OW24199   6.161   4.522   2.612  0.2170 -1.0189  0.0018
 7767SOL    HW124200   6.149   4.455   2.539  0.2357 -0.1593 -0.8219
 7767SOL    HW224201   6.176   4.476   2.699 -1.2817 -2.0839 -0.2680
 7768SOL     OW24202   4.347   0.281   2.929 -0.1589  0.3324 -0.3316
 7768SOL    HW124203   4.358   0.297   2.831  0.7105 -1.5533 -0.5759
 7768SOL    HW224204   4.436   0.273   2.972 -0.5340  0.9563  0.6007
 7769SOL     OW24205   6.314   3.346   5.820 -0.4096 -0.0868 -0.2200
 7769SOL    HW124206   6.369   3.268   5.851  0.1096  0.0793 -0.6961
 7769SOL    HW224207   6.251   3.374   5.892  1.4638  0.9383  1.0889
 7770SOL     OW24208   1.800   6.145   1.515  0.1039 -0.3858  0.0572
 7770SOL    HW124209   1.848   6.062   1.542  0.4094 -0.4743 -0.7190
 7770SOL    HW224210   1.703   6.136   1.538 -0.1660 -1.6063 -1.3402
 7771SOL     OW24211   1.908   6.153   3.155  0.0078  0.6656  0.0009
 7771SOL    HW124212   1.996   6.176   3.114  0.9898 -0.2258  1.5278
 7771SOL    HW224213   1.922   6.101   3.239 -2.0093 -0.3833 -0.2401
 7772SOL     OW24214   3.431   5.412   3.566  0.4905 -0.2642  0.3646
 7772SOL    HW124215   3.473   5.486   3.618 -2.0218  0.3766  1.6091
 7772SOL    HW224216   3.465   5.415   3.472  2.4745  0.7383  1.0580
 7773SOL     OW24217   2.323   1.874   2.606 -0.0700 -0.0656 -0.0227
 7773SOL    HW124218   2.268   1.919   2.676  0.6195 -2.0081  1.8956
 7773SOL    HW224219   2.271   1.799   2.565  0.3895 -0.5272  0.2299
 7774SOL     OW24220   4.242   1.872   0.953  0.2466  0.4752 -0.5835
 7774SOL    HW124221   4.143   1.855   0.948  0.1687  0.7458 -0.0845
 7774SOL    HW224222   4.291   1.785   0.955 -0.0898  0.2840  0.9067
 7775SOL     OW24223   3.123   5.859   0.927 -0.0654 -0.1131 -0.7309
 7775SOL    HW124224   3.037   5.904   0.949  0.2050  0.2774 -0.4471
 7775SOL    HW224225   3.194   5.890   0.991  0.4594  0.1525 -1.4309
 7776SOL     OW24226   6.480   4.215   6.698 -0.1146  0.5376 -0.1210
 7776SOL    HW124227   6.550   4.176   6.638 -0.9886  0.3376 -1.0357
 7776SOL    HW224228   6.486   4.171   6.787 -0.5293 -1.1329 -0.8718
 7777SOL     OW24229   0.792   6.383   5.924 -0.6925 -0.5765 -0.5783
 7777SOL    HW124230   0.789   6.318   6.000  0.3986  0.4416  0.3764
 7777SOL    HW224231   0.700   6.419   5.907 -0.5793  1.3258  2.2303
 7778SOL     OW24232   3.918   1.791   3.970 -0.4549 -0.1403 -0.0928
 7778SOL    HW124233   3.917   1.696   3.939 -0.0083 -0.1188 -0.1852
 7778SOL    HW224234   4.012   1.818   3.991 -0.7308 -0.1322  1.2070
 7779SOL     OW24235   6.951   3.247   1.160 -0.3395  0.2813  0.1934
 7779SOL    HW124236   6.861   3.206   1.176 -0.1191 -0.2443  0.1105
 7779SOL    HW224237   7.014   3.177   1.128 -0.2027  0.8733 -0.8719
 7780SOL     OW24238   5.096   4.355   2.710  0.1749 -0.2605 -0.7100
 7780SOL    HW124239   5.050   4.339   2.623  1.1018 -1.0010 -1.0877
 7780SOL    HW224240   5.052   4.301   2.782  1.5791 -2.5573 -1.4526
 7781SOL     OW24241   0.475   0.016   4.581  0.6159  0.1065  0.1460
 7781SOL    HW124242   0.384   0.038   4.617  0.2470 -0.4633 -0.4116
 7781SOL    HW224243   0.545   0.049   4.645  0.0544  1.3968  0.1191
 7782SOL     OW24244   4.128   5.080   2.822  0.5047 -0.6813  0.0169
 7782SOL    HW124245   4.083   5.169   2.830  0.6331 -0.5988 -0.1869
 7782SOL    HW224246   4.063   5.014   2.785  0.1168 -0.9017  1.0382
 7783SOL     OW24247   1.110   3.464   2.331 -0.2564 -0.1771 -0.2184
 7783SOL    HW124248   1.054   3.507   2.402 -0.3052  0.3873 -0.5985
 7783SOL    HW224249   1.180   3.527   2.300  0.3441 -0.7408 -0.0389
 7784SOL     OW24250   0.284   3.046   6.001 -0.0649  0.1831  0.0774
 7784SOL    HW124251   0.296   3.012   6.094 -0.8153 -0.2506  0.0168
 7784SOL    HW224252   0.306   3.143   5.998  1.2147 -0.0756  0.4380
 7785SOL     OW24253   1.677   0.674   4.188 -0.2254  0.5278 -0.6977
 7785SOL    HW124254   1.643   0.626   4.107  0.8396 -0.7262 -0.4423
 7785SOL    HW224255   1.773   0.698   4.174 -0.1136  0.5441  0.0877
 7786SOL     OW24256   3.415   3.623   4.212 -0.3795  0.7042  0.3362
 7786SOL    HW124257   3.352   3.560   4.167 -0.9707 -0.7209  2.9311
 7786SOL    HW224258   3.377   3.652   4.300  2.1402  0.4140  1.6500
 7787SOL     OW24259   5.871   4.415   3.357  0.0958  0.5328  0.5126
 7787SOL    HW124260   5.865   4.379   3.450  1.9449 -0.4298  0.3003
 7787SOL    HW224261   5.929   4.355   3.302  0.4503  2.0240 -0.7972
 7788SOL     OW24262   0.766   1.733   4.543 -0.9914  0.2853  0.4863
 7788SOL    HW124263   0.702   1.740   4.466 -0.4145  1.9752  0.1006
 7788SOL    HW224264   0.715   1.734   4.629 -1.5395  0.9197  0.1685
 7789SOL     OW24265   2.095   1.446   2.171  0.8304 -0.1991  0.1346
 7789SOL    HW124266   2.008   1.495   2.180  0.6466 -0.3713 -0.6351
 7789SOL    HW224267   2.167   1.510   2.146  0.5885 -0.2948 -0.8778
 7790SOL     OW24268   5.608   1.815   1.308 -0.0742 -0.1353 -0.1819
 7790SOL    HW124269   5.547   1.894   1.321 -1.1933 -1.1745  1.3558
 7790SOL    HW224270   5.598   1.781   1.215 -0.0300  1.1661 -0.6840
 7791SOL     OW24271   4.595   6.466   6.990  0.3244  0.3880 -0.5989
 7791SOL    HW124272   4.532   6.438   7.062  2.1572 -1.1664  0.4646
 7791SOL    HW224273   4.559   6.436   6.901 -0.4587 -0.3858 -0.0380
 7792SOL     OW24274   0.810   2.466   5.892  0.3734  0.1472 -0.1393
 7792SOL    HW124275   0.885   2.407   5.863 -0.1262 -1.0453  0.8927
 7792SOL    HW224276   0.819   2.486   5.990 -0.4718  0.2441 -0.0710
 7793SOL     OW24277   6.540   6.876   1.867 -0.7521  0.0388 -0.1611
 7793SOL    HW124278   6.595   6.797   1.839 -1.3273 -0.8772  1.1696
 7793SOL    HW224279   6.495   6.916   1.787  1.7309  0.7737 -1.2914
 7794SOL     OW24280   2.841   1.633   2.638  0.0520 -0.6909  0.2980
 7794SOL    HW124281   2.895   1.716   2.624 -2.0320  0.4229 -1.8666
 7794SOL    HW224282   2.803   1.603   2.551  0.6060 -3.9029  1.0499
 7795SOL     OW24283   6.285   5.074   2.501  0.1880  0.5419 -0.0618
 7795SOL    HW124284   6.280   4.977   2.526  0.5779  1.1564  2.6900
 7795SOL    HW224285   6.253   5.085   2.407  1.1402 -2.3741 -0.8516
 7796SOL     OW24286   5.746   1.931   3.152 -0.5227  0.5249 -0.4141
 7796SOL    HW124287   5.729   1.909   3.056 -1.0032  0.7799 -0.3917
 7796SOL    HW224288   5.665   1.909   3.206 -0.3619  0.6607 -0.1137
 7797SOL     OW24289   5.640   4.262   3.048 -0.2312 -0.0521  0.3861
 7797SOL    HW124290   5.563   4.274   2.986  1.7734 -0.1356 -2.3279
 7797SOL    HW224291   5.649   4.342   3.107 -2.9388 -0.5152  1.5711
 7798SOL     OW24292   6.712   1.760   0.363  0.3697  0.1571  0.0677
 7798SOL    HW124293   6.800   1.737   0.406 -0.0354 -2.1476 -0.1812
 7798SOL    HW224294   6.728   1.801   0.274  1.3205 -2.6647 -1.1902
 7799SOL     OW24295   6.018   6.769   6.967 -0.1829 -0.4842 -0.3520
 7799SOL    HW124296   6.036   6.866   6.951 -0.5480 -0.4885 -0.8057
 7799SOL    HW224297   6.103   6.716   6.954 -0.1500 -0.3140 -0.8572
 7800SOL     OW24298   1.282   1.365   6.853 -0.3592 -0.2597  0.2367
 7800SOL    HW124299   1.305   1.438   6.917 -0.4382 -0.9089  1.0204
 7800SOL    HW224300   1.351   1.293   6.858  1.4011  1.0634 -2.7105
 7801SOL     OW24301   0.139   1.763   3.594 -0.2607 -0.5597 -0.3098
 7801SOL    HW124302   0.174   1.677   3.633  1.9499  0.0720 -0.7470
 7801SOL    HW224303   0.163   1.766   3.497 -1.6926 -0.0976 -0.6677
 7802SOL     OW24304   4.559   6.701   2.924  0.3545 -0.4536  0.3991
 7802SOL    HW124305   4.503   6.639   2.979 -1.4032 -0.8366 -1.6824
 7802SOL    HW224306   4.645   6.719   2.971  0.0463 -2.8135  2.0266
 7803SOL     OW24307   3.654   3.411   4.929 -0.7620  0.4043 -0.2937
 7803SOL    HW124308   3.716   3.336   4.953 -0.7325  0.3589 -0.5092
 7803SOL    HW224309   3.674   3.442   4.836 -1.3692  0.0871 -0.5334
 7804SOL     OW24310   4.936   5.999   6.179  0.0867 -0.1957 -0.2405
 7804SOL    HW124311   5.008   6.022   6.113 -0.5667 -0.9634 -1.2408
 7804SOL    HW224312   4.900   5.908   6.159 -2.7429  1.0220 -1.2087
 7805SOL     OW24313   3.936   0.699   3.221  0.2296  0.1662  0.5419
 7805SOL    HW124314   4.033   0.720   3.213  0.9230 -2.9203 -0.4155
 7805SOL    HW224315   3.899   0.740   3.304  2.1404  2.0063  0.5463
 7806SOL     OW24316   0.485   1.334   5.653 -0.1000  0.4606  0.4550
 7806SOL    HW124317   0.475   1.329   5.554  0.9119 -0.6776  0.3888
 7806SOL    HW224318   0.428   1.407   5.689 -0.9961  0.4455 -0.8923
 7807SOL     OW24319   4.481   0.275   0.127 -0.5723 -0.2892 -0.0705
 7807SOL    HW124320   4.442   0.232   0.046 -1.5175 -0.5571  0.5158
 7807SOL    HW224321   4.566   0.322   0.102 -0.2938 -1.2497 -1.0065
 7808SOL     OW24322   5.361   2.406   6.615  0.1719  0.2246  0.0443
 7808SOL    HW124323   5.327   2.316   6.587 -1.9760  0.3424  1.9963
 7808SOL    HW224324   5.432   2.394   6.685  1.8392  0.0467 -1.6211
 7809SOL     OW24325   4.953   1.885   6.230 -0.0843  0.3386  0.2338
 7809SOL    HW124326   4.953   1.834   6.144 -0.2647  0.2903  0.2620
 7809SOL    HW224327   4.896   1.966   6.221  1.7084  1.5868 -0.4225
 7810SOL     OW24328   2.348   0.709   6.426  0.0519 -0.5090  0.0499
 7810SOL    HW124329   2.428   0.653   6.405 -0.2093 -0.9699  0.2743
 7810SOL    HW224330   2.265   0.654   6.415 -0.2198 -0.0972  0.0359
 7811SOL     OW24331   2.886   6.898   2.290  0.3569 -0.1761 -0.0577
 7811SOL    HW124332   2.814   6.890   2.359  1.0576 -0.7084  0.6264
 7811SOL    HW224333   2.909   6.995   2.277  1.2713 -0.1326  1.5858
 7812SOL     OW24334   0.256   5.191   1.517  0.3349  0.2821 -0.3585
 7812SOL    HW124335   0.161   5.175   1.542 -0.0681 -1.4584 -2.6904
 7812SOL    HW224336   0.262   5.274   1.462  0.6318  1.8376  1.8784
 7813SOL     OW24337   1.849   4.746   4.153 -0.3814  0.1622  0.5285
 7813SOL    HW124338   1.896   4.735   4.065  0.4075 -0.5616  1.0298
 7813SOL    HW224339   1.757   4.706   4.147  0.2217 -1.2615  0.4729
 7814SOL     OW24340   3.278   3.387   0.458 -0.0581 -0.0655 -0.0837
 7814SOL    HW124341   3.193   3.435   0.439  0.5160  0.4987 -1.3650
 7814SOL    HW224342   3.259   3.303   0.508 -1.2187  0.7763  0.9568
 7815SOL     OW24343   4.539   6.721   2.358  0.0910  0.4447  0.4399
 7815SOL    HW124344   4.586   6.792   2.307  1.7727 -0.2142  1.0085
 7815SOL    HW224345   4.584   6.633   2.342 -2.6354 -0.7646 -1.1942
 7816SOL     OW24346   6.638   1.171   4.612 -0.4232  0.1642  0.2045
 7816SOL    HW124347   6.560   1.142   4.557 -0.1262 -0.7080  0.2324
 7816SOL    HW224348   6.719   1.119   4.584  0.0131  0.6306  0.5923
 7817SOL     OW24349   3.573   4.095   3.104  0.5752  0.4823 -0.1569
 7817SOL    HW124350   3.631   4.127   3.179 -0.1401 -1.6179  1.3977
 7817SOL    HW224351   3.576   3.995   3.100 -0.5338  0.4743 -2.0498
 7818SOL     OW24352   5.323   2.677   6.565 -0.2202 -0.0219  0.2187
 7818SOL    HW124353   5.339   2.579   6.575  3.0525  0.0327 -2.6489
 7818SOL    HW224354   5.411   2.724   6.560 -1.6980  2.8983  0.0224
 7819SOL     OW24355   4.318   6.607   0.694 -0.6484  0.0726 -0.2983
 7819SOL    HW124356   4.238   6.582   0.640  0.2650  0.5930 -1.9642
 7819SOL    HW224357   4.335   6.705   0.687  0.8427 -0.2007 -1.0412
 7820SOL     OW24358   0.106   4.529   1.530  0.3112 -0.6154  0.1216
 7820SOL    HW124359   0.142   4.473   1.455  0.3710 -0.4504  0.0256
 7820SOL    HW224360   0.158   4.614   1.535 -1.9557  1.0083 -1.9841
 7821SOL     OW24361   2.014   2.157   5.043  0.4199  0.1648 -0.5676
 7821SOL    HW124362   2.000   2.064   5.077 -0.6927  0.9514  1.3010
 7821SOL    HW224363   1.999   2.160   4.945  1.4737 -1.8091 -0.8369
 7822SOL     OW24364   1.431   4.208   2.329 -0.1586 -0.0943  0.1486
 7822SOL    HW124365   1.525   4.179   2.348 -0.6343 -1.5674  0.3843
 7822SOL    HW224366   1.382   4.223   2.415  0.0625  1.4507  0.0329
 7823SOL     OW24367   0.503   0.858   4.362  0.0124  0.0430 -0.3124
 7823SOL    HW124368   0.535   0.953   4.353 -1.4268  0.5303 -0.5506
 7823SOL    HW224369   0.565   0.808   4.422 -0.7731  1.9135  2.2270
 7824SOL     OW24370   0.439   6.196   4.371 -0.2888  0.0954  0.5246
 7824SOL    HW124371   0.343   6.178   4.353 -0.3704 -0.6245  1.5726
 7824SOL    HW224372   0.448   6.247   4.457  0.1566  2.0652 -0.6307
 7825SOL     OW24373   1.431   0.678   2.083 -0.0970 -0.1598 -0.5690
 7825SOL    HW124374   1.509   0.625   2.118 -0.6376  0.1456  1.1895
 7825SOL    HW224375   1.465   0.759   2.036  0.6784 -0.3672 -0.3826
 7826SOL     OW24376   0.998   2.152   3.468 -0.0373 -0.0482  0.2252
 7826SOL    HW124377   1.047   2.235   3.445  2.0618 -1.4438 -0.6285
 7826SOL    HW224378   0.989   2.095   3.387 -1.1208 -0.8190  0.8653
 7827SOL     OW24379   0.276   2.262   4.830 -0.0369 -0.1631  0.6153
 7827SOL    HW124380   0.358   2.220   4.869 -1.0424 -1.8374  1.0092
 7827SOL    HW224381   0.214   2.290   4.903 -1.4272 -2.2898  0.3416
 7828SOL     OW24382   0.580   1.103   5.298 -0.1976  0.4366 -0.5629
 7828SOL    HW124383   0.570   1.047   5.380  0.1934  1.3024  0.0925
 7828SOL    HW224384   0.559   1.198   5.320  0.3948  0.7598 -1.3441
 7829SOL     OW24385   1.035   1.492   4.343 -0.5386  0.2105  0.8254
 7829SOL    HW124386   1.125   1.458   4.315 -0.8868 -0.5836  0.6549
 7829SOL    HW224387   1.015   1.461   4.436 -0.2293  1.2100  1.2453
 7830SOL     OW24388   0.400   3.779   3.838 -0.3909  0.4492  0.0023
 7830SOL    HW124389   0.444   3.760   3.750 -2.7770 -0.3233 -1.1057
 7830SOL    HW224390   0.461   3.834   3.895  2.2711 -1.1895 -1.0913
 7831SOL     OW24391   2.939   5.490   5.945 -0.5932 -0.5233 -0.5086
 7831SOL    HW124392   3.008   5.445   5.889 -1.8176 -1.6373 -1.1844
 7831SOL    HW224393   2.865   5.523   5.886 -0.5043  0.9274  0.1642
 7832SOL     OW24394   2.419   5.609   3.402 -0.2292  0.0290 -0.7398
 7832SOL    HW124395   2.323   5.636   3.398 -0.0192  0.9510  0.1624
 7832SOL    HW224396   2.426   5.510   3.389 -1.6197 -0.5886  2.3391
 7833SOL     OW24397   0.179   0.404   1.641 -0.2066 -0.1091  0.5432
 7833SOL    HW124398   0.243   0.331   1.666  0.3541  0.3735  0.5185
 7833SOL    HW224399   0.179   0.415   1.542 -0.8852 -0.6147  0.4856
 7834SOL     OW24400   5.000   5.707   0.445 -0.1926  0.0701  0.0346
 7834SOL    HW124401   4.958   5.670   0.362 -0.9198  0.0230  0.4147
 7834SOL    HW224402   5.049   5.634   0.493 -1.8408 -0.5019  0.9189
 7835SOL     OW24403   5.607   2.675   0.862 -0.7276  0.2706 -0.1568
 7835SOL    HW124404   5.557   2.595   0.895  0.9054 -0.5169  0.5288
 7835SOL    HW224405   5.685   2.692   0.922  0.5544  0.6850 -1.8571
 7836SOL     OW24406   4.788   3.066   3.041 -0.0130  0.7195  0.1817
 7836SOL    HW124407   4.787   3.038   2.945  1.8273  1.4227 -0.0778
 7836SOL    HW224408   4.791   2.985   3.100  1.6629  0.2808 -0.4511
 7837SOL     OW24409   4.584   3.732   6.280 -0.0837 -0.0112  0.6092
 7837SOL    HW124410   4.673   3.731   6.234  0.1196 -0.6366  0.9956
 7837SOL    HW224411   4.595   3.768   6.372  0.1800 -1.9316  1.3917
 7838SOL     OW24412   2.611   6.204   1.421  0.0452 -0.2189 -0.3716
 7838SOL    HW124413   2.563   6.292   1.424  0.8502  0.2208  0.3990
 7838SOL    HW224414   2.679   6.205   1.347  2.2775  1.0767  1.5390
 7839SOL     OW24415   1.569   3.118   6.919  0.2724 -0.1225 -0.3145
 7839SOL    HW124416   1.636   3.171   6.973  0.2936  0.7669 -1.1831
 7839SOL    HW224417   1.567   3.024   6.952  0.7648  0.2381  0.8057
 7840SOL     OW24418   4.784   2.714   5.606  0.0185  0.4156 -0.1217
 7840SOL    HW124419   4.816   2.693   5.513  1.9428 -1.1224  0.8024
 7840SOL    HW224420   4.791   2.632   5.663 -1.9679  1.0856  1.2089
 7841SOL     OW24421   4.409   0.279   5.272 -0.6517 -0.1271  0.5026
 7841SOL    HW124422   4.387   0.187   5.240 -1.2006 -0.2583  1.2328
 7841SOL    HW224423   4.334   0.314   5.328 -0.7286  1.0196 -0.2681
 7842SOL     OW24424   4.469   6.518   3.217 -0.5177  0.8270 -0.4536
 7842SOL    HW124425   4.484   6.605   3.265  1.3252  0.8104 -0.9409
 7842SOL    HW224426   4.373   6.511   3.191 -1.1486  1.7713  1.3980
 7843SOL     OW24427   1.196   4.576   6.250 -0.0145 -0.1748  0.2714
 7843SOL    HW124428   1.125   4.511   6.277  0.3751 -1.2112 -1.0587
 7843SOL    HW224429   1.153   4.662   6.222 -0.6774 -0.4307  0.4731
 7844SOL     OW24430   5.194   1.256   0.220 -0.4612  0.2865 -0.1862
 7844SOL    HW124431   5.103   1.240   0.180 -0.2848  0.2351 -0.5669
 7844SOL    HW224432   5.264   1.231   0.155 -0.1688  0.4066  0.0800
 7845SOL     OW24433   4.362   5.844   0.416 -0.3638  1.0377  0.3086
 7845SOL    HW124434   4.294   5.771   0.424  0.1572  0.6622  1.5659
 7845SOL    HW224435   4.347   5.912   0.488 -2.0342  3.2558 -1.9647
 7846SOL     OW24436   1.128   1.785   4.116  0.2708 -0.1584 -0.1318
 7846SOL    HW124437   1.073   1.814   4.194  2.1311  0.2405  1.1084
 7846SOL    HW224438   1.171   1.865   4.074  0.2970 -0.4998 -0.7574
 7847SOL     OW24439   3.094   3.130   4.938  0.6287  0.2644 -0.4015
 7847SOL    HW124440   3.075   3.116   4.841 -0.1604 -0.9742 -0.0924
 7847SOL    HW224441   3.128   3.223   4.952  1.3934  0.2557 -1.9410
 7848SOL     OW24442   0.965   6.978   6.249 -0.2008 -0.3928 -0.1218
 7848SOL    HW124443   1.037   7.032   6.293 -0.0564 -0.1665 -0.6323
 7848SOL    HW224444   0.939   6.903   6.309 -1.7006  1.2842  1.4761
 7849SOL     OW24445   1.575   6.673   3.473 -0.1059  0.4613  0.0402
 7849SOL    HW124446   1.548   6.578   3.460  0.5480  0.4869 -1.8008
 7849SOL    HW224447   1.655   6.678   3.532  0.0299 -0.1397 -0.0922
 7850SOL     OW24448   1.596   0.126   1.642  0.3786 -0.4592 -0.4255
 7850SOL    HW124449   1.522   0.070   1.680  0.5334 -0.7187 -0.5043
 7850SOL    HW224450   1.603   0.110   1.544  0.7642 -0.6971 -0.3606
 7851SOL     OW24451   2.418   5.275   1.088 -0.3530  0.3234 -0.0597
 7851SOL    HW124452   2.391   5.361   1.133  0.2054  0.3239  0.2842
 7851SOL    HW224453   2.360   5.201   1.122  0.7256  0.1352  1.4723
 7852SOL     OW24454   6.602   0.377   0.266 -0.7689  0.1055 -0.1033
 7852SOL    HW124455   6.623   0.289   0.309  0.6165  0.7035  0.5087
 7852SOL    HW224456   6.685   0.433   0.264 -1.7475  1.5948 -0.0428
 7853SOL     OW24457   4.519   0.783   0.949 -0.2723  0.1384  0.1860
 7853SOL    HW124458   4.563   0.733   0.874  0.9913  0.7403  0.4983
 7853SOL    HW224459   4.436   0.826   0.915 -0.2419 -0.4016 -0.6237
 7854SOL     OW24460   3.502   4.856   2.376 -0.2239 -0.0047  0.1048
 7854SOL    HW124461   3.402   4.862   2.381 -0.1542  0.4083  3.6845
 7854SOL    HW224462   3.528   4.767   2.338 -2.1146 -2.0183  3.1063
 7855SOL     OW24463   5.844   4.608   5.527 -0.5136  0.1915  0.4686
 7855SOL    HW124464   5.867   4.657   5.443  0.2205 -2.9644 -1.3420
 7855SOL    HW224465   5.929   4.583   5.575 -0.6468 -1.5082 -0.0944
 7856SOL     OW24466   4.144   3.980   5.571  0.6333 -0.1460 -0.1977
 7856SOL    HW124467   4.073   4.050   5.563  1.4280  0.7239  0.0848
 7856SOL    HW224468   4.217   3.999   5.505  1.4305  0.0034  0.6946
 7857SOL     OW24469   6.066   0.641   6.900 -0.1428 -0.3994  0.5529
 7857SOL    HW124470   6.129   0.565   6.913  1.0025  0.3105 -0.6470
 7857SOL    HW224471   5.983   0.624   6.954  0.1645 -2.3631  0.4972
 7858SOL     OW24472   3.038   3.911   5.966  0.3563  0.3932 -0.2055
 7858SOL    HW124473   2.996   3.821   5.977 -1.7213  1.3207 -0.0582
 7858SOL    HW224474   3.123   3.915   6.019  0.1099 -1.2256  0.3707
 7859SOL     OW24475   4.385   4.865   1.646 -0.2103  0.1278 -0.0389
 7859SOL    HW124476   4.302   4.834   1.600  0.2551  0.7194 -1.3452
 7859SOL    HW224477   4.421   4.792   1.704 -2.1129  0.1524  1.3033
 7860SOL     OW24478   4.100   3.187   1.420  0.2160 -0.1842 -0.1792
 7860SOL    HW124479   4.175   3.242   1.456 -0.3402  1.2381 -1.1083
 7860SOL    HW224480   4.115   3.170   1.323  0.5132 -1.9654  0.1321
 7861SOL     OW24481   0.302   1.719   2.784 -0.4086  0.4672  0.3692
 7861SOL    HW124482   0.203   1.703   2.787 -0.3718  0.2782  0.6617
 7861SOL    HW224483   0.336   1.701   2.692 -0.5893  0.1685  0.3589
 7862SOL     OW24484   4.940   5.938   1.217  0.5170  0.0703 -0.0477
 7862SOL    HW124485   4.986   5.943   1.305 -0.7084  0.1260  0.6161
 7862SOL    HW224486   4.852   5.891   1.228  0.3809 -0.0039 -1.2579
 7863SOL     OW24487   5.073   2.457   0.653  0.2113 -0.2230 -0.2289
 7863SOL    HW124488   5.144   2.467   0.584  1.6659 -0.4512  1.1730
 7863SOL    HW224489   5.028   2.368   0.642  2.0358 -1.2875  0.5010
 7864SOL     OW24490   2.860   6.370   6.050  0.1481  0.5300 -0.0890
 7864SOL    HW124491   2.904   6.351   5.962 -0.5712 -0.2848 -0.2887
 7864SOL    HW224492   2.887   6.300   6.116 -1.4397 -0.4740 -0.4394
 7865SOL     OW24493   1.066   4.423   1.759  0.3730  0.0707 -0.1115
 7865SOL    HW124494   0.975   4.414   1.798  0.1215  0.2243 -0.6585
 7865SOL    HW224495   1.092   4.519   1.754  1.1211 -0.0403  1.2959
 7866SOL     OW24496   1.855   1.678   0.104 -0.0649 -0.0627  0.4294
 7866SOL    HW124497   1.797   1.746   0.148 -0.4457  0.6295 -1.0693
 7866SOL    HW224498   1.947   1.682   0.142 -0.6613 -0.2902  1.9346
 7867SOL     OW24499   6.834   3.359   4.439 -0.2761 -0.3547 -0.7861
 7867SOL    HW124500   6.776   3.281   4.418 -0.7841 -0.1582 -0.1236
 7867SOL    HW224501   6.859   3.406   4.354 -1.0675 -0.4483 -1.0776
 7868SOL     OW24502   5.922   1.406   6.987 -0.0727 -0.1477 -0.4755
 7868SOL    HW124503   5.919   1.308   7.004 -2.5264 -0.0347  0.0813
 7868SOL    HW224504   5.967   1.452   7.064 -1.9490 -0.5836  0.9602
 7869SOL     OW24505   3.014   5.056   6.038 -0.0267  0.1296 -0.7825
 7869SOL    HW124506   3.083   5.036   6.107 -0.4954 -0.0239 -0.3521
 7869SOL    HW224507   3.020   4.989   5.964  1.2921  1.0158 -1.5220
 7870SOL     OW24508   3.056   1.083   5.597 -0.5815 -0.0392  0.0175
 7870SOL    HW124509   3.001   1.163   5.575 -1.3632 -0.2979  0.9743
 7870SOL    HW224510   3.148   1.093   5.558 -0.7841  1.1592 -0.1623
 7871SOL     OW24511   1.702   4.893   1.816  0.0963 -0.1159 -0.2337
 7871SOL    HW124512   1.714   4.992   1.816 -2.0199  0.1904  0.5228
 7871SOL    HW224513   1.694   4.860   1.910 -0.6705 -0.7728 -0.5157
 7872SOL     OW24514   6.045   3.333   2.392 -0.3298  0.3135  0.7842
 7872SOL    HW124515   6.033   3.432   2.389 -1.5037  0.2179 -3.4193
 7872SOL    HW224516   5.960   3.289   2.364  0.7451 -1.7973  0.6829
 7873SOL     OW24517   4.644   4.854   5.842 -0.2391 -0.4444 -0.4797
 7873SOL    HW124518   4.726   4.801   5.818 -1.2439 -1.8281 -0.9740
 7873SOL    HW224519   4.591   4.804   5.910 -0.7978  0.3506 -0.3176
 7874SOL     OW24520   5.564   3.889   6.180 -0.3441  0.0628  0.3861
 7874SOL    HW124521   5.596   3.814   6.123  1.7402 -0.0550  1.6172
 7874SOL    HW224522   5.509   3.952   6.125  1.0167 -0.3762 -1.5846
 7875SOL     OW24523   2.566   5.119   0.044  0.4909 -0.6911 -0.4500
 7875SOL    HW124524   2.518   5.137  -0.042 -1.4510  1.8964  1.0461
 7875SOL    HW224525   2.661   5.095   0.025  0.4327  0.9580 -3.2613
 7876SOL     OW24526   5.360   5.784   5.789 -0.5369  0.3047 -0.2678
 7876SOL    HW124527   5.405   5.774   5.701  0.3116  1.6679 -0.0339
 7876SOL    HW224528   5.427   5.768   5.862 -0.5949  1.5672  0.0908
 7877SOL     OW24529   0.670   4.323   2.390  0.0919  0.6889 -0.6961
 7877SOL    HW124530   0.720   4.405   2.416  0.4781  0.3067 -0.2181
 7877SOL    HW224531   0.703   4.245   2.443 -0.2117  0.2053 -1.2041
 7878SOL     OW24532   0.333   0.310   2.419 -0.0534 -0.3673 -0.3354
 7878SOL    HW124533   0.423   0.266   2.415  0.9324  1.5288 -0.4610
 7878SOL    HW224534   0.309   0.345   2.329 -1.5709 -1.9637 -0.6143
 7879SOL     OW24535   4.317   4.834   5.583  0.5810 -0.1278 -0.0909
 7879SOL    HW124536   4.343   4.902   5.652 -2.1331 -0.9970  1.9559
 7879SOL    HW224537   4.249   4.875   5.521  1.1248 -0.1247 -0.6929
 7880SOL     OW24538   0.015   0.318   3.731 -0.5461 -0.2592 -0.1742
 7880SOL    HW124539   0.065   0.331   3.646 -2.1297  2.0928 -0.8517
 7880SOL    HW224540  -0.079   0.288   3.711  0.1376 -3.6395  1.0197
 7881SOL     OW24541   4.774   2.724   4.014 -0.3739  0.2619  0.3446
 7881SOL    HW124542   4.778   2.791   4.088  0.6524  1.1719 -0.5187
 7881SOL    HW224543   4.749   2.769   3.929 -2.3497 -0.9041  0.2408
 7882SOL     OW24544   6.097   4.798   3.879  0.0311 -0.4041 -0.8787
 7882SOL    HW124545   6.049   4.774   3.964  0.1582  0.2292 -0.6273
 7882SOL    HW224546   6.146   4.717   3.846  0.8146 -0.3985  0.1994
 7883SOL     OW24547   5.576   3.413   2.972  0.0050  0.4548 -0.3307
 7883SOL    HW124548   5.615   3.477   2.905  1.6158  1.2275  1.2576
 7883SOL    HW224549   5.637   3.335   2.983 -0.9652 -0.3897 -0.7842
 7884SOL     OW24550   2.100   6.756   1.820  0.6390 -0.3501  0.4019
 7884SOL    HW124551   2.010   6.777   1.782  0.3242 -0.8213  0.8795
 7884SOL    HW224552   2.129   6.666   1.790  3.0434  1.4986 -3.6215
 7885SOL     OW24553   0.437   6.842   5.598 -0.2227  0.4345 -0.2732
 7885SOL    HW124554   0.499   6.910   5.560  0.5241  1.1113  2.0078
 7885SOL    HW224555   0.343   6.876   5.594  0.1247  1.5477  0.6794
 7886SOL     OW24556   0.033   4.631   0.376  0.3096  0.0110  0.0057
 7886SOL    HW124557   0.117   4.579   0.389  0.3923  0.3639  0.9788
 7886SOL    HW224558  -0.026   4.620   0.456 -0.6964 -0.4376 -0.7747
 7887SOL     OW24559   0.316   3.278   5.367  0.2455  0.1152  0.6481
 7887SOL    HW124560   0.323   3.181   5.389  1.1885  0.1577  0.5722
 7887SOL    HW224561   0.279   3.288   5.274  1.8692 -0.2431 -0.0714
 7888SOL     OW24562   6.107   3.103   5.895 -0.0935 -0.1658 -0.3860
 7888SOL    HW124563   6.082   3.126   5.801  1.0903  0.6722 -0.5194
 7888SOL    HW224564   6.204   3.122   5.909 -0.9279  3.1743  2.0114
 7889SOL     OW24565   4.936   0.960   0.704  0.1715  0.0990  0.5144
 7889SOL    HW124566   4.928   0.894   0.779 -1.2188  1.5587  1.7494
 7889SOL    HW224567   4.856   1.021   0.706  0.3281  0.4718 -1.9102
 7890SOL     OW24568   2.198   4.221   4.856  0.0140 -0.3211 -0.1938
 7890SOL    HW124569   2.218   4.136   4.905 -0.3579 -0.1755  0.2197
 7890SOL    HW224570   2.273   4.286   4.868  0.9392 -1.0642 -1.6328
 7891SOL     OW24571   6.848   5.043   3.267  0.4113 -0.0726 -0.3652
 7891SOL    HW124572   6.873   5.017   3.174 -1.1119 -0.7325 -0.6278
 7891SOL    HW224573   6.930   5.065   3.319  1.3086  0.0469 -1.7825
 7892SOL     OW24574   6.234   3.689   3.618 -0.9561  0.2029 -0.1225
 7892SOL    HW124575   6.271   3.741   3.696 -1.6876  0.4477  0.0728
 7892SOL    HW224576   6.139   3.718   3.601 -1.6399 -1.5661  0.4380
 7893SOL     OW24577   5.207   2.148   5.170  0.6574 -0.4266  0.0870
 7893SOL    HW124578   5.166   2.071   5.219 -0.6000 -0.3486 -0.7799
 7893SOL    HW224579   5.187   2.233   5.219  1.1921 -0.5399  0.5160
 7894SOL     OW24580   3.744   1.475   0.909  0.0952  0.3911  0.0366
 7894SOL    HW124581   3.713   1.560   0.953  0.9657  0.4894  0.4608
 7894SOL    HW224582   3.729   1.398   0.971 -3.0288 -0.1903 -1.2512
 7895SOL     OW24583   0.420   3.976   1.676 -0.9998  0.1249  0.1574
 7895SOL    HW124584   0.357   3.909   1.713 -0.7498  0.5736  1.4673
 7895SOL    HW224585   0.472   3.936   1.600 -0.8010 -1.1839  0.9542
 7896SOL     OW24586   0.872   5.539   6.845  0.1237  0.3644  0.0942
 7896SOL    HW124587   0.793   5.546   6.906 -0.2657 -1.4087 -0.1514
 7896SOL    HW224588   0.955   5.561   6.896  0.1849 -3.8474  2.2924
 7897SOL     OW24589   3.528   2.697   5.283  0.1528  0.3581 -0.0301
 7897SOL    HW124590   3.512   2.604   5.316 -0.3032  0.6292  0.5437
 7897SOL    HW224591   3.587   2.695   5.203 -0.2576 -0.4656 -0.3255
 7898SOL     OW24592   5.374   4.191   1.386 -0.1871 -0.0639 -0.0679
 7898SOL    HW124593   5.378   4.131   1.466  1.6140 -2.3909 -1.7456
 7898SOL    HW224594   5.280   4.200   1.355 -0.5169 -2.6022 -0.0431
 7899SOL     OW24595   2.752   0.286   1.968  0.1299 -0.0951 -0.2310
 7899SOL    HW124596   2.773   0.197   1.928 -0.5990  0.5031 -2.0423
 7899SOL    HW224597   2.683   0.275   2.040 -1.9020 -0.7815 -2.1634
 7900SOL     OW24598   0.691   0.044   1.523 -0.5653  0.4912  0.4047
 7900SOL    HW124599   0.619  -0.008   1.478  1.0682 -1.9371  0.3988
 7900SOL    HW224600   0.722  -0.005   1.604  1.4800  1.1046  0.0640
 7901SOL     OW24601   3.620   1.385   5.740 -0.0694 -0.5042 -0.0635
 7901SOL    HW124602   3.591   1.395   5.645  1.6140  0.8022 -0.4801
 7901SOL    HW224603   3.720   1.389   5.746 -0.1782  0.8578  1.8857
 7902SOL     OW24604   5.435   0.535   2.239 -0.2127 -0.3736  0.2524
 7902SOL    HW124605   5.388   0.542   2.151 -0.4517 -2.5858  0.1448
 7902SOL    HW224606   5.398   0.457   2.290  0.2571  0.5741  2.1246
 7903SOL     OW24607   2.242   5.938   2.298 -0.6285  0.4759  0.3051
 7903SOL    HW124608   2.326   5.948   2.352 -0.9390 -0.6456  1.0362
 7903SOL    HW224609   2.249   5.856   2.240 -0.9997  0.6849 -0.0411
 7904SOL     OW24610   5.735   5.303   5.194 -0.5895 -0.2743 -0.2545
 7904SOL    HW124611   5.685   5.369   5.138 -0.2985  1.1816  1.1469
 7904SOL    HW224612   5.812   5.347   5.238 -0.1198 -1.6632  0.3846
 7905SOL     OW24613   2.779   5.495   1.012  0.3500 -0.2282 -0.4865
 7905SOL    HW124614   2.727   5.474   0.930 -0.8690 -1.8332  0.6353
 7905SOL    HW224615   2.868   5.448   1.008  0.6711  0.4209 -1.2525
 7906SOL     OW24616   0.649   0.135   3.627 -0.1373 -0.5652 -0.0945
 7906SOL    HW124617   0.718   0.073   3.664 -1.0137 -0.6491  1.5051
 7906SOL    HW224618   0.560   0.090   3.628 -0.5621  0.2447 -0.2133
 7907SOL     OW24619   2.677   6.218   6.358 -0.5188 -0.3522 -0.2084
 7907SOL    HW124620   2.614   6.288   6.325 -0.1998 -0.4177 -0.9798
 7907SOL    HW224621   2.651   6.129   6.321 -0.6617 -0.5780  0.4149
 7908SOL     OW24622   3.795   2.959   0.913  0.1267 -0.1193  0.2165
 7908SOL    HW124623   3.792   2.958   1.013  3.4713 -0.4925  0.4205
 7908SOL    HW224624   3.858   3.030   0.882 -0.9118  0.0432 -1.6653
 7909SOL     OW24625   1.011   4.298   6.365 -0.1229  0.0683 -0.4986
 7909SOL    HW124626   0.922   4.294   6.320 -0.5516 -0.2669  0.3577
 7909SOL    HW224627   0.998   4.313   6.463  0.7155 -0.9349 -0.2117
 7910SOL     OW24628   4.667   4.099   0.713  0.5337  0.4581  0.1537
 7910SOL    HW124629   4.611   4.177   0.685 -1.2287 -0.2300  1.5588
 7910SOL    HW224630   4.681   4.101   0.811  1.6113 -0.2791  0.0351
 7911SOL     OW24631   1.112   3.044   6.561  0.3934 -0.0310  0.0012
 7911SOL    HW124632   1.059   3.028   6.478 -0.2024 -1.4048  0.6270
 7911SOL    HW224633   1.136   3.141   6.567  1.3683 -0.0597 -2.3100
 7912SOL     OW24634   0.378   2.742   1.928 -0.2021  0.1013 -0.3059
 7912SOL    HW124635   0.397   2.648   1.900 -1.2446  0.3368 -1.9036
 7912SOL    HW224636   0.460   2.782   1.969  1.2436 -0.4761 -2.4778
 7913SOL     OW24637   1.430   2.622   6.280 -0.1187 -0.5084  0.1810
 7913SOL    HW124638   1.520   2.629   6.235 -0.0950  1.4494  0.4216
 7913SOL    HW224639   1.435   2.665   6.370 -1.1684 -0.8803  0.4279
 7914SOL     OW24640   2.850   4.374   1.058 -0.4692  0.0707  0.5428
 7914SOL    HW124641   2.789   4.298   1.040  0.9584 -0.8947 -0.4574
 7914SOL    HW224642   2.940   4.354   1.020 -0.2149  2.5355 -0.3233
 7915SOL     OW24643   2.032   1.783   5.304 -0.0193 -0.0865 -0.5308
 7915SOL    HW124644   1.993   1.789   5.213 -1.8937 -0.0161  0.2431
 7915SOL    HW224645   2.070   1.872   5.331  0.5347 -0.1083 -1.2214
 7916SOL     OW24646   6.407   1.514   5.743 -0.3009  0.0087  0.0123
 7916SOL    HW124647   6.374   1.544   5.833  1.8196 -0.1026  0.8971
 7916SOL    HW224648   6.431   1.594   5.689  1.3658  0.0612  0.7717
 7917SOL     OW24649   4.105   3.237   4.258  0.5385  0.6034 -0.5121
 7917SOL    HW124650   4.093   3.155   4.314 -1.3971  1.3088  0.2064
 7917SOL    HW224651   4.039   3.235   4.182  0.7396  1.2959 -0.7128
 7918SOL     OW24652   3.613   6.507   4.291  0.0911  0.3842  0.7660
 7918SOL    HW124653   3.650   6.454   4.367  0.3392 -0.3278  0.1572
 7918SOL    HW224654   3.640   6.603   4.301 -1.3136  0.6492  2.4805
 7919SOL     OW24655   2.000   4.717   3.907  0.1112  0.0006 -0.2196
 7919SOL    HW124656   2.068   4.674   3.967  0.7500 -0.0337 -0.9504
 7919SOL    HW224657   2.045   4.789   3.853  0.0530 -1.4087 -2.2300
 7920SOL     OW24658   5.316   4.304   1.891 -0.1291  0.0164 -0.5021
 7920SOL    HW124659   5.268   4.217   1.889 -1.2518  0.5382  1.1450
 7920SOL    HW224660   5.317   4.340   1.984  1.3993  1.1893 -0.9150
 7921SOL     OW24661   6.385   5.024   4.298 -0.4830 -0.2123  0.0652
 7921SOL    HW124662   6.470   5.016   4.350 -1.4174 -0.8324  1.5725
 7921SOL    HW224663   6.402   5.002   4.202  0.7710 -1.8865  0.6288
 7922SOL     OW24664   0.535   1.596   0.547  0.4328  0.9502  0.3553
 7922SOL    HW124665   0.571   1.629   0.460 -0.8715 -0.9265 -0.9749
 7922SOL    HW224666   0.448   1.548   0.532  0.7187 -0.4101  2.5371
 7923SOL     OW24667   6.791   4.906   6.548  0.4920 -0.9740 -0.1253
 7923SOL    HW124668   6.782   4.811   6.517  0.6627 -0.6131 -1.3158
 7923SOL    HW224669   6.846   4.957   6.483  1.4914 -0.3529  1.1623
 7924SOL     OW24670   0.353   2.686   3.008 -0.2046  0.4692  0.3767
 7924SOL    HW124671   0.453   2.691   3.013 -0.0960 -0.5175 -0.5942
 7924SOL    HW224672   0.320   2.621   3.077  0.1267 -1.8038 -1.4916
 7925SOL     OW24673   5.697   5.958   0.257  0.0168  0.1850  0.4123
 7925SOL    HW124674   5.724   6.007   0.340 -0.9511 -0.7431  1.3057
 7925SOL    HW224675   5.631   6.013   0.206  0.9252  0.9421  0.0140
 7926SOL     OW24676   1.764   4.495   2.659 -0.1222 -0.1161 -0.4661
 7926SOL    HW124677   1.858   4.529   2.662  0.3070 -1.2980 -0.0012
 7926SOL    HW224678   1.701   4.572   2.662  0.8227  0.6605  0.0039
 7927SOL     OW24679   0.011   2.788   3.912  0.0101 -0.2689 -0.3573
 7927SOL    HW124680  -0.089   2.784   3.915 -0.0306  0.5732  3.0054
 7927SOL    HW224681   0.040   2.878   3.882 -0.2984  0.1655  0.6219
 7928SOL     OW24682   7.010   5.065   5.817  0.1605 -0.0525 -0.7971
 7928SOL    HW124683   6.943   5.064   5.742 -2.1322  1.0862  1.1005
 7928SOL    HW224684   7.008   4.978   5.865 -0.7908  0.3412 -0.0956
 7929SOL     OW24685   1.881   1.536   6.389  0.0962  0.2210 -0.0802
 7929SOL    HW124686   1.857   1.440   6.402 -1.4200  0.5505 -0.2186
 7929SOL    HW224687   1.840   1.570   6.305  0.0420  1.1627  0.3106
 7930SOL     OW24688   0.074   0.490   2.507 -0.5979 -0.1686  0.3784
 7930SOL    HW124689   0.093   0.586   2.488 -1.4254  0.0427  0.5604
 7930SOL    HW224690   0.154   0.435   2.486  0.6819  0.8080  2.4467
 7931SOL     OW24691   4.121   4.290   0.133  0.1914  0.2295  0.0105
 7931SOL    HW124692   4.141   4.247   0.045  2.2495  1.3230 -0.1364
 7931SOL    HW224693   4.107   4.388   0.120  1.2316  0.5299  0.9342
 7932SOL     OW24694   1.281   3.362   3.060 -0.5637 -0.0743  0.3467
 7932SOL    HW124695   1.351   3.431   3.075 -0.6699 -0.0848  0.9083
 7932SOL    HW224696   1.289   3.326   2.967 -0.7559  0.9746 -0.0899
 7933SOL     OW24697   5.244   0.811   2.700  0.4870 -0.4047 -0.0174
 7933SOL    HW124698   5.211   0.727   2.658 -0.4496  0.5030 -1.1661
 7933SOL    HW224699   5.168   0.860   2.743  0.8646  0.2807 -0.1100
 7934SOL     OW24700   1.209   3.750   0.170  0.0297 -0.3611 -1.0200
 7934SOL    HW124701   1.143   3.793   0.108  0.7920  0.9426 -0.9685
 7934SOL    HW224702   1.161   3.691   0.235 -1.1638  1.0319 -0.5858
 7935SOL     OW24703   0.913   0.031   3.013 -0.2920 -0.3969 -0.0527
 7935SOL    HW124704   0.887   0.099   2.944 -1.4212 -1.1834 -0.4251
 7935SOL    HW224705   0.832  -0.021   3.041  0.0083  0.2953  2.3400
 7936SOL     OW24706   3.073   6.382   5.537 -0.3974 -0.2425  0.5644
 7936SOL    HW124707   3.102   6.403   5.444  0.0407 -1.6074  0.3734
 7936SOL    HW224708   2.976   6.405   5.548 -0.4987 -0.2528 -0.2787
 7937SOL     OW24709   0.765   3.524   1.315 -0.1912  0.3130  0.4833
 7937SOL    HW124710   0.734   3.491   1.404 -0.8130 -0.1642  0.0924
 7937SOL    HW224711   0.859   3.493   1.299 -0.9816 -1.8742 -0.1624
 7938SOL     OW24712   6.324   4.445   6.668  0.1373 -0.3777  0.4086
 7938SOL    HW124713   6.247   4.422   6.728 -0.5559 -1.3932 -0.8019
 7938SOL    HW224714   6.383   4.365   6.657 -0.3001 -0.5370 -1.0134
 7939SOL     OW24715   2.834   1.803   6.256 -0.8003 -0.0013 -0.0707
 7939SOL    HW124716   2.913   1.798   6.194 -0.3994  2.1429  0.2009
 7939SOL    HW224717   2.847   1.737   6.331 -0.4458 -1.3641 -1.2808
 7940SOL     OW24718   2.331   1.114   5.621 -0.6436 -0.5504  0.2621
 7940SOL    HW124719   2.324   1.019   5.653  1.9727 -0.3632  1.6667
 7940SOL    HW224720   2.331   1.175   5.700  2.4081  0.2190 -0.2254
 7941SOL     OW24721   1.208   6.414   5.409  0.0356 -0.3137  0.3334
 7941SOL    HW124722   1.262   6.419   5.325  0.2123  1.0708  0.5186
 7941SOL    HW224723   1.242   6.339   5.466 -0.1441 -1.3314 -0.8469
 7942SOL     OW24724   2.376   1.432   6.898  0.1240  0.2238  0.2714
 7942SOL    HW124725   2.422   1.367   6.959 -0.7439 -0.4565  0.2242
 7942SOL    HW224726   2.411   1.422   6.805  0.1075 -0.0644  0.2969
 7943SOL     OW24727   6.657   0.604   1.384 -0.8248  0.3919 -0.0471
 7943SOL    HW124728   6.678   0.694   1.422 -1.3710  0.5537 -0.1183
 7943SOL    HW224729   6.565   0.605   1.344 -0.5780 -0.0058 -0.6427
 7944SOL     OW24730   0.013   2.487   0.875  0.0502  0.0884 -0.0472
 7944SOL    HW124731   0.038   2.402   0.828  1.3419  1.2552 -1.6042
 7944SOL    HW224732   0.076   2.560   0.847 -1.2709  1.6720  0.9254
 7945SOL     OW24733   5.494   5.668   2.001 -0.4360 -0.6090  0.3224
 7945SOL    HW124734   5.427   5.669   2.075 -0.7896  0.3801  0.0078
 7945SOL    HW224735   5.479   5.588   1.943 -1.3763 -0.3856  0.2387
 7946SOL     OW24736   4.177   3.298   0.463  0.0799 -0.7739  0.2259
 7946SOL    HW124737   4.100   3.330   0.517  1.9685  0.4828  2.3354
 7946SOL    HW224738   4.230   3.232   0.517  2.7197  1.4433  0.5290
 7947SOL     OW24739   2.489   0.241   3.181 -0.3969 -0.1692 -0.0218
 7947SOL    HW124740   2.514   0.186   3.101  0.4012  1.1060 -0.6883
 7947SOL    HW224741   2.392   0.227   3.202  0.2396 -3.5330  1.2550
 7948SOL     OW24742   5.772   3.016   6.802 -0.0710 -0.0593 -0.0970
 7948SOL    HW124743   5.681   3.055   6.790 -0.7051 -1.8124 -1.3729
 7948SOL    HW224744   5.834   3.086   6.839 -1.3460  1.8351 -1.3909
 7949SOL     OW24745   5.887   4.110   1.960  0.3113  0.5532  0.6767
 7949SOL    HW124746   5.801   4.137   1.918 -0.4224  0.6420  2.1800
 7949SOL    HW224747   5.958   4.104   1.890 -1.0316 -0.0754 -0.6745
 7950SOL     OW24748   3.150   0.160   0.092 -0.4807 -0.4433  0.8229
 7950SOL    HW124749   3.065   0.124   0.055 -0.4320  0.4843 -0.2004
 7950SOL    HW224750   3.200   0.085   0.137 -0.9129 -1.4230 -0.2662
 7951SOL     OW24751   0.401   2.949   1.696 -0.1623 -0.1573 -0.1415
 7951SOL    HW124752   0.395   2.895   1.612  0.0963 -0.8693  0.2861
 7951SOL    HW224753   0.391   2.888   1.775  2.2724  0.0802  0.4204
 7952SOL     OW24754   5.730   0.079   4.660  0.1512 -0.3743  0.2945
 7952SOL    HW124755   5.725  -0.021   4.654  1.5153 -0.4085 -0.7351
 7952SOL    HW224756   5.651   0.119   4.613 -0.5887 -0.9583  1.0210
 7953SOL     OW24757   0.301   5.216   3.729  0.4700  0.4007 -0.0972
 7953SOL    HW124758   0.310   5.129   3.681 -2.7698 -0.0596 -0.0717
 7953SOL    HW224759   0.345   5.208   3.819 -1.1426 -1.8563  0.5990
 7954SOL     OW24760   0.380   6.181   4.687 -0.5693  0.1754  0.0596
 7954SOL    HW124761   0.305   6.133   4.641  1.6551 -1.9526 -1.6050
 7954SOL    HW224762   0.404   6.132   4.771 -1.0301  0.8662  0.6021
 7955SOL     OW24763   3.381   5.518   0.135 -0.7682  0.6177 -0.7003
 7955SOL    HW124764   3.414   5.561   0.219  2.4421  0.7870 -1.9122
 7955SOL    HW224765   3.299   5.465   0.155 -0.0228  0.4649  2.5899
 7956SOL     OW24766   2.765   0.074   3.696 -0.0926  0.1546  0.0186
 7956SOL    HW124767   2.848   0.084   3.641  1.2576  1.1390  2.1324
 7956SOL    HW224768   2.767  -0.013   3.745  0.3342  0.7231  1.0420
 7957SOL     OW24769   3.887   3.127   2.570  0.1415 -0.1054 -0.2216
 7957SOL    HW124770   3.834   3.053   2.530 -0.9353  0.5158  0.0007
 7957SOL    HW224771   3.919   3.100   2.661 -0.3200 -0.2627 -0.1056
 7958SOL     OW24772   6.097   5.561   3.921  0.0343  0.3783  0.2713
 7958SOL    HW124773   6.011   5.581   3.876 -0.3742 -0.7554  0.5235
 7958SOL    HW224774   6.086   5.482   3.982  1.1620  0.4184  0.5558
 7959SOL     OW24775   1.213   0.906   3.085 -0.5733 -0.3977 -0.8611
 7959SOL    HW124776   1.208   0.824   3.029 -1.6155 -2.2436  1.7331
 7959SOL    HW224777   1.124   0.952   3.084 -1.7169 -2.3075  1.7276
 7960SOL     OW24778   0.400   3.292   6.236 -0.2400 -0.5932  0.1308
 7960SOL    HW124779   0.374   3.305   6.141 -0.6064 -0.8493  0.1977
 7960SOL    HW224780   0.492   3.253   6.240  0.1797  0.3275 -0.0993
 7961SOL     OW24781   2.816   5.220   6.339 -0.1696 -0.7182  0.4172
 7961SOL    HW124782   2.857   5.130   6.352  1.3558 -0.0438  0.5092
 7961SOL    HW224783   2.886   5.284   6.307 -0.4093  1.1891  3.3072
 7962SOL     OW24784   4.552   1.689   3.744  0.4672  0.0746  0.9751
 7962SOL    HW124785   4.533   1.785   3.766  1.9725  0.6199  0.0616
 7962SOL    HW224786   4.580   1.682   3.649  2.1452 -1.0005  1.5062
 7963SOL     OW24787   6.439   1.988   5.204  0.3720  0.5855 -0.2658
 7963SOL    HW124788   6.533   1.965   5.180  0.9854  0.1237  2.2987
 7963SOL    HW224789   6.383   1.905   5.204  0.6405  0.3916  0.9127
 7964SOL     OW24790   2.852   0.161   3.196  0.6072  0.0188 -0.7063
 7964SOL    HW124791   2.946   0.129   3.208  0.6820 -0.0505 -1.4329
 7964SOL    HW224792   2.846   0.217   3.113  0.1267  0.5168 -0.3487
 7965SOL     OW24793   4.341   5.871   6.783  0.2309 -0.0551  0.0674
 7965SOL    HW124794   4.267   5.926   6.822  0.9094  0.9797 -0.0651
 7965SOL    HW224795   4.410   5.931   6.743  0.8216 -1.0245 -0.4083
 7966SOL     OW24796   5.912   2.844   4.654  0.1273 -0.1799  0.3097
 7966SOL    HW124797   5.909   2.855   4.554  1.7157 -1.5592  0.0587
 7966SOL    HW224798   5.989   2.896   4.691  0.6626 -1.1203  0.5546
 7967SOL     OW24799   6.753   2.376   0.588 -0.8554 -0.1048  0.6417
 7967SOL    HW124800   6.727   2.281   0.574  0.4660 -0.5802  1.3079
 7967SOL    HW224801   6.680   2.436   0.552 -1.0154 -1.3219 -1.2205
 7968SOL     OW24802   1.226   2.535   4.337  0.4745  0.0881 -0.5075
 7968SOL    HW124803   1.282   2.473   4.392  1.9478  0.7266 -1.2368
 7968SOL    HW224804   1.184   2.604   4.397  1.0282  0.0215 -0.0389
 7969SOL     OW24805   0.195   1.502   6.269 -0.3283  0.5428 -0.4133
 7969SOL    HW124806   0.194   1.403   6.262 -0.9168  0.4383  0.9453
 7969SOL    HW224807   0.118   1.533   6.325  1.2004  1.5888  1.2127
 7970SOL     OW24808   2.645   6.617   2.798 -0.1409  0.7838  0.3191
 7970SOL    HW124809   2.679   6.568   2.719  0.1983  0.0664  0.9006
 7970SOL    HW224810   2.585   6.557   2.852 -1.1334  1.5507  0.1139
 7971SOL     OW24811   4.334   0.260   5.671 -0.2763  0.0830  0.2201
 7971SOL    HW124812   4.282   0.312   5.603  1.5624 -0.3046 -1.5863
 7971SOL    HW224813   4.420   0.307   5.690  0.0500 -0.7543  0.8823
 7972SOL     OW24814   0.322   2.325   1.728  0.1064 -0.3917  0.1483
 7972SOL    HW124815   0.378   2.379   1.791 -0.6807 -1.2182  1.6273
 7972SOL    HW224816   0.340   2.354   1.634  0.6305  1.5499  0.7885
 7973SOL     OW24817   0.897   6.270   6.765  0.4360 -0.0268 -0.2820
 7973SOL    HW124818   0.923   6.357   6.722  0.3793 -0.2590 -0.8022
 7973SOL    HW224819   0.943   6.260   6.853 -0.1890  0.9016  0.1649
 7974SOL     OW24820   5.029   6.062   0.995 -0.2783  0.2968  0.1694
 7974SOL    HW124821   4.965   6.030   1.065  0.7831  1.8502  1.9157
 7974SOL    HW224822   5.092   5.988   0.972 -1.5319 -0.6812 -0.2579
 7975SOL     OW24823   2.377   0.913   0.614 -0.1507  0.6640  0.3646
 7975SOL    HW124824   2.416   0.855   0.685 -0.0573 -0.4525 -0.5793
 7975SOL    HW224825   2.423   1.002   0.616  0.1823  0.4873  1.3817
 7976SOL     OW24826   6.756   4.621   2.753  0.3752  0.0959  0.2056
 7976SOL    HW124827   6.677   4.561   2.764 -0.1317  0.5951 -0.6143
 7976SOL    HW224828   6.788   4.619   2.658  1.2075  0.0758  0.4759
 7977SOL     OW24829   2.106   6.036   4.378  0.0187  0.5319  0.4133
 7977SOL    HW124830   2.154   6.101   4.437  0.0671  0.5054  0.4035
 7977SOL    HW224831   2.076   6.082   4.295 -0.2984  0.6346  0.5854
 7978SOL     OW24832   3.316   5.121   0.402 -0.1879  0.1179  0.3254
 7978SOL    HW124833   3.302   5.023   0.410 -0.5487  0.2882  2.4714
 7978SOL    HW224834   3.308   5.149   0.306 -1.3836 -1.7489 -0.1650
 7979SOL     OW24835   6.643   2.889   5.238 -0.0576 -0.4400 -0.0362
 7979SOL    HW124836   6.600   2.799   5.232 -0.0655 -0.4023 -0.5849
 7979SOL    HW224837   6.615   2.945   5.160  1.4840 -0.6253 -0.7603
 7980SOL     OW24838   5.582   6.382   2.137  0.0527 -0.0105 -0.6742
 7980SOL    HW124839   5.526   6.342   2.209 -0.8792  1.4283 -0.5791
 7980SOL    HW224840   5.675   6.396   2.172 -0.4937  1.0610  0.3997
 7981SOL     OW24841   4.425   1.331   4.628 -0.7139 -0.0457  0.5882
 7981SOL    HW124842   4.328   1.322   4.652 -0.9976  0.6291 -0.2852
 7981SOL    HW224843   4.436   1.328   4.529  0.3882 -2.1496  0.7254
 7982SOL     OW24844   3.640   1.420   4.471 -0.0749  0.6565  0.2536
 7982SOL    HW124845   3.680   1.433   4.561 -0.6328  0.7952  0.4838
 7982SOL    HW224846   3.593   1.332   4.468  1.2987 -0.0937 -0.4152
 7983SOL     OW24847   1.336   4.566   6.573 -0.5372  0.3438  0.3847
 7983SOL    HW124848   1.326   4.617   6.487 -1.6986 -0.4018  0.0619
 7983SOL    HW224849   1.351   4.470   6.553 -0.0721  0.2712  1.0276
 7984SOL     OW24850   4.142   3.241   1.807 -0.0081  0.2649  0.3955
 7984SOL    HW124851   4.212   3.192   1.754 -1.0999 -1.0808  0.1507
 7984SOL    HW224852   4.111   3.183   1.882  0.1246  1.4017  1.3535
 7985SOL     OW24853   2.808   0.846   2.537 -0.0025 -0.4095  0.7117
 7985SOL    HW124854   2.907   0.843   2.547  0.0896  1.3189  0.6478
 7985SOL    HW224855   2.767   0.881   2.622 -0.4933 -0.4105  0.4778
 7986SOL     OW24856   3.945   5.980   5.927  0.0496 -0.1470  0.2478
 7986SOL    HW124857   3.998   6.057   5.890  0.1638  0.5665  1.8294
 7986SOL    HW224858   3.986   5.949   6.012  0.0267 -2.0244 -0.3697
 7987SOL     OW24859   2.466   4.987   6.365  0.1473 -0.2308 -0.4008
 7987SOL    HW124860   2.432   5.038   6.287  0.4427  0.6661  0.0430
 7987SOL    HW224861   2.532   4.919   6.334  0.1165 -0.0151 -0.9502
 7988SOL     OW24862   2.194   3.803   2.251  0.4613 -0.5955  0.0211
 7988SOL    HW124863   2.144   3.717   2.242  0.1592 -0.2411 -2.4427
 7988SOL    HW224864   2.270   3.804   2.186  2.0620 -0.0011  1.7992
 7989SOL     OW24865   5.041   0.000   4.871 -0.1685 -0.1776  0.6621
 7989SOL    HW124866   5.014   0.065   4.943  0.5506  0.9312 -0.0259
 7989SOL    HW224867   5.104   0.046   4.808 -1.6895 -0.7260 -1.3646
 7990SOL     OW24868   0.455   3.221   2.997 -0.1072 -0.2213  0.6696
 7990SOL    HW124869   0.376   3.266   3.039 -0.9800 -1.9123  0.9004
 7990SOL    HW224870   0.428   3.132   2.961  0.8445  0.6368 -2.5274
 7991SOL     OW24871   0.895   4.476   4.505  0.1995  0.2228 -1.0826
 7991SOL    HW124872   0.840   4.533   4.567 -0.5432 -1.5050 -0.0643
 7991SOL    HW224873   0.967   4.430   4.557  0.8122  0.2658 -1.8793
 7992SOL     OW24874   5.251   0.099   4.692  0.4525  0.2401 -0.1683
 7992SOL    HW124875   5.236   0.042   4.611  0.9441  0.0264 -0.1105
 7992SOL    HW224876   5.205   0.187   4.678  0.4972  0.1926 -0.6622
 7993SOL     OW24877   0.050   6.195   0.603 -0.0141  0.6481  0.2459
 7993SOL    HW124878   0.119   6.173   0.673 -0.2611 -1.1141 -0.0186
 7993SOL    HW224879  -0.040   6.201   0.647 -0.1612 -0.4026  0.1000
 7994SOL     OW24880   0.068   2.613   6.709  0.5247 -0.5059  0.2330
 7994SOL    HW124881   0.139   2.597   6.641  1.5565 -0.7007  1.3274
 7994SOL    HW224882   0.105   2.666   6.785 -1.0723  1.2628 -0.1382
 7995SOL     OW24883   5.907   0.774   0.173  0.0066 -0.0390  0.3076
 7995SOL    HW124884   5.902   0.702   0.242 -0.4318 -0.8089 -0.5017
 7995SOL    HW224885   6.002   0.797   0.154  0.3155 -2.3138 -1.3156
 7996SOL     OW24886   6.525   5.369   5.440 -0.2049 -0.2158  0.1136
 7996SOL    HW124887   6.517   5.289   5.500  2.3362  0.0735  0.9366
 7996SOL    HW224888   6.504   5.451   5.493 -3.2894 -0.2485 -0.8473
 7997SOL     OW24889   1.203   5.335   6.200  0.1804 -0.3974  0.5492
 7997SOL    HW124890   1.121   5.339   6.255 -0.1493  0.2234  0.0282
 7997SOL    HW224891   1.282   5.314   6.258 -0.3319 -0.9294  1.0553
 7998SOL     OW24892   6.049   3.397   4.294 -0.0706  0.4468 -0.2702
 7998SOL    HW124893   6.129   3.337   4.290 -0.2539  0.2789 -2.4048
 7998SOL    HW224894   5.967   3.341   4.309  0.0680  0.5164  0.8553
 7999SOL     OW24895   6.837   0.172   5.843 -0.1994  0.2226  0.2635
 7999SOL    HW124896   6.790   0.135   5.762  0.8049 -4.2549  1.4317
 7999SOL    HW224897   6.935   0.177   5.825  0.0220 -0.7417  1.1069
 8000SOL     OW24898   2.575   1.770   4.543 -0.5276  0.1767 -0.1870
 8000SOL    HW124899   2.618   1.795   4.630 -0.3396 -0.4418 -0.0918
 8000SOL    HW224900   2.528   1.682   4.554  2.3705 -1.7015 -1.5543
 8001SOL     OW24901   5.023   2.451   6.723  0.6430  0.4596  0.2613
 8001SOL    HW124902   4.997   2.475   6.630  0.1585 -1.3788 -0.1271
 8001SOL    HW224903   5.106   2.500   6.749  1.2330  0.4084 -1.4391
 8002SOL     OW24904   1.380   5.947   0.481 -0.2689 -0.0713 -0.8039
 8002SOL    HW124905   1.303   6.008   0.463 -0.3338  0.3097  0.6445
 8002SOL    HW224906   1.438   5.987   0.552  0.0980 -1.3542 -0.3622
 8003SOL     OW24907   5.737   6.397   4.622  0.3579 -0.5200 -0.0605
 8003SOL    HW124908   5.732   6.374   4.525  0.4696  0.3655 -0.2889
 8003SOL    HW224909   5.830   6.429   4.643 -0.2946  1.7316 -0.2614
 8004SOL     OW24910   5.179   3.370   1.884  0.1534  0.3204 -0.2026
 8004SOL    HW124911   5.201   3.375   1.981  0.2981  1.3096 -0.2778
 8004SOL    HW224912   5.168   3.274   1.857 -1.7640  0.0846  1.2054
 8005SOL     OW24913   1.753   3.291   0.928  0.0063  0.0200 -0.3384
 8005SOL    HW124914   1.783   3.339   0.846  0.8471  0.5824  0.2882
 8005SOL    HW224915   1.782   3.341   1.010 -0.5275 -0.7013  0.3148
 8006SOL     OW24916   2.156   1.748   3.137 -0.2553 -0.1210 -0.1262
 8006SOL    HW124917   2.139   1.840   3.173 -0.3606  0.1665 -0.8834
 8006SOL    HW224918   2.222   1.754   3.062  0.1357 -0.7342  0.1658
 8007SOL     OW24919   4.071   3.858   1.791  0.0825  0.3090  0.2071
 8007SOL    HW124920   4.115   3.826   1.874  2.2164  0.8687 -0.6357
 8007SOL    HW224921   3.973   3.870   1.807  0.4424  0.4482  2.6240
 8008SOL     OW24922   0.037   0.843   3.533 -0.0345  0.1862  0.2218
 8008SOL    HW124923   0.078   0.771   3.477 -1.2292 -0.7733  0.5425
 8008SOL    HW224924   0.031   0.927   3.479  0.2458 -0.2932 -0.5835
 8009SOL     OW24925   3.248   4.961   0.756  0.4209 -0.0097  0.5397
 8009SOL    HW124926   3.340   4.989   0.784  0.2176 -1.3076  2.7864
 8009SOL    HW224927   3.253   4.874   0.708  0.4085  0.2914 -0.0189
 8010SOL     OW24928   0.049   1.445   6.637 -0.1018  0.4021  0.6763
 8010SOL    HW124929   0.136   1.482   6.606  0.4586 -1.0560  0.4273
 8010SOL    HW224930   0.037   1.352   6.601 -1.7488  0.5586  0.7228
 8011SOL     OW24931   6.977   6.108   6.112  0.2512 -0.4870  0.0609
 8011SOL    HW124932   6.965   6.176   6.040  0.4254 -0.5141  0.0063
 8011SOL    HW224933   6.914   6.127   6.187  0.1529 -0.3889 -0.0473
 8012SOL     OW24934   3.713   0.961   3.523  0.9610  0.0656  0.2057
 8012SOL    HW124935   3.732   1.024   3.599 -0.8502  0.7063  0.1898
 8012SOL    HW224936   3.703   1.013   3.439  0.1617 -0.3070  0.0575
 8013SOL     OW24937   0.390   5.472   4.222  0.4944  0.1353 -0.0658
 8013SOL    HW124938   0.291   5.472   4.231  0.4748 -1.0337 -0.0980
 8013SOL    HW224939   0.425   5.564   4.237 -0.5330  0.4268  0.6397
 8014SOL     OW24940   5.473   2.166   5.088  0.3405 -0.3789  0.0470
 8014SOL    HW124941   5.528   2.144   5.168  0.6021  0.4253  0.0978
 8014SOL    HW224942   5.376   2.170   5.113  0.2095 -1.9777 -0.0784
 8015SOL     OW24943   3.225   2.068   5.918  0.3333 -0.8598 -0.1159
 8015SOL    HW124944   3.309   2.075   5.971 -0.1748 -0.3859  0.6354
 8015SOL    HW224945   3.248   2.045   5.823  1.3098 -0.6907  0.0672
 8016SOL     OW24946   0.845   4.623   5.538 -0.3694 -0.6195 -0.1728
 8016SOL    HW124947   0.916   4.658   5.476 -0.0782 -0.6699  0.1308
 8016SOL    HW224948   0.777   4.572   5.485 -0.2467 -0.4636 -0.4829
 8017SOL     OW24949   1.222   2.980   4.100 -0.4183 -0.2989  0.1815
 8017SOL    HW124950   1.282   2.964   4.021 -1.1332 -0.5624 -0.3203
 8017SOL    HW224951   1.277   3.009   4.178  0.3164 -0.1256 -0.3856
 8018SOL     OW24952   2.866   5.405   1.644  0.5983  0.3939 -0.1018
 8018SOL    HW124953   2.965   5.414   1.631  0.6629  2.4951  1.2480
 8018SOL    HW224954   2.848   5.347   1.723  0.9009  1.9049  1.1268
 8019SOL     OW24955   6.607   2.770   4.606  0.5252  0.2180  0.3741
 8019SOL    HW124956   6.696   2.778   4.651  0.7529  1.1713 -0.1956
 8019SOL    HW224957   6.539   2.736   4.671  1.3120 -0.5850  0.7960
 8020SOL     OW24958   6.826   5.621   1.281  0.7082 -0.1256  0.1095
 8020SOL    HW124959   6.745   5.602   1.226  1.1641  1.9749 -1.4287
 8020SOL    HW224960   6.845   5.719   1.279  1.7886 -0.1949  2.6440
 8021SOL     OW24961   6.283   0.125   3.820  0.6286 -0.0499  0.4268
 8021SOL    HW124962   6.316   0.205   3.771  1.7895 -0.8465 -0.1515
 8021SOL    HW224963   6.192   0.143   3.857  1.2148  1.8304  1.0505
 8022SOL     OW24964   0.123   4.927   0.349  0.0559  0.7294  0.5580
 8022SOL    HW124965   0.064   4.846   0.353  0.3463  0.1674 -3.0418
 8022SOL    HW224966   0.143   4.958   0.442 -1.0750 -2.5578  2.0686
 8023SOL     OW24967   3.007   6.318   5.810  0.2301  0.4031  0.3045
 8023SOL    HW124968   3.031   6.339   5.716  0.0127  0.0265  0.1670
 8023SOL    HW224969   3.091   6.300   5.863  0.3003 -0.2335 -0.0150
 8024SOL     OW24970   6.175   4.650   5.861  0.0698  0.2792 -0.7291
 8024SOL    HW124971   6.120   4.732   5.843 -1.3866 -0.7223 -1.1083
 8024SOL    HW224972   6.149   4.578   5.796  2.5766  0.0502 -1.5694
 8025SOL     OW24973   5.729   4.436   6.723  0.3535  0.0666  0.4323
 8025SOL    HW124974   5.688   4.498   6.655 -0.0893  0.2335  0.8430
 8025SOL    HW224975   5.659   4.372   6.755  0.8013 -0.6206  0.0465
 8026SOL     OW24976   0.866   4.180   0.734 -0.5855  0.6289 -0.2844
 8026SOL    HW124977   0.925   4.224   0.666  0.1091 -0.2178 -0.2433
 8026SOL    HW224978   0.774   4.219   0.728 -0.9673 -0.4609 -2.7740
 8027SOL     OW24979   3.590   1.063   0.710 -0.0738  0.5579  0.2074
 8027SOL    HW124980   3.526   1.009   0.656  0.0864  0.4053  0.1672
 8027SOL    HW224981   3.584   1.159   0.683  0.2806  0.4271 -0.3555
 8028SOL     OW24982   6.578   1.769   0.582  0.2032  0.1986 -0.0520
 8028SOL    HW124983   6.641   1.758   0.505 -0.6985 -0.4705 -0.7276
 8028SOL    HW224984   6.485   1.780   0.547 -0.3564 -1.0919  0.9615
 8029SOL     OW24985   0.763   2.872   6.216  0.3015  0.9073  0.0374
 8029SOL    HW124986   0.703   2.951   6.229  0.3046  0.9053  0.0630
 8029SOL    HW224987   0.733   2.821   6.135 -0.0502  0.6142  0.3467
 8030SOL     OW24988   5.681   1.270   6.558  0.9816 -0.0390 -0.4867
 8030SOL    HW124989   5.584   1.272   6.583  0.7796 -1.0261 -1.1288
 8030SOL    HW224990   5.737   1.297   6.636  0.3833 -2.9414  1.0719
 8031SOL     OW24991   3.771   5.557   2.537 -0.0555  0.4628 -0.1680
 8031SOL    HW124992   3.776   5.556   2.437  1.6249  2.7703 -0.1869
 8031SOL    HW224993   3.794   5.648   2.571  1.2453 -0.7072  2.3909
 8032SOL     OW24994   2.442   0.661   2.920  0.0398 -0.5449  0.1488
 8032SOL    HW124995   2.409   0.567   2.915  0.5173 -0.8390  1.8216
 8032SOL    HW224996   2.466   0.683   3.015  1.4735  0.7319 -0.4607
 8033SOL     OW24997   5.166   5.822   5.973  0.2255  0.0411 -0.2498
 8033SOL    HW124998   5.146   5.919   5.985  1.0777  0.1533  0.3426
 8033SOL    HW224999   5.238   5.811   5.904  1.3371 -0.0426  0.8950
 8034SOL     OW25000   4.837   3.787   0.004 -0.5652  0.4354  0.2725
 8034SOL    HW125001   4.913   3.825   0.056 -0.5624  0.4393  0.2651
 8034SOL    HW225002   4.822   3.841  -0.079 -0.0395 -0.0692 -0.1546
 8035SOL     OW25003   4.769   6.628   4.202  0.0689  0.5022  0.4066
 8035SOL    HW125004   4.808   6.686   4.130  0.6074  0.1715  0.4255
 8035SOL    HW225005   4.671   6.615   4.185  0.3371 -0.2072 -0.7147
 8036SOL     OW25006   3.011   0.401   6.274 -0.0146  0.0334 -0.6097
 8036SOL    HW125007   3.100   0.446   6.266  0.4740 -0.3401  1.9198
 8036SOL    HW225008   3.022   0.302   6.267 -0.0833 -0.0666  0.5797
 8037SOL     OW25009   3.251   5.307   6.192 -0.3844 -0.4553  0.7133
 8037SOL    HW125010   3.297   5.230   6.237  0.1358 -0.2887  0.4724
 8037SOL    HW225011   3.272   5.392   6.242 -0.6704 -0.4150  0.7711
 8038SOL     OW25012   6.719   4.634   1.151  0.4154 -0.5792  0.4755
 8038SOL    HW125013   6.632   4.629   1.200  0.7452  0.7845  1.2435
 8038SOL    HW225014   6.709   4.691   1.070  0.6797 -0.1015  0.7747
 8039SOL     OW25015   4.712   4.476   6.821 -0.0610  0.1168  0.0221
 8039SOL    HW125016   4.669   4.446   6.736 -0.6943 -2.0666  1.0430
 8039SOL    HW225017   4.776   4.407   6.853 -0.1217  0.7201  1.5274
 8040SOL     OW25018   3.504   2.661   0.570 -0.5653  0.6791 -0.2221
 8040SOL    HW125019   3.510   2.758   0.545 -0.3485  0.7294  0.0221
 8040SOL    HW225020   3.531   2.649   0.666 -0.8043  0.4062 -0.1882
 8041SOL     OW25021   3.819   4.865   2.791 -0.4005 -0.3587 -0.5515
 8041SOL    HW125022   3.723   4.857   2.767 -0.2248 -0.0567 -1.3794
 8041SOL    HW225023   3.830   4.934   2.863 -0.6718  0.5525 -1.3592
 8042SOL     OW25024   6.084   2.160   2.522  0.2608  0.0899 -0.2555
 8042SOL    HW125025   6.049   2.066   2.521  1.2637 -0.2996 -1.5351
 8042SOL    HW225026   6.059   2.206   2.437  0.4435  0.7263  0.0285
 8043SOL     OW25027   2.641   2.469   6.429  0.5822 -0.8349 -0.1963
 8043SOL    HW125028   2.613   2.565   6.421 -2.5536 -1.6300  0.0077
 8043SOL    HW225029   2.684   2.440   6.344 -0.6216  0.1453 -1.1893
 8044SOL     OW25030   3.986   1.198   5.956 -0.2360 -0.6713 -0.6883
 8044SOL    HW125031   4.050   1.234   5.887  0.5720 -0.7323  0.0131
 8044SOL    HW225032   3.946   1.275   6.007  0.3281 -0.6878 -0.2123
 8045SOL     OW25033   6.541   3.445   6.928  0.1958 -0.1221 -0.0546
 8045SOL    HW125034   6.546   3.360   6.876  1.2346 -1.4609  2.0863
 8045SOL    HW225035   6.601   3.440   7.008  0.7435  2.8757 -0.1386
 8046SOL     OW25036   5.189   2.615   0.136  0.1702 -0.3511 -0.0457
 8046SOL    HW125037   5.214   2.540   0.075 -1.5613 -1.1305  0.1212
 8046SOL    HW225038   5.195   2.702   0.088  0.9629 -0.7208 -0.6349
 8047SOL     OW25039   4.652   6.015   2.625 -0.8235 -0.1419  0.1693
 8047SOL    HW125040   4.677   6.089   2.688 -0.9550 -0.3974  0.5247
 8047SOL    HW225041   4.589   5.952   2.670 -0.9616 -0.2999 -0.2378
 8048SOL     OW25042   0.274   6.411   0.616 -0.1328 -0.4508  0.1158
 8048SOL    HW125043   0.209   6.443   0.547 -0.3011  1.2373  0.9948
 8048SOL    HW225044   0.355   6.374   0.571 -0.6200 -0.2237 -0.9768
 8049SOL     OW25045   6.146   1.399   5.628 -0.5654  0.0462  0.3983
 8049SOL    HW125046   6.148   1.432   5.533  0.6728  0.9985  0.7225
 8049SOL    HW225047   6.224   1.438   5.678 -1.3691 -0.2011  1.8964
 8050SOL     OW25048   1.129   5.181   1.614  0.3940 -0.2085 -0.4967
 8050SOL    HW125049   1.066   5.123   1.563 -1.0111 -0.4131  1.3837
 8050SOL    HW225050   1.223   5.154   1.593 -0.1213 -0.5690 -2.5739
 8051SOL     OW25051   5.209   6.257   0.446  0.8099  0.0429 -0.2977
 8051SOL    HW125052   5.306   6.282   0.452  0.8937 -0.3345 -0.0345
 8051SOL    HW225053   5.177   6.225   0.535 -0.0443  1.8372  0.0695
 8052SOL     OW25054   7.017   5.402   6.014 -0.3149 -0.2064 -0.1335
 8052SOL    HW125055   7.108   5.443   6.023  0.9648 -2.2820 -2.4157
 8052SOL    HW225056   7.022   5.306   6.042 -1.3409 -0.8319 -2.0047
 8053SOL     OW25057   2.191   0.215   4.849  0.3551 -0.0180 -0.5933
 8053SOL    HW125058   2.289   0.195   4.841  0.6327  1.2024 -0.3855
 8053SOL    HW225059   2.177   0.314   4.855 -0.9052 -0.1693 -0.7285
 8054SOL     OW25060   6.065   6.371   0.335  0.6905 -0.2566  0.0120
 8054SOL    HW125061   6.028   6.290   0.381 -1.3004  0.9598  0.6286
 8054SOL    HW225062   6.026   6.454   0.375  0.9129  0.9454 -2.1161
 8055SOL     OW25063   6.278   6.478   2.150 -0.5846 -0.2393 -0.0731
 8055SOL    HW125064   6.267   6.426   2.235  1.6684 -0.8826 -0.1107
 8055SOL    HW225065   6.325   6.564   2.170  1.5998 -1.1984 -0.8472
 8056SOL     OW25066   4.843   2.789   6.027 -0.5491  0.6057  0.3568
 8056SOL    HW125067   4.757   2.824   6.064 -0.0780  1.5141  0.6433
 8056SOL    HW225068   4.912   2.790   6.099 -0.1472  0.4433 -0.0221
 8057SOL     OW25069   6.561   5.001   2.235  0.2886 -0.2065  0.1001
 8057SOL    HW125070   6.563   4.922   2.174  0.2035  0.0009 -0.1737
 8057SOL    HW225071   6.595   4.974   2.326 -0.3644 -0.7109  0.2013
 8058SOL     OW25072   4.819   5.136   3.053 -0.1353 -0.4432  0.3199
 8058SOL    HW125073   4.913   5.121   3.019  0.0529 -0.5266  0.8746
 8058SOL    HW225074   4.781   5.217   3.008  0.5866  0.2113  0.8612
 8059SOL     OW25075   5.580   0.033   4.434 -0.1786  0.3733  0.7493
 8059SOL    HW125076   5.679   0.043   4.430  0.0789 -0.5365  3.1292
 8059SOL    HW225077   5.546   0.002   4.345  1.8147 -0.4677  0.2281
 8060SOL     OW25078   1.609   4.237   3.174  0.4488 -0.3320  0.2817
 8060SOL    HW125079   1.591   4.284   3.260  0.3845 -0.3900  0.2999
 8060SOL    HW225080   1.615   4.304   3.100  1.0633 -0.2291  0.4177
 8061SOL     OW25081   3.823   3.445   3.601 -0.4602 -0.1234 -0.1613
 8061SOL    HW125082   3.868   3.420   3.687 -2.4861 -2.6184  0.3085
 8061SOL    HW225083   3.859   3.532   3.569  1.0736  0.4297  2.6856
 8062SOL     OW25084   2.296   0.083   1.041  0.0942  0.0216  0.1086
 8062SOL    HW125085   2.310   0.181   1.055  0.5822  0.0137 -0.3375
 8062SOL    HW225086   2.327   0.033   1.122 -1.8805  0.3565  1.1455
 8063SOL     OW25087   3.819   0.563   5.923 -0.1853  0.0998 -0.0747
 8063SOL    HW125088   3.864   0.642   5.966 -1.2256  1.3290 -1.1683
 8063SOL    HW225089   3.721   0.566   5.944 -0.0897 -1.4860  0.6998
 8064SOL     OW25090   1.611   6.655   2.477  0.0774  0.0449  0.5767
 8064SOL    HW125091   1.578   6.747   2.496 -0.6387 -0.1435  0.2733
 8064SOL    HW225092   1.710   6.653   2.487  0.0033  0.6032  1.5676
 8065SOL     OW25093   1.650   5.798   0.020 -0.0536 -0.4021 -0.0623
 8065SOL    HW125094   1.742   5.766  -0.005 -0.0476 -1.8526  1.6447
 8065SOL    HW225095   1.617   5.746   0.098 -1.5445  1.4612  0.6152
 8066SOL     OW25096   5.134   1.249   5.408  0.4584 -0.8498 -0.0786
 8066SOL    HW125097   5.142   1.348   5.396 -0.9828 -0.6444  0.5805
 8066SOL    HW225098   5.151   1.225   5.503 -0.7455 -1.0429  0.1028
 8067SOL     OW25099   4.481   5.841   2.767 -0.3948 -0.8535 -0.3264
 8067SOL    HW125100   4.440   5.881   2.685 -0.3692 -0.2454 -0.0436
 8067SOL    HW225101   4.420   5.771   2.804 -0.2396 -1.3992 -1.0749
 8068SOL     OW25102   5.585   2.501   4.703 -0.6287 -0.4870 -0.2373
 8068SOL    HW125103   5.635   2.581   4.737 -1.2553 -0.7294  1.3428
 8068SOL    HW225104   5.627   2.468   4.618  1.0295  0.1314  0.3148
 8069SOL     OW25105   6.565   2.615   0.913  0.1085 -0.4085 -0.2735
 8069SOL    HW125106   6.663   2.597   0.927 -0.6819 -4.3416  1.6748
 8069SOL    HW225107   6.540   2.701   0.956  2.0755 -1.2278  2.8223
 8070SOL     OW25108   6.398   5.684   4.690 -0.3652  0.3141  0.4426
 8070SOL    HW125109   6.346   5.638   4.762  1.0132 -0.4982  0.9449
 8070SOL    HW225110   6.494   5.657   4.695  0.3603  2.5841  0.2250
 8071SOL     OW25111   2.201   0.102   5.105 -0.8253 -0.3628  1.0651
 8071SOL    HW125112   2.199   0.121   5.007 -0.3148 -1.5063  0.8216
 8071SOL    HW225113   2.149   0.019   5.124  0.5567 -1.1678  1.5030
 8072SOL     OW25114   4.536   5.999   2.313 -0.6605  0.0858  0.0808
 8072SOL    HW125115   4.620   6.044   2.343 -0.9850 -0.8097  2.5276
 8072SOL    HW225116   4.550   5.900   2.313 -2.4470 -0.2759  3.2883
 8073SOL     OW25117   2.605   5.931   6.406 -0.1086 -0.4609  0.6504
 8073SOL    HW125118   2.638   5.851   6.456  1.5023 -0.8590 -0.9717
 8073SOL    HW225119   2.640   5.930   6.313  0.0325  2.1786  0.5874
 8074SOL     OW25120   5.333   1.031   0.395  0.4706  0.3457 -0.1234
 8074SOL    HW125121   5.356   1.059   0.302  1.3490  1.0088  0.2809
 8074SOL    HW225122   5.325   1.112   0.453  0.0401 -0.0703  0.4096
 8075SOL     OW25123   1.408   1.595   4.881  0.2350  0.6334  0.4955
 8075SOL    HW125124   1.486   1.534   4.894 -1.2286 -0.7688  3.8330
 8075SOL    HW225125   1.323   1.543   4.889 -1.1064  2.5018 -0.7584
 8076SOL     OW25126   5.641   0.299   5.171 -0.3080  0.2109  0.3161
 8076SOL    HW125127   5.614   0.391   5.202 -3.7042  0.1393 -1.8588
 8076SOL    HW225128   5.679   0.306   5.079 -0.5775 -0.5282  0.1462
 8077SOL     OW25129   6.886   3.501   4.235 -0.2021  0.2600 -0.5376
 8077SOL    HW125130   6.938   3.581   4.267 -0.6878  0.5156 -0.3787
 8077SOL    HW225131   6.917   3.476   4.144 -0.7331  1.2496 -1.0030
 8078SOL     OW25132   3.549   5.207   1.336  0.1189  0.0182 -0.4467
 8078SOL    HW125133   3.532   5.295   1.380  2.5673  0.2795  0.0880
 8078SOL    HW225134   3.635   5.211   1.285  1.3954 -2.6241  1.2967
 8079SOL     OW25135   3.443   0.073   3.922  0.3349 -0.2388  0.2696
 8079SOL    HW125136   3.481  -0.012   3.959  0.3549 -0.5522 -0.4562
 8079SOL    HW225137   3.437   0.141   3.995  0.3650 -0.8462  0.8503
 8080SOL     OW25138   6.514   1.152   1.253 -0.7414  0.5720 -0.3802
 8080SOL    HW125139   6.608   1.117   1.253 -0.3046  1.6364 -2.2081
 8080SOL    HW225140   6.450   1.075   1.251  0.0577 -0.1610  0.7517
 8081SOL     OW25141   3.467   1.179   1.554 -0.3053  0.0372 -0.0561
 8081SOL    HW125142   3.552   1.231   1.547 -0.5049  0.4158  0.3586
 8081SOL    HW225143   3.389   1.241   1.550 -0.5253 -0.0739  1.7164
 8082SOL     OW25144   4.829   1.507   6.667  0.6387 -0.4291 -0.5780
 8082SOL    HW125145   4.801   1.572   6.737  0.0972 -1.8910  0.6263
 8082SOL    HW225146   4.794   1.416   6.690  0.5238 -0.9815 -2.7201
 8083SOL     OW25147   6.122   4.170   6.738 -0.5868 -0.0395 -0.0833
 8083SOL    HW125148   6.217   4.148   6.717 -0.5419  0.4231 -0.3947
 8083SOL    HW225149   6.061   4.119   6.677 -0.6068 -1.4234  1.0517
 8084SOL     OW25150   6.322   4.652   0.969 -0.2642 -0.5238  0.5176
 8084SOL    HW125151   6.286   4.560   0.954 -2.7302  0.4942 -0.3931
 8084SOL    HW225152   6.328   4.701   0.882  0.5875  0.3348  1.0338
 8085SOL     OW25153   4.910   1.214   0.196  0.5838  0.1216 -0.4073
 8085SOL    HW125154   4.832   1.255   0.148  0.5024 -1.0203 -1.2860
 8085SOL    HW225155   4.899   1.227   0.294 -0.6186  0.1606 -0.5344
 8086SOL     OW25156   4.739   0.555   1.503 -0.2478 -0.0884  0.3563
 8086SOL    HW125157   4.812   0.528   1.566  0.3046  0.6744  0.0673
 8086SOL    HW225158   4.748   0.503   1.418 -1.9943 -2.3430  1.4571
 8087SOL     OW25159   5.899   1.876   5.059  0.2747 -0.1555 -0.7036
 8087SOL    HW125160   5.992   1.856   5.028 -0.1057  0.9904 -2.7582
 8087SOL    HW225161   5.902   1.942   5.134  1.0977  0.5298 -1.3229
 8088SOL     OW25162   0.315   5.594   5.554  0.5524 -0.1453 -0.6382
 8088SOL    HW125163   0.263   5.559   5.632 -0.2510 -0.1200 -1.1477
 8088SOL    HW225164   0.290   5.690   5.538 -1.9127 -1.0482 -2.9878
 8089SOL     OW25165   1.893   5.490   0.594  0.2147  0.3390 -0.1884
 8089SOL    HW125166   1.904   5.509   0.691 -0.4939  0.1790 -0.0683
 8089SOL    HW225167   1.893   5.575   0.543 -0.9625  0.5407  0.1267
 8090SOL     OW25168   4.312   2.851   6.360  0.7216 -0.3010 -0.6092
 8090SOL    HW125169   4.339   2.927   6.301  2.0579 -1.3829 -1.4373
 8090SOL    HW225170   4.219   2.867   6.395  0.4891  1.0837 -1.7885
 8091SOL     OW25171   1.474   0.403   4.369 -0.4531 -0.0244 -0.0750
 8091SOL    HW125172   1.424   0.418   4.284 -0.4409 -2.6260 -0.6447
 8091SOL    HW225173   1.572   0.398   4.349 -0.4284 -0.3541  0.1200
 8092SOL     OW25174   3.690   1.081   3.245 -0.2315  0.0323  0.1441
 8092SOL    HW125175   3.612   1.068   3.184 -1.1673 -1.2152  1.5411
 8092SOL    HW225176   3.689   1.175   3.280 -1.3785 -0.0968  0.4981
 8093SOL     OW25177   0.627   2.744   6.004  0.4566  0.5010 -0.1494
 8093SOL    HW125178   0.663   2.723   5.914 -0.0400  1.9064 -0.6947
 8093SOL    HW225179   0.529   2.764   5.997  0.4397  0.7492  0.6750
 8094SOL     OW25180   1.447   4.891   2.248  0.7346  0.3387 -0.5270
 8094SOL    HW125181   1.360   4.898   2.298  0.8136 -0.2770 -0.2995
 8094SOL    HW225182   1.428   4.883   2.150  0.5739  1.3857 -0.5916
 8095SOL     OW25183   0.564   4.076   4.229  0.6379 -0.3834  0.2076
 8095SOL    HW125184   0.620   4.142   4.279  0.2327  0.4873 -0.4660
 8095SOL    HW225185   0.475   4.117   4.209  0.3027 -1.2140 -0.0389
 8096SOL     OW25186   5.980   6.332   5.807  0.2660  0.4342  0.4224
 8096SOL    HW125187   6.046   6.288   5.747 -1.4919  0.2619 -1.5039
 8096SOL    HW225188   5.894   6.281   5.803 -1.3631  3.0864 -0.6823
 8097SOL     OW25189   6.537   1.599   4.583 -0.2838 -0.2643  0.3216
 8097SOL    HW125190   6.561   1.696   4.585 -1.7418  0.1169  0.3137
 8097SOL    HW225191   6.584   1.555   4.506 -0.8642  0.7970 -0.6698
 8098SOL     OW25192   5.874   6.260   1.833 -0.3195  0.3466  0.5430
 8098SOL    HW125193   5.827   6.348   1.846  0.2086  0.7165 -0.0269
 8098SOL    HW225194   5.947   6.270   1.766  0.6323 -0.2081  1.4610
 8099SOL     OW25195   4.407   5.823   1.777  0.6041 -0.4224  0.4603
 8099SOL    HW125196   4.424   5.868   1.864 -0.7636  0.0799  0.4925
 8099SOL    HW225197   4.322   5.858   1.737  0.1282 -2.1102 -0.0996
 8100SOL     OW25198   3.262   0.982   6.881  0.6892 -0.0697 -0.3448
 8100SOL    HW125199   3.240   1.066   6.930  1.3552  0.6554 -1.2565
 8100SOL    HW225200   3.270   0.907   6.947 -1.9469  0.0979  0.2904
 8101SOL     OW25201   1.456   2.727   1.775  0.3154 -0.4333  0.1174
 8101SOL    HW125202   1.549   2.694   1.763  0.4526  0.3519 -1.1648
 8101SOL    HW225203   1.417   2.751   1.686 -1.3181 -1.2790  0.5712
 8102SOL     OW25204   3.519   1.229   0.288 -0.1467 -0.1470 -0.0224
 8102SOL    HW125205   3.424   1.205   0.269 -0.7701  2.5224 -0.6136
 8102SOL    HW225206   3.544   1.312   0.238  1.8338  0.4555  1.7997
 8103SOL     OW25207   3.222   1.183   2.138  0.6041  0.1548 -0.7851
 8103SOL    HW125208   3.293   1.127   2.180  1.4340  0.9872 -1.0533
 8103SOL    HW225209   3.252   1.278   2.135 -1.9725  1.3018  2.5924
 8104SOL     OW25210   3.616   3.172   4.241  0.3520  0.0489 -0.0200
 8104SOL    HW125211   3.624   3.188   4.340 -1.3838  1.2534 -0.0251
 8104SOL    HW225212   3.582   3.080   4.225 -0.2233  0.1510  0.5598
 8105SOL     OW25213   2.112   3.693   4.600  0.0907  0.0405 -0.4474
 8105SOL    HW125214   2.133   3.734   4.512 -0.6710 -0.2133 -0.7526
 8105SOL    HW225215   2.147   3.752   4.674  1.6767 -0.2676 -0.9144
 8106SOL     OW25216   6.901   3.672   5.909  0.4065 -0.5586 -0.1100
 8106SOL    HW125217   6.852   3.645   5.826  0.0287  0.8185 -0.3673
 8106SOL    HW225218   6.981   3.727   5.884 -1.4670  2.6925  0.4247
 8107SOL     OW25219   1.387   1.645   0.221  0.3972 -0.1441 -0.1661
 8107SOL    HW125220   1.470   1.650   0.165  0.1066 -1.7018 -0.7972
 8107SOL    HW225221   1.407   1.678   0.313  1.1533  1.5038 -0.8680
 8108SOL     OW25222   1.142   1.168   4.302  0.7445  0.0743 -0.2138
 8108SOL    HW125223   1.188   1.237   4.247  0.4475 -1.2644 -2.2687
 8108SOL    HW225224   1.129   1.085   4.248 -0.9234 -0.8269  1.4261
 8109SOL     OW25225   0.828   3.818   2.620  0.1754  0.3063 -0.3483
 8109SOL    HW125226   0.830   3.899   2.679 -0.7970  0.9372 -1.1569
 8109SOL    HW225227   0.746   3.765   2.640 -0.8181  1.1680 -1.9285
 8110SOL     OW25228   1.123   5.149   3.653  0.0302 -0.2484 -0.0047
 8110SOL    HW125229   1.204   5.177   3.603  1.8515  0.1033  2.9428
 8110SOL    HW225230   1.110   5.050   3.642  1.2897 -0.4332  0.0660
 8111SOL     OW25231   1.804   2.579   1.331  0.0135  0.2976 -0.1989
 8111SOL    HW125232   1.826   2.666   1.286  1.0948  0.2372  0.1767
 8111SOL    HW225233   1.705   2.571   1.342 -0.1120  1.4051 -0.3874
 8112SOL     OW25234   4.093   6.547   6.103  0.1508  0.0452 -0.2040
 8112SOL    HW125235   4.037   6.551   6.020 -1.0332  1.0202  0.6085
 8112SOL    HW225236   4.134   6.456   6.111 -0.6176 -0.4179 -1.2755
 8113SOL     OW25237   4.772   5.366   5.546 -0.2692 -0.0783  0.2538
 8113SOL    HW125238   4.680   5.330   5.529  0.0782 -0.4941 -0.7978
 8113SOL    HW225239   4.826   5.361   5.462  1.1717 -1.1402  1.1944
 8114SOL     OW25240   2.642   0.305   4.207 -0.6642  0.4063  0.0037
 8114SOL    HW125241   2.570   0.248   4.246 -1.1692  0.9211 -0.1762
 8114SOL    HW225242   2.724   0.248   4.191 -0.6425  0.0627  1.2427
 8115SOL     OW25243   0.582   3.718   3.616 -0.1744  0.1437  0.5081
 8115SOL    HW125244   0.659   3.782   3.619  0.3370 -0.4986  1.3802
 8115SOL    HW225245   0.562   3.695   3.521 -0.3402  1.5518  0.1761
 8116SOL     OW25246   0.225   6.477   0.099 -0.1702  0.7383 -0.2624
 8116SOL    HW125247   0.240   6.382   0.126 -0.8353  1.0607  1.3605
 8116SOL    HW225248   0.311   6.515   0.064  0.5568  0.0477  0.6977
 8117SOL     OW25249   5.802   0.013   1.240  0.5023  0.1190 -0.0352
 8117SOL    HW125250   5.758   0.087   1.291  1.2290  0.4513  0.1077
 8117SOL    HW225251   5.733  -0.056   1.217  0.2394 -0.2955  1.8458
 8118SOL     OW25252   0.175   5.704   2.356 -0.3733  0.4752  0.2189
 8118SOL    HW125253   0.230   5.622   2.344 -1.4503 -0.0405 -1.7664
 8118SOL    HW225254   0.225   5.771   2.410  1.5078 -0.5763 -0.1548
 8119SOL     OW25255   0.858   3.643   6.983 -0.4563  0.2007 -0.6000
 8119SOL    HW125256   0.782   3.694   6.942 -0.3794  0.6463 -0.1941
 8119SOL    HW225257   0.824   3.588   7.059 -0.5669 -0.4836 -1.1374
 8120SOL     OW25258   2.071   3.211   5.067  0.1968  0.5314 -0.4843
 8120SOL    HW125259   1.984   3.260   5.078 -1.4689 -1.2392 -4.0409
 8120SOL    HW225260   2.055   3.113   5.076  1.9450  0.1942 -0.7670
 8121SOL     OW25261   5.028   1.472   5.663 -0.5485 -0.0432 -0.0853
 8121SOL    HW125262   5.015   1.403   5.734  2.3494  0.0944  0.6825
 8121SOL    HW225263   5.061   1.556   5.704  2.8450 -0.4628 -1.6433
 8122SOL     OW25264   2.014   3.947   0.557  0.7261 -0.1448 -0.0345
 8122SOL    HW125265   2.022   3.950   0.457  0.8337  1.8652  0.0007
 8122SOL    HW225266   1.933   3.999   0.586  1.0503 -0.1710  0.9547
 8123SOL     OW25267   4.170   6.563   3.098  0.1738  0.4649  0.2795
 8123SOL    HW125268   4.109   6.601   3.168  0.5590  0.6661  0.5116
 8123SOL    HW225269   4.177   6.627   3.022 -1.4303 -0.4103 -0.6496
 8124SOL     OW25270   4.069   6.684   6.954 -0.6089 -0.0356  0.1191
 8124SOL    HW125271   3.972   6.692   6.978 -0.3349  0.9538  0.9732
 8124SOL    HW225272   4.109   6.775   6.945  0.3794 -0.4315  0.3786
 8125SOL     OW25273   0.612   2.667   3.084 -0.0854  0.5665  0.2125
 8125SOL    HW125274   0.614   2.631   3.177  1.2878 -0.6207 -0.2285
 8125SOL    HW225275   0.679   2.740   3.075 -1.4634  1.9282  0.5796
 8126SOL     OW25276   2.556   5.247   0.860  0.1570  0.4366  0.4306
 8126SOL    HW125277   2.477   5.259   0.800  0.2924 -2.4395 -0.4688
 8126SOL    HW225278   2.534   5.284   0.951 -1.8485  0.5576 -0.0435
 8127SOL     OW25279   5.975   5.560   0.970 -0.4413 -0.2122  0.1944
 8127SOL    HW125280   5.896   5.547   0.910 -0.4623  1.3193 -0.1535
 8127SOL    HW225281   5.943   5.581   1.062 -0.4092 -2.4976  0.7701
 8128SOL     OW25282   2.715   0.413   6.270 -0.5788 -0.2037  0.0676
 8128SOL    HW125283   2.813   0.414   6.251 -0.7013 -0.1901 -0.5820
 8128SOL    HW225284   2.668   0.469   6.202 -0.8593  1.2484  1.4121
 8129SOL     OW25285   5.421   1.290   6.649  0.7575  0.0530  0.0198
 8129SOL    HW125286   5.449   1.351   6.724  1.0998 -0.3029  0.1863
 8129SOL    HW225287   5.354   1.224   6.683  0.7120  0.0633 -0.0514
 8130SOL     OW25288   2.180   6.451   6.389  0.2183  0.2328  0.0218
 8130SOL    HW125289   2.216   6.544   6.384 -0.5877  0.6881  1.8985
 8130SOL    HW225290   2.103   6.449   6.453  0.7044 -1.8719  0.5966
 8131SOL     OW25291   1.757   5.053   6.192  0.1982 -0.1938  0.4992
 8131SOL    HW125292   1.805   5.081   6.275 -0.2928 -2.0134  1.4650
 8131SOL    HW225293   1.701   4.973   6.212 -0.4074 -0.3136 -1.4679
 8132SOL     OW25294   6.981   0.977   6.742  0.3499  0.5250  0.4747
 8132SOL    HW125295   6.913   0.919   6.695  0.0984  0.8328  0.4542
 8132SOL    HW225296   6.993   1.062   6.691  0.3452  0.7072  0.7738
 8133SOL     OW25297   2.631   5.477   1.940 -0.5373  0.2450 -0.2209
 8133SOL    HW125298   2.533   5.493   1.943 -0.2372  2.5448 -0.6878
 8133SOL    HW225299   2.650   5.379   1.949 -2.8378 -0.2253 -0.0460
 8134SOL     OW25300   6.158   2.154   6.842  0.4576 -0.5600  0.4554
 8134SOL    HW125301   6.238   2.096   6.828  0.9308  0.2687 -0.2665
 8134SOL    HW225302   6.182   2.231   6.901 -0.5250 -1.8332  2.6313
 8135SOL     OW25303   1.960   6.006   5.800 -0.1195 -0.2078 -0.0887
 8135SOL    HW125304   1.907   6.084   5.834 -0.1682 -0.0385 -0.5432
 8135SOL    HW225305   2.022   6.037   5.728 -0.1487 -0.5929 -0.2827
 8136SOL     OW25306   4.903   6.953   6.121  0.3141 -0.2018 -0.3147
 8136SOL    HW125307   4.842   6.969   6.199 -1.7828  2.5867 -2.3164
 8136SOL    HW225308   4.859   6.890   6.057  1.3237 -1.2376 -0.0183
 8137SOL     OW25309   0.817   0.628   3.650 -0.0179  1.0414 -0.4531
 8137SOL    HW125310   0.755   0.676   3.712  0.8943  0.8766  0.6231
 8137SOL    HW225311   0.781   0.537   3.631  0.3493  0.5508  1.0012
 8138SOL     OW25312   4.809   0.699   5.129  0.0209  0.3446 -0.5938
 8138SOL    HW125313   4.875   0.646   5.182 -1.4776 -0.5832  0.4449
 8138SOL    HW225314   4.841   0.793   5.119  0.3266  0.6256  2.1539
 8139SOL     OW25315   4.216   2.239   5.257 -0.0316  0.7990 -0.4173
 8139SOL    HW125316   4.210   2.308   5.185  1.1120  1.8790  0.4755
 8139SOL    HW225317   4.128   2.194   5.267 -0.3227  0.8849 -2.2205
 8140SOL     OW25318   5.403   3.375   5.144  0.3293  0.7425 -0.0962
 8140SOL    HW125319   5.476   3.353   5.079  0.1488  1.2469 -0.4736
 8140SOL    HW225320   5.374   3.469   5.131 -0.8395  0.3635 -0.3889
 8141SOL     OW25321   2.627   6.279   5.449 -0.1762  0.7043  0.3668
 8141SOL    HW125322   2.680   6.200   5.417 -0.1313  0.2069  1.6052
 8141SOL    HW225323   2.680   6.363   5.437  0.8930  0.2186  1.5385
 8142SOL     OW25324   6.083   3.157   0.811 -0.0502  0.4855  0.0449
 8142SOL    HW125325   5.984   3.164   0.827 -0.2381  1.7304 -1.4346
 8142SOL    HW225326   6.100   3.091   0.738  0.3564 -0.8607  1.3177
 8143SOL     OW25327   1.908   5.356   3.986  0.0112  0.3489 -0.0522
 8143SOL    HW125328   1.945   5.387   3.898 -0.8757  3.5183  0.5441
 8143SOL    HW225329   1.979   5.310   4.038  0.9627 -0.2607 -1.8139
 8144SOL     OW25330   6.630   3.466   3.687 -0.1543 -0.0599 -0.1641
 8144SOL    HW125331   6.565   3.467   3.611 -0.3246  0.9757 -0.0197
 8144SOL    HW225332   6.708   3.525   3.664 -0.0230 -0.0449  0.3145
 8145SOL     OW25333   6.161   0.256   3.411 -0.2118  0.2335  0.6664
 8145SOL    HW125334   6.064   0.264   3.389 -0.0097  1.4174  0.1556
 8145SOL    HW225335   6.183   0.316   3.488  0.4902  1.4959 -0.4769
 8146SOL     OW25336   0.410   2.300   6.088 -0.3166 -0.6125 -0.1184
 8146SOL    HW125337   0.445   2.325   5.998 -1.7087 -1.4895 -0.9541
 8146SOL    HW225338   0.441   2.366   6.157  0.7713  0.0638 -1.2281
 8147SOL     OW25339   0.694   4.435   2.820  0.0687 -0.3055  0.3646
 8147SOL    HW125340   0.784   4.392   2.814  0.5456  0.4157  1.8093
 8147SOL    HW225341   0.654   4.415   2.909 -0.4208  0.8499  0.4190
 8148SOL     OW25342   6.459   6.014   1.466  0.0189 -0.3109  0.1207
 8148SOL    HW125343   6.427   5.964   1.385 -0.0717 -0.0992  0.0238
 8148SOL    HW225344   6.432   5.964   1.548 -0.9343  0.0711  0.0531
 8149SOL     OW25345   2.868   2.285   2.972  0.0622 -0.1324 -0.1216
 8149SOL    HW125346   2.929   2.235   2.910 -0.4610 -0.9349 -0.0022
 8149SOL    HW225347   2.796   2.330   2.919  1.1496  1.4233 -0.3335
 8150SOL     OW25348   1.750   6.578   0.203 -0.1066  0.3129  0.0495
 8150SOL    HW125349   1.785   6.668   0.176  1.3750 -0.7400 -1.7304
 8150SOL    HW225350   1.650   6.578   0.199 -0.1365  1.9351  0.3075
 8151SOL     OW25351   2.907   0.083   5.786 -0.0276  0.1607  0.3671
 8151SOL    HW125352   2.844   0.144   5.833 -3.5510 -0.5102 -2.9240
 8151SOL    HW225353   2.881  -0.012   5.804  1.5215 -0.2380  0.6563
 8152SOL     OW25354   0.490   2.270   0.716 -0.1758  0.0485  0.4673
 8152SOL    HW125355   0.526   2.349   0.765  1.5168 -0.5453  0.2526
 8152SOL    HW225356   0.409   2.296   0.663  1.6196  2.1822 -1.3837
 8153SOL     OW25357   3.481   5.881   3.037 -0.7111 -0.7217 -0.6142
 8153SOL    HW125358   3.446   5.923   2.953  2.0517  1.2647 -0.8825
 8153SOL    HW225359   3.410   5.886   3.108 -1.2582  2.8129 -1.2078
 8154SOL     OW25360   3.232   4.920   6.977  0.3338  0.1518  0.3629
 8154SOL    HW125361   3.324   4.948   6.949 -0.5553  1.7863 -1.1153
 8154SOL    HW225362   3.165   4.950   6.909 -1.3188 -1.0061  1.3908
 8155SOL     OW25363   6.256   5.780   5.144 -0.1620 -0.4753 -0.2125
 8155SOL    HW125364   6.315   5.719   5.197 -1.0079 -0.2566  1.0371
 8155SOL    HW225365   6.311   5.844   5.092  0.7329 -1.8033 -0.9562
 8156SOL     OW25366   4.996   3.497   4.369  0.5395 -0.1254  0.7141
 8156SOL    HW125367   4.995   3.591   4.404 -0.8104  0.4957 -0.8514
 8156SOL    HW225368   5.068   3.487   4.301 -0.2080  0.1984 -0.1385
 8157SOL     OW25369   2.651   5.483   0.772 -0.0113  0.1398 -0.3891
 8157SOL    HW125370   2.573   5.530   0.732  0.2557 -1.1241 -2.5825
 8157SOL    HW225371   2.625   5.389   0.796  0.8322 -0.3505 -1.3043
 8158SOL     OW25372   3.630   0.263   1.672 -0.2354  0.5857  0.4068
 8158SOL    HW125373   3.678   0.275   1.759 -2.8179  0.1320  2.0071
 8158SOL    HW225374   3.671   0.186   1.622 -0.6261 -1.2620  2.7491
 8159SOL     OW25375   1.155   5.752   4.749  0.7705 -0.1909  0.3236
 8159SOL    HW125376   1.119   5.660   4.763 -0.0835  0.1119  0.1887
 8159SOL    HW225377   1.088   5.807   4.698  1.1671  0.5677  0.6029
 8160SOL     OW25378   3.818   0.534   4.956  0.2407 -0.0375  0.3097
 8160SOL    HW125379   3.727   0.553   4.919  0.4036 -1.3206 -0.8202
 8160SOL    HW225380   3.870   0.480   4.890  1.7459  0.4691  1.0448
 8161SOL     OW25381   1.901   0.211   5.109  0.3147 -0.3943 -0.8794
 8161SOL    HW125382   1.869   0.237   5.018 -0.1276  1.5312 -0.2343
 8161SOL    HW225383   1.935   0.117   5.107 -2.0783 -1.3042 -2.4070
 8162SOL     OW25384   1.303   0.213   1.427  0.2978  0.3831 -0.2338
 8162SOL    HW125385   1.391   0.186   1.389 -0.3318 -0.1884 -1.3273
 8162SOL    HW225386   1.317   0.268   1.509  1.6355 -1.0916  0.5571
 8163SOL     OW25387   3.425   2.182   1.523  0.0448  0.0195  0.1437
 8163SOL    HW125388   3.499   2.236   1.484  0.5879 -0.5781  0.3327
 8163SOL    HW225389   3.396   2.222   1.609 -0.4218  0.7264 -0.3323
 8164SOL     OW25390   1.010   0.179   3.209  0.1608 -0.4714 -0.3189
 8164SOL    HW125391   0.937   0.187   3.277  0.4367  0.9399 -0.1637
 8164SOL    HW225392   0.972   0.144   3.123 -0.3166 -1.6053  0.3305
 8165SOL     OW25393   1.325   5.359   4.224 -0.0421 -0.7258 -0.2431
 8165SOL    HW125394   1.376   5.441   4.251  2.1835 -1.9414 -0.5709
 8165SOL    HW225395   1.336   5.344   4.125 -0.8854 -1.1519 -0.2847
 8166SOL     OW25396   2.642   2.190   6.773  0.7020 -0.5085 -0.4287
 8166SOL    HW125397   2.739   2.171   6.763  1.1880  1.4845 -0.0617
 8166SOL    HW225398   2.602   2.207   6.683  0.9477 -0.3162 -0.5040
 8167SOL     OW25399   5.316   0.221   3.799  0.1670 -0.4356  0.2352
 8167SOL    HW125400   5.387   0.237   3.731 -1.5542  0.5706 -1.4343
 8167SOL    HW225401   5.266   0.307   3.816 -0.7210 -1.1225  1.2791
 8168SOL     OW25402   3.328   5.722   6.937 -0.0728 -0.3510 -0.0937
 8168SOL    HW125403   3.260   5.675   6.880  2.0390 -1.1696 -2.1302
 8168SOL    HW225404   3.355   5.662   7.013  0.8646 -1.5718 -1.3184
 8169SOL     OW25405   1.604   1.032   6.185  0.1178  0.1902 -0.4386
 8169SOL    HW125406   1.587   1.125   6.218  1.3279 -0.0697  1.0352
 8169SOL    HW225407   1.601   1.030   6.085 -0.9467  1.5875 -0.4560
 8170SOL     OW25408   6.214   0.879   5.125  0.4397 -0.4347  0.2038
 8170SOL    HW125409   6.241   0.812   5.194 -0.3486 -0.9252  0.0522
 8170SOL    HW225410   6.292   0.901   5.067  0.8112 -0.9219  0.5115
 8171SOL     OW25411   6.132   6.962   1.615  0.4855 -0.0762  0.1346
 8171SOL    HW125412   6.134   7.060   1.631 -0.2210  0.3569 -2.1303
 8171SOL    HW225413   6.102   6.943   1.521  1.4853 -2.4286  0.2036
 8172SOL     OW25414   2.568   1.022   5.877  0.2975  0.2625 -0.4139
 8172SOL    HW125415   2.519   1.028   5.964  2.9374 -1.6039  1.3524
 8172SOL    HW225416   2.611   1.110   5.857  1.2859  0.1843  1.2447
 8173SOL     OW25417   3.342   1.885   0.379  0.3010 -0.4590 -0.0908
 8173SOL    HW125418   3.259   1.834   0.403  0.4806 -2.0976 -2.5488
 8173SOL    HW225419   3.317   1.962   0.319  0.3189  0.7959  1.4520
 8174SOL     OW25420   6.309   6.229   1.539  0.0893 -0.1010  0.1322
 8174SOL    HW125421   6.348   6.321   1.529 -0.8354  0.0701 -3.0672
 8174SOL    HW225422   6.380   6.161   1.520  0.2468  0.0308  0.2459
 8175SOL     OW25423   0.157   4.700   0.739  0.7984 -0.3702 -0.5996
 8175SOL    HW125424   0.120   4.658   0.822  0.6507  0.9570  0.0328
 8175SOL    HW225425   0.103   4.670   0.660 -0.8823  0.5331  0.1452
 8176SOL     OW25426   4.724   0.175   3.249 -0.3156  0.1634  0.6794
 8176SOL    HW125427   4.728   0.239   3.326 -0.1980 -0.4475  1.1897
 8176SOL    HW225428   4.628   0.155   3.228 -0.3451 -0.9135  1.7342
 8177SOL     OW25429   6.409   1.914   5.989  0.2661 -0.5642 -0.2693
 8177SOL    HW125430   6.344   1.838   5.988 -0.5567  0.1207 -0.2250
 8177SOL    HW225431   6.440   1.931   6.083 -2.8949  1.8827  0.4994
 8178SOL     OW25432   1.846   1.728   5.498 -0.3709  0.2386  0.0930
 8178SOL    HW125433   1.926   1.708   5.441 -0.6475 -0.0106 -0.2098
 8178SOL    HW225434   1.811   1.819   5.476 -1.0039 -0.1972 -0.7696
 8179SOL     OW25435   3.406   0.991   2.564  0.4525  0.2646 -0.0726
 8179SOL    HW125436   3.357   0.933   2.630 -1.8002  2.3631  0.2643
 8179SOL    HW225437   3.490   1.025   2.605  0.9075 -1.2844  0.3553
 8180SOL     OW25438   2.615   6.789   5.655 -0.2638  0.6547  0.6406
 8180SOL    HW125439   2.592   6.852   5.581  3.0167 -0.1585 -1.2456
 8180SOL    HW225440   2.661   6.839   5.728 -0.1766  0.8689  0.4388
 8181SOL     OW25441   1.038   3.174   3.779  0.5000 -0.2488 -0.2681
 8181SOL    HW125442   1.032   3.233   3.699 -2.5512  0.5522  0.4359
 8181SOL    HW225443   1.056   3.230   3.861 -1.8457 -0.2566  0.3198
 8182SOL     OW25444   3.444   6.345   0.266  0.1124  0.4524  0.2279
 8182SOL    HW125445   3.459   6.294   0.181 -0.4777  1.8735 -0.7885
 8182SOL    HW225446   3.411   6.437   0.243 -2.7119  0.0138  2.0424
 8183SOL     OW25447   3.569   2.274   6.999 -0.1326 -0.2485  0.2504
 8183SOL    HW125448   3.514   2.270   7.082 -1.7100 -0.5804 -0.7554
 8183SOL    HW225449   3.624   2.357   6.999 -1.6460  0.8044  0.7173
 8184SOL     OW25450   4.013   3.327   3.914 -0.5047  0.0651  0.0024
 8184SOL    HW125451   3.971   3.350   4.002  1.4394 -1.2892  1.3556
 8184SOL    HW225452   4.003   3.229   3.898  3.7309 -0.8111  1.4314
 8185SOL     OW25453   3.759   1.196   6.568 -0.4521  0.5066  1.1382
 8185SOL    HW125454   3.855   1.216   6.551 -0.2867 -0.6786  0.5756
 8185SOL    HW225455   3.751   1.107   6.613 -1.3395  0.0291  0.0822
 8186SOL     OW25456   3.487   0.719   0.900  0.0815  0.1527 -0.0820
 8186SOL    HW125457   3.524   0.707   0.808 -0.3026  0.5591 -0.2884
 8186SOL    HW225458   3.523   0.803   0.940 -1.9376  1.4983 -0.9483
 8187SOL     OW25459   1.720   6.748   4.527 -0.1402  0.0070  0.1273
 8187SOL    HW125460   1.702   6.730   4.623 -1.3153 -0.3385 -0.1388
 8187SOL    HW225461   1.816   6.769   4.514  0.0724 -0.1742  1.3419
 8188SOL     OW25462   6.402   0.748   5.911  0.2695 -0.3398 -0.4397
 8188SOL    HW125463   6.412   0.823   5.976 -0.2907 -0.7236  0.1070
 8188SOL    HW225464   6.462   0.672   5.938 -1.3667 -1.2587  0.7896
 8189SOL     OW25465   5.045   5.674   1.144 -0.3518 -0.4091 -0.0410
 8189SOL    HW125466   5.003   5.765   1.143  0.3078 -0.0997  0.2516
 8189SOL    HW225467   5.143   5.682   1.158 -0.4634 -1.2385  1.4268
 8190SOL     OW25468   3.756   1.469   1.703  0.4493  0.2560  0.6850
 8190SOL    HW125469   3.666   1.427   1.720 -0.4560  1.9002  0.1243
 8190SOL    HW225470   3.822   1.430   1.767  0.3119 -3.8278 -1.3056
 8191SOL     OW25471   4.268   0.856   4.365 -0.1086  0.3813  0.0987
 8191SOL    HW125472   4.218   0.866   4.452 -0.8709  0.4086 -0.3344
 8191SOL    HW225473   4.339   0.787   4.375  0.4238  1.0450  1.0217
 8192SOL     OW25474   5.803   6.395   3.478 -0.9540  0.3441 -0.0012
 8192SOL    HW125475   5.832   6.371   3.571 -2.7485  1.2452  0.8232
 8192SOL    HW225476   5.873   6.451   3.435  0.3314 -0.8643  0.4219
 8193SOL     OW25477   5.391   1.678   3.936 -0.3090 -0.2914  0.9711
 8193SOL    HW125478   5.377   1.581   3.916 -0.4760 -0.3553  1.3967
 8193SOL    HW225479   5.344   1.702   4.020 -2.3963  0.7240 -0.3891
 8194SOL     OW25480   0.332   2.613   1.081  1.0057 -0.4992  0.3838
 8194SOL    HW125481   0.362   2.689   1.139  0.4319 -1.1271  1.5126
 8194SOL    HW225482   0.313   2.533   1.137 -0.0020 -0.9870 -0.6241
 8195SOL     OW25483   4.167   0.386   5.462 -0.1255 -0.3935  0.0202
 8195SOL    HW125484   4.149   0.484   5.462 -0.0311 -0.3513 -1.8566
 8195SOL    HW225485   4.107   0.340   5.397  1.1666 -1.3032 -0.5861
 8196SOL     OW25486   5.223   2.667   0.869  0.7596  0.4627  0.1555
 8196SOL    HW125487   5.178   2.644   0.956 -0.7596 -1.6937 -1.0951
 8196SOL    HW225488   5.299   2.604   0.853  1.0078  0.8290 -0.1139
 8197SOL     OW25489   6.327   0.004   2.175 -0.1015 -0.3754 -0.2613
 8197SOL    HW125490   6.363  -0.090   2.170 -0.7636 -0.5707 -2.7361
 8197SOL    HW225491   6.362   0.057   2.098 -2.3079  0.4346 -0.7652
 8198SOL     OW25492   4.083   3.736   4.234  0.1258 -0.1713  0.0155
 8198SOL    HW125493   4.108   3.804   4.303  1.8844  0.3944 -1.1180
 8198SOL    HW225494   4.108   3.645   4.267  1.7450  0.1743 -0.1605
 8199SOL     OW25495   6.361   5.407   0.427  0.3044  0.2286 -0.3724
 8199SOL    HW125496   6.266   5.412   0.458 -0.1480  1.6507 -1.8786
 8199SOL    HW225497   6.375   5.471   0.352  2.5001  0.1091 -0.1200
 8200SOL     OW25498   4.072   2.550   6.561  0.4074 -0.2561  0.2718
 8200SOL    HW125499   4.066   2.566   6.463 -1.6893 -0.3812  0.3370
 8200SOL    HW225500   4.140   2.480   6.580 -2.4784 -3.8880 -1.5890
 8201SOL     OW25501   4.025   2.083   5.570 -0.1627 -0.2783 -0.1638
 8201SOL    HW125502   4.066   2.173   5.556 -0.5546  0.1566  1.2526
 8201SOL    HW225503   4.004   2.042   5.482  0.7137  0.6887 -0.8538
 8202SOL     OW25504   4.515   4.345   6.651  0.3620  0.2091 -0.2683
 8202SOL    HW125505   4.543   4.324   6.557  0.6876 -1.8407  0.2432
 8202SOL    HW225506   4.463   4.268   6.688 -1.3810  1.7551  0.6280
 8203SOL     OW25507   2.799   1.370   4.312  0.5238  0.3836  0.4424
 8203SOL    HW125508   2.872   1.353   4.246 -0.1433  1.4390 -0.5978
 8203SOL    HW225509   2.795   1.295   4.378  0.1930 -1.5192 -1.6435
 8204SOL     OW25510   4.724   6.275   1.070 -0.4086  0.0456  0.4256
 8204SOL    HW125511   4.711   6.359   1.017  1.2539  1.7101  2.4287
 8204SOL    HW225512   4.702   6.293   1.166  0.3935 -1.6766  0.9743
 8205SOL     OW25513   5.987   5.863   6.565 -0.5173  0.0069  0.1794
 8205SOL    HW125514   5.918   5.791   6.574 -0.2647 -0.5045 -1.6397
 8205SOL    HW225515   5.942   5.949   6.542 -0.6284 -0.0582  0.1499
 8206SOL     OW25516   5.435   4.213   5.122 -0.1138  0.0245 -0.2868
 8206SOL    HW125517   5.492   4.267   5.183 -1.2907  1.5060 -0.4174
 8206SOL    HW225518   5.474   4.122   5.110  0.9537  0.2198  1.4243
 8207SOL     OW25519   3.664   3.736   2.694 -0.3866  0.6924  0.0141
 8207SOL    HW125520   3.728   3.813   2.688  0.0742  0.4027  0.9543
 8207SOL    HW225521   3.655   3.694   2.604  0.7248  0.7737 -0.1550
 8208SOL     OW25522   1.697   4.676   3.232  0.2680  0.7009  0.7782
 8208SOL    HW125523   1.793   4.680   3.206  0.1192  2.5328  0.3389
 8208SOL    HW225524   1.685   4.718   3.322 -0.3279  2.3582 -0.0178
 8209SOL     OW25525   4.574   0.763   3.335 -0.4769 -0.5097  0.1436
 8209SOL    HW125526   4.537   0.840   3.283  0.3187  0.5169  1.0495
 8209SOL    HW225527   4.564   0.679   3.282 -1.2230  0.2368 -0.9365
 8210SOL     OW25528   2.131   5.256   0.959  0.1331 -0.0863  0.4175
 8210SOL    HW125529   2.033   5.266   0.938  0.1877 -1.2519 -0.5216
 8210SOL    HW225530   2.153   5.159   0.968  0.8086  0.2208  2.7499
 8211SOL     OW25531   3.061   5.483   6.586  0.2193 -1.0653  0.2326
 8211SOL    HW125532   3.071   5.455   6.491 -2.2516 -0.5196 -0.2803
 8211SOL    HW225533   3.029   5.406   6.641  1.9371 -1.4604  0.7188
 8212SOL     OW25534   6.983   2.965   6.799  0.0332  0.1494 -0.1318
 8212SOL    HW125535   7.007   3.041   6.738  0.5668 -1.4522 -2.0290
 8212SOL    HW225536   7.064   2.935   6.849  0.4511 -0.7753 -1.3137
 8213SOL     OW25537   3.509   1.142   2.975 -0.0909 -0.3088  0.1809
 8213SOL    HW125538   3.490   1.214   2.909  2.2339 -0.3557 -0.6335
 8213SOL    HW225539   3.558   1.067   2.930 -0.4013 -1.3559  1.5110
 8214SOL     OW25540   1.695   0.727   3.843  0.0254 -0.0453  0.4122
 8214SOL    HW125541   1.639   0.661   3.893  1.5722 -0.7477  1.3056
 8214SOL    HW225542   1.777   0.681   3.808 -1.1032  0.3644 -3.0785
 8215SOL     OW25543   3.524   5.983   0.039  0.7240  0.1573  0.0070
 8215SOL    HW125544   3.456   6.056   0.041  0.9079  0.4512 -1.9920
 8215SOL    HW225545   3.512   5.928  -0.044  0.6521 -2.0653  1.3936
 8216SOL     OW25546   2.452   2.577   0.778 -0.5097 -0.2360 -0.0667
 8216SOL    HW125547   2.437   2.493   0.726  0.3212 -0.9631  0.8360
 8216SOL    HW225548   2.367   2.604   0.823 -0.5941 -1.0382  0.2722
 8217SOL     OW25549   1.817   2.392   6.715 -0.2685  0.5052 -0.0662
 8217SOL    HW125550   1.771   2.337   6.785 -0.3900  0.3956 -0.2292
 8217SOL    HW225551   1.908   2.417   6.747 -0.5766  1.0372  0.4098
 8218SOL     OW25552   5.241   3.138   4.675 -0.0138  0.2881 -0.5563
 8218SOL    HW125553   5.329   3.162   4.634 -0.3621 -0.8907 -2.0943
 8218SOL    HW225554   5.246   3.046   4.714 -0.7793 -0.1350 -1.4188
 8219SOL     OW25555   5.806   2.766   4.177  0.5384 -0.6019 -0.5091
 8219SOL    HW125556   5.864   2.803   4.105  1.2482  1.0509  0.8282
 8219SOL    HW225557   5.710   2.767   4.147  0.7888  0.3500 -1.3207
 8220SOL     OW25558   2.398   0.482   5.364 -0.2252 -0.7162 -0.1895
 8220SOL    HW125559   2.414   0.510   5.458  1.3790 -0.4241 -0.5114
 8220SOL    HW225560   2.447   0.543   5.302 -1.4591 -0.7476 -1.2413
 8221SOL     OW25561   1.551   2.078   4.261 -0.1525 -0.9297  0.5673
 8221SOL    HW125562   1.606   2.138   4.202 -0.3983 -0.1699  1.0941
 8221SOL    HW225563   1.554   2.113   4.355 -0.4161 -1.6739  0.8523
 8222SOL     OW25564   6.404   0.620   1.253 -0.2446 -0.0969 -0.4068
 8222SOL    HW125565   6.351   0.587   1.331 -0.8090  0.1274 -0.6896
 8222SOL    HW225566   6.379   0.567   1.171  0.4202 -0.4029 -0.4197
 8223SOL     OW25567   2.311   0.352   1.073  0.5574  0.0679 -0.2108
 8223SOL    HW125568   2.336   0.376   1.167 -0.2548 -0.3332  0.1133
 8223SOL    HW225569   2.290   0.435   1.021  1.4244  0.3232 -0.1669
 8224SOL     OW25570   4.028   5.714   0.015  0.3787 -0.3582 -0.0263
 8224SOL    HW125571   3.936   5.715   0.054 -0.0700 -0.7789 -1.0442
 8224SOL    HW225572   4.033   5.778  -0.061  0.7194 -0.8688 -0.4409
 8225SOL     OW25573   2.755   6.892   0.283 -0.1150  0.2090  0.1020
 8225SOL    HW125574   2.723   6.971   0.335  0.1571 -0.5128  1.4111
 8225SOL    HW225575   2.850   6.873   0.308  0.3026  0.3394 -1.2971
 8226SOL     OW25576   5.830   1.096   1.224  0.1286 -0.5308  0.7244
 8226SOL    HW125577   5.876   1.148   1.152  1.7219 -1.4874  0.9889
 8226SOL    HW225578   5.736   1.076   1.196 -0.0733  1.2292  0.0202
 8227SOL     OW25579   0.513   4.900   2.878 -0.8969 -0.4083 -0.5206
 8227SOL    HW125580   0.527   4.996   2.901 -1.4579  0.2908 -2.7818
 8227SOL    HW225581   0.572   4.843   2.934 -1.0216  1.1821  1.3394
 8228SOL     OW25582   7.007   3.644   3.112  0.1498 -0.5665 -0.3379
 8228SOL    HW125583   7.022   3.582   3.036  2.0485 -0.7913  0.1811
 8228SOL    HW225584   7.035   3.737   3.086 -0.0524 -0.4677 -0.2077
 8229SOL     OW25585   6.414   6.771   5.146  0.4588 -0.1664  0.1951
 8229SOL    HW125586   6.386   6.680   5.115  0.0640 -0.1579  0.5135
 8229SOL    HW225587   6.507   6.767   5.182 -0.3483 -0.9554  2.3521
 8230SOL     OW25588   6.930   1.130   5.437 -0.3224 -0.3914  0.2371
 8230SOL    HW125589   6.989   1.198   5.480  0.7923 -0.2928 -1.3490
 8230SOL    HW225590   6.923   1.049   5.495 -0.4620  0.4842  1.4669
 8231SOL     OW25591   3.085   0.834   2.297  0.4513 -0.3309 -0.3802
 8231SOL    HW125592   3.082   0.927   2.335 -0.6924 -0.7683  0.6812
 8231SOL    HW225593   3.174   0.793   2.314  0.2105 -0.2372  1.2110
 8232SOL     OW25594   3.952   0.053   3.158  0.8716  0.2346 -0.1229
 8232SOL    HW125595   4.019  -0.018   3.180  1.6570  1.0742  0.2930
 8232SOL    HW225596   4.000   0.139   3.140 -0.1673  1.2374  1.6654
 8233SOL     OW25597   4.859   6.791   5.034  0.1530  1.0442 -0.3366
 8233SOL    HW125598   4.824   6.769   5.125 -0.2139  0.4813 -0.6040
 8233SOL    HW225599   4.783   6.817   4.974 -0.0459 -1.4514 -1.2850
 8234SOL     OW25600   1.231   5.881   6.778  0.9730  0.4101  0.4453
 8234SOL    HW125601   1.146   5.902   6.729  1.7136  0.6716 -0.7800
 8234SOL    HW225602   1.222   5.795   6.827  0.4257 -0.2196 -0.7411
 8235SOL     OW25603   1.169   5.993   3.186  0.2121 -0.8366  0.4458
 8235SOL    HW125604   1.145   6.033   3.275 -2.8285  1.6550 -1.3122
 8235SOL    HW225605   1.086   5.962   3.140  1.1678  1.1152 -2.9189
 8236SOL     OW25606   5.857   1.102   4.187  0.0512 -0.3026  0.1408
 8236SOL    HW125607   5.913   1.179   4.159 -1.5139  1.2536  1.0688
 8236SOL    HW225608   5.794   1.131   4.259 -1.2866 -2.1966 -0.1850
 8237SOL     OW25609   1.841   4.496   0.446 -0.3848  0.2138  0.9757
 8237SOL    HW125610   1.748   4.533   0.443  0.0350  1.3036  0.8551
 8237SOL    HW225611   1.894   4.546   0.514  0.3899  0.2563  0.3534
 8238SOL     OW25612   1.434   2.167   3.173 -0.4737 -0.0041  0.1986
 8238SOL    HW125613   1.488   2.084   3.188 -1.1954 -0.4129  0.5796
 8238SOL    HW225614   1.494   2.241   3.142  0.2069 -0.6113  0.0519
 8239SOL     OW25615   4.863   2.575   3.362  0.6627  0.0000  0.4224
 8239SOL    HW125616   4.860   2.477   3.342  2.0595 -0.0513  0.3619
 8239SOL    HW225617   4.771   2.614   3.354  0.2146 -1.1611 -0.2861
 8240SOL     OW25618   4.060   3.609   4.626 -0.0403  0.6395 -0.2855
 8240SOL    HW125619   4.067   3.580   4.531 -0.5525  3.1018 -1.1361
 8240SOL    HW225620   3.980   3.566   4.668 -0.5092  0.4643 -1.3366
 8241SOL     OW25621   3.195   3.156   6.863 -0.3087  0.0654 -0.2274
 8241SOL    HW125622   3.205   3.205   6.776 -1.3178 -1.3959 -1.2221
 8241SOL    HW225623   3.274   3.096   6.877 -0.4259 -0.1430 -0.4462
 8242SOL     OW25624   0.238   5.572   2.779  0.5237 -0.5061 -0.7380
 8242SOL    HW125625   0.334   5.599   2.776  0.7908 -1.4019 -0.5422
 8242SOL    HW225626   0.217   5.511   2.703  0.4484 -1.3673 -0.0350
 8243SOL     OW25627   4.711   3.262   6.213  0.4081 -0.4312 -0.3741
 8243SOL    HW125628   4.747   3.185   6.265  0.4650  1.3406  2.4289
 8243SOL    HW225629   4.635   3.231   6.156  0.3720 -2.5313  0.7126
 8244SOL     OW25630   5.228   2.493   4.179  0.7071  0.0072 -0.7237
 8244SOL    HW125631   5.131   2.477   4.161  0.7556  1.0221 -1.9978
 8244SOL    HW225632   5.247   2.476   4.275 -1.3878  2.7237  0.3123
 8245SOL     OW25633   2.997   2.306   1.521  0.2189 -0.0402 -0.1070
 8245SOL    HW125634   3.057   2.382   1.495 -0.6408  1.0001  0.8447
 8245SOL    HW225635   2.959   2.265   1.438  1.0989  0.2236 -0.6582
 8246SOL     OW25636   6.527   5.223   3.505 -0.6511  0.2175 -0.3755
 8246SOL    HW125637   6.572   5.252   3.420  1.9082  1.1708  1.1890
 8246SOL    HW225638   6.515   5.302   3.565 -0.6851 -0.7386  0.9161
 8247SOL     OW25639   4.366   4.563   6.678 -0.4764 -0.8109  0.1634
 8247SOL    HW125640   4.312   4.544   6.761 -0.1536 -0.0853  0.5527
 8247SOL    HW225641   4.432   4.490   6.664  0.3404 -0.3340  1.2901
 8248SOL     OW25642   0.497   6.805   1.130  0.0163 -0.2585  0.4259
 8248SOL    HW125643   0.555   6.848   1.062 -1.2276  0.4069 -0.2489
 8248SOL    HW225644   0.409   6.853   1.135 -2.7802 -4.3727 -2.6155
 8249SOL     OW25645   0.636   3.856   0.267 -0.0727  0.3132 -0.0802
 8249SOL    HW125646   0.724   3.858   0.220  0.8087  0.2396  1.5018
 8249SOL    HW225647   0.605   3.762   0.276 -0.2002  0.3210 -0.4368
 8250SOL     OW25648   2.650   3.461   1.301  0.2956 -0.1695 -0.2942
 8250SOL    HW125649   2.572   3.454   1.363  0.1176 -1.9313 -0.6672
 8250SOL    HW225650   2.726   3.406   1.336 -0.2912 -2.3779 -2.2803
 8251SOL     OW25651   2.218   3.990   0.695 -0.1548 -0.3050 -0.0260
 8251SOL    HW125652   2.195   4.029   0.784 -1.6254 -2.7619  0.7986
 8251SOL    HW225653   2.134   3.966   0.647  0.6499 -0.6795 -1.2846
 8252SOL     OW25654   4.582   4.973   2.287 -0.6202 -0.0972 -0.8790
 8252SOL    HW125655   4.600   5.071   2.297 -2.6062  0.2060  0.1864
 8252SOL    HW225656   4.518   4.958   2.211  0.7248 -0.7511 -1.9460
 8253SOL     OW25657   6.026   6.259   4.110  0.5451 -0.0878  0.4656
 8253SOL    HW125658   5.971   6.182   4.079  0.6448  0.0001  0.0683
 8253SOL    HW225659   5.977   6.308   4.182 -0.9001  1.3138 -1.3866
 8254SOL     OW25660   5.306   1.958   6.232  0.0951  0.1221 -0.8942
 8254SOL    HW125661   5.329   1.862   6.248 -1.0481  0.0260  0.3792
 8254SOL    HW225662   5.207   1.968   6.227  0.0142  1.5593  1.7159
 8255SOL     OW25663   6.918   6.312   5.471 -0.1930  0.3700 -0.2390
 8255SOL    HW125664   6.941   6.216   5.484  0.0303 -0.0064 -2.7519
 8255SOL    HW225665   6.999   6.368   5.487  0.0171  0.0091 -0.0248
 8256SOL     OW25666   3.892   5.843   0.390  0.2765  1.0456  0.1556
 8256SOL    HW125667   3.813   5.806   0.439  1.7205 -0.0694  1.7745
 8256SOL    HW225668   3.860   5.896   0.311 -2.0229 -1.4027 -0.7254
 8257SOL     OW25669   6.061   2.119   3.967  0.0650 -0.8997  0.5585
 8257SOL    HW125670   6.052   2.044   3.901  1.1863 -1.4564  1.0021
 8257SOL    HW225671   6.025   2.089   4.056 -2.2550  0.1464  0.0392
 8258SOL     OW25672   3.306   3.869   0.576 -0.4948 -0.3592  0.1213
 8258SOL    HW125673   3.361   3.916   0.645 -0.5888 -0.7629  0.4730
 8258SOL    HW225674   3.315   3.770   0.587 -0.3532 -0.4301 -0.5705
 8259SOL     OW25675   5.111   4.053   5.217 -0.1893  0.3426  0.2903
 8259SOL    HW125676   5.135   4.076   5.311 -1.1155 -0.6245  0.7804
 8259SOL    HW225677   5.023   4.096   5.194  0.2454  0.9477 -0.3039
 8260SOL     OW25678   0.310   3.472   1.225 -0.7682 -0.2187  1.3342
 8260SOL    HW125679   0.329   3.385   1.270 -0.0776 -0.7424  0.1084
 8260SOL    HW225680   0.338   3.548   1.285  0.1605 -0.8828  1.7713
 8261SOL     OW25681   5.856   6.023   4.787  0.2307 -0.7622 -0.5031
 8261SOL    HW125682   5.809   6.071   4.713  0.7226  0.8716  0.1982
 8261SOL    HW225683   5.897   5.939   4.751  1.3684  0.5144 -2.3764
 8262SOL     OW25684   0.932   4.619   3.019 -0.3877  0.6359 -0.1861
 8262SOL    HW125685   0.930   4.642   3.116  0.6100  0.5152 -0.1214
 8262SOL    HW225686   1.009   4.558   3.001 -0.7909  0.3420 -0.9923
 8263SOL     OW25687   2.454   3.824   0.671  0.4204  0.0559 -0.5077
 8263SOL    HW125688   2.376   3.887   0.674  2.0255  2.2423 -1.6957
 8263SOL    HW225689   2.458   3.773   0.757 -1.6858  0.6408  0.0043
 8264SOL     OW25690   2.946   6.747   1.128 -0.3898 -0.2041  0.3677
 8264SOL    HW125691   2.851   6.773   1.143 -0.4125  0.1129 -0.3010
 8264SOL    HW225692   2.951   6.655   1.091 -0.6315  0.7386 -2.2580
 8265SOL     OW25693   4.447   1.195   0.983 -0.3379 -0.2553 -0.5087
 8265SOL    HW125694   4.510   1.133   1.029 -0.1281  1.1250  1.1584
 8265SOL    HW225695   4.493   1.281   0.961 -1.0996  0.0244 -1.0814
 8266SOL     OW25696   5.160   1.853   6.665 -0.1785  0.1498  0.1484
 8266SOL    HW125697   5.113   1.869   6.751 -0.2292 -0.0075  0.1499
 8266SOL    HW225698   5.094   1.823   6.596  0.0051 -0.6741  0.3111
 8267SOL     OW25699   4.821   2.460   4.008  0.4363 -0.0434 -0.1514
 8267SOL    HW125700   4.806   2.559   4.009 -0.2993 -0.1301 -1.1404
 8267SOL    HW225701   4.771   2.417   4.082 -0.4157  0.1789 -0.5901
 8268SOL     OW25702   6.584   1.080   2.218  0.0572 -0.5185 -0.7441
 8268SOL    HW125703   6.531   1.019   2.158  0.9201 -2.4603  0.3587
 8268SOL    HW225704   6.653   1.026   2.266 -0.9458  0.8442  2.4347
 8269SOL     OW25705   3.493   0.492   6.421  0.3822  0.2792  0.2846
 8269SOL    HW125706   3.446   0.407   6.448 -0.2756  0.4266 -0.3594
 8269SOL    HW225707   3.590   0.473   6.405 -0.2216 -1.0230 -2.5773
 8270SOL     OW25708   5.923   5.938   0.097 -0.2761 -0.2408 -0.0869
 8270SOL    HW125709   5.851   5.937   0.166  0.6392  0.6161  0.9139
 8270SOL    HW225710   5.940   5.845   0.065 -2.0210 -0.4267 -0.5814
 8271SOL     OW25711   4.990   6.771   4.595  0.3930 -0.3681  0.4085
 8271SOL    HW125712   5.015   6.749   4.689  0.2185  0.6220  0.6970
 8271SOL    HW225713   4.991   6.687   4.540 -1.9243 -1.4255  1.8130
 8272SOL     OW25714   3.805   2.115   2.149  0.4343 -0.0923  0.4376
 8272SOL    HW125715   3.748   2.180   2.099  0.4035  0.8412  1.6665
 8272SOL    HW225716   3.840   2.046   2.085 -0.1603  0.6690 -0.7407
 8273SOL     OW25717   2.071   3.996   6.554 -0.0490 -0.5691  0.3191
 8273SOL    HW125718   2.041   4.079   6.601  1.5693  0.9086 -1.1079
 8273SOL    HW225719   1.998   3.928   6.556 -2.7082  2.0088 -1.1342
 8274SOL     OW25720   2.446   2.971   0.501  0.6997  0.2247  0.1519
 8274SOL    HW125721   2.383   2.965   0.424 -1.1290 -0.0634  1.6090
 8274SOL    HW225722   2.394   2.973   0.587  2.7032 -2.9939  1.6123
 8275SOL     OW25723   2.789   3.737   6.329 -0.2401 -0.4770  0.4628
 8275SOL    HW125724   2.785   3.638   6.340  2.2326 -0.7066 -0.1342
 8275SOL    HW225725   2.867   3.773   6.380 -0.0385  0.9273 -0.7819
 8276SOL     OW25726   4.054   4.802   3.377 -0.1949 -0.5449 -0.5965
 8276SOL    HW125727   3.973   4.786   3.321  0.6795 -0.9486 -1.7794
 8276SOL    HW225728   4.039   4.766   3.469 -1.1938 -0.9962 -0.9308
 8277SOL     OW25729   5.886   5.342   5.693  0.0382 -0.6238  0.0637
 8277SOL    HW125730   5.911   5.274   5.762  3.4966 -2.1156 -2.4260
 8277SOL    HW225731   5.824   5.301   5.626 -0.0384 -0.4631  0.0355
 8278SOL     OW25732   2.111   5.349   0.522 -0.4157 -0.1527  0.3163
 8278SOL    HW125733   2.019   5.383   0.542 -0.7351 -1.1161  0.4982
 8278SOL    HW225734   2.105   5.265   0.469  0.3801  0.1472 -0.2663
 8279SOL     OW25735   0.807   5.910   6.960  0.4806  1.0542  0.2342
 8279SOL    HW125736   0.726   5.911   6.901  0.5568  1.3605  0.1329
 8279SOL    HW225737   0.792   5.846   7.035  0.6656  0.1131 -0.5141
 8280SOL     OW25738   0.725   0.349   5.331 -0.7548 -0.3633  0.2310
 8280SOL    HW125739   0.692   0.263   5.295  1.5807 -0.1122 -2.8905
 8280SOL    HW225740   0.686   0.425   5.279  0.3542  0.1910  0.1627
 8281SOL     OW25741   1.560   2.247   4.994  0.4268 -0.0003 -0.2149
 8281SOL    HW125742   1.551   2.321   4.927  0.4081 -1.8496 -2.3781
 8281SOL    HW225743   1.483   2.249   5.058 -0.1273  1.1945 -0.8953
 8282SOL     OW25744   6.743   6.355   1.894  0.8525 -0.2453 -0.0191
 8282SOL    HW125745   6.728   6.308   1.807 -1.4879 -0.8003  0.6237
 8282SOL    HW225746   6.811   6.304   1.947  0.9003 -0.9668 -0.7442
 8283SOL     OW25747   2.931   2.154   2.593 -0.1332 -0.0206  0.1028
 8283SOL    HW125748   2.861   2.226   2.592  2.0712  2.2968  0.9535
 8283SOL    HW225749   2.949   2.128   2.688  0.9772  0.3021 -0.0130
 8284SOL     OW25750   3.895   0.445   5.347 -0.0542  0.0701  0.3548
 8284SOL    HW125751   3.916   0.348   5.363  1.7973  0.3613 -0.1118
 8284SOL    HW225752   3.880   0.491   5.435 -1.2346 -0.6785  0.5651
 8285SOL     OW25753   3.878   1.554   0.379  0.3292 -0.3998 -0.0519
 8285SOL    HW125754   3.830   1.543   0.466 -0.6357  0.0281 -0.5199
 8285SOL    HW225755   3.896   1.464   0.340 -1.7725 -0.5653 -0.7539
 8286SOL     OW25756   4.991   4.294   1.063  0.1504  0.1401  0.6337
 8286SOL    HW125757   4.962   4.386   1.091  0.2268  0.3127  0.1513
 8286SOL    HW225758   4.913   4.245   1.024  0.6604  0.9369 -1.5422
 8287SOL     OW25759   6.013   4.504   6.261 -0.0552 -0.1626 -1.0105
 8287SOL    HW125760   6.094   4.560   6.280  0.1546 -0.5228 -0.8317
 8287SOL    HW225761   6.003   4.434   6.332 -1.4911  0.9352 -0.0745
 8288SOL     OW25762   6.894   3.586   1.772  0.0171 -0.3672  0.0662
 8288SOL    HW125763   6.881   3.489   1.792  0.0636 -0.0614  1.7997
 8288SOL    HW225764   6.912   3.599   1.675 -2.7682 -1.8246 -0.7565
 8289SOL     OW25765   2.034   3.031   4.088 -0.4551 -0.3377 -1.1957
 8289SOL    HW125766   2.110   3.007   4.149 -0.6953  1.1199 -0.2866
 8289SOL    HW225767   2.068   3.039   3.994  0.5697  0.4613 -0.7735
 8290SOL     OW25768   6.067   0.399   1.505 -0.1810  0.4217  0.1876
 8290SOL    HW125769   6.063   0.499   1.512 -0.7644  0.6309 -2.1455
 8290SOL    HW225770   5.976   0.364   1.482  0.2191 -0.5439  0.0551
 8291SOL     OW25771   5.198   1.116   6.696  0.2291 -0.3858 -0.2236
 8291SOL    HW125772   5.145   1.034   6.676  0.1401 -0.8530  1.7531
 8291SOL    HW225773   5.139   1.187   6.735  0.9866 -1.0278  2.3138
 8292SOL     OW25774   0.373   4.304   4.306 -0.6376  0.1752  0.0791
 8292SOL    HW125775   0.362   4.294   4.405  2.6228  1.7532  0.7606
 8292SOL    HW225776   0.459   4.353   4.288 -0.5302 -1.1209 -3.6011
 8293SOL     OW25777   3.939   0.579   0.045 -0.1280 -0.0359 -0.2754
 8293SOL    HW125778   3.845   0.572   0.011  0.7454  1.5632 -3.3382
 8293SOL    HW225779   3.977   0.488   0.058 -2.4343 -0.7602  2.3412
 8294SOL     OW25780   3.876   6.084   2.194 -0.4762 -0.2669  1.0442
 8294SOL    HW125781   3.910   6.058   2.284 -1.6941 -0.9367  1.3411
 8294SOL    HW225782   3.873   6.184   2.187  1.5235 -0.1835  0.9734
 8295SOL     OW25783   4.956   6.767   1.510 -0.6547 -0.3970  0.6400
 8295SOL    HW125784   4.967   6.671   1.487 -1.3033 -0.2681 -0.2321
 8295SOL    HW225785   4.988   6.824   1.435 -1.6333  0.0444  0.5355
 8296SOL     OW25786   5.094   4.136   1.302  0.2604 -0.3531  0.0572
 8296SOL    HW125787   5.097   4.038   1.283 -0.9739 -0.6637  1.3172
 8296SOL    HW225788   5.049   4.183   1.226  0.0522 -0.8874 -0.1562
 8297SOL     OW25789   0.324   4.347   0.699 -0.0192  0.2527 -0.1446
 8297SOL    HW125790   0.416   4.330   0.733  0.1908  1.0303 -0.2963
 8297SOL    HW225791   0.257   4.319   0.768  0.3477  0.2560  0.2183
 8298SOL     OW25792   5.285   5.943   2.949 -0.0706 -0.1107  0.2810
 8298SOL    HW125793   5.195   5.985   2.956  0.3341  0.7664  0.3609
 8298SOL    HW225794   5.355   6.008   2.981  0.6332 -0.6066 -0.2113
 8299SOL     OW25795   0.246   3.822   3.126  0.1859 -0.9281 -0.3450
 8299SOL    HW125796   0.175   3.861   3.184  0.7335 -1.4011  0.6853
 8299SOL    HW225797   0.336   3.854   3.158  0.4148  1.8782 -3.2645
 8300SOL     OW25798   1.495   3.590   5.124 -0.1976  0.0465  0.3384
 8300SOL    HW125799   1.577   3.634   5.157 -0.3608  0.0482  0.7435
 8300SOL    HW225800   1.514   3.493   5.107 -0.2439 -0.0639  0.9105
 8301SOL     OW25801   2.951   6.499   0.994 -0.4265  0.1339  0.0077
 8301SOL    HW125802   3.022   6.431   0.976 -1.0721 -0.2970 -0.9893
 8301SOL    HW225803   2.867   6.471   0.949 -0.9345  1.1773  0.2972
 8302SOL     OW25804   4.774   4.778   2.415 -0.0216  0.3061  0.3848
 8302SOL    HW125805   4.802   4.824   2.500 -1.1105 -1.5184  1.7829
 8302SOL    HW225806   4.704   4.833   2.369  1.4869  1.9568 -0.0864
 8303SOL     OW25807   1.459   0.183   2.959  0.6696 -0.1505  0.1921
 8303SOL    HW125808   1.381   0.121   2.969 -0.8857  1.6548 -0.1820
 8303SOL    HW225809   1.491   0.212   3.050 -1.1782  1.5011  0.3969
 8304SOL     OW25810   4.924   3.760   4.418  0.1154 -0.2145  0.2345
 8304SOL    HW125811   4.987   3.802   4.353  0.1151 -1.9143 -0.9429
 8304SOL    HW225812   4.899   3.826   4.489  1.6498  1.0909 -0.3907
 8305SOL     OW25813   2.373   1.702   5.742  0.1700  0.1401 -0.6191
 8305SOL    HW125814   2.344   1.787   5.700  0.2525  0.9994  0.9902
 8305SOL    HW225815   2.472   1.693   5.736  0.1709  0.2046 -0.6990
 8306SOL     OW25816   4.688   5.504   0.344 -0.2436 -0.1259 -0.1039
 8306SOL    HW125817   4.649   5.596   0.358 -0.8145 -0.4065  0.2154
 8306SOL    HW225818   4.766   5.510   0.283 -0.7818  0.4711 -0.7557
 8307SOL     OW25819   3.628   1.765   4.566 -0.2160 -0.0232  0.4946
 8307SOL    HW125820   3.693   1.811   4.627 -2.3408  0.7319  2.3480
 8307SOL    HW225821   3.569   1.705   4.620 -0.8151 -1.0129 -1.1802
 8308SOL     OW25822   6.658   4.695   4.272 -0.1678  0.3270  0.3401
 8308SOL    HW125823   6.623   4.728   4.360 -0.0030  0.2766  0.4249
 8308SOL    HW225824   6.588   4.707   4.202 -0.3926  0.1315  0.5310
 8309SOL     OW25825   4.318   1.436   3.620  0.1348  0.6047 -0.4934
 8309SOL    HW125826   4.391   1.462   3.683 -0.5851  0.9046  0.2345
 8309SOL    HW225827   4.240   1.402   3.672  0.0907 -0.5889 -1.3042
 8310SOL     OW25828   5.390   5.890   3.475  0.3351 -0.4377 -0.4042
 8310SOL    HW125829   5.442   5.805   3.469  0.6133 -0.3982  1.0810
 8310SOL    HW225830   5.297   5.875   3.441  0.5503 -1.1831 -0.6804
 8311SOL     OW25831   2.382   0.122   1.935 -0.3626  0.0254 -0.0660
 8311SOL    HW125832   2.420   0.192   1.874 -0.2507  0.3859  0.4131
 8311SOL    HW225833   2.323   0.060   1.882 -1.1705  0.9965 -0.3356
 8312SOL     OW25834   6.776   1.206   4.864  0.6892  0.2999 -0.3715
 8312SOL    HW125835   6.750   1.221   4.768  0.6904  0.4078 -0.3552
 8312SOL    HW225836   6.742   1.282   4.919  0.6433  0.2103 -0.2782
 8313SOL     OW25837   5.127   1.601   1.586 -0.8811  0.4283  0.0715
 8313SOL    HW125838   5.224   1.606   1.561 -0.5289  0.8595  1.4181
 8313SOL    HW225839   5.097   1.506   1.580  0.5718 -0.3217  2.7511
 8314SOL     OW25840   5.225   0.270   2.098  0.0009  0.1977 -0.2483
 8314SOL    HW125841   5.151   0.326   2.062  0.0237  0.9438  0.8333
 8314SOL    HW225842   5.265   0.315   2.178  1.6362 -0.1649 -0.8174
 8315SOL     OW25843   0.660   6.546   4.535 -0.4328 -0.3653 -0.1736
 8315SOL    HW125844   0.640   6.453   4.566  0.5393 -0.6476 -0.3754
 8315SOL    HW225845   0.579   6.583   4.489 -0.3334 -1.7109 -1.5235
 8316SOL     OW25846   4.868   1.512   5.100 -0.2639  0.3153  0.3384
 8316SOL    HW125847   4.883   1.499   5.002 -1.3583  2.8766 -0.2579
 8316SOL    HW225848   4.770   1.512   5.119 -0.0648  0.0334  1.4308
 8317SOL     OW25849   5.297   2.939   0.518 -0.2259 -0.0000 -0.4394
 8317SOL    HW125850   5.210   2.899   0.491 -0.3888 -0.5349  0.8345
 8317SOL    HW225851   5.371   2.877   0.492 -0.3755 -0.4759  0.2481
 8318SOL     OW25852   3.436   1.976   2.441  0.2889  0.0875  0.4762
 8318SOL    HW125853   3.365   2.005   2.376  0.6555  0.2191  0.1364
 8318SOL    HW225854   3.410   2.007   2.533  0.6601  1.5052  0.1290
 8319SOL     OW25855   2.382   0.746   1.959 -0.2570 -0.3391  0.2021
 8319SOL    HW125856   2.463   0.781   1.911 -0.9661  0.0489 -0.7281
 8319SOL    HW225857   2.367   0.801   2.041  0.0665 -0.0162  0.0528
 8320SOL     OW25858   4.949   0.991   4.343 -0.3893 -0.3712 -0.6353
 8320SOL    HW125859   4.988   0.908   4.302  0.5948 -0.6754  0.8383
 8320SOL    HW225860   4.882   0.965   4.412 -0.1040  0.0550 -0.1913
 8321SOL     OW25861   0.367   6.671   5.804  0.7506  0.1955  0.4325
 8321SOL    HW125862   0.405   6.735   5.738  2.8879 -0.0971  1.2993
 8321SOL    HW225863   0.269   6.689   5.816  0.4754  0.7598 -2.1581
 8322SOL     OW25864   3.947   2.676   1.201 -0.2991 -0.7647 -0.2250
 8322SOL    HW125865   3.863   2.650   1.249 -0.9830 -0.0871 -1.0323
 8322SOL    HW225866   4.007   2.726   1.264 -0.5234 -1.1880  0.3343
 8323SOL     OW25867   5.997   0.393   6.397  0.4818  0.3295  0.5411
 8323SOL    HW125868   6.016   0.304   6.437  1.5091  0.3987  0.2335
 8323SOL    HW225869   6.000   0.463   6.468  0.6386  0.2399  0.6232
 8324SOL     OW25870   6.649   5.962   3.511  0.6249 -0.2652  0.4722
 8324SOL    HW125871   6.621   5.873   3.475 -0.6721  0.1126  0.5022
 8324SOL    HW225872   6.695   5.948   3.599 -1.3671 -0.8059  1.4945
 8325SOL     OW25873   4.558   3.178   6.658  0.4846  0.1888 -0.2115
 8325SOL    HW125874   4.591   3.113   6.726  0.2626  1.2023  0.8816
 8325SOL    HW225875   4.472   3.219   6.689  0.6373  1.0405 -0.8650
 8326SOL     OW25876   0.852   6.824   6.462  0.1945  0.3300  0.5305
 8326SOL    HW125877   0.887   6.736   6.492  1.8174  0.4336 -0.8743
 8326SOL    HW225878   0.844   6.886   6.540 -0.3915 -0.8534  1.4265
 8327SOL     OW25879   6.193   4.972   3.696  0.6946 -0.1183  0.5509
 8327SOL    HW125880   6.252   5.040   3.738 -0.9735  0.0908  2.7425
 8327SOL    HW225881   6.156   4.911   3.767 -0.9643 -0.7997 -0.8160
 8328SOL     OW25882   6.157   0.653   2.568  0.3053 -0.2413 -0.4449
 8328SOL    HW125883   6.249   0.626   2.539  1.0729 -0.5265  1.9995
 8328SOL    HW225884   6.115   0.577   2.619  0.0670  1.0065  1.3025
 8329SOL     OW25885   2.564   1.739   4.128 -0.4092  0.1571  0.3176
 8329SOL    HW125886   2.504   1.663   4.104 -0.3535  0.3440 -0.4342
 8329SOL    HW225887   2.588   1.733   4.225  1.5160 -2.1747 -0.2078
 8330SOL     OW25888   1.700   2.643   0.105 -0.2758  0.1175  0.2688
 8330SOL    HW125889   1.624   2.707   0.114 -0.8197 -0.3933 -0.5566
 8330SOL    HW225890   1.762   2.653   0.183 -0.5541  1.3733  0.3431
 8331SOL     OW25891   2.897   0.090   1.603 -0.4002 -0.0450 -0.0933
 8331SOL    HW125892   2.913   0.121   1.509  4.6251  1.0897  0.8704
 8331SOL    HW225893   2.891   0.170   1.664 -1.8835 -0.8216  0.8481
 8332SOL     OW25894   2.173   5.059   3.083 -1.0387 -0.0013  0.1096
 8332SOL    HW125895   2.159   4.997   3.006 -1.6777  1.4725 -1.0053
 8332SOL    HW225896   2.268   5.055   3.112 -0.8425 -0.7464 -0.6034
 8333SOL     OW25897   0.783   0.478   2.395  0.0520 -0.8325 -0.7987
 8333SOL    HW125898   0.792   0.454   2.491  1.1123 -0.1094 -0.7034
 8333SOL    HW225899   0.738   0.403   2.346  0.1887 -1.5280  0.1150
 8334SOL     OW25900   0.477   2.443   6.719 -0.0081 -0.1461  0.5819
 8334SOL    HW125901   0.498   2.445   6.621 -0.3178  0.5549  0.5207
 8334SOL    HW225902   0.392   2.393   6.734 -0.6686  0.8689  0.3375
 8335SOL     OW25903   5.411   5.122   1.119  0.7223 -0.0973  0.5646
 8335SOL    HW125904   5.472   5.076   1.184  0.3056 -1.5746 -0.0386
 8335SOL    HW225905   5.405   5.219   1.142  2.9629  0.0264  0.8891
 8336SOL     OW25906   2.867   1.744   0.202 -0.1910  0.2162 -0.1352
 8336SOL    HW125907   2.860   1.841   0.180 -1.1459  0.6158  1.7172
 8336SOL    HW225908   2.776   1.702   0.195 -0.0817 -0.1622  0.6112
 8337SOL     OW25909   6.301   5.962   4.736 -0.3483  0.1808  0.4231
 8337SOL    HW125910   6.322   5.865   4.722 -0.6369  0.0783  0.6992
 8337SOL    HW225911   6.386   6.014   4.741 -0.1979 -0.0083 -0.0716
 8338SOL     OW25912   0.106   5.969   4.362 -0.1108  0.4878  0.0631
 8338SOL    HW125913   0.178   5.928   4.307 -1.3048 -1.4775 -0.1763
 8338SOL    HW225914   0.017   5.944   4.324 -1.0220 -1.4799  3.0823
 8339SOL     OW25915   4.011   4.132   5.992  0.1498 -0.3558 -0.8841
 8339SOL    HW125916   3.981   4.061   5.928  0.3075 -1.0066 -0.2510
 8339SOL    HW225917   3.942   4.142   6.065  0.1898  0.0504 -0.9014
 8340SOL     OW25918   0.799   1.879   1.934  0.0644 -0.3579 -0.3970
 8340SOL    HW125919   0.817   1.974   1.907 -0.8383 -0.0087  0.1898
 8340SOL    HW225920   0.851   1.858   2.017  0.9618 -0.6751 -1.0190
 8341SOL     OW25921   6.067   0.417   0.790 -0.9828  0.1217 -0.0368
 8341SOL    HW125922   6.055   0.398   0.888  1.3795  0.4629  0.3666
 8341SOL    HW225923   6.072   0.516   0.776  0.6203  0.0301 -0.2128
 8342SOL     OW25924   0.240   2.295   0.060 -0.0721  0.6817 -0.9759
 8342SOL    HW125925   0.292   2.363   0.112 -2.0964  2.1841 -0.7605
 8342SOL    HW225926   0.148   2.288   0.098 -0.8933  0.1210 -2.9179
 8343SOL     OW25927   2.138   1.059   0.514 -0.0444 -0.1132 -0.5786
 8343SOL    HW125928   2.142   1.071   0.415 -0.9938  1.9739 -0.4301
 8343SOL    HW225929   2.201   0.987   0.543 -1.4107 -2.4039 -2.9197
 8344SOL     OW25930   4.542   3.378   0.254  0.0033  0.4809 -0.1582
 8344SOL    HW125931   4.486   3.440   0.199 -1.1760 -0.4188 -0.0267
 8344SOL    HW225932   4.563   3.296   0.201  1.9764  1.1545 -0.5128
 8345SOL     OW25933   2.978   5.946   2.903 -0.4086 -0.2862  0.1631
 8345SOL    HW125934   2.880   5.964   2.911 -0.2149  0.8616  0.1465
 8345SOL    HW225935   3.003   5.869   2.962 -1.2074 -0.1930  0.6337
 8346SOL     OW25936   2.748   5.683   4.073  0.0494 -0.3274  0.1326
 8346SOL    HW125937   2.813   5.718   4.006 -0.5871 -0.7185 -0.7150
 8346SOL    HW225938   2.712   5.595   4.042 -1.2941  0.1335  0.2805
 8347SOL     OW25939   3.854   3.078   2.265 -0.2809  0.0673  0.2694
 8347SOL    HW125940   3.777   3.051   2.207 -0.5396  0.4417  0.4392
 8347SOL    HW225941   3.872   3.007   2.333 -0.9862  0.3382  0.7423
 8348SOL     OW25942   3.893   5.194   1.698  0.1448  0.1922 -0.5551
 8348SOL    HW125943   3.842   5.138   1.633  2.3178 -2.1896 -0.3675
 8348SOL    HW225944   3.880   5.157   1.791 -1.3695  2.3643  0.1764
 8349SOL     OW25945   6.021   4.323   2.425 -0.6744 -0.0590 -0.5718
 8349SOL    HW125946   6.033   4.281   2.515  2.1519  1.2458 -0.2319
 8349SOL    HW225947   6.045   4.256   2.354 -0.7956 -0.4386 -0.2624
 8350SOL     OW25948   6.391   0.089   1.907 -0.7840  0.0065  0.2475
 8350SOL    HW125949   6.448   0.010   1.929  1.2643  0.7672 -1.9197
 8350SOL    HW225950   6.355   0.080   1.814 -1.5987  1.0368  0.4344
 8351SOL     OW25951   3.163   5.278   6.935 -0.0323 -0.9333  0.3299
 8351SOL    HW125952   3.107   5.357   6.910  1.3742 -0.3397 -1.1124
 8351SOL    HW225953   3.118   5.194   6.905 -0.2995 -0.4893 -0.5415
 8352SOL     OW25954   2.415   2.171   5.196 -0.1877 -0.0584 -0.2036
 8352SOL    HW125955   2.360   2.241   5.151  1.8699  0.9319 -1.3639
 8352SOL    HW225956   2.420   2.090   5.138 -0.0116  0.0531 -0.3463
 8353SOL     OW25957   4.667   1.805   3.082  0.1945 -0.2407  0.1796
 8353SOL    HW125958   4.607   1.764   3.151  0.1209  0.6055  0.6243
 8353SOL    HW225959   4.760   1.812   3.119  0.4610 -0.9993 -0.2966
 8354SOL     OW25960   0.120   2.333   2.706  0.5216  0.0360  0.0463
 8354SOL    HW125961   0.071   2.368   2.786 -0.6457 -1.4840  0.0488
 8354SOL    HW225962   0.087   2.378   2.623 -0.7729 -0.8284  0.0708
 8355SOL     OW25963   5.414   1.343   3.350  0.2819 -0.2760 -0.2594
 8355SOL    HW125964   5.377   1.251   3.338 -1.0830  0.3571 -1.0655
 8355SOL    HW225965   5.468   1.368   3.270 -0.5699  0.1738 -0.7004
 8356SOL     OW25966   1.618   5.138   1.482 -0.4432 -0.1084  0.0941
 8356SOL    HW125967   1.628   5.236   1.467 -2.2170 -0.1048 -1.4940
 8356SOL    HW225968   1.705   5.092   1.463 -0.4232  0.8496 -2.5001
 8357SOL     OW25969   5.484   3.419   0.730  0.1780  0.8716 -0.0318
 8357SOL    HW125970   5.386   3.438   0.726 -0.4638 -0.8880  3.2201
 8357SOL    HW225971   5.526   3.474   0.802  0.2483 -2.3267  2.6142
 8358SOL     OW25972   2.361   5.807   6.354 -0.0985 -0.3951 -0.0970
 8358SOL    HW125973   2.424   5.746   6.305 -0.0032 -1.4154  1.2439
 8358SOL    HW225974   2.413   5.878   6.401  0.0843 -1.2324  1.0020
 8359SOL     OW25975   1.115   4.133   6.038  0.2329 -0.0877  0.0243
 8359SOL    HW125976   1.047   4.065   6.010  0.8297  0.1060 -2.0791
 8359SOL    HW225977   1.094   4.165   6.130 -1.3337 -1.5008  0.2086
 8360SOL     OW25978   6.820   2.292   4.600 -0.2996  0.1724 -0.0643
 8360SOL    HW125979   6.800   2.293   4.502  0.5662 -0.5498 -0.2632
 8360SOL    HW225980   6.915   2.264   4.614 -1.3996 -3.5604  1.1105
 8361SOL     OW25981   4.248   2.279   3.372  0.6168 -0.1765  0.1537
 8361SOL    HW125982   4.156   2.260   3.336  0.6809 -1.4028  0.5767
 8361SOL    HW225983   4.243   2.303   3.469  0.7135  0.1139  0.0883
 8362SOL     OW25984   4.241   6.028   1.502 -0.3863 -0.0075  0.6545
 8362SOL    HW125985   4.248   6.121   1.537 -3.0921  0.2489  0.7569
 8362SOL    HW225986   4.192   5.971   1.568 -1.4343 -0.7064 -0.6558
 8363SOL     OW25987   3.054   4.907   4.303 -0.2122  0.4241 -0.6603
 8363SOL    HW125988   3.040   5.006   4.299 -0.5896  0.3297 -1.8891
 8363SOL    HW225989   3.141   4.884   4.260  0.1936  0.2642  0.2083
 8364SOL     OW25990   0.490   4.001   0.795  0.6028 -0.5626 -0.0699
 8364SOL    HW125991   0.501   3.966   0.702  0.1361 -1.0250  0.0404
 8364SOL    HW225992   0.404   3.967   0.833  0.6534 -0.1425  0.4272
 8365SOL     OW25993   1.668   2.954   6.153  0.2202 -0.4350 -0.4654
 8365SOL    HW125994   1.727   3.034   6.153 -0.4746  0.1015 -1.6881
 8365SOL    HW225995   1.589   2.970   6.094 -0.8936 -1.3328  0.7203
 8366SOL     OW25996   4.750   6.810   3.533  0.1600 -0.0451 -0.0435
 8366SOL    HW125997   4.800   6.878   3.480 -1.0886  0.5087 -0.5536
 8366SOL    HW225998   4.785   6.719   3.511  0.3992  0.2600 -0.9984
 8367SOL     OW25999   1.109   5.735   4.345 -0.4161 -0.1166  0.1027
 8367SOL    HW126000   1.121   5.636   4.331 -1.0102 -0.5120  2.1324
 8367SOL    HW226001   1.018   5.762   4.314  0.0823  0.0217 -1.3447
 8368SOL     OW26002   6.659   2.218   5.279  0.0946  0.8470 -0.1289
 8368SOL    HW126003   6.693   2.181   5.365  1.9721 -0.1870 -1.2306
 8368SOL    HW226004   6.631   2.313   5.291  1.7635  1.2036  1.3040
 8369SOL     OW26005   5.399   5.156   6.564 -0.1205  0.4690 -0.0500
 8369SOL    HW126006   5.369   5.085   6.501 -0.6043 -0.3054  1.0153
 8369SOL    HW226007   5.436   5.233   6.513  0.0202 -0.3664 -1.2467
 8370SOL     OW26008   0.561   5.010   0.647  0.2361 -0.2597  0.0921
 8370SOL    HW126009   0.642   4.997   0.705 -0.1748 -0.4632  0.6281
 8370SOL    HW226010   0.495   4.937   0.666 -0.1695  0.0339 -0.1843
 8371SOL     OW26011   5.494   0.058   4.087 -0.0723  0.0039 -0.0720
 8371SOL    HW126012   5.497   0.024   3.993  1.3828  0.5738 -0.2495
 8371SOL    HW226013   5.408   0.030   4.129 -0.9555  0.1258 -1.7058
 8372SOL     OW26014   1.402   6.823   2.597  0.2946 -0.0221  0.1324
 8372SOL    HW126015   1.305   6.820   2.576  0.3532 -1.2941 -0.0403
 8372SOL    HW226016   1.415   6.825   2.696  0.0735 -2.8276  0.3011
 8373SOL     OW26017   6.266   4.222   2.172  0.3646  0.1388  0.1573
 8373SOL    HW126018   6.171   4.243   2.150  0.1657 -1.7075 -1.0129
 8373SOL    HW226019   6.270   4.137   2.225  1.4346 -1.2241 -1.9728
 8374SOL     OW26020   0.126   3.176   6.673 -0.4346  0.6744  0.2108
 8374SOL    HW126021   0.211   3.126   6.685  0.5429  2.2526  0.1606
 8374SOL    HW226022   0.075   3.137   6.596  0.9999  0.6608 -0.7723
 8375SOL     OW26023   0.389   3.712   6.145 -0.6070 -0.1926  0.1560
 8375SOL    HW126024   0.482   3.718   6.183 -0.8070  2.6470  0.4256
 8375SOL    HW226025   0.332   3.655   6.203  0.5679 -0.6389  0.8987
 8376SOL     OW26026   2.593   2.335   3.736 -0.0611 -0.0032 -0.0805
 8376SOL    HW126027   2.642   2.297   3.658  2.0885 -0.7016  1.5186
 8376SOL    HW226028   2.538   2.263   3.779  2.0240 -0.7685  1.4439
 8377SOL     OW26029   6.554   6.058   4.775 -0.4357  0.2751  0.2377
 8377SOL    HW126030   6.632   6.000   4.799 -0.1693  0.2755 -0.6157
 8377SOL    HW226031   6.586   6.140   4.727 -1.0183 -0.1187 -0.8558
 8378SOL     OW26032   1.065   6.547   3.465 -0.5577 -0.0287 -0.5636
 8378SOL    HW126033   1.044   6.622   3.402 -0.3873 -0.5229 -1.2238
 8378SOL    HW226034   0.982   6.495   3.483 -0.4595 -0.3439 -0.9978
 8379SOL     OW26035   0.821   0.610   2.729 -0.4343  0.9512 -0.3532
 8379SOL    HW126036   0.808   0.622   2.828 -1.4642 -1.1997 -0.1764
 8379SOL    HW226037   0.908   0.651   2.702  0.5211  0.4299  1.6997
 8380SOL     OW26038   6.431   0.025   0.073  0.0229  0.2844  0.3585
 8380SOL    HW126039   6.503   0.076   0.121  0.0171  0.4603  0.1797
 8380SOL    HW226040   6.361   0.088   0.041  0.4508  0.2733 -0.6312
 8381SOL     OW26041   4.135   0.530   5.859  0.0491  0.1132 -0.5889
 8381SOL    HW126042   4.177   0.576   5.781  0.2939  0.7970 -0.0639
 8381SOL    HW226043   4.099   0.441   5.830  0.7968  0.0342 -1.3080
 8382SOL     OW26044   4.382   6.614   2.589 -0.4133  0.1781  0.1092
 8382SOL    HW126045   4.436   6.638   2.509 -0.4406 -1.2727 -0.3692
 8382SOL    HW226046   4.288   6.647   2.577 -0.7424 -1.0785 -1.0391
 8383SOL     OW26047   4.058   1.744   5.014 -0.0423 -0.0704  0.2192
 8383SOL    HW126048   4.139   1.799   5.035  0.4732 -1.4841  2.2764
 8383SOL    HW226049   4.085   1.664   4.961 -0.3450  0.2193 -0.3786
 8384SOL     OW26050   5.121   6.888   1.295 -0.1956 -0.4274 -0.1496
 8384SOL    HW126051   5.121   6.791   1.269 -2.0662  0.0978 -2.4747
 8384SOL    HW226052   5.159   6.942   1.220 -0.6102  0.7653  0.4737
 8385SOL     OW26053   2.597   4.737   2.074  0.3236  0.1415 -0.7810
 8385SOL    HW126054   2.522   4.766   2.014  1.9978  3.0094 -1.6671
 8385SOL    HW226055   2.660   4.678   2.023 -0.9399 -1.7844 -0.2058
 8386SOL     OW26056   6.956   2.485   4.166 -0.2465 -0.4228  0.0090
 8386SOL    HW126057   6.884   2.471   4.098 -0.4992 -0.3612  0.2600
 8386SOL    HW226058   6.934   2.565   4.222  1.2839  1.1525 -1.5514
 8387SOL     OW26059   6.831   4.785   1.359 -0.0679  0.2694  0.3943
 8387SOL    HW126060   6.785   4.719   1.299  1.5926 -0.8597  0.2883
 8387SOL    HW226061   6.773   4.866   1.371 -0.9721 -0.0140 -1.7171
 8388SOL     OW26062   5.318   5.255   1.525 -0.0275 -0.3292  0.0111
 8388SOL    HW126063   5.312   5.347   1.488 -0.3382 -0.1683  0.4587
 8388SOL    HW226064   5.321   5.259   1.625 -2.7766 -0.9086  0.1859
 8389SOL     OW26065   4.333   6.253   2.577 -0.5911  1.0038 -0.0634
 8389SOL    HW126066   4.402   6.242   2.506 -1.3209  0.7837 -0.7519
 8389SOL    HW226067   4.292   6.164   2.597  0.4948  0.8321  1.5615
 8390SOL     OW26068   0.625   6.345   0.886  0.1984  0.2293 -0.1869
 8390SOL    HW126069   0.562   6.273   0.856 -1.8422  1.5296  0.7427
 8390SOL    HW226070   0.645   6.406   0.810 -0.6918  0.5127 -0.2048
 8391SOL     OW26071   6.999   0.245   2.023  0.3492 -0.0065  0.2136
 8391SOL    HW126072   7.056   0.314   1.978 -0.2229  0.1501 -0.2912
 8391SOL    HW226073   6.941   0.199   1.954  1.2862 -1.5562  0.4031
 8392SOL     OW26074   1.861   2.962   3.226  0.2410  0.2578 -0.3665
 8392SOL    HW126075   1.786   2.995   3.169 -0.9889 -0.0899  0.9740
 8392SOL    HW226076   1.892   2.873   3.193 -1.9886 -1.0184  0.7587
 8393SOL     OW26077   5.722   7.012   5.203  0.5500  0.0427 -0.2311
 8393SOL    HW126078   5.714   6.987   5.106  0.7464  2.1614 -0.8464
 8393SOL    HW226079   5.666   7.092   5.221  3.1222  1.8091  0.5427
 8394SOL     OW26080   2.972   1.890   5.008 -0.3689 -0.1326 -0.4271
 8394SOL    HW126081   3.057   1.928   5.043 -0.6391 -0.0882  0.1805
 8394SOL    HW226082   2.983   1.869   4.911  0.5865 -0.8599 -0.1707
 8395SOL     OW26083   2.737   3.785   0.965  0.0892  0.0742  0.1280
 8395SOL    HW126084   2.816   3.767   0.907 -1.5046 -0.6137 -1.9734
 8395SOL    HW226085   2.685   3.861   0.927 -1.3474 -0.8036  0.2632
 8396SOL     OW26086   4.244   0.316   3.599  0.4538  0.1119 -0.2559
 8396SOL    HW126087   4.320   0.291   3.659 -0.8816 -1.5383  0.8696
 8396SOL    HW226088   4.204   0.233   3.560  0.8893  1.0887 -3.0428
 8397SOL     OW26089   6.190   6.790   6.121 -0.1448 -0.5312  0.3869
 8397SOL    HW126090   6.285   6.787   6.149  0.0715  0.2690 -0.2238
 8397SOL    HW226091   6.184   6.798   6.021 -0.8441 -0.5523  0.4175
 8398SOL     OW26092   6.497   4.941   5.479 -0.0122  0.0644 -0.2310
 8398SOL    HW126093   6.445   4.955   5.395 -0.0571  0.8749 -0.0784
 8398SOL    HW226094   6.492   5.024   5.535 -0.7142 -0.7650  0.9771
 8399SOL     OW26095   2.153   5.808   1.550  0.0477 -0.7110  0.1261
 8399SOL    HW126096   2.174   5.724   1.599  0.0660 -1.6116 -1.3473
 8399SOL    HW226097   2.189   5.802   1.457  0.7485  1.2765  0.2335
 8400SOL     OW26098   2.049   2.472   3.410  0.2070 -0.2366 -0.1196
 8400SOL    HW126099   2.089   2.434   3.493 -0.3288 -0.1008  0.2063
 8400SOL    HW226100   1.957   2.507   3.430  0.4856  0.7671 -0.5319
 8401SOL     OW26101   1.756   1.300   1.636  0.3858 -0.4104  0.2415
 8401SOL    HW126102   1.686   1.369   1.620 -1.1651 -1.5717  1.6750
 8401SOL    HW226103   1.786   1.261   1.549  1.5861  2.2637 -0.6396
 8402SOL     OW26104   5.777   2.354   4.434  0.7842 -0.0876 -0.2271
 8402SOL    HW126105   5.708   2.368   4.364  0.2157 -1.3680  0.0546
 8402SOL    HW226106   5.842   2.431   4.433 -1.8279  2.3336  0.9397
 8403SOL     OW26107   4.317   1.120   2.255  0.3616 -0.3648 -0.5922
 8403SOL    HW126108   4.380   1.151   2.183  2.1443 -1.5373  0.3906
 8403SOL    HW226109   4.329   1.177   2.336 -0.9144  0.3017 -0.8423
 8404SOL     OW26110   5.403   6.935   5.238  0.2236  0.3222 -0.5414
 8404SOL    HW126111   5.434   6.968   5.149 -0.5455  2.0765 -0.2108
 8404SOL    HW226112   5.331   6.995   5.272 -0.7466 -1.3430  0.4822
 8405SOL     OW26113   1.250   0.673   0.283  0.4608 -0.5312 -0.4311
 8405SOL    HW126114   1.249   0.711   0.376  1.0345 -2.7944  0.5660
 8405SOL    HW226115   1.162   0.629   0.264  0.9446 -1.5905 -0.2669
 8406SOL     OW26116   2.748   5.255   2.006 -0.8127  0.5797  0.2423
 8406SOL    HW126117   2.694   5.210   2.077 -0.7807  0.5984  0.2786
 8406SOL    HW226118   2.810   5.189   1.965 -2.9518 -0.2565 -1.9023
 8407SOL     OW26119   3.473   3.148   5.253 -0.0937  0.0360 -0.0968
 8407SOL    HW126120   3.417   3.209   5.197 -2.9604  0.2539  2.7125
 8407SOL    HW226121   3.443   3.053   5.238  0.7170 -0.1509 -0.5780
 8408SOL     OW26122   2.390   0.958   5.183 -0.8473  0.1270 -0.2886
 8408SOL    HW126123   2.319   0.904   5.228 -0.9204 -0.3469 -0.9621
 8408SOL    HW226124   2.480   0.920   5.206 -0.8921 -0.2075 -0.6509
 8409SOL     OW26125   6.161   3.408   6.025  0.3848  0.1539 -0.1292
 8409SOL    HW126126   6.083   3.434   6.082  0.2565 -0.6172  0.0652
 8409SOL    HW226127   6.240   3.387   6.083  1.2178  2.3790 -0.3873
 8410SOL     OW26128   0.563   1.790   0.735  0.0630  0.2976 -0.2258
 8410SOL    HW126129   0.639   1.847   0.703  0.6546 -0.6150 -0.4988
 8410SOL    HW226130   0.541   1.722   0.665 -1.2769  0.7915 -0.3098
 8411SOL     OW26131   4.513   5.685   4.957  0.7969 -0.5720 -0.1576
 8411SOL    HW126132   4.507   5.603   4.901 -0.9465 -0.8424  0.3540
 8411SOL    HW226133   4.565   5.755   4.909  0.8985 -1.4077 -1.3092
 8412SOL     OW26134   4.207   2.283   2.122 -0.0995 -0.2140  0.8663
 8412SOL    HW126135   4.205   2.361   2.184  0.5052 -0.5168  1.2836
 8412SOL    HW226136   4.234   2.314   2.030 -2.8756  0.5505  0.2089
 8413SOL     OW26137   1.177   0.043   2.949 -0.2352 -0.3663  0.5178
 8413SOL    HW126138   1.083   0.035   2.983 -0.3524  1.0249  0.5796
 8413SOL    HW226139   1.176   0.077   2.855  0.2194  1.0842  1.0102
 8414SOL     OW26140   4.397   5.267   1.772 -0.4465 -0.1128  0.0956
 8414SOL    HW126141   4.308   5.225   1.791 -0.9478  1.2887  1.0612
 8414SOL    HW226142   4.470   5.209   1.806 -1.1221 -0.1648  1.5130
 8415SOL     OW26143   1.737   3.800   1.640 -0.2638 -0.2873  0.0612
 8415SOL    HW126144   1.827   3.801   1.597  0.2479  1.9942  1.0281
 8415SOL    HW226145   1.740   3.744   1.723  1.2359  2.2221  1.8255
 8416SOL     OW26146   5.504   6.081   1.827  0.3003 -0.0537  0.1862
 8416SOL    HW126147   5.524   6.087   1.729 -2.2532  1.6030 -0.3198
 8416SOL    HW226148   5.424   6.022   1.841  0.6083 -0.2304  1.2776
 8417SOL     OW26149   0.662   3.021   1.721  0.5190 -0.2119 -0.0299
 8417SOL    HW126150   0.564   3.005   1.707  0.2410  1.8480 -0.9098
 8417SOL    HW226151   0.715   2.956   1.667 -0.4565  0.9089 -2.4966
 8418SOL     OW26152   0.678   5.659   0.969 -1.0415  0.2502  0.2470
 8418SOL    HW126153   0.713   5.751   0.984  0.9614 -0.4003 -0.1137
 8418SOL    HW226154   0.743   5.592   1.005 -0.7436 -1.0934 -2.5084
 8419SOL     OW26155   1.929   1.711   4.318 -0.2417  0.0362  0.4032
 8419SOL    HW126156   2.013   1.743   4.275 -0.4513  0.5404  0.3552
 8419SOL    HW226157   1.870   1.790   4.337 -0.0017 -0.1199  1.9591
 8420SOL     OW26158   3.907   4.801   3.126  0.6047  0.1182  0.5331
 8420SOL    HW126159   3.889   4.898   3.110  0.2082  0.0091  0.2941
 8420SOL    HW226160   3.939   4.759   3.041 -2.8092 -0.7658 -0.4902
 8421SOL     OW26161   4.138   5.022   1.284  0.1699  0.4284  0.0539
 8421SOL    HW126162   4.129   5.074   1.369 -0.7056 -0.0873  0.2851
 8421SOL    HW226163   4.047   5.002   1.247  0.4584 -1.3007  0.1959
 8422SOL     OW26164   6.236   4.632   0.368  0.5089  0.5606  0.2855
 8422SOL    HW126165   6.275   4.723   0.382  0.9411  0.7492 -1.8004
 8422SOL    HW226166   6.161   4.637   0.302 -0.0003 -0.4861  0.7542
 8423SOL     OW26167   5.704   5.197   1.016 -0.0501  0.3237 -0.7146
 8423SOL    HW126168   5.792   5.204   0.968  0.0449  0.3434 -0.5356
 8423SOL    HW226169   5.642   5.267   0.980  0.3248  0.9467 -0.1636
 8424SOL     OW26170   4.247   1.612   5.855 -0.1939  0.5667 -0.0905
 8424SOL    HW126171   4.305   1.673   5.802 -0.8503  0.5291 -0.8724
 8424SOL    HW226172   4.256   1.634   5.952  1.5290  0.1825 -0.1452
 8425SOL     OW26173   6.140   0.798   2.103  0.1133 -0.7082 -0.3850
 8425SOL    HW126174   6.124   0.868   2.034  0.1164 -1.5966 -1.3013
 8425SOL    HW226175   6.149   0.841   2.193  0.2009  0.4674 -0.9454
 8426SOL     OW26176   3.129   0.638   1.302  1.0979 -0.0000 -0.0837
 8426SOL    HW126177   3.171   0.597   1.383 -1.0437 -1.6550  0.2585
 8426SOL    HW226178   3.188   0.711   1.267  2.2040  0.5848  2.7910
 8427SOL     OW26179   1.520   1.732   2.425  0.0362  0.0605 -0.4067
 8427SOL    HW126180   1.453   1.798   2.459 -0.4822 -0.4132 -0.4949
 8427SOL    HW226181   1.573   1.774   2.351  1.2703  1.1476  1.0273
 8428SOL     OW26182   5.745   6.450   3.056  0.5728 -0.7293  0.6811
 8428SOL    HW126183   5.737   6.446   3.155 -1.8712 -2.9772  0.4968
 8428SOL    HW226184   5.797   6.371   3.023  0.3057 -0.6602  0.0862
 8429SOL     OW26185   0.559   2.350   5.840 -0.3056 -0.3538 -0.8261
 8429SOL    HW126186   0.655   2.362   5.865 -0.6485  1.5295 -0.2365
 8429SOL    HW226187   0.551   2.337   5.741  0.3668  4.3297 -1.7606
 8430SOL     OW26188   1.882   4.771   0.980 -0.1769 -0.2692  0.2849
 8430SOL    HW126189   1.831   4.763   1.066 -0.6129 -1.6363 -0.0807
 8430SOL    HW226190   1.916   4.681   0.953  0.9711  0.3460 -0.3730
 8431SOL     OW26191   3.059   4.240   0.792  0.6136  0.1243 -0.2934
 8431SOL    HW126192   3.052   4.149   0.751 -0.9092 -0.1563  0.5375
 8431SOL    HW226193   3.099   4.232   0.883 -1.1325  0.0489  0.4895
 8432SOL     OW26194   5.624   4.808   1.189  0.3521  0.0349 -0.5681
 8432SOL    HW126195   5.705   4.751   1.207  0.4084  0.7264  1.7269
 8432SOL    HW226196   5.622   4.884   1.254 -2.6088 -0.4422  0.0138
 8433SOL     OW26197   5.771   3.108   3.871 -0.0019 -0.3515 -0.1877
 8433SOL    HW126198   5.743   3.110   3.775  0.4176  0.0723 -0.3056
 8433SOL    HW226199   5.779   3.013   3.902 -0.3157 -0.4870 -0.5184
 8434SOL     OW26200   4.723   6.794   6.761  0.1906  0.2747 -0.3152
 8434SOL    HW126201   4.637   6.833   6.730  0.6191  1.5982  0.1212
 8434SOL    HW226202   4.746   6.829   6.852  0.3411 -1.4010  0.3389
 8435SOL     OW26203   5.096   5.336   0.842 -0.4986 -0.1815 -0.3459
 8435SOL    HW126204   5.173   5.274   0.856 -0.3720  0.2338  0.9132
 8435SOL    HW226205   5.015   5.284   0.815 -0.2063 -0.8091 -0.0146
 8436SOL     OW26206   6.109   0.389   4.652  1.1760  0.3848  0.2549
 8436SOL    HW126207   6.170   0.440   4.592 -0.1912 -1.1540 -2.6182
 8436SOL    HW226208   6.079   0.305   4.607 -2.1702  0.4909  1.9127
 8437SOL     OW26209   3.415   6.280   4.426 -0.2048  0.7662  0.6876
 8437SOL    HW126210   3.356   6.339   4.481  0.3900  0.7907  1.3116
 8437SOL    HW226211   3.511   6.299   4.448 -0.0117 -0.6095  1.0948
 8438SOL     OW26212   6.689   1.205   6.685 -0.0275  0.1145  0.1908
 8438SOL    HW126213   6.729   1.216   6.776  1.2244 -0.9142 -0.2020
 8438SOL    HW226214   6.654   1.112   6.675  1.0619 -0.2144 -0.8189
 8439SOL     OW26215   0.713   0.673   5.447 -0.5632  0.3018 -0.4466
 8439SOL    HW126216   0.781   0.607   5.478 -0.9078 -0.0671 -0.4626
 8439SOL    HW226217   0.758   0.749   5.401 -0.3124 -1.2055 -2.8362
 8440SOL     OW26218   2.288   2.754   4.164  0.4211 -0.2541 -0.2151
 8440SOL    HW126219   2.278   2.801   4.076 -2.3803 -1.7561 -0.8144
 8440SOL    HW226220   2.355   2.680   4.155  0.3043 -0.2680 -1.0375
 8441SOL     OW26221   3.018   1.707   6.065 -0.3299 -0.5805  0.0425
 8441SOL    HW126222   2.981   1.678   5.977 -0.2749  0.4228 -0.3205
 8441SOL    HW226223   3.118   1.709   6.061 -0.3596  2.1347 -0.7877
 8442SOL     OW26224   1.194   3.782   4.064  0.5441  0.0344  0.2371
 8442SOL    HW126225   1.135   3.712   4.022 -0.4752  0.9837  0.0309
 8442SOL    HW226226   1.205   3.762   4.161 -2.5272  1.3372  0.9687
 8443SOL     OW26227   3.975   6.488   5.857 -0.1558  0.6320  0.0598
 8443SOL    HW126228   3.878   6.498   5.878  0.1037  2.6659  0.4990
 8443SOL    HW226229   3.989   6.497   5.758 -0.4053  0.3895  0.0013
 8444SOL     OW26230   4.158   3.770   5.732  0.0003  0.8745  0.4910
 8444SOL    HW126231   4.168   3.862   5.694  1.3840  0.3910 -0.4063
 8444SOL    HW226232   4.149   3.704   5.657 -1.9627  0.3490  1.1408
 8445SOL     OW26233   6.696   5.441   3.907  0.8521  0.3667  0.2197
 8445SOL    HW126234   6.733   5.354   3.875 -0.3313  0.1760 -0.7053
 8445SOL    HW226235   6.607   5.425   3.949  0.7070  1.1037  0.2034
 8446SOL     OW26236   1.609   4.486   2.332 -0.2663 -0.2816 -0.3079
 8446SOL    HW126237   1.649   4.496   2.424 -1.5782 -0.3164  0.2820
 8446SOL    HW226238   1.613   4.390   2.305  1.4276 -0.0710 -0.9185
 8447SOL     OW26239   3.308   5.894   6.154 -0.4555  0.5734 -0.3642
 8447SOL    HW126240   3.280   5.988   6.177  0.8855  1.0860 -0.7511
 8447SOL    HW226241   3.358   5.855   6.230 -0.3701  0.4362 -0.4915
 8448SOL     OW26242   5.391   4.467   3.792 -0.2244 -0.2547  0.2828
 8448SOL    HW126243   5.341   4.466   3.879  0.2224  0.6680  0.5669
 8448SOL    HW226244   5.444   4.552   3.786  0.6044 -0.8097 -0.4095
 8449SOL     OW26245   5.233   2.798   2.671  0.4536  1.0204  0.0152
 8449SOL    HW126246   5.305   2.814   2.603 -0.0061  0.4924 -0.6162
 8449SOL    HW226247   5.144   2.809   2.627  0.1470  0.5912  0.5242
 8450SOL     OW26248   0.396   6.560   3.367 -0.1899 -0.7300 -0.3304
 8450SOL    HW126249   0.352   6.528   3.283 -1.5206  1.7861 -0.6969
 8450SOL    HW226250   0.492   6.580   3.348 -0.6647  0.5967 -1.5196
 8451SOL     OW26251   0.327   4.580   2.815 -0.4541  0.5740  0.0258
 8451SOL    HW126252   0.257   4.509   2.809  1.9660 -1.8274 -2.7208
 8451SOL    HW226253   0.305   4.655   2.753  0.5813 -1.5197 -3.1387
 8452SOL     OW26254   3.897   0.448   4.107 -0.2911 -0.6942 -0.2115
 8452SOL    HW126255   3.877   0.460   4.204 -0.5766  0.6862 -0.4207
 8452SOL    HW226256   3.994   0.427   4.096 -0.4968 -2.1324  0.4383
 8453SOL     OW26257   6.042   0.809   0.659 -0.1308 -0.2813  0.4335
 8453SOL    HW126258   6.042   0.907   0.636 -0.5823 -0.5435 -0.7882
 8453SOL    HW226259   5.959   0.767   0.621  0.6298 -1.3614 -0.0654
 8454SOL     OW26260   0.596   0.202   4.411 -0.0411 -0.0186  0.0960
 8454SOL    HW126261   0.635   0.289   4.441  0.7329 -0.1130 -0.5872
 8454SOL    HW226262   0.567   0.149   4.490  1.2610  0.0513  0.6554
 8455SOL     OW26263   1.050   4.846   3.241 -0.5033  0.1258 -0.2445
 8455SOL    HW126264   1.114   4.901   3.188  0.2383  0.0250  0.5159
 8455SOL    HW226265   1.101   4.786   3.303 -1.3267 -0.2385  0.1036
 8456SOL     OW26266   1.862   2.721   5.345  0.3492 -0.5663 -0.0332
 8456SOL    HW126267   1.864   2.631   5.389 -1.2708 -0.1267  1.0346
 8456SOL    HW226268   1.956   2.754   5.332  1.0904 -3.1265 -2.0811
 8457SOL     OW26269   5.492   4.248   0.308  0.2668 -0.3802  0.5272
 8457SOL    HW126270   5.441   4.250   0.395  0.8002 -1.0700  0.8661
 8457SOL    HW226271   5.588   4.270   0.325  0.3422 -0.3594  0.0795
 8458SOL     OW26272   4.573   5.862   1.566 -0.0702 -0.1941  1.0543
 8458SOL    HW126273   4.528   5.862   1.655 -1.5990 -0.5997  0.3077
 8458SOL    HW226274   4.672   5.854   1.579 -0.3420 -1.5725  2.6842
 8459SOL     OW26275   6.452   3.248   2.620 -0.0817 -0.4151 -0.0042
 8459SOL    HW126276   6.397   3.331   2.623 -0.4526 -0.6831  0.7423
 8459SOL    HW226277   6.400   3.172   2.657  1.2690 -0.3822  2.1541
 8460SOL     OW26278   5.171   4.378   0.205  0.4852  0.3156  0.4356
 8460SOL    HW126279   5.170   4.365   0.305 -0.6488  0.3907  0.4485
 8460SOL    HW226280   5.128   4.299   0.162  0.1970  0.6748  0.0604
 8461SOL     OW26281   4.014   1.797   2.673  0.0630  0.1296  0.4478
 8461SOL    HW126282   3.925   1.827   2.640 -0.3828 -1.3232  0.2484
 8461SOL    HW226283   4.085   1.858   2.639 -0.8769  1.5466  0.9366
 8462SOL     OW26284   2.335   2.910   0.957 -0.2816  0.1020  0.1158
 8462SOL    HW126285   2.434   2.910   0.943 -0.4881  1.3314 -1.7353
 8462SOL    HW226286   2.298   2.820   0.935 -0.1026  0.9000 -4.4252
 8463SOL     OW26287   4.219   5.410   1.359  0.5692  0.4661  0.3273
 8463SOL    HW126288   4.202   5.366   1.270  1.2817  0.2087  0.3124
 8463SOL    HW226289   4.160   5.490   1.368  0.9443  0.8764 -0.6643
 8464SOL     OW26290   2.845   3.909   0.104  0.2855  0.0961  0.1403
 8464SOL    HW126291   2.801   3.829   0.062  2.5065 -0.8650 -0.5517
 8464SOL    HW226292   2.909   3.949   0.039  0.7502  1.1530  1.2149
 8465SOL     OW26293   1.729   1.866   0.255  0.7501 -0.5495  0.6706
 8465SOL    HW126294   1.633   1.877   0.228  1.4344  0.7703 -1.4497
 8465SOL    HW226295   1.747   1.921   0.336 -0.0032  0.1599  0.3702
 8466SOL     OW26296   6.723   6.024   6.642  0.2952  0.5770 -0.0021
 8466SOL    HW126297   6.765   6.091   6.703 -1.0379  0.4399  1.1193
 8466SOL    HW226298   6.676   5.954   6.696 -0.6694  0.2782 -1.1823
 8467SOL     OW26299   0.002   3.029   0.971 -0.0307  0.3864 -0.5469
 8467SOL    HW126300   0.019   3.126   0.957 -0.2495  0.9119  2.2704
 8467SOL    HW226301   0.085   2.984   1.004 -0.5390  0.1470  0.4466
 8468SOL     OW26302   3.728   1.858   1.953 -0.1472  0.7454 -0.3726
 8468SOL    HW126303   3.652   1.921   1.968  0.4111  1.1882  0.6984
 8468SOL    HW226304   3.692   1.767   1.932 -0.9617  1.0700 -0.4084
 8469SOL     OW26305   3.626   4.314   0.095  0.2605 -0.0287 -0.5408
 8469SOL    HW126306   3.618   4.226   0.048 -0.5329 -0.0607 -0.3608
 8469SOL    HW226307   3.716   4.322   0.136 -0.6328 -2.1174  2.1118
 8470SOL     OW26308   6.334   3.435   4.812 -0.2197 -0.1076 -0.4186
 8470SOL    HW126309   6.259   3.431   4.877 -0.1154  0.7238 -0.2243
 8470SOL    HW226310   6.354   3.531   4.791  0.2698 -0.3433 -1.0668
 8471SOL     OW26311   5.302   4.079   4.320 -0.1635 -0.0169 -0.1111
 8471SOL    HW126312   5.247   4.003   4.285 -0.7149 -0.0135  0.7359
 8471SOL    HW226313   5.354   4.049   4.400 -1.2758  0.7819  0.9501
 8472SOL     OW26314   2.354   2.699   1.944  0.2128  0.1318  0.1169
 8472SOL    HW126315   2.419   2.639   1.897 -0.7826 -0.0609 -1.0616
 8472SOL    HW226316   2.334   2.662   2.035  1.7343  0.2013  0.5082
 8473SOL     OW26317   6.963   0.171   1.266  0.2711 -0.4070 -0.3636
 8473SOL    HW126318   6.896   0.244   1.257  0.1317 -0.5519 -0.5203
 8473SOL    HW226319   7.021   0.169   1.185 -0.4452 -1.1819 -0.8693
 8474SOL     OW26320   0.964   1.604   0.833  0.5508 -0.3820 -0.1707
 8474SOL    HW126321   0.972   1.582   0.931 -0.4999 -0.9025 -0.1871
 8474SOL    HW226322   0.869   1.591   0.804  0.7690  0.1811 -1.1691
 8475SOL     OW26323   1.673   3.833   1.371 -0.0216 -0.1209 -0.0955
 8475SOL    HW126324   1.758   3.809   1.324 -0.2846 -1.2831 -0.0203
 8475SOL    HW226325   1.689   3.832   1.470  0.0556  0.3919 -0.1023
 8476SOL     OW26326   0.452   5.995   5.295  0.1937  0.8585  0.4655
 8476SOL    HW126327   0.495   5.979   5.384  1.2110 -0.6370 -0.2507
 8476SOL    HW226328   0.487   6.080   5.256  2.5184 -0.2767 -0.0608
 8477SOL     OW26329   1.671   5.348   4.879 -0.0362 -0.3725  0.8516
 8477SOL    HW126330   1.683   5.446   4.900  0.1461 -0.4105  0.9245
 8477SOL    HW226331   1.580   5.319   4.910  0.9742 -0.9354  3.5982
 8478SOL     OW26332   1.450   6.530   4.025 -0.0809  0.0022 -0.1024
 8478SOL    HW126333   1.526   6.466   4.037  0.6865  0.6037 -1.5282
 8478SOL    HW226334   1.366   6.489   4.061  0.9737 -0.4691  1.9882
 8479SOL     OW26335   1.832   5.205   5.049 -0.1901 -0.3701 -0.2127
 8479SOL    HW126336   1.829   5.286   4.992 -0.8170 -1.1568 -1.3365
 8479SOL    HW226337   1.799   5.228   5.141  0.9405  0.9316 -0.0984
 8480SOL     OW26338   2.868   4.876   4.833 -0.4413  0.0499 -0.0087
 8480SOL    HW126339   2.859   4.796   4.892  1.0123 -0.8271 -0.9072
 8480SOL    HW226340   2.777   4.914   4.815 -1.0859 -0.8769  1.1143
 8481SOL     OW26341   3.497   6.979   5.444 -0.5355 -0.0466  0.1345
 8481SOL    HW126342   3.539   6.943   5.528 -0.2480  0.8778  0.4081
 8481SOL    HW226343   3.398   6.984   5.456 -0.3365  2.4330  1.4292
 8482SOL     OW26344   6.306   5.153   1.346 -0.0216 -0.4154  0.2125
 8482SOL    HW126345   6.309   5.173   1.248  1.9367 -1.3671  0.0245
 8482SOL    HW226346   6.257   5.226   1.393 -0.4379  0.3932 -1.3951
 8483SOL     OW26347   6.328   2.892   2.158  0.3971  0.2969  0.0262
 8483SOL    HW126348   6.305   2.937   2.244  0.0955  1.2036 -0.5116
 8483SOL    HW226349   6.400   2.943   2.112 -0.0801  0.3400 -0.6873
 8484SOL     OW26350   1.831   5.763   2.983  0.0985  0.7367  0.1247
 8484SOL    HW126351   1.785   5.852   2.985  0.9538  1.1965 -0.2963
 8484SOL    HW226352   1.890   5.758   2.903 -0.6510 -0.5818 -0.3848
 8485SOL     OW26353   6.816   2.312   3.159 -0.0273 -0.1664  0.0374
 8485SOL    HW126354   6.750   2.268   3.098  0.3881  0.9073 -1.2337
 8485SOL    HW226355   6.838   2.250   3.234 -0.4635 -1.5966 -0.9672
 8486SOL     OW26356   5.371   2.175   6.074 -0.5296 -0.3625  0.2656
 8486SOL    HW126357   5.375   2.102   6.143 -1.1980 -1.1526 -0.5004
 8486SOL    HW226358   5.446   2.164   6.009  0.2613  0.5439  1.0056
 8487SOL     OW26359   1.272   0.114   3.294  0.0748 -0.3607 -0.5822
 8487SOL    HW126360   1.174   0.106   3.274 -0.0195  0.6358 -0.5509
 8487SOL    HW226361   1.284   0.139   3.390  0.4021 -1.3402 -0.3553
 8488SOL     OW26362   6.002   1.497   0.222  0.2395 -0.5769 -0.1458
 8488SOL    HW126363   5.912   1.506   0.265  0.1413  2.0292 -0.6866
 8488SOL    HW226364   6.042   1.409   0.247 -2.1864 -1.5796  0.5808
 8489SOL     OW26365   1.628   6.932   3.696  0.3730  0.2557  0.2130
 8489SOL    HW126366   1.546   6.882   3.723 -0.5085  0.7819 -1.3149
 8489SOL    HW226367   1.668   6.977   3.776  0.8427 -2.3037  1.5061
 8490SOL     OW26368   0.271   6.371   1.266  0.8748  0.3984 -0.2497
 8490SOL    HW126369   0.228   6.366   1.176  0.9823 -2.4358 -0.2404
 8490SOL    HW226370   0.200   6.382   1.336  0.5908  0.4123 -0.5392
 8491SOL     OW26371   5.709   2.577   6.506  0.2585  0.0576  0.2070
 8491SOL    HW126372   5.730   2.616   6.416 -0.9723 -0.8930 -0.5317
 8491SOL    HW226373   5.669   2.486   6.494 -0.9320  0.3501  1.6531
 8492SOL     OW26374   6.419   5.093   4.632  0.5876  0.2921 -0.0148
 8492SOL    HW126375   6.465   5.075   4.719  2.1450 -0.5457 -0.9629
 8492SOL    HW226376   6.334   5.143   4.649  0.9833  0.3845  1.9509
 8493SOL     OW26377   5.471   0.507   1.344  0.4656  0.0337  0.5550
 8493SOL    HW126378   5.485   0.439   1.272 -1.0279  0.2790  0.0047
 8493SOL    HW226379   5.527   0.588   1.324  2.3307 -1.0288  1.2696
 8494SOL     OW26380   4.324   2.308   4.090  0.2351 -0.2119  0.4455
 8494SOL    HW126381   4.235   2.269   4.114 -0.9293  0.6278 -2.0900
 8494SOL    HW226382   4.355   2.369   4.162 -2.1574  0.8596  0.6494
 8495SOL     OW26383   1.498   2.570   0.390 -0.0638 -0.0351  0.6345
 8495SOL    HW126384   1.497   2.485   0.337  0.1551  1.7582 -2.4836
 8495SOL    HW226385   1.570   2.564   0.459  0.9563 -1.8431 -0.4847
 8496SOL     OW26386   4.370   6.635   6.128 -0.5544 -0.2203  0.3650
 8496SOL    HW126387   4.270   6.632   6.132 -0.5633 -1.6117 -0.3452
 8496SOL    HW226388   4.408   6.577   6.201 -0.2820 -0.2106  0.2312
 8497SOL     OW26389   2.222   1.253   6.645 -0.5816  0.3843  0.4980
 8497SOL    HW126390   2.250   1.345   6.671 -0.0119  0.3989 -0.1492
 8497SOL    HW226391   2.288   1.215   6.580 -1.3841 -0.0746 -0.0659
 8498SOL     OW26392   4.902   2.513   5.117 -0.1672 -0.2265  0.1150
 8498SOL    HW126393   4.892   2.489   5.020  1.8715 -0.4412 -0.0936
 8498SOL    HW226394   4.997   2.540   5.134 -0.7505  0.8639  1.8451
 8499SOL     OW26395   6.061   1.404   4.407  0.2435  0.1348  0.0683
 8499SOL    HW126396   6.025   1.326   4.458  0.4497  0.3019  0.4792
 8499SOL    HW226397   6.087   1.477   4.471  1.3962 -0.0162 -0.2005
 8500SOL     OW26398   6.891   2.038   3.910  0.2408 -0.3848  0.4960
 8500SOL    HW126399   6.824   1.989   3.966 -1.5551  2.6023  1.1773
 8500SOL    HW226400   6.971   2.061   3.965 -0.8730  1.2435  1.5202
 8501SOL     OW26401   4.486   0.942   5.468  0.4009  0.4219 -0.1866
 8501SOL    HW126402   4.528   1.032   5.481  0.8090  0.2796 -0.4901
 8501SOL    HW226403   4.516   0.880   5.540 -0.9764  0.9031  0.8354
 8502SOL     OW26404   4.160   2.098   3.088  0.1624  0.5558  0.5408
 8502SOL    HW126405   4.220   2.042   3.145  0.9179  0.0460 -0.7157
 8502SOL    HW226406   4.108   2.039   3.027  0.4374  1.1691 -0.3069
 8503SOL     OW26407   4.657   0.357   5.751 -0.1217 -0.1200 -0.5492
 8503SOL    HW126408   4.721   0.380   5.678  0.4997  1.0629  0.3288
 8503SOL    HW226409   4.633   0.440   5.802 -2.8181 -0.4134 -1.1868
 8504SOL     OW26410   2.407   6.292   5.794 -0.3456 -0.0724  0.3290
 8504SOL    HW126411   2.465   6.315   5.716 -0.0311  0.4181  0.7070
 8504SOL    HW226412   2.315   6.269   5.761  0.4756 -2.5404 -0.4325
 8505SOL     OW26413   5.866   4.910   0.149 -0.7994 -0.3302 -0.3900
 8505SOL    HW126414   5.834   4.822   0.183 -1.6555 -0.7729 -2.1876
 8505SOL    HW226415   5.817   4.984   0.195 -0.4058 -0.7877  0.7973
 8506SOL     OW26416   0.893   3.843   4.390 -0.2706 -0.1806  0.2041
 8506SOL    HW126417   0.917   3.830   4.487 -0.2752 -0.7275  0.1352
 8506SOL    HW226418   0.797   3.821   4.377 -0.3835  0.3361  0.1572
 8507SOL     OW26419   6.099   6.786   3.671  0.4593  0.0394 -0.3912
 8507SOL    HW126420   6.108   6.709   3.735  0.9870  0.5724  0.1973
 8507SOL    HW226421   6.184   6.839   3.671  0.0140  0.7654 -0.6028
 8508SOL     OW26422   0.925   2.710   2.734 -0.3629 -0.1654 -0.3926
 8508SOL    HW126423   0.929   2.700   2.833 -0.2990 -0.7448 -0.4510
 8508SOL    HW226424   0.999   2.772   2.704  0.2212 -0.7419 -0.1724
 8509SOL     OW26425   4.367   2.519   6.807 -0.0656  0.0315  1.0536
 8509SOL    HW126426   4.273   2.487   6.792  0.2179  0.1535 -1.4555
 8509SOL    HW226427   4.365   2.611   6.847 -1.0952  0.8945 -0.8650
 8510SOL     OW26428   2.874   1.125   3.938  0.4913 -0.1365  0.0969
 8510SOL    HW126429   2.806   1.167   3.878  0.2696 -1.0943 -0.3465
 8510SOL    HW226430   2.881   1.027   3.917 -0.0492 -0.6461  2.0512
 8511SOL     OW26431   1.243   3.143   4.535  0.6434 -0.5519  0.1590
 8511SOL    HW126432   1.330   3.172   4.574  0.1417  2.0844 -0.5021
 8511SOL    HW226433   1.173   3.212   4.556 -0.6866 -1.3265 -1.5110
 8512SOL     OW26434   0.947   0.950   3.304 -0.1696  0.1434 -0.6073
 8512SOL    HW126435   0.983   1.038   3.273 -0.1691  0.3985  0.0836
 8512SOL    HW226436   0.927   0.956   3.402  0.6668 -0.9093 -0.3681
 8513SOL     OW26437   1.868   4.692   1.703 -0.7605  0.3670  0.0340
 8513SOL    HW126438   1.956   4.738   1.693  0.2337 -0.6695  2.9975
 8513SOL    HW226439   1.797   4.761   1.723 -0.1153  0.9815  0.2363
 8514SOL     OW26440   4.102   2.189   4.239 -0.1727  0.4600  0.2122
 8514SOL    HW126441   4.007   2.219   4.240 -0.5683 -0.7605  0.2903
 8514SOL    HW226442   4.126   2.153   4.329  0.4250  0.9337  0.2466
 8515SOL     OW26443   6.354   3.548   1.974  0.1254  0.2457 -0.0499
 8515SOL    HW126444   6.301   3.619   2.021  1.9108  2.5040 -1.2476
 8515SOL    HW226445   6.291   3.485   1.929 -1.6602  2.4687 -0.9299
 8516SOL     OW26446   6.955   5.485   5.255  0.1362 -0.0872  0.2695
 8516SOL    HW126447   6.859   5.457   5.245  0.3016 -0.6075  0.1214
 8516SOL    HW226448   6.999   5.429   5.326  0.4319 -0.1015  0.0746
 8517SOL     OW26449   3.654   4.009   3.436 -0.0915 -0.2532  0.6130
 8517SOL    HW126450   3.642   3.929   3.377 -0.7980  0.0940  0.2612
 8517SOL    HW226451   3.564   4.043   3.463  0.2211 -1.1810  2.9910
 8518SOL     OW26452   0.648   6.892   6.270  0.0919  0.6103  0.1749
 8518SOL    HW126453   0.707   6.864   6.345  0.9608  0.3570 -0.5754
 8518SOL    HW226454   0.685   6.975   6.227 -0.9189  1.3088  0.6157
 8519SOL     OW26455   3.398   0.991   3.536  0.8714  0.4343 -0.0007
 8519SOL    HW126456   3.306   0.974   3.572  0.5862 -0.3338 -1.0522
 8519SOL    HW226457   3.450   1.043   3.603 -0.3595  0.9737  0.5729
 8520SOL     OW26458   3.928   6.149   0.197  0.2144 -0.0489 -0.1489
 8520SOL    HW126459   3.865   6.221   0.228  0.1383 -1.2880  2.8565
 8520SOL    HW226460   3.877   6.065   0.182  0.9448 -0.7426  1.1333
 8521SOL     OW26461   6.340   6.780   2.623 -0.3008  0.1900  0.0543
 8521SOL    HW126462   6.427   6.783   2.574  0.1035 -0.7537  0.6863
 8521SOL    HW226463   6.279   6.851   2.587  1.7482  2.9289  1.5938
 8522SOL     OW26464   2.019   3.897   0.276 -0.3593 -0.2209 -0.0742
 8522SOL    HW126465   2.046   3.802   0.261  0.8269  0.2506 -1.1353
 8522SOL    HW226466   1.946   3.922   0.213  0.4791  0.0265 -0.9777
 8523SOL     OW26467   6.576   4.392   2.786 -0.1843 -0.6002  0.0615
 8523SOL    HW126468   6.560   4.358   2.694  0.4494  3.9705 -1.9817
 8523SOL    HW226469   6.493   4.381   2.841 -0.9566 -2.3135 -1.3646
 8524SOL     OW26470   2.980   3.993   0.331 -0.1612  0.4183  0.3018
 8524SOL    HW126471   2.909   3.993   0.261 -1.7152  0.1665  1.8202
 8524SOL    HW226472   3.049   4.062   0.309 -0.5450  0.2603 -1.5117
 8525SOL     OW26473   5.091   6.748   4.857  0.1633 -0.3739  0.0943
 8525SOL    HW126474   5.107   6.846   4.868  0.3333 -0.2145 -1.4109
 8525SOL    HW226475   5.018   6.720   4.919 -0.5103  0.8892 -0.0800
 8526SOL     OW26476   4.357   0.378   2.690  0.1562 -0.1338 -0.1852
 8526SOL    HW126477   4.389   0.470   2.712  0.0065 -0.0817 -0.1860
 8526SOL    HW226478   4.257   0.375   2.694 -0.0212  0.3473 -2.5920
 8527SOL     OW26479   0.258   1.636   1.207 -0.6632 -0.1076  0.4161
 8527SOL    HW126480   0.281   1.710   1.145  1.3902 -0.8387  0.2420
 8527SOL    HW226481   0.341   1.598   1.247 -1.7449 -1.5121  1.4561
 8528SOL     OW26482   1.378   5.349   0.532 -0.2514  0.6400 -0.2187
 8528SOL    HW126483   1.476   5.339   0.548 -0.7421 -3.4839  1.5901
 8528SOL    HW226484   1.334   5.387   0.613 -0.3564  0.2954 -0.1093
 8529SOL     OW26485   0.371   6.669   6.299  0.1246  0.3537 -0.1278
 8529SOL    HW126486   0.440   6.626   6.357  1.0289  1.6058 -0.2376
 8529SOL    HW226487   0.375   6.629   6.207  0.8565  0.5750 -0.1936
 8530SOL     OW26488   6.358   2.014   0.191 -0.2659 -0.1509 -0.2863
 8530SOL    HW126489   6.335   1.917   0.206  0.4716 -0.3236 -0.2572
 8530SOL    HW226490   6.440   2.020   0.135  0.3505  0.4555  0.6663
 8531SOL     OW26491   0.803   1.324   3.812 -0.8541  0.2144 -0.1650
 8531SOL    HW126492   0.781   1.421   3.803  0.0741  0.5813  1.3295
 8531SOL    HW226493   0.829   1.288   3.722 -1.7235  1.1976 -0.8418
 8532SOL     OW26494   0.792   4.496   2.106 -0.2212 -0.4001 -0.2725
 8532SOL    HW126495   0.805   4.443   2.023  0.9898 -0.6884  0.0823
 8532SOL    HW226496   0.879   4.534   2.136 -0.9590  1.4068 -0.2391
 8533SOL     OW26497   5.835   2.662   5.024 -0.1862 -0.3881 -0.0968
 8533SOL    HW126498   5.772   2.639   5.099  0.3033  1.0351  0.7959
 8533SOL    HW226499   5.888   2.743   5.049  0.6414 -0.4210 -1.6332
 8534SOL     OW26500   1.703   6.176   0.508  1.1528  0.4603  0.2764
 8534SOL    HW126501   1.724   6.094   0.455  0.9616  1.3723 -1.2768
 8534SOL    HW226502   1.641   6.234   0.456 -0.3924  0.6598  2.2285
 8535SOL     OW26503   6.475   1.398   5.308  0.4822 -0.1201  0.6907
 8535SOL    HW126504   6.402   1.397   5.241  0.5773  0.6879  0.5688
 8535SOL    HW226505   6.436   1.391   5.400  0.3212 -0.6957  0.5813
 8536SOL     OW26506   2.528   2.139   0.003 -0.1408  0.2595  0.3420
 8536SOL    HW126507   2.553   2.140  -0.094  0.0878  0.8039  0.4056
 8536SOL    HW226508   2.474   2.220   0.025 -0.1737  0.1470  0.6739
 8537SOL     OW26509   5.514   1.349   6.100 -0.4895  0.8220  0.0658
 8537SOL    HW126510   5.519   1.431   6.043  2.4221 -0.1719 -1.3251
 8537SOL    HW226511   5.549   1.369   6.191  0.8903  1.0124 -0.4847
 8538SOL     OW26512   3.822   5.906   0.743 -0.3276  0.0734  0.1207
 8538SOL    HW126513   3.768   5.986   0.713  0.3974  0.3468 -0.4735
 8538SOL    HW226514   3.761   5.839   0.785 -1.2409  0.0909 -1.1290
 8539SOL     OW26515   5.589   6.037   0.688 -0.5966  0.2614 -0.1737
 8539SOL    HW126516   5.626   6.061   0.777 -0.6213  3.3341 -0.8986
 8539SOL    HW226517   5.491   6.018   0.697 -0.6264  0.6815  0.4368
 8540SOL     OW26518   3.186   2.440   6.638 -0.2344  0.1497  0.1240
 8540SOL    HW126519   3.190   2.449   6.538  2.1459 -1.4535 -0.0023
 8540SOL    HW226520   3.275   2.411   6.672 -0.3944  2.5612  2.9880
 8541SOL     OW26521   3.596   3.167   3.840 -0.6324 -0.0634  0.7494
 8541SOL    HW126522   3.611   3.209   3.751 -0.4355  0.3490  0.9748
 8541SOL    HW226523   3.530   3.222   3.893 -0.9513 -0.4487  0.7600
 8542SOL     OW26524   0.962   1.406   6.458  0.2368 -0.1094 -0.5919
 8542SOL    HW126525   1.015   1.346   6.519  0.4208 -1.0918 -1.6873
 8542SOL    HW226526   0.934   1.355   6.377 -2.3122  0.3936 -0.1280
 8543SOL     OW26527   1.038   4.738   1.393 -0.3388  0.4270 -0.1988
 8543SOL    HW126528   1.064   4.648   1.357 -2.9149 -1.4812  2.2187
 8543SOL    HW226529   1.016   4.730   1.490  1.3306  4.2094  0.6704
 8544SOL     OW26530   4.813   2.978   2.360 -0.0406 -0.0839 -0.9313
 8544SOL    HW126531   4.829   3.051   2.293  1.0299 -1.0013 -1.7286
 8544SOL    HW226532   4.787   2.894   2.312 -2.1171 -0.0439  0.0316
 8545SOL     OW26533   3.065   3.114   0.540 -0.6894 -0.1281 -0.3885
 8545SOL    HW126534   3.139   3.089   0.604 -1.1591 -2.3005 -0.6263
 8545SOL    HW226535   3.100   3.112   0.447 -0.5246  1.0295 -0.3676
 8546SOL     OW26536   0.461   0.311   6.496  0.2010  0.0020  0.4158
 8546SOL    HW126537   0.527   0.386   6.487  0.8414 -0.5720  0.2835
 8546SOL    HW226538   0.427   0.286   6.406  1.6829 -1.3562  0.1955
 8547SOL     OW26539   0.731   6.184   6.540  0.3561 -0.8080 -0.3781
 8547SOL    HW126540   0.775   6.170   6.452 -0.4796  0.3318 -1.0075
 8547SOL    HW226541   0.799   6.213   6.607  0.7842 -0.3346 -1.0041
 8548SOL     OW26542   5.789   6.860   4.188  0.8761 -0.3731  0.8713
 8548SOL    HW126543   5.797   6.942   4.244  2.3392  0.1561 -0.0313
 8548SOL    HW226544   5.872   6.850   4.133  0.2844 -1.9047  0.2050
 8549SOL     OW26545   3.910   3.656   2.853 -0.2673  0.0618 -0.2761
 8549SOL    HW126546   3.947   3.745   2.879  0.4462 -0.1275 -0.6185
 8549SOL    HW226547   3.812   3.655   2.869 -0.1956  0.7162  0.2706
 8550SOL     OW26548   2.656   6.056   3.259  0.0852  0.2341 -0.2564
 8550SOL    HW126549   2.637   6.102   3.172 -1.3896  2.3081  1.0583
 8550SOL    HW226550   2.752   6.029   3.262  0.3126  0.6379 -2.2730
 8551SOL     OW26551   7.009   4.132   3.317  0.3028  0.3670 -0.2296
 8551SOL    HW126552   7.072   4.097   3.386  0.1895  0.5801 -0.0175
 8551SOL    HW226553   6.918   4.144   3.357  0.6363  2.1076  0.0496
 8552SOL     OW26554   4.303   3.178   0.013 -0.2097  0.1338 -0.1806
 8552SOL    HW126555   4.339   3.235  -0.061  0.8184  0.6507  0.6735
 8552SOL    HW226556   4.205   3.192   0.021 -0.2760  0.3563 -1.1956
 8553SOL     OW26557   5.265   3.471   1.116  0.0088 -0.3199 -0.1306
 8553SOL    HW126558   5.187   3.408   1.110  0.4836 -1.1287  1.6332
 8553SOL    HW226559   5.350   3.420   1.108  0.3839  0.4483 -1.1753
 8554SOL     OW26560   2.392   0.722   1.219 -0.4725 -0.4734 -0.2187
 8554SOL    HW126561   2.312   0.690   1.269 -0.8282 -0.2904 -0.6612
 8554SOL    HW226562   2.475   0.692   1.265 -0.7635  1.2108  1.5207
 8555SOL     OW26563   6.283   6.033   3.411 -0.0854 -0.0729  0.4049
 8555SOL    HW126564   6.328   6.030   3.322 -0.2540 -1.4244  0.3374
 8555SOL    HW226565   6.249   5.942   3.434  1.8131 -0.3100  2.7996
 8556SOL     OW26566   0.674   6.657   0.782  0.3204  0.2278 -0.1478
 8556SOL    HW126567   0.580   6.646   0.750  0.0892  0.3710  0.4673
 8556SOL    HW226568   0.731   6.693   0.708  0.0842 -0.6895 -0.7932
 8557SOL     OW26569   4.775   0.403   6.766  0.2350  0.3060  0.2161
 8557SOL    HW126570   4.709   0.472   6.796  0.5756  1.2961 -1.2468
 8557SOL    HW226571   4.858   0.448   6.732  0.0483 -0.7508 -1.7652
 8558SOL     OW26572   3.322   5.669   2.685  0.2548 -0.2199  0.0986
 8558SOL    HW126573   3.397   5.735   2.679 -0.1802  0.2676 -0.0820
 8558SOL    HW226574   3.358   5.577   2.673  0.8571 -0.0099  0.2373
 8559SOL     OW26575   1.163   0.223   6.605  0.2330 -0.4797 -0.1168
 8559SOL    HW126576   1.109   0.302   6.575  0.7751 -1.0272 -2.8366
 8559SOL    HW226577   1.249   0.255   6.646 -0.3292  0.3495  0.4400
 8560SOL     OW26578   6.328   0.103   6.248  0.0115  0.2847 -0.4992
 8560SOL    HW126579   6.378   0.107   6.162  0.8789 -0.8753 -0.0867
 8560SOL    HW226580   6.386   0.137   6.322  0.2206 -1.0525 -0.0194
 8561SOL     OW26581   3.395   0.773   4.261  0.5883  0.3370 -0.2966
 8561SOL    HW126582   3.296   0.781   4.270  0.4896 -1.7496  1.1388
 8561SOL    HW226583   3.438   0.862   4.276 -1.1172  1.6949 -2.7833
 8562SOL     OW26584   4.952   1.386   3.096 -0.6825 -0.3325  0.4940
 8562SOL    HW126585   4.965   1.321   3.171 -0.1815 -1.9904 -0.9667
 8562SOL    HW226586   5.006   1.468   3.113  0.1392 -1.0647  1.5005
 8563SOL     OW26587   2.973   6.542   1.961  0.2922 -0.1991  0.1164
 8563SOL    HW126588   2.951   6.480   1.885 -0.4957 -2.9401  2.4426
 8563SOL    HW226589   2.889   6.582   1.997  0.5349  0.0819  0.3774
 8564SOL     OW26590   6.355   2.330   0.508 -0.5262 -0.1508  0.3572
 8564SOL    HW126591   6.345   2.230   0.512 -0.7232 -0.1328  0.3034
 8564SOL    HW226592   6.417   2.353   0.432 -2.2163 -0.1218 -1.0745
 8565SOL     OW26593   4.062   6.306   4.169 -0.3930 -0.0188 -0.0370
 8565SOL    HW126594   4.023   6.214   4.163 -2.8371  1.0452 -1.7822
 8565SOL    HW226595   4.054   6.339   4.263 -1.3954 -0.7978  0.1726
 8566SOL     OW26596   4.180   5.356   6.731  0.2359  0.2474 -0.2838
 8566SOL    HW126597   4.206   5.260   6.727  0.3402  0.3117 -1.2059
 8566SOL    HW226598   4.104   5.373   6.668  1.0167  1.0145 -1.0287
 8567SOL     OW26599   3.505   2.933   4.854  0.2596  0.3632  0.2142
 8567SOL    HW126600   3.604   2.928   4.871  0.1830 -1.6386  0.2932
 8567SOL    HW226601   3.456   2.932   4.941  0.1447  1.6036  0.1849
 8568SOL     OW26602   2.636   1.388   1.128 -0.3310 -0.2330  0.3158
 8568SOL    HW126603   2.714   1.353   1.077  0.6063  0.7272  1.0652
 8568SOL    HW226604   2.603   1.472   1.085  0.1053  0.2690  0.9481
 8569SOL     OW26605   3.593   4.654   0.102  0.3147 -0.0852 -0.2199
 8569SOL    HW126606   3.685   4.637   0.137 -0.9891 -2.4344  2.4398
 8569SOL    HW226607   3.543   4.568   0.095 -2.3066  1.2801  0.4004
 8570SOL     OW26608   6.252   3.452   3.238  0.2261 -0.0407  0.4908
 8570SOL    HW126609   6.152   3.460   3.236  0.2743  0.5049 -0.2943
 8570SOL    HW226610   6.291   3.520   3.176  1.0496 -0.9213  0.0410
 8571SOL     OW26611   1.033   3.896   0.453 -0.2184 -0.1016 -0.1193
 8571SOL    HW126612   1.057   3.826   0.385 -0.8722  0.4743 -0.9568
 8571SOL    HW226613   1.054   3.861   0.544 -0.0983 -1.2154 -0.5517
 8572SOL     OW26614   3.507   0.986   6.011 -0.6256 -0.1861  0.5206
 8572SOL    HW126615   3.493   1.022   6.104  0.0446  1.0028  0.1797
 8572SOL    HW226616   3.591   1.025   5.973 -0.5006 -1.2436 -0.3170
 8573SOL     OW26617   3.665   5.035   5.046 -0.5300 -0.0776 -0.2265
 8573SOL    HW126618   3.613   4.963   5.092 -0.1478  0.5405  1.2417
 8573SOL    HW226619   3.757   5.001   5.025 -0.8555 -0.5150 -0.9925
 8574SOL     OW26620   2.663   5.383   5.160  0.2557 -0.5894  0.2939
 8574SOL    HW126621   2.698   5.310   5.101  0.6051 -0.1343 -0.0570
 8574SOL    HW226622   2.690   5.472   5.124 -1.5344 -0.2053 -0.1872
 8575SOL     OW26623   3.057   6.137   6.472  0.4207 -0.2889  0.3824
 8575SOL    HW126624   3.098   6.129   6.563  1.1451  2.8955  0.4631
 8575SOL    HW226625   3.129   6.132   6.403 -0.0271 -1.8594  0.0039
 8576SOL     OW26626   6.935   5.776   4.290  0.2268  0.3699 -0.2393
 8576SOL    HW126627   6.940   5.727   4.203  1.0964  0.0640 -0.0321
 8576SOL    HW226628   6.913   5.712   4.363 -2.0236  0.8679 -0.4108
 8577SOL     OW26629   1.140   2.410   1.027  0.0034  0.1769  0.2692
 8577SOL    HW126630   1.082   2.486   1.059 -0.9112 -0.4608  0.1481
 8577SOL    HW226631   1.123   2.329   1.083  1.1284  0.1007  0.5272
 8578SOL     OW26632   4.442   2.741   1.335  0.5795  0.1712  0.3783
 8578SOL    HW126633   4.445   2.827   1.284 -0.7899  0.0278  0.0155
 8578SOL    HW226634   4.476   2.757   1.428  1.5549  0.8009 -0.0636
 8579SOL     OW26635   5.563   1.998   6.366 -0.1546  0.5004 -0.3275
 8579SOL    HW126636   5.551   1.968   6.461 -0.5718 -1.4665 -0.9647
 8579SOL    HW226637   5.475   2.002   6.320  0.2196 -0.5656 -1.1856
 8580SOL     OW26638   6.150   6.267   3.242  0.2356 -0.5514 -0.5544
 8580SOL    HW126639   6.119   6.187   3.293  1.0246  0.3932  1.5638
 8580SOL    HW226640   6.226   6.310   3.292 -0.3651  1.6767 -1.4505
 8581SOL     OW26641   0.647   4.044   2.494  0.2001  0.0766  0.3643
 8581SOL    HW126642   0.614   3.964   2.445  0.2433 -0.0926  0.6063
 8581SOL    HW226643   0.591   4.059   2.576  0.5706 -0.0752  0.6501
 8582SOL     OW26644   4.270   1.278   1.742  0.1423  0.3296  0.4436
 8582SOL    HW126645   4.311   1.369   1.746  0.7199  0.0417  1.3776
 8582SOL    HW226646   4.340   1.210   1.719  0.3191 -0.2176  2.4185
 8583SOL     OW26647   1.999   0.888   5.691 -0.4603  0.1747  0.2553
 8583SOL    HW126648   1.931   0.907   5.761 -1.2530 -0.7083 -0.2556
 8583SOL    HW226649   1.992   0.955   5.618 -0.8214  0.0525  0.1785
 8584SOL     OW26650   3.884   1.346   5.684 -0.4924  0.0037 -0.1802
 8584SOL    HW126651   3.906   1.274   5.619 -1.3034  0.9850 -1.6219
 8584SOL    HW226652   3.965   1.403   5.700 -0.1856 -0.4728 -0.0252
 8585SOL     OW26653   3.857   2.971   2.920  1.0276  0.6239 -0.5170
 8585SOL    HW126654   3.867   2.952   3.018 -1.4392 -0.4236 -0.3999
 8585SOL    HW226655   3.883   3.066   2.902 -1.0787  1.7408  1.6952
 8586SOL     OW26656   1.466   0.269   3.684  0.6550  0.6435 -0.2740
 8586SOL    HW126657   1.434   0.200   3.619 -0.7607  0.5969  0.4309
 8586SOL    HW226658   1.416   0.354   3.670 -0.5472  0.2825  1.4953
 8587SOL     OW26659   6.971   6.528   1.856 -0.1027  0.6638 -0.2432
 8587SOL    HW126660   6.949   6.478   1.939  0.1367  3.1529  1.4300
 8587SOL    HW226661   6.887   6.568   1.818  0.1588  2.2623  0.7489
 8588SOL     OW26662   5.518   1.428   2.381  0.3854  0.5518  0.1932
 8588SOL    HW126663   5.452   1.353   2.371 -0.0606  1.1563 -2.0474
 8588SOL    HW226664   5.611   1.391   2.379  0.1628 -0.0062 -0.1923
 8589SOL     OW26665   3.854   3.654   4.818 -0.5093  0.3928  0.4153
 8589SOL    HW126666   3.862   3.749   4.789  0.0283  0.7253  1.5840
 8589SOL    HW226667   3.838   3.650   4.917 -0.9856 -0.7239  0.3170
 8590SOL     OW26668   0.769   1.302   5.683  0.1096  0.1726 -0.1221
 8590SOL    HW126669   0.802   1.215   5.645  2.3198  0.8735  0.0284
 8590SOL    HW226670   0.674   1.317   5.656 -0.8762 -3.0210  1.1538
 8591SOL     OW26671   3.971   4.855   1.879  0.0038  0.1254  0.1375
 8591SOL    HW126672   3.886   4.891   1.919 -1.0184 -2.4032  0.4656
 8591SOL    HW226673   4.037   4.929   1.868 -1.6584  1.8983  1.3910
 8592SOL     OW26674   1.764   3.517   3.143  0.3100 -0.4905 -0.4332
 8592SOL    HW126675   1.860   3.538   3.163  0.3043 -0.3903 -0.5073
 8592SOL    HW226676   1.758   3.430   3.095  0.3476 -0.5910 -0.2560
 8593SOL     OW26677   5.118   7.009   5.922 -0.3117  1.1101 -0.4134
 8593SOL    HW126678   5.065   7.004   6.006  1.4147  0.1611  0.6972
 8593SOL    HW226679   5.212   7.035   5.944  1.1187 -2.4812 -1.5266
 8594SOL     OW26680   3.933   3.972   3.481 -0.7151 -0.3404 -0.2714
 8594SOL    HW126681   3.848   4.023   3.465  0.0120  0.7554 -0.8226
 8594SOL    HW226682   3.943   3.953   3.579 -1.5770 -0.4570 -0.2033
 8595SOL     OW26683   5.021   1.217   0.616  0.1242 -0.0193 -0.5385
 8595SOL    HW126684   4.974   1.247   0.699 -2.2512 -0.4035 -1.6691
 8595SOL    HW226685   5.005   1.119   0.602  1.9676 -0.3618 -0.5874
 8596SOL     OW26686   3.423   0.639   3.298  0.1338  0.6243 -0.9667
 8596SOL    HW126687   3.454   0.700   3.371  0.0639 -0.1324 -0.2859
 8596SOL    HW226688   3.489   0.640   3.223  1.6917 -0.7097  0.3110
 8597SOL     OW26689   4.405   0.648   2.695  0.3276  0.2474 -0.3450
 8597SOL    HW126690   4.352   0.717   2.646 -0.9475  0.0288  0.6691
 8597SOL    HW226691   4.371   0.639   2.789  2.8370  0.8058  0.6993
 8598SOL     OW26692   1.613   4.968   5.889  0.3074 -0.0020 -0.1826
 8598SOL    HW126693   1.549   5.038   5.858  1.3854  0.6966 -0.9075
 8598SOL    HW226694   1.621   4.896   5.819 -1.7297 -1.5706  1.0668
 8599SOL     OW26695   2.070   5.300   1.958  0.1072  0.6234  0.2121
 8599SOL    HW126696   1.996   5.287   2.024 -1.2688 -0.3402 -1.4536
 8599SOL    HW226697   2.032   5.311   1.866  2.0164  0.5925 -0.6398
 8600SOL     OW26698   1.911   0.996   6.508 -0.4025 -0.4407 -0.6314
 8600SOL    HW126699   1.866   0.920   6.555  2.1947 -1.7174  0.0126
 8600SOL    HW226700   1.954   0.962   6.424 -1.4515  0.9363 -1.7603
 8601SOL     OW26701   6.742   3.446   1.500 -0.3517  0.7514 -0.3568
 8601SOL    HW126702   6.733   3.447   1.400  0.9666  1.7275 -0.4851
 8601SOL    HW226703   6.767   3.354   1.530  0.8842  0.8232 -1.1025
 8602SOL     OW26704   4.007   3.885   2.521 -0.3727  0.1643  0.0440
 8602SOL    HW126705   4.105   3.895   2.500 -0.5437  0.1404 -0.7899
 8602SOL    HW226706   3.982   3.788   2.517 -0.4678  0.1843  0.1280
 8603SOL     OW26707   2.752   5.869   3.518  0.3150  0.4003 -0.1716
 8603SOL    HW126708   2.757   5.787   3.576 -0.4618  1.4583  1.4804
 8603SOL    HW226709   2.842   5.912   3.515  1.5151 -1.9145 -3.3719
 8604SOL     OW26710   0.785   2.176   2.142  0.1666 -0.1855 -0.0786
 8604SOL    HW126711   0.697   2.191   2.187  0.7477 -1.4015  1.5932
 8604SOL    HW226712   0.772   2.167   2.044 -1.3629  1.1524 -0.0414
 8605SOL     OW26713   4.949   0.383   5.531 -0.3961  0.4534 -0.2106
 8605SOL    HW126714   4.937   0.299   5.584 -1.6954  0.6624 -0.1378
 8605SOL    HW226715   5.043   0.414   5.539 -0.1385 -0.4689  0.5573
 8606SOL     OW26716   0.262   4.620   4.050  0.5027  0.2305  0.1390
 8606SOL    HW126717   0.202   4.619   4.130 -0.2143 -0.5474 -0.3816
 8606SOL    HW226718   0.354   4.648   4.076  0.6770 -1.4982  1.5261
 8607SOL     OW26719   5.825   3.962   0.211 -0.0266 -0.0576  0.4409
 8607SOL    HW126720   5.768   4.021   0.154 -1.8104 -2.2715 -0.2216
 8607SOL    HW226721   5.773   3.930   0.290  1.1057 -0.2856  1.1300
 8608SOL     OW26722   4.021   5.104   6.021 -0.4153 -0.0168 -0.5459
 8608SOL    HW126723   4.063   5.138   5.937 -0.7332  1.9733  0.0556
 8608SOL    HW226724   3.922   5.103   6.011 -0.4220 -0.6631 -0.4906
 8609SOL     OW26725   5.894   3.335   1.065  0.2626  0.9416 -0.0861
 8609SOL    HW126726   5.862   3.257   1.118  0.0659 -1.7184 -3.8133
 8609SOL    HW226727   5.988   3.318   1.033 -0.5030  1.1959 -2.6616
 8610SOL     OW26728   3.532   1.091   5.673 -0.2134  0.1875  0.9210
 8610SOL    HW126729   3.578   1.027   5.610 -1.4327 -0.6933  0.8946
 8610SOL    HW226730   3.575   1.085   5.763 -0.2401 -0.5921  0.8896
 8611SOL     OW26731   6.391   1.104   5.423  0.4749 -0.4246  0.0949
 8611SOL    HW126732   6.307   1.131   5.376 -0.4375 -0.9223  1.3574
 8611SOL    HW226733   6.466   1.098   5.357 -0.7160 -1.0083 -1.2728
 8612SOL     OW26734   0.962   6.777   4.444  0.5097 -0.0851 -0.2589
 8612SOL    HW126735   0.918   6.706   4.389 -1.5339  1.5884 -0.9041
 8612SOL    HW226736   0.983   6.856   4.387 -0.5555  1.2256  1.0576
 8613SOL     OW26737   5.143   6.831   5.720  0.0620 -0.0569 -0.1085
 8613SOL    HW126738   5.150   6.904   5.789 -0.4087 -0.0130 -0.1038
 8613SOL    HW226739   5.220   6.838   5.656  0.7856 -0.4050  0.6997
 8614SOL     OW26740   2.940   4.139   5.206 -0.2107 -0.2914  0.2203
 8614SOL    HW126741   2.897   4.080   5.138 -2.4260 -0.0710  1.3311
 8614SOL    HW226742   3.036   4.114   5.216 -0.6161 -2.4486 -0.6883
 8615SOL     OW26743   2.453   0.834   3.704 -0.3172  0.2062  0.2501
 8615SOL    HW126744   2.392   0.761   3.735 -1.0053  0.8186  0.3631
 8615SOL    HW226745   2.466   0.900   3.778 -1.5065  1.3750 -0.5464
 8616SOL     OW26746   4.171   3.588   5.189 -0.3864 -0.6183 -0.1152
 8616SOL    HW126747   4.176   3.582   5.090  0.7444  0.1955 -0.1239
 8616SOL    HW226748   4.080   3.620   5.216  0.1336  1.8076 -1.0519
 8617SOL     OW26749   4.395   1.721   2.292  0.5497  0.4339 -0.1158
 8617SOL    HW126750   4.487   1.717   2.254  0.5330  1.2972 -0.2682
 8617SOL    HW226751   4.341   1.790   2.244  0.0237  0.4016  0.4055
 8618SOL     OW26752   0.973   1.224   5.383 -0.2907  0.3499  0.1072
 8618SOL    HW126753   0.930   1.246   5.296  0.7039  0.2651 -0.4252
 8618SOL    HW226754   1.073   1.222   5.371 -0.1961 -1.9434  0.6661
 8619SOL     OW26755   4.186   6.875   5.603  0.3097 -0.0007 -0.2735
 8619SOL    HW126756   4.279   6.839   5.612  0.7886  0.6209 -2.2286
 8619SOL    HW226757   4.150   6.898   5.694  2.0018 -0.3703  0.5302
 8620SOL     OW26758   1.154   2.370   5.589  0.0397 -0.2149  0.4371
 8620SOL    HW126759   1.230   2.427   5.559 -1.6445  1.5249 -0.8568
 8620SOL    HW226760   1.119   2.317   5.512 -0.7813 -0.0730  0.6957
 8621SOL     OW26761   4.970   3.682   4.153 -0.7090 -0.4626  0.1496
 8621SOL    HW126762   4.948   3.624   4.074 -1.7156 -0.5329  0.4705
 8621SOL    HW226763   4.956   3.630   4.237 -1.5188  0.1944  0.4397
 8622SOL     OW26764   3.278   1.551   5.798 -0.2460  0.1917 -0.3272
 8622SOL    HW126765   3.343   1.487   5.839 -0.8406 -0.9651 -1.1277
 8622SOL    HW226766   3.218   1.588   5.870  0.7098  0.5997  0.2797
 8623SOL     OW26767   0.269   3.251   1.882  0.1128  0.0774 -0.3342
 8623SOL    HW126768   0.221   3.279   1.965  0.0349  0.7196 -0.5904
 8623SOL    HW226769   0.216   3.181   1.835  0.8153 -1.3299  0.8622
 8624SOL     OW26770   0.576   0.527   0.076 -0.3259 -0.0588 -0.3478
 8624SOL    HW126771   0.622   0.468   0.009 -0.7404  1.5363 -2.1081
 8624SOL    HW226772   0.523   0.470   0.139  1.5731 -1.7405 -0.1349
 8625SOL     OW26773   4.750   4.873   3.379  0.1907 -0.3843 -0.2470
 8625SOL    HW126774   4.742   4.967   3.410 -2.5360 -0.4957 -0.4533
 8625SOL    HW226775   4.719   4.866   3.284  0.0133 -1.5493 -0.1202
 8626SOL     OW26776   2.331   3.364   0.100 -0.3074 -0.3045  0.1839
 8626SOL    HW126777   2.269   3.314   0.039  0.2787 -2.8486  1.5254
 8626SOL    HW226778   2.289   3.372   0.191  0.6972 -0.7488  0.7064
 8627SOL     OW26779   4.858   4.027   4.924 -0.1584 -0.3714  0.2382
 8627SOL    HW126780   4.907   3.985   4.848 -0.2005  1.7902 -1.0809
 8627SOL    HW226781   4.835   4.122   4.900  0.8128  0.7904  3.3958
 8628SOL     OW26782   5.752   3.954   5.663  0.5196 -0.7590  0.9976
 8628SOL    HW126783   5.721   3.970   5.757 -1.4185 -0.0100  0.2978
 8628SOL    HW226784   5.788   4.040   5.626  1.1140 -1.0090  0.9953
 8629SOL     OW26785   6.425   2.093   3.545  0.3185 -0.1230 -0.1212
 8629SOL    HW126786   6.343   2.044   3.574  0.3932  0.0824  0.4646
 8629SOL    HW226787   6.406   2.191   3.543  0.7161 -0.0236  0.6234
 8630SOL     OW26788   6.718   2.553   2.964  0.0073 -0.1892  0.2954
 8630SOL    HW126789   6.642   2.503   2.923  0.0830  0.1112 -0.2328
 8630SOL    HW226790   6.799   2.494   2.966  0.3217  0.1633 -1.0928
 8631SOL     OW26791   0.005   6.245   5.858  0.6721 -0.0928  0.3259
 8631SOL    HW126792   0.016   6.310   5.933  2.7157  0.0714 -0.0633
 8631SOL    HW226793   0.065   6.271   5.782 -0.6999 -0.7502 -1.0342
 8632SOL     OW26794   3.747   1.084   2.278 -0.0914  0.1559  0.5361
 8632SOL    HW126795   3.795   1.140   2.346 -1.0195 -1.0549  2.2559
 8632SOL    HW226796   3.653   1.116   2.269  0.2637  0.8858 -0.9142
 8633SOL     OW26797   6.332   6.210   6.798 -0.1161  0.2781  0.3033
 8633SOL    HW126798   6.362   6.141   6.733  0.8275  0.5142  0.4725
 8633SOL    HW226799   6.232   6.218   6.795 -0.3171 -1.5951  0.7999
 8634SOL     OW26800   0.017   4.836   2.521 -0.0311 -0.0493 -0.7492
 8634SOL    HW126801   0.074   4.768   2.475  1.4976  0.7343 -0.1188
 8634SOL    HW226802   0.023   4.824   2.620 -0.5875  0.3458 -0.6588
 8635SOL     OW26803   4.662   1.728   5.241 -0.2802 -0.2628  0.6676
 8635SOL    HW126804   4.632   1.801   5.178  1.3664  0.1679  0.3254
 8635SOL    HW226805   4.743   1.759   5.290  1.0075 -2.2009 -0.1468
 8636SOL     OW26806   1.588   1.417   0.934  0.8102 -0.2796 -0.2110
 8636SOL    HW126807   1.576   1.318   0.928 -1.2019 -0.1379  0.8593
 8636SOL    HW226808   1.590   1.445   1.030 -2.0963  1.0194 -0.4162
 8637SOL     OW26809   2.735   2.814   6.693 -0.2737 -0.1090  0.2246
 8637SOL    HW126810   2.819   2.795   6.642 -0.0156 -0.9808  0.9440
 8637SOL    HW226811   2.757   2.866   6.776 -0.3589 -0.7286  0.6515
 8638SOL     OW26812   2.076   4.450   4.948  0.2330  0.1817 -0.1443
 8638SOL    HW126813   2.106   4.355   4.937 -2.3928 -0.7744  0.1932
 8638SOL    HW226814   1.996   4.466   4.891  1.7115  2.8367 -1.6604
 8639SOL     OW26815   6.117   5.455   5.549 -0.4510 -0.6968  0.3869
 8639SOL    HW126816   6.042   5.520   5.555 -0.6146 -0.9374  0.9919
 8639SOL    HW226817   6.120   5.399   5.631  0.8244 -0.2277  0.6845
 8640SOL     OW26818   4.816   6.732   5.313  0.2046  0.2260  0.4134
 8640SOL    HW126819   4.807   6.643   5.356  1.4957 -0.7135 -1.1597
 8640SOL    HW226820   4.902   6.775   5.341  0.4289  0.1798 -0.1803
 8641SOL     OW26821   2.314   1.657   1.309 -0.3271 -0.1738 -0.6864
 8641SOL    HW126822   2.401   1.657   1.358 -0.6568 -2.7160  0.0849
 8641SOL    HW226823   2.245   1.704   1.365 -0.0273 -0.4624 -0.0577
 8642SOL     OW26824   4.876   2.158   4.253  0.5680 -0.9822 -0.7850
 8642SOL    HW126825   4.823   2.241   4.238  2.6834  0.7080  0.5251
 8642SOL    HW226826   4.889   2.143   4.351 -0.4522 -3.3744 -0.9498
 8643SOL     OW26827   5.838   4.564   3.013  0.1474  0.3412 -0.2462
 8643SOL    HW126828   5.785   4.539   3.095 -1.9129  0.6967 -1.3991
 8643SOL    HW226829   5.848   4.664   3.010  0.3885  0.3139 -0.3358
 8644SOL     OW26830   4.926   1.363   3.577  0.5903  0.4515 -0.2657
 8644SOL    HW126831   4.872   1.438   3.538  1.6284  0.9374 -0.8097
 8644SOL    HW226832   4.997   1.336   3.512  1.2744  0.1161  0.6108
 8645SOL     OW26833   4.360   2.072   1.489  0.5909 -0.0727  0.2719
 8645SOL    HW126834   4.388   1.976   1.483 -0.2575 -0.3146  0.0461
 8645SOL    HW226835   4.337   2.094   1.584  1.6277  0.1625  0.4814
 8646SOL     OW26836   6.785   1.030   1.944  0.0012 -0.4810 -0.7674
 8646SOL    HW126837   6.737   0.946   1.920  0.5637 -0.7552 -0.9603
 8646SOL    HW226838   6.864   1.008   2.001 -0.4519  0.0227  0.0726
 8647SOL     OW26839   4.216   4.659   2.701  0.4851  0.6760 -0.1453
 8647SOL    HW126840   4.229   4.589   2.630 -1.8048  1.5844 -1.5519
 8647SOL    HW226841   4.222   4.750   2.661 -1.5542  1.2121  0.6114
 8648SOL     OW26842   1.165   5.739   2.834  0.6437  0.2389  0.7445
 8648SOL    HW126843   1.121   5.650   2.846  0.0508  0.2559 -1.0051
 8648SOL    HW226844   1.251   5.728   2.785 -0.0863  0.7304 -0.6939
 8649SOL     OW26845   0.228   5.255   6.282 -0.2831 -0.0221 -0.3814
 8649SOL    HW126846   0.319   5.296   6.280 -0.9508  1.5730  0.4231
 8649SOL    HW226847   0.213   5.203   6.198  2.0772 -1.9952  0.2846
 8650SOL     OW26848   1.789   1.995   0.007  0.4195  0.1457 -0.3785
 8650SOL    HW126849   1.762   1.972   0.100  0.1716 -2.0913 -0.9626
 8650SOL    HW226850   1.889   1.996   0.000  0.4441 -1.1125 -0.3934
 8651SOL     OW26851   4.609   6.208   2.852 -0.6739 -0.1433 -0.1566
 8651SOL    HW126852   4.644   6.238   2.941  2.2930 -1.3471 -0.7782
 8651SOL    HW226853   4.531   6.264   2.825 -0.7123  1.2178  2.5032
 8652SOL     OW26854   4.617   4.328   4.180  0.0512 -0.4274 -0.4475
 8652SOL    HW126855   4.534   4.309   4.128  0.6369 -0.3267 -1.4385
 8652SOL    HW226856   4.679   4.385   4.126  0.2113  0.6174  0.7923
 8653SOL     OW26857   1.052   4.705   4.377 -0.2509 -0.7055  0.2807
 8653SOL    HW126858   1.059   4.789   4.431 -0.2572 -0.0744 -0.6629
 8653SOL    HW226859   1.022   4.630   4.435 -1.0376  0.1228  0.9847
 8654SOL     OW26860   2.257   4.094   2.594 -0.5496  0.2156 -0.3807
 8654SOL    HW126861   2.261   4.095   2.494  0.3938 -0.4012 -0.3593
 8654SOL    HW226862   2.179   4.039   2.624 -2.3190  2.3905 -0.7697
 8655SOL     OW26863   3.111   0.198   4.669 -0.1565 -0.4199 -0.1706
 8655SOL    HW126864   3.113   0.207   4.769  0.3945 -1.9163 -0.0203
 8655SOL    HW226865   3.067   0.279   4.630  2.3887  1.7567  1.0767
 8656SOL     OW26866   0.998   2.269   2.523 -0.5249 -0.1831 -0.1455
 8656SOL    HW126867   0.917   2.229   2.565 -2.4041  2.2320 -1.2368
 8656SOL    HW226868   1.012   2.362   2.557  1.4710 -0.3212 -0.4360
 8657SOL     OW26869   2.951   3.260   4.261 -0.8744  0.0564 -0.3952
 8657SOL    HW126870   2.949   3.250   4.162 -0.1985 -0.6287 -0.3525
 8657SOL    HW226871   2.973   3.355   4.285 -0.0024 -0.0067 -0.9143
 8658SOL     OW26872   3.747   2.264   0.912 -0.1547  0.0634 -0.1189
 8658SOL    HW126873   3.783   2.345   0.868  0.8301  0.8019  1.9348
 8658SOL    HW226874   3.803   2.184   0.888  1.2135  0.7028  0.8258
 8659SOL     OW26875   4.340   1.987   3.645  0.2362 -0.2323  0.4089
 8659SOL    HW126876   4.302   1.927   3.575 -1.0666  0.4980  0.4514
 8659SOL    HW226877   4.285   1.980   3.729  0.3027  0.7121  0.5398
 8660SOL     OW26878   0.529   0.676   6.725  0.4580 -0.2537  0.1821
 8660SOL    HW126879   0.552   0.733   6.805 -0.0470  0.1362  0.0583
 8660SOL    HW226880   0.521   0.581   6.754  2.2101 -0.4102  0.2216
 8661SOL     OW26881   5.791   1.571   6.247  0.1507  0.0601  0.4464
 8661SOL    HW126882   5.730   1.540   6.320 -1.9723 -0.6439 -1.4953
 8661SOL    HW226883   5.880   1.527   6.257  0.0559  0.2799  2.7744
 8662SOL     OW26884   5.707   0.474   6.576  0.1772  0.1596 -0.5231
 8662SOL    HW126885   5.683   0.482   6.479 -0.2850 -4.9262 -1.0960
 8662SOL    HW226886   5.628   0.439   6.626  1.9371 -2.8344  0.4259
 8663SOL     OW26887   5.556   6.649   6.021 -0.0259 -0.3885 -0.2515
 8663SOL    HW126888   5.461   6.669   5.998 -0.1311 -1.8413 -1.2356
 8663SOL    HW226889   5.568   6.550   6.030  1.2797 -0.1932  0.3963
 8664SOL     OW26890   6.245   5.783   6.614  0.4281 -0.1966  0.4084
 8664SOL    HW126891   6.275   5.691   6.639 -0.3812 -1.2315 -2.1157
 8664SOL    HW226892   6.145   5.786   6.613  0.4402  0.2318 -1.0330
 8665SOL     OW26893   4.837   2.257   5.289 -0.5234 -0.3942 -0.4218
 8665SOL    HW126894   4.789   2.328   5.341  0.6680  0.5769 -0.5968
 8665SOL    HW226895   4.858   2.292   5.197 -1.3448 -1.5696 -1.0781
 8666SOL     OW26896   3.840   3.953   2.709 -0.3026 -0.2258 -0.0912
 8666SOL    HW126897   3.909   3.942   2.638  0.5268 -0.3207  0.7075
 8666SOL    HW226898   3.884   3.949   2.799 -1.2363  0.5338  0.4207
 8667SOL     OW26899   2.036   0.264   1.153 -0.0625 -0.0405 -0.1579
 8667SOL    HW126900   2.058   0.172   1.185  1.9790  0.9970  1.6802
 8667SOL    HW226901   2.120   0.310   1.123 -1.1368  1.0480 -1.6856
 8668SOL     OW26902   3.450   6.196   4.151 -0.8184  0.0544 -0.7905
 8668SOL    HW126903   3.358   6.204   4.113 -0.4884  2.2640 -1.2724
 8668SOL    HW226904   3.449   6.225   4.247 -0.7435 -0.6661 -0.5656
 8669SOL     OW26905   5.262   5.251   6.296  0.5830  0.0944 -0.2211
 8669SOL    HW126906   5.245   5.167   6.347  2.7166 -0.3602 -0.1543
 8669SOL    HW226907   5.250   5.234   6.198 -1.0921  0.3145 -0.0767
 8670SOL     OW26908   1.944   3.113   2.902  0.3288  0.2443  0.3701
 8670SOL    HW126909   1.870   3.167   2.941 -1.1110 -1.0094 -0.5140
 8670SOL    HW226910   1.975   3.157   2.817  1.5419  1.4643  1.3976
 8671SOL     OW26911   5.977   2.040   0.543  0.3642 -0.5230 -0.3383
 8671SOL    HW126912   6.021   1.955   0.572 -0.0918 -0.6305  0.0600
 8671SOL    HW226913   6.017   2.071   0.457  0.8469 -0.8979 -0.2527
 8672SOL     OW26914   5.433   3.424   3.537 -0.4727 -0.0534  0.0016
 8672SOL    HW126915   5.354   3.485   3.529  0.6840  1.3486 -1.2041
 8672SOL    HW226916   5.444   3.372   3.453 -0.0579 -0.1647  0.1221
 8673SOL     OW26917   5.400   6.328   2.927 -0.3656  0.1353 -0.6842
 8673SOL    HW126918   5.386   6.412   2.979  1.0255 -1.3220  2.2661
 8673SOL    HW226919   5.471   6.343   2.858  1.2139  0.9871  1.0346
 8674SOL     OW26920   5.209   0.062   6.689 -0.0992  0.1145  0.4267
 8674SOL    HW126921   5.226  -0.029   6.727 -1.3517 -0.0759  0.5813
 8674SOL    HW226922   5.240   0.065   6.594 -2.1256 -1.2568 -0.3592
 8675SOL     OW26923   2.909   2.905   1.295  0.1888  0.1077 -0.1901
 8675SOL    HW126924   2.986   2.867   1.243  1.5809 -1.6884  2.9310
 8675SOL    HW226925   2.833   2.840   1.294 -0.5063  0.8961 -1.4111
 8676SOL     OW26926   0.829   2.211   3.151 -0.3988 -0.0691 -0.3317
 8676SOL    HW126927   0.844   2.127   3.203  0.8568 -0.3601 -1.1135
 8676SOL    HW226928   0.742   2.252   3.177 -0.0001 -0.4041  1.7127
 8677SOL     OW26929   0.848   0.287   2.615 -0.5413 -0.6269  0.9932
 8677SOL    HW126930   0.924   0.236   2.574  0.8934  1.8709  0.3850
 8677SOL    HW226931   0.876   0.318   2.706 -0.0630  1.8439  0.0603
 8678SOL     OW26932   3.788   4.540   5.370  0.0609  0.2304  0.5218
 8678SOL    HW126933   3.767   4.484   5.450  1.0068  0.0298  0.6371
 8678SOL    HW226934   3.881   4.521   5.339 -0.4284 -0.0158 -0.8941
 8679SOL     OW26935   2.408   2.157   3.841 -0.4542 -0.1346  0.5104
 8679SOL    HW126936   2.376   2.115   3.756 -0.3867  0.4321  0.2024
 8679SOL    HW226937   2.330   2.175   3.901 -0.8067  1.6437 -0.4157
 8680SOL     OW26938   4.391   1.518   1.423  0.5141 -0.3823  0.1331
 8680SOL    HW126939   4.487   1.493   1.427  0.8149  0.5249 -0.9228
 8680SOL    HW226940   4.363   1.527   1.328 -0.8474 -1.4398  0.3997
 8681SOL     OW26941   3.531   0.831   5.134 -0.0688  0.1800  0.5137
 8681SOL    HW126942   3.446   0.783   5.112  0.0024  1.0904 -2.0447
 8681SOL    HW226943   3.595   0.767   5.176 -1.3254 -0.9968  0.7072
 8682SOL     OW26944   1.089   2.657   7.016  0.1677 -0.4747  0.4862
 8682SOL    HW126945   1.081   2.564   6.978  0.2255 -0.1267 -0.4005
 8682SOL    HW226946   1.045   2.722   6.954 -0.6877 -0.0131  1.5640
 8683SOL     OW26947   2.421   4.862   5.755 -0.0705 -0.2008 -0.8670
 8683SOL    HW126948   2.438   4.820   5.844  0.5794  1.5363 -0.1340
 8683SOL    HW226949   2.337   4.915   5.758  0.1810  0.2208 -1.1529
 8684SOL     OW26950   3.227   0.268   1.363 -0.2505  0.2432  0.1070
 8684SOL    HW126951   3.309   0.213   1.377 -0.0798  0.4231 -0.1818
 8684SOL    HW226952   3.226   0.344   1.427  0.3901  0.9050 -0.6553
 8685SOL     OW26953   0.650   3.770   6.859  0.1613  0.0549  0.0533
 8685SOL    HW126954   0.558   3.747   6.890  0.0259 -0.2449 -0.5547
 8685SOL    HW226955   0.649   3.784   6.759  0.6624  0.6074  0.1183
 8686SOL     OW26956   6.319   4.331   6.043 -0.2230 -0.7054 -0.2495
 8686SOL    HW126957   6.247   4.308   6.109 -0.1030  0.6644  0.4035
 8686SOL    HW226958   6.347   4.426   6.057  1.0106 -0.9137 -1.1707
 8687SOL     OW26959   3.870   3.493   3.267 -0.2664 -0.0194  0.0900
 8687SOL    HW126960   3.927   3.552   3.209  1.6737 -2.0241 -0.1907
 8687SOL    HW226961   3.926   3.457   3.342 -1.1799 -1.9846 -0.1182
 8688SOL     OW26962   3.923   5.367   0.759  0.1135 -0.0756 -0.5054
 8688SOL    HW126963   3.918   5.466   0.745 -1.1217 -0.2547 -1.3849
 8688SOL    HW226964   3.889   5.320   0.679 -0.6098 -1.2137  0.4448
 8689SOL     OW26965   6.328   4.721   6.636 -0.0201 -0.5404  0.2033
 8689SOL    HW126966   6.359   4.629   6.660 -1.1557 -0.8888  0.3721
 8689SOL    HW226967   6.265   4.716   6.558 -0.9788 -0.0419  0.9170
 8690SOL     OW26968   2.492   1.780   3.173  0.1490  0.0536 -0.2654
 8690SOL    HW126969   2.462   1.749   3.263  0.2396  0.3342 -0.1371
 8690SOL    HW226970   2.483   1.879   3.167 -0.0274  0.0156 -0.6313
 8691SOL     OW26971   1.214   2.261   6.155 -0.2368 -0.2375  0.2759
 8691SOL    HW126972   1.169   2.174   6.177 -2.0985  1.1112  2.2573
 8691SOL    HW226973   1.170   2.301   6.075 -0.6695 -0.2537  0.5014
 8692SOL     OW26974   5.663   2.479   2.730 -0.2288 -0.2586  0.0869
 8692SOL    HW126975   5.693   2.386   2.749  0.6394 -0.7600 -3.1934
 8692SOL    HW226976   5.731   2.526   2.674 -1.8174  1.4809 -0.4981
 8693SOL     OW26977   3.308   0.297   1.863  0.1619 -0.4878  0.0383
 8693SOL    HW126978   3.341   0.265   1.774  3.0588 -0.8399  1.1519
 8693SOL    HW226979   3.309   0.221   1.928 -0.2296  0.1697  0.8358
 8694SOL     OW26980   2.397   6.611   3.282  0.0999 -0.3653  0.1472
 8694SOL    HW126981   2.440   6.522   3.269 -0.4281 -0.3795 -1.9451
 8694SOL    HW226982   2.444   6.661   3.355  1.4920 -1.6808  0.2055
 8695SOL     OW26983   2.925   3.481   3.469 -0.0662  0.1430  0.3928
 8695SOL    HW126984   3.024   3.469   3.459 -0.0595  1.1954 -1.1098
 8695SOL    HW226985   2.888   3.522   3.386 -1.5862  0.9345  1.4207
 8696SOL     OW26986   6.941   6.022   5.498 -0.0319  0.8488 -0.8723
 8696SOL    HW126987   6.844   6.032   5.476  0.2614  0.3583 -2.5221
 8696SOL    HW226988   6.956   5.935   5.545 -0.2577  0.4904 -1.4625
 8697SOL     OW26989   5.367   4.438   4.967 -0.1521 -0.2116  0.4220
 8697SOL    HW126990   5.397   4.357   5.016 -1.8451 -1.2353 -0.1544
 8697SOL    HW226991   5.296   4.413   4.901  0.7980  1.3918 -1.3240
 8698SOL     OW26992   6.675   5.803   2.888 -0.1221 -0.1702 -0.0542
 8698SOL    HW126993   6.755   5.834   2.938  0.6480 -0.4580 -1.0848
 8698SOL    HW226994   6.600   5.868   2.902  0.8171  1.0470 -0.4799
 8699SOL     OW26995   2.754   6.681   4.343 -0.4644 -0.1710  0.5804
 8699SOL    HW126996   2.704   6.629   4.273 -1.1602  0.7936  0.3355
 8699SOL    HW226997   2.722   6.653   4.434 -0.2699 -0.7261  0.4789
 8700SOL     OW26998   0.008   2.622   4.579  0.7187 -0.2769  0.5686
 8700SOL    HW126999   0.074   2.693   4.602  1.5279 -0.3096 -1.4077
 8700SOL    HW227000   0.035   2.536   4.623  0.9001  0.1473  1.3030
 8701SOL     OW27001   2.695   5.733   3.007  0.0386 -0.0757  0.0933
 8701SOL    HW127002   2.655   5.757   3.095 -0.1326  2.0089 -0.5173
 8701SOL    HW227003   2.706   5.633   3.002 -2.3128 -0.4852  1.4412
 8702SOL     OW27004   0.598   5.241   4.626 -0.2293  0.3126 -0.3988
 8702SOL    HW127005   0.605   5.227   4.724  1.2401 -0.0951 -0.5326
 8702SOL    HW227006   0.564   5.158   4.582 -3.4273  1.2891 -0.0483
 8703SOL     OW27007   2.020   5.823   4.210  0.3330  0.0828  0.0290
 8703SOL    HW127008   1.933   5.854   4.171  0.2096  0.5250  0.6331
 8703SOL    HW227009   2.048   5.886   4.282  2.1616  1.0432 -1.4697
 8704SOL     OW27010   2.467   1.795   6.461  0.0793 -0.0942  0.4657
 8704SOL    HW127011   2.368   1.807   6.469  0.0158  1.7669 -1.9971
 8704SOL    HW227012   2.495   1.805   6.365  2.5369 -1.8165  0.8998
 8705SOL     OW27013   3.528   0.269   4.687  0.3258 -0.2381 -0.5603
 8705SOL    HW127014   3.458   0.258   4.758 -0.3599 -1.4826 -1.3878
 8705SOL    HW227015   3.488   0.314   4.608  1.0108  0.8763 -0.2854
 8706SOL     OW27016   2.595   6.855   6.683  0.1726  0.1853 -0.2191
 8706SOL    HW127017   2.559   6.933   6.632 -0.1964 -0.7810 -1.4967
 8706SOL    HW227018   2.612   6.779   6.620 -0.7800 -1.2387  1.1663
 8707SOL     OW27019   0.870   1.597   6.917 -0.2266 -0.0572  0.2328
 8707SOL    HW127020   0.849   1.595   7.015 -1.2925  0.9412  0.0511
 8707SOL    HW227021   0.910   1.510   6.890 -1.3812 -0.9463  1.2479
 8708SOL     OW27022   6.822   6.773   5.823 -0.6927 -0.5064  0.3358
 8708SOL    HW127023   6.811   6.847   5.890  0.6211  1.0405 -1.0813
 8708SOL    HW227024   6.733   6.750   5.784 -1.4495 -1.2566  2.3517
 8709SOL     OW27025   4.820   1.512   4.030 -0.1788  0.1253 -0.1661
 8709SOL    HW127026   4.775   1.499   4.118  1.1115  0.5363  0.5805
 8709SOL    HW227027   4.824   1.609   4.008  0.7114  0.1418  0.0055
 8710SOL     OW27028   1.858   2.124   3.569 -0.3863  0.0001 -0.0018
 8710SOL    HW127029   1.762   2.134   3.545 -0.0173  0.1263 -1.5242
 8710SOL    HW227030   1.915   2.154   3.492  0.8713 -0.1437  0.8420
 8711SOL     OW27031   1.567   5.393   2.369  0.3131 -0.2424  0.0258
 8711SOL    HW127032   1.582   5.486   2.337  1.2914 -0.3655  0.1017
 8711SOL    HW227033   1.529   5.338   2.295 -0.8822  0.3544  0.1633
 8712SOL     OW27034   6.737   4.505   0.736  0.0942 -0.2474  0.2915
 8712SOL    HW127035   6.643   4.472   0.747  0.5753 -1.4522  0.9615
 8712SOL    HW227036   6.739   4.575   0.664 -1.8004  1.9245  2.1588
 8713SOL     OW27037   0.458   6.603   4.332 -0.6886  0.3837  0.6230
 8713SOL    HW127038   0.467   6.699   4.358 -1.9764  0.0772  2.3690
 8713SOL    HW227039   0.410   6.596   4.245  0.7170  1.3347 -0.2727
 8714SOL     OW27040   4.898   3.099   4.221 -0.0661 -0.0867  0.3856
 8714SOL    HW127041   4.897   3.172   4.153 -2.4071 -0.0958  0.3277
 8714SOL    HW227042   4.952   3.127   4.300  0.7299  0.8681 -0.4753
 8715SOL     OW27043   3.943   1.885   0.699 -0.1332 -0.2283  0.4811
 8715SOL    HW127044   3.935   1.790   0.731  0.9489 -0.2147  0.8173
 8715SOL    HW227045   3.909   1.947   0.769 -0.1883 -0.3280  0.5433
 8716SOL     OW27046   4.343   3.601   1.129 -0.6596  0.4174  0.1289
 8716SOL    HW127047   4.374   3.600   1.034 -0.7123  0.8653  0.1039
 8716SOL    HW227048   4.252   3.643   1.134 -0.5255  0.6823  0.4119
 8717SOL     OW27049   2.915   5.949   0.299 -0.6462  0.2137 -0.3367
 8717SOL    HW127050   2.911   6.020   0.229 -0.3838 -0.1103 -0.6819
 8717SOL    HW227051   2.985   5.882   0.275 -2.2278 -1.2647 -1.0804
 8718SOL     OW27052   5.674   3.616   6.317 -0.2325 -0.1343 -0.2128
 8718SOL    HW127053   5.602   3.680   6.288 -0.7468  0.1518  1.6114
 8718SOL    HW227054   5.632   3.528   6.341  0.1729 -0.3231 -0.1970
 8719SOL     OW27055   2.940   3.461   2.319 -0.2747 -0.5235  0.0231
 8719SOL    HW127056   2.974   3.411   2.239 -0.1050 -0.4799  0.0677
 8719SOL    HW227057   2.958   3.559   2.306 -1.4581 -0.3667 -0.4954
 8720SOL     OW27058   1.431   5.950   5.070 -0.1065 -0.6667 -1.0215
 8720SOL    HW127059   1.368   6.021   5.101  0.6816 -0.4333  0.1226
 8720SOL    HW227060   1.456   5.892   5.148  0.8959 -0.8920 -1.5005
 8721SOL     OW27061   1.117   0.965   2.509 -0.0678  0.2877 -0.2893
 8721SOL    HW127062   1.127   1.009   2.419 -0.3061  0.9817  0.0132
 8721SOL    HW227063   1.027   0.923   2.515  0.0025  0.1162 -0.4298
 8722SOL     OW27064   0.084   4.401   4.751 -0.2786  0.2081 -0.1507
 8722SOL    HW127065  -0.012   4.416   4.728 -0.1726  1.7689  0.3015
 8722SOL    HW227066   0.114   4.472   4.815  1.5214  0.5152 -1.2666
 8723SOL     OW27067   1.700   0.530   0.355  0.0103  0.5010 -0.6758
 8723SOL    HW127068   1.752   0.571   0.430  0.2106  1.1413 -1.1594
 8723SOL    HW227069   1.691   0.596   0.280 -0.3556 -0.0640 -1.1383
 8724SOL     OW27070   6.185   1.267   1.160  0.0045 -0.6086 -0.0810
 8724SOL    HW127071   6.183   1.365   1.177  0.6601 -0.7225  0.6980
 8724SOL    HW227072   6.098   1.238   1.119 -0.5771  0.1229  0.6178
 8725SOL     OW27073   0.910   1.917   0.387 -0.4722  0.3810 -0.1395
 8725SOL    HW127074   0.940   1.995   0.332 -1.5211  1.0774  0.2296
 8725SOL    HW227075   0.810   1.915   0.390 -0.4913 -1.5994 -0.9817
 8726SOL     OW27076   0.774   3.322   6.751 -0.4829 -0.4617 -0.1710
 8726SOL    HW127077   0.847   3.390   6.763 -1.9361  0.9744  0.9526
 8726SOL    HW227078   0.686   3.369   6.740 -1.7099 -2.1385  1.7415
 8727SOL     OW27079   3.667   6.501   1.088  0.4596 -0.2667  0.1153
 8727SOL    HW127080   3.750   6.553   1.068  0.1497  0.1021 -0.2138
 8727SOL    HW227081   3.639   6.518   1.182  1.1812 -0.9834  0.4686
 8728SOL     OW27082   0.546   4.331   5.868  0.0194 -0.1791  0.3722
 8728SOL    HW127083   0.475   4.264   5.886  0.4925 -0.5189  1.0495
 8728SOL    HW227084   0.630   4.305   5.917  0.8330 -0.1776 -0.9656
 8729SOL     OW27085   0.176   5.937   1.829  0.0600 -0.5990 -0.4116
 8729SOL    HW127086   0.140   5.951   1.921  0.7304 -1.0920 -0.0584
 8729SOL    HW227087   0.244   6.007   1.809 -1.3908  0.6100 -1.2559
 8730SOL     OW27088   0.596   6.748   3.939  0.1690 -0.1069  0.3955
 8730SOL    HW127089   0.583   6.789   3.849 -2.8150 -2.7859 -0.5485
 8730SOL    HW227090   0.646   6.662   3.930 -2.4769 -1.7837  0.7828
 8731SOL     OW27091   1.386   0.740   4.502 -0.5422  0.0708  0.4800
 8731SOL    HW127092   1.411   0.835   4.486 -1.0678  0.1582  0.1731
 8731SOL    HW227093   1.293   0.723   4.471  0.2392 -1.0609 -1.4102
 8732SOL     OW27094   0.435   4.385   4.571  0.1931 -0.2118  0.3448
 8732SOL    HW127095   0.431   4.397   4.670  0.5223 -0.5127  0.3935
 8732SOL    HW227096   0.521   4.341   4.546  0.5263  0.6974 -0.1568
 8733SOL     OW27097   6.809   2.047   4.372 -0.1810  0.0740 -0.6918
 8733SOL    HW127098   6.753   2.128   4.358 -1.2023 -0.8971 -2.6425
 8733SOL    HW227099   6.899   2.060   4.330  0.3358  0.8361  0.5918
 8734SOL     OW27100   3.932   6.978   2.540  0.3648  0.1108 -0.5599
 8734SOL    HW127101   4.021   6.982   2.496  0.2734  0.6447 -0.7062
 8734SOL    HW227102   3.862   6.960   2.471  0.3149  0.1128 -0.5096
 8735SOL     OW27103   2.582   5.258   6.155 -0.2587  0.0277  0.1490
 8735SOL    HW127104   2.599   5.348   6.115 -0.6663  0.3841  0.7745
 8735SOL    HW227105   2.655   5.236   6.221 -0.5858  0.2434  0.5832
 8736SOL     OW27106   5.392   2.829   4.396  0.7592 -0.6134  0.0197
 8736SOL    HW127107   5.299   2.814   4.429 -0.1971 -1.5719 -2.8102
 8736SOL    HW227108   5.439   2.741   4.387  0.5017 -0.5732 -2.2538
 8737SOL     OW27109   6.668   5.905   3.988 -0.2616 -0.2428 -0.2998
 8737SOL    HW127110   6.586   5.963   3.991  0.7298  1.2089 -0.3200
 8737SOL    HW227111   6.661   5.835   4.059 -1.1467  0.3751  0.2514
 8738SOL     OW27112   1.341   2.610   3.798 -0.0167 -0.8916 -0.2249
 8738SOL    HW127113   1.379   2.615   3.706  2.3256 -1.7454  0.6202
 8738SOL    HW227114   1.415   2.595   3.864 -1.6366 -0.4765  1.7979
 8739SOL     OW27115   0.684   4.087   1.702 -0.1318 -0.0828  0.3569
 8739SOL    HW127116   0.588   4.061   1.714 -0.0525 -0.0659  1.0942
 8739SOL    HW227117   0.733   4.074   1.788  0.6877 -0.7250 -0.1815
 8740SOL     OW27118   1.096   2.942   5.892  0.2847  0.5773  0.2342
 8740SOL    HW127119   1.176   2.936   5.951 -1.0092  1.0878  2.1825
 8740SOL    HW227120   1.079   2.854   5.848  0.7412 -0.1563  1.4637
 8741SOL     OW27121   1.063   5.704   1.451  0.0054  0.4140  0.8654
 8741SOL    HW127122   1.152   5.728   1.491  0.6519 -0.2673 -0.1191
 8741SOL    HW227123   0.996   5.693   1.524  0.5467  1.6173  1.5853
 8742SOL     OW27124   2.144   4.284   0.480  0.3195  0.5771  0.2753
 8742SOL    HW127125   2.049   4.257   0.492  1.1252 -1.7246  2.4189
 8742SOL    HW227126   2.197   4.206   0.447  1.4579  1.9076 -1.2388
 8743SOL     OW27127   6.796   0.652   3.516 -0.0147  0.4562  0.1516
 8743SOL    HW127128   6.772   0.738   3.471  0.5401 -0.2932 -1.6567
 8743SOL    HW227129   6.895   0.642   3.520 -0.0447  0.5400  1.6654
 8744SOL     OW27130   6.526   0.243   2.223 -0.4124  0.1023  0.1067
 8744SOL    HW127131   6.507   0.232   2.321 -1.1999  0.7969  0.0391
 8744SOL    HW227132   6.467   0.314   2.185  0.8452  0.8075 -0.5941
 8745SOL     OW27133   3.920   3.825   6.729  0.1347 -0.3919 -0.2919
 8745SOL    HW127134   3.991   3.803   6.797 -0.6793 -1.5633  0.2140
 8745SOL    HW227135   3.952   3.798   6.638  1.3199  1.3809 -0.4554
 8746SOL     OW27136   6.886   0.868   5.515 -0.5469 -0.5377 -0.2597
 8746SOL    HW127137   6.797   0.824   5.506 -0.3851 -0.6851 -1.1673
 8746SOL    HW227138   6.938   0.822   5.587 -1.4869  0.0524  0.8391
 8747SOL     OW27139   2.938   1.103   2.448  0.3825  0.1993 -0.0910
 8747SOL    HW127140   2.884   1.025   2.479  0.0540  0.5865  0.3297
 8747SOL    HW227141   3.006   1.126   2.518  1.5381 -0.6785 -0.8827
 8748SOL     OW27142   4.542   2.106   0.833 -0.7330 -0.0616 -0.1103
 8748SOL    HW127143   4.616   2.063   0.886 -0.1706  0.0494 -0.7894
 8748SOL    HW227144   4.473   2.142   0.896 -0.8418 -1.2729  0.4998
 8749SOL     OW27145   0.513   2.720   6.623 -0.1904 -0.1850  0.7649
 8749SOL    HW127146   0.600   2.703   6.578  0.3496  0.0456  1.6918
 8749SOL    HW227147   0.470   2.634   6.648  0.3557 -0.2892  1.3751
 8750SOL     OW27148   3.490   0.066   0.139 -0.5941 -0.2969 -0.0221
 8750SOL    HW127149   3.486   0.155   0.185 -0.5722 -0.4785  0.3391
 8750SOL    HW227150   3.414   0.010   0.170 -1.0196 -0.1499 -0.7918
 8751SOL     OW27151   5.821   6.627   5.224 -0.0272 -0.3661  0.2952
 8751SOL    HW127152   5.788   6.700   5.285  0.0674 -0.0885  0.0161
 8751SOL    HW227153   5.826   6.662   5.131  1.2961 -0.3079  0.3613
 8752SOL     OW27154   6.765   3.505   4.653  0.0477  0.0235 -0.2797
 8752SOL    HW127155   6.736   3.598   4.629  0.2796 -0.0618 -0.9315
 8752SOL    HW227156   6.798   3.458   4.570 -0.2832 -0.7191 -0.0013
 8753SOL     OW27157   3.804   2.985   6.653 -0.3691  0.1138  0.3579
 8753SOL    HW127158   3.770   2.894   6.675 -0.5288  0.7616  3.1979
 8753SOL    HW227159   3.730   3.039   6.611 -0.7093 -0.6001  0.0309
 8754SOL     OW27160   1.769   2.737   5.851  0.5491 -0.6589 -0.5438
 8754SOL    HW127161   1.798   2.647   5.883  1.1068 -1.7153 -3.6560
 8754SOL    HW227162   1.830   2.807   5.889  2.0198 -1.9420 -0.4391
 8755SOL     OW27163   2.012   2.047   3.792 -0.1665 -0.1307  0.4976
 8755SOL    HW127164   1.984   2.089   3.705  1.1024 -0.1080  0.0792
 8755SOL    HW227165   1.931   2.017   3.842 -0.9561  0.4819 -0.3797
 8756SOL     OW27166   6.846   2.511   4.930  0.3405 -0.0536  0.1249
 8756SOL    HW127167   6.871   2.582   4.995  0.4493 -0.8019  0.9239
 8756SOL    HW227168   6.917   2.502   4.861 -0.1965  1.3699 -0.6605
 8757SOL     OW27169   1.289   3.313   1.689 -0.2039  0.0081  0.0062
 8757SOL    HW127170   1.248   3.381   1.628 -0.1516 -1.0417 -1.2568
 8757SOL    HW227171   1.244   3.317   1.778 -2.1087 -0.1496 -0.8871
 8758SOL     OW27172   6.747   6.520   4.225  0.5404  0.1492  0.3113
 8758SOL    HW127173   6.803   6.439   4.210 -0.5652 -0.3310 -1.6278
 8758SOL    HW227174   6.653   6.502   4.194  0.3880  2.3116 -0.6488
 8759SOL     OW27175   2.947   6.578   5.135 -0.4718  0.2667 -0.3848
 8759SOL    HW127176   2.973   6.535   5.048  0.7871 -0.4549  0.3234
 8759SOL    HW227177   3.012   6.650   5.157 -2.0728  2.0447 -1.1215
 8760SOL     OW27178   4.423   5.194   6.513  0.2970  0.3365 -0.3741
 8760SOL    HW127179   4.393   5.117   6.570  0.2169  0.9738  0.4717
 8760SOL    HW227180   4.343   5.237   6.472  0.2714  0.4638 -0.1915
 8761SOL     OW27181   3.989   1.590   2.858 -0.7526  0.2160  0.1104
 8761SOL    HW127182   3.928   1.620   2.932  1.7633  1.0110  2.0331
 8761SOL    HW227183   4.003   1.665   2.794 -1.2243  0.2667  0.0628
 8762SOL     OW27184   3.020   3.076   2.025  0.0499 -0.1041  0.4449
 8762SOL    HW127185   2.999   3.093   1.929  0.9888  0.5655  0.3376
 8762SOL    HW227186   2.943   3.031   2.069 -0.5128 -0.1355 -0.5436
 8763SOL     OW27187   1.867   0.947   2.523 -0.2405 -0.2924  0.3685
 8763SOL    HW127188   1.797   0.922   2.590 -1.4261 -1.1152 -1.1042
 8763SOL    HW227189   1.889   0.867   2.467 -0.3610  0.6824 -1.1465
 8764SOL     OW27190   6.673   5.260   2.506  0.1957 -0.3289 -0.1510
 8764SOL    HW127191   6.773   5.263   2.508  0.2076 -0.3971 -0.6406
 8764SOL    HW227192   6.641   5.247   2.412 -0.2342 -2.0632  0.2093
 8765SOL     OW27193   6.557   5.975   2.462  0.3645 -0.2097  0.8652
 8765SOL    HW127194   6.525   5.909   2.394 -0.8828  2.0087 -0.8081
 8765SOL    HW227195   6.656   5.967   2.472  0.4279 -1.3483 -0.3545
 8766SOL     OW27196   6.655   2.459   1.205 -0.1487  0.1082 -0.6088
 8766SOL    HW127197   6.754   2.462   1.193 -0.1761  1.4522 -0.6774
 8766SOL    HW227198   6.633   2.404   1.286  0.6334 -0.4274 -0.7534
 8767SOL     OW27199   1.260   1.040   1.500 -0.5433  0.2064  0.5574
 8767SOL    HW127200   1.237   0.944   1.484  1.4417  0.0407 -2.2459
 8767SOL    HW227201   1.213   1.097   1.432  0.5938  0.7959  0.2296
 8768SOL     OW27202   2.267   1.452   1.772  0.6053 -0.4151 -0.4402
 8768SOL    HW127203   2.351   1.433   1.823 -0.7552 -3.2332  0.9958
 8768SOL    HW227204   2.285   1.444   1.674  2.1175 -0.2976 -0.2009
 8769SOL     OW27205   6.795   6.984   6.778 -0.6679 -0.2246 -0.2892
 8769SOL    HW127206   6.806   6.980   6.678 -3.4407 -3.4769 -0.6575
 8769SOL    HW227207   6.822   6.896   6.817 -2.5397 -0.1074  1.4034
 8770SOL     OW27208   6.141   1.663   5.380 -0.3540  0.1972 -0.3199
 8770SOL    HW127209   6.072   1.736   5.383 -0.2118  0.3271 -0.1575
 8770SOL    HW227210   6.101   1.581   5.339  0.2599  1.2298 -3.2310
 8771SOL     OW27211   4.336   2.379   2.540 -0.9639  0.0451  0.2794
 8771SOL    HW127212   4.396   2.302   2.520  1.6695  2.1872 -0.5812
 8771SOL    HW227213   4.336   2.443   2.463 -3.5127  0.7149  0.7361
 8772SOL     OW27214   3.175   6.338   6.967 -0.1344 -0.1142 -0.0123
 8772SOL    HW127215   3.106   6.271   6.941  1.1226 -0.8052 -1.7184
 8772SOL    HW227216   3.195   6.329   7.065 -0.8801 -1.3678  0.0463
 8773SOL     OW27217   1.176   6.662   6.472 -0.1822  0.4876  0.0013
 8773SOL    HW127218   1.246   6.692   6.536  0.0746 -0.4285  0.1608
 8773SOL    HW227219   1.182   6.716   6.388  1.5736 -0.4420 -0.5103
 8774SOL     OW27220   6.564   2.122   0.413  0.3513  0.5008 -0.4551
 8774SOL    HW127221   6.572   2.095   0.509 -2.1415  1.3736  0.0623
 8774SOL    HW227222   6.488   2.074   0.371  0.6732  1.0304 -1.6755
 8775SOL     OW27223   3.399   6.621   0.160 -0.3571 -0.5347 -0.0924
 8775SOL    HW127224   3.336   6.684   0.115  0.6847  2.1203  1.8638
 8775SOL    HW227225   3.491   6.633   0.124  0.2265  0.6208  1.6245
 8776SOL     OW27226   0.758   3.141   3.352  0.1582 -0.2201 -0.4167
 8776SOL    HW127227   0.735   3.132   3.255  3.0055  0.4455 -1.2493
 8776SOL    HW227228   0.701   3.212   3.393 -0.3148  0.2963 -1.9019
 8777SOL     OW27229   6.297   4.859   1.377 -0.2307  0.1143  0.3188
 8777SOL    HW127230   6.308   4.958   1.373 -0.6346  0.1619  0.3156
 8777SOL    HW227231   6.366   4.815   1.320  1.0973  0.3079  1.7215
 8778SOL     OW27232   0.177   5.115   0.641 -0.1954 -0.3869  0.0259
 8778SOL    HW127233   0.191   5.159   0.552  1.3257  2.1182  1.3668
 8778SOL    HW227234   0.233   5.033   0.647  0.5559  0.0391 -0.9311
 8779SOL     OW27235   5.363   4.667   6.305  0.1694 -0.3732  0.7847
 8779SOL    HW127236   5.454   4.631   6.285 -0.2015 -1.9592  1.7315
 8779SOL    HW227237   5.295   4.597   6.287 -0.8698  0.7573  0.1996
 8780SOL     OW27238   0.987   3.940   0.852  0.6209 -0.3512  0.1065
 8780SOL    HW127239   0.952   4.027   0.817  1.9874 -0.0494 -0.5779
 8780SOL    HW227240   1.085   3.948   0.869  0.4615 -1.2801  1.6035
 8781SOL     OW27241   1.763   2.751   4.441  0.1659 -0.2791 -0.4758
 8781SOL    HW127242   1.816   2.678   4.486  0.6084 -1.2099 -2.4245
 8781SOL    HW227243   1.825   2.825   4.416 -0.0076  0.0359  0.0069
 8782SOL     OW27244   1.713   4.368   3.636  0.4707 -0.2388 -0.1786
 8782SOL    HW127245   1.679   4.274   3.638  0.3507 -0.2985 -2.5227
 8782SOL    HW227246   1.639   4.430   3.611  1.2256  0.0722 -1.7246
 8783SOL     OW27247   0.686   5.862   6.212  0.1720 -0.7974  0.0144
 8783SOL    HW127248   0.671   5.824   6.121 -1.5991 -0.1501 -0.0062
 8783SOL    HW227249   0.601   5.859   6.264 -0.0315  2.6464  0.1412
 8784SOL     OW27250   3.565   1.768   0.512  0.2030  0.1897  0.0991
 8784SOL    HW127251   3.616   1.714   0.444  1.2928  2.2621 -0.8315
 8784SOL    HW227252   3.480   1.800   0.471 -0.9924 -1.6310  1.0126
 8785SOL     OW27253   1.355   6.777   3.324  0.6724 -0.1682 -0.5312
 8785SOL    HW127254   1.362   6.858   3.266  0.2190  3.3178  3.7663
 8785SOL    HW227255   1.440   6.764   3.374 -0.5672  0.2924  1.8315
 8786SOL     OW27256   6.397   2.743   4.193  0.1386  0.7857 -0.7023
 8786SOL    HW127257   6.448   2.801   4.129 -1.5358  2.4507 -0.6066
 8786SOL    HW227258   6.361   2.664   4.144  2.5787 -0.3541 -0.8072
 8787SOL     OW27259   4.789   5.839   4.023 -0.1606  0.4171 -0.0579
 8787SOL    HW127260   4.827   5.875   3.938 -0.4922 -0.7246 -0.6956
 8787SOL    HW227261   4.859   5.785   4.070 -0.3775 -0.0400 -0.2566
 8788SOL     OW27262   5.755   6.289   5.506 -0.4331 -0.0053  0.3721
 8788SOL    HW127263   5.725   6.345   5.583 -0.4636 -0.1507  0.4657
 8788SOL    HW227264   5.749   6.343   5.422  3.5932  1.6107  0.9415
 8789SOL     OW27265   1.674   4.836   6.344 -0.4178  0.5271 -0.0161
 8789SOL    HW127266   1.620   4.757   6.316  0.2485  0.5888 -1.5402
 8789SOL    HW227267   1.770   4.811   6.351 -0.0881  1.3630 -1.2855
 8790SOL     OW27268   0.927   2.281   0.035  0.2970 -0.2341  0.0050
 8790SOL    HW127269   1.009   2.290  -0.022 -0.5053 -0.1408 -1.1687
 8790SOL    HW227270   0.870   2.361   0.025 -0.1894 -0.5222  0.4217
 8791SOL     OW27271   4.078   0.994   1.979  1.1580 -0.6230 -0.0564
 8791SOL    HW127272   3.982   0.992   2.007  0.7540  0.4328 -1.2690
 8791SOL    HW227273   4.130   1.051   2.043  0.5507  0.4866 -0.5149
 8792SOL     OW27274   3.018   1.752   4.285 -0.3367 -0.1574  0.2543
 8792SOL    HW127275   2.939   1.692   4.280 -0.0463 -0.4409 -1.7426
 8792SOL    HW227276   3.022   1.810   4.204  1.7428 -0.4825  0.0523
 8793SOL     OW27277   3.440   6.869   4.187 -0.4120  0.2095 -0.5894
 8793SOL    HW127278   3.465   6.903   4.278 -0.1999  0.7586 -0.8442
 8793SOL    HW227279   3.422   6.771   4.192 -1.7320  0.4744  0.3046
 8794SOL     OW27280   2.264   2.337   1.761 -0.8471 -0.0583  0.2626
 8794SOL    HW127281   2.342   2.317   1.701 -0.9624  0.3336 -0.0176
 8794SOL    HW227282   2.199   2.261   1.758 -0.0674 -0.7966  1.1731
 8795SOL     OW27283   4.341   5.014   4.921 -0.3679 -0.2019 -0.2387
 8795SOL    HW127284   4.424   4.966   4.949  1.3532  1.7908 -1.6167
 8795SOL    HW227285   4.299   4.966   4.844  0.1295 -0.6370 -0.2464
 8796SOL     OW27286   6.016   5.197   1.100 -0.3491  0.3599  0.0074
 8796SOL    HW127287   5.991   5.207   1.004  0.0894 -2.9813 -0.5645
 8796SOL    HW227288   6.048   5.285   1.135 -1.9800  2.0458 -2.4017
 8797SOL     OW27289   1.518   4.482   1.739 -0.2183 -0.5674 -0.6507
 8797SOL    HW127290   1.515   4.542   1.660  1.1816 -1.3634 -1.3276
 8797SOL    HW227291   1.582   4.518   1.807 -0.8223 -0.3044 -0.2054
 8798SOL     OW27292   0.932   2.017   4.962 -0.3247  0.9355 -0.1368
 8798SOL    HW127293   0.995   1.986   4.892  0.3854 -1.4696  1.4465
 8798SOL    HW227294   0.983   2.059   5.037 -1.0552  3.2360 -0.8203
 8799SOL     OW27295   2.627   0.086   1.722 -0.0692 -0.3842 -0.1869
 8799SOL    HW127296   2.649   0.174   1.680  1.9882 -0.4817  0.5364
 8799SOL    HW227297   2.692   0.017   1.690 -0.6091 -1.2468  0.5361
 8800SOL     OW27298   0.431   5.537   0.067 -0.5497  0.1411 -0.0021
 8800SOL    HW127299   0.426   5.634   0.091 -0.5464  0.2171 -0.3127
 8800SOL    HW227300   0.404   5.525  -0.028  1.0413  0.0346 -0.4496
 8801SOL     OW27301   0.243   7.014   4.393  0.1129 -0.2381  0.2923
 8801SOL    HW127302   0.326   6.966   4.421 -0.3218 -0.5020  1.1492
 8801SOL    HW227303   0.173   7.004   4.463 -0.6451 -0.0049 -0.4138
 8802SOL     OW27304   4.868   5.395   2.519  0.5551 -0.0672  0.4529
 8802SOL    HW127305   4.896   5.306   2.556 -1.4886 -1.4214 -1.0268
 8802SOL    HW227306   4.856   5.388   2.420 -1.9190  1.1503  0.5807
 8803SOL     OW27307   6.710   5.035   1.346 -0.4170 -0.6310 -0.5694
 8803SOL    HW127308   6.736   5.062   1.253 -1.1369 -0.2345 -0.6675
 8803SOL    HW227309   6.653   5.106   1.386  0.7295 -0.3296  0.5735
 8804SOL     OW27310   6.393   6.719   4.472 -0.1997  0.5570 -0.0015
 8804SOL    HW127311   6.425   6.636   4.518  0.2185  1.0769  0.6682
 8804SOL    HW227312   6.436   6.726   4.382  0.4699  0.5170  0.3113
 8805SOL     OW27313   0.364   0.820   4.743  0.1527  0.3025 -0.1142
 8805SOL    HW127314   0.377   0.730   4.785  0.5226  0.1459 -0.5496
 8805SOL    HW227315   0.296   0.813   4.670 -0.4125  0.5519  0.3843
 8806SOL     OW27316   3.363   6.009   3.452 -0.5208  0.0298  0.4616
 8806SOL    HW127317   3.345   5.988   3.549 -0.6790 -0.8340  0.2573
 8806SOL    HW227318   3.400   5.927   3.407  1.5378  1.0042  0.2625
 8807SOL     OW27319   2.077   5.863   0.414  0.3433  0.2966 -0.3321
 8807SOL    HW127320   2.143   5.789   0.401 -1.0742 -0.7782 -1.8541
 8807SOL    HW227321   1.985   5.824   0.423 -0.4665  1.8708 -1.3748
 8808SOL     OW27322   4.611   2.026   5.395  1.1390  0.1756 -0.3617
 8808SOL    HW127323   4.658   2.002   5.480  0.4221  0.3523  0.0987
 8808SOL    HW227324   4.632   2.121   5.371  1.0969  0.2277 -0.2007
 8809SOL     OW27325   2.511   4.421   1.017  0.4611 -0.5352 -0.7207
 8809SOL    HW127326   2.560   4.352   1.070  1.0054  1.6367  1.7949
 8809SOL    HW227327   2.570   4.454   0.943  1.9937  0.3755  0.8314
 8810SOL     OW27328   5.307   5.637   5.335 -0.3325 -0.2628  0.0087
 8810SOL    HW127329   5.366   5.690   5.275 -0.8503  1.8973  1.2788
 8810SOL    HW227330   5.215   5.632   5.296 -0.9679  2.0920  0.9832
 8811SOL     OW27331   3.688   2.524   6.234  0.3702  0.5143  0.1335
 8811SOL    HW127332   3.725   2.472   6.311  0.4218 -0.6134 -0.6401
 8811SOL    HW227333   3.591   2.506   6.225  0.6820 -0.7070 -1.0896
 8812SOL     OW27334   1.364   6.609   4.653 -0.1055 -0.2820 -0.0820
 8812SOL    HW127335   1.281   6.631   4.602 -0.9562  0.4404  1.5501
 8812SOL    HW227336   1.364   6.512   4.676 -1.7784  0.1372  2.0059
 8813SOL     OW27337   6.698   0.966   0.053  0.5123 -0.2321 -0.2273
 8813SOL    HW127338   6.618   0.956  -0.005  0.5881  0.4534 -0.4666
 8813SOL    HW227339   6.755   1.042   0.019  1.9966 -1.5775 -0.8962
 8814SOL     OW27340   3.767   1.153   4.587  0.1974  0.4030  0.1763
 8814SOL    HW127341   3.728   1.068   4.551  2.4169 -0.6394  0.0199
 8814SOL    HW227342   3.744   1.162   4.684  1.3727 -1.3593  0.6774
 8815SOL     OW27343   0.389   5.890   2.482  0.2986  0.2744 -0.1596
 8815SOL    HW127344   0.393   5.892   2.581 -0.0844 -1.2172 -0.0919
 8815SOL    HW227345   0.333   5.966   2.448  0.1831  0.6086  0.7726
 8816SOL     OW27346   2.346   1.156   3.849  0.2045 -0.1403 -0.1712
 8816SOL    HW127347   2.406   1.232   3.824  0.9544 -0.7577 -0.2990
 8816SOL    HW227348   2.399   1.086   3.896 -0.6555 -0.1998  0.7589
 8817SOL     OW27349   2.186   5.535   2.923 -0.2585  0.1452 -0.4576
 8817SOL    HW127350   2.088   5.525   2.906 -0.1310 -0.0187 -1.1190
 8817SOL    HW227351   2.217   5.463   2.986 -0.6464  0.4811  0.1283
 8818SOL     OW27352   2.838   0.501   4.218 -0.0156  0.0865  0.7895
 8818SOL    HW127353   2.766   0.458   4.272  0.1503 -1.3421 -0.0959
 8818SOL    HW227354   2.829   0.601   4.225 -1.9966 -0.0537  0.7993
 8819SOL     OW27355   0.581   5.023   0.390  0.2230  0.0746  0.3087
 8819SOL    HW127356   0.559   4.929   0.366 -0.6331  0.1053  0.9121
 8819SOL    HW227357   0.551   5.042   0.484 -1.9038  1.6334 -0.5869
 8820SOL     OW27358   6.586   6.735   5.725  0.6184  0.0764  0.1535
 8820SOL    HW127359   6.558   6.660   5.665  0.0115 -0.8351  1.5082
 8820SOL    HW227360   6.505   6.781   5.761  0.9627  0.4600  0.4449
 8821SOL     OW27361   3.695   1.620   3.646 -0.6418  0.0017  0.4829
 8821SOL    HW127362   3.762   1.569   3.699  0.4153  0.7881 -0.0458
 8821SOL    HW227363   3.737   1.705   3.612 -1.4074 -0.2639 -1.2344
 8822SOL     OW27364   5.633   6.874   3.289 -0.3232  0.3776  0.0446
 8822SOL    HW127365   5.553   6.904   3.236 -0.9355 -0.2660  0.5892
 8822SOL    HW227366   5.700   6.949   3.292  0.2811  0.0333 -2.6307
 8823SOL     OW27367   2.709   6.902   6.280 -0.0452  0.1370 -0.3602
 8823SOL    HW127368   2.636   6.935   6.221 -1.7355  0.0815  1.6036
 8823SOL    HW227369   2.676   6.822   6.332  1.6347 -0.2985  0.0964
 8824SOL     OW27370   2.427   3.718   5.511  0.0711  0.1503 -0.1649
 8824SOL    HW127371   2.486   3.708   5.431 -0.8136 -0.9842 -0.7139
 8824SOL    HW227372   2.392   3.628   5.538 -0.4517  0.6492  0.8784
 8825SOL     OW27373   3.821   6.211   2.884  0.5344  0.6223 -0.8672
 8825SOL    HW127374   3.825   6.172   2.976 -1.6324  2.7137  0.2314
 8825SOL    HW227375   3.881   6.291   2.879  0.0574  0.9804 -0.9878
 8826SOL     OW27376   0.043   2.261   4.058 -0.3341  0.0025  0.4575
 8826SOL    HW127377   0.143   2.264   4.053 -0.3643 -1.1013 -1.7416
 8826SOL    HW227378   0.009   2.347   4.097  1.3595  1.5646 -1.2797
 8827SOL     OW27379   6.666   1.651   2.151  0.6016  0.4577  0.4099
 8827SOL    HW127380   6.759   1.614   2.156  0.4991  0.1008 -0.1877
 8827SOL    HW227381   6.663   1.723   2.082  0.5991  0.9862  0.9538
 8828SOL     OW27382   5.040   2.725   6.495  0.1739  0.2388  0.0285
 8828SOL    HW127383   4.992   2.638   6.491 -1.4616  1.1033 -0.0210
 8828SOL    HW227384   5.132   2.711   6.532 -0.7327 -1.2253  1.8878
 8829SOL     OW27385   1.834   5.010   4.581 -0.2158  0.0317 -0.6164
 8829SOL    HW127386   1.859   4.934   4.521 -1.4017 -0.8586 -0.0248
 8829SOL    HW227387   1.808   5.089   4.525 -0.4246 -0.4895 -1.2692
 8830SOL     OW27388   5.023   3.062   5.388 -0.6869  0.4292  0.4221
 8830SOL    HW127389   5.028   3.153   5.429 -0.8783  0.8156 -0.3927
 8830SOL    HW227390   4.933   3.021   5.408 -1.1198  0.9839 -0.3674
 8831SOL     OW27391   3.126   1.612   3.809 -0.9498 -0.3896 -0.3165
 8831SOL    HW127392   3.221   1.643   3.814 -0.6240 -1.3582 -0.3895
 8831SOL    HW227393   3.067   1.689   3.785 -0.4372  0.6688  1.5749
 8832SOL     OW27394   2.395   6.605   0.850 -0.3380 -0.3231 -0.1890
 8832SOL    HW127395   2.466   6.646   0.907  0.5411 -0.3204 -1.2703
 8832SOL    HW227396   2.357   6.673   0.789 -0.2402 -0.6673 -0.6368
 8833SOL     OW27397   5.202   1.679   3.445  0.0594 -0.0215 -0.2926
 8833SOL    HW127398   5.248   1.725   3.521 -2.1925 -0.8519  1.7029
 8833SOL    HW227399   5.268   1.622   3.396  1.8028  1.3782  0.3187
 8834SOL     OW27400   0.991   2.797   2.249 -0.1877 -0.3535  0.0326
 8834SOL    HW127401   0.938   2.882   2.259 -0.2422 -0.4014  0.1528
 8834SOL    HW227402   1.088   2.819   2.238 -0.2076 -0.2734  0.0152
 8835SOL     OW27403   0.482   1.073   5.028 -0.0985  0.5082 -0.4935
 8835SOL    HW127404   0.508   1.091   5.122  0.4829  1.7128 -0.8548
 8835SOL    HW227405   0.448   1.158   4.986 -0.7102 -0.0899 -1.2547
 8836SOL     OW27406   6.930   0.733   4.557  0.1100  0.0753  0.1519
 8836SOL    HW127407   6.955   0.742   4.653 -1.6594  1.6322  0.5231
 8836SOL    HW227408   6.922   0.824   4.515  4.0295 -0.5467 -2.4356
 8837SOL     OW27409   6.170   3.783   5.266 -0.1381  0.3919  0.3214
 8837SOL    HW127410   6.129   3.739   5.186  0.4353 -0.4784  0.4910
 8837SOL    HW227411   6.103   3.787   5.340 -0.1947 -0.2179  0.3084
 8838SOL     OW27412   0.149   0.076   1.790 -0.0059  0.3005 -0.2515
 8838SOL    HW127413   0.149  -0.009   1.842 -0.4063  0.2921 -0.2597
 8838SOL    HW227414   0.055   0.098   1.762  0.3950 -0.6744 -2.5664
 8839SOL     OW27415   1.316   1.127   0.649 -0.5529 -0.1576 -1.0284
 8839SOL    HW127416   1.308   1.057   0.720  0.7728 -0.4703 -1.1506
 8839SOL    HW227417   1.225   1.155   0.618 -1.1790  0.3515  1.1343
 8840SOL     OW27418   5.552   3.830   6.846 -0.3756  0.2591  0.4807
 8840SOL    HW127419   5.652   3.825   6.847 -0.3409  0.6434 -0.1610
 8840SOL    HW227420   5.517   3.810   6.937  0.1202 -2.6732  0.1150
 8841SOL     OW27421   6.672   4.308   5.976 -0.2604 -0.7666  0.0435
 8841SOL    HW127422   6.650   4.252   6.057  2.8327  0.6106  2.0388
 8841SOL    HW227423   6.722   4.252   5.910 -0.7575 -1.3300  0.1321
 8842SOL     OW27424   2.285   5.703   2.714 -0.5127 -0.2837 -0.2480
 8842SOL    HW127425   2.263   5.651   2.797  0.9053  0.9060  0.9287
 8842SOL    HW227426   2.380   5.686   2.688 -0.5870  0.3056 -0.9323
 8843SOL     OW27427   1.688   1.802   3.676 -0.1687  0.0812  0.2835
 8843SOL    HW127428   1.589   1.802   3.689 -0.1378 -2.3140  0.8629
 8843SOL    HW227429   1.715   1.725   3.619  1.4487  0.2380  0.7691
 8844SOL     OW27430   0.444   6.515   1.017  0.3167 -0.6690  0.2695
 8844SOL    HW127431   0.483   6.585   1.076 -0.2101 -0.4163  0.3280
 8844SOL    HW227432   0.516   6.452   0.986  0.4241 -1.5410  2.1731
 8845SOL     OW27433   6.218   3.182   7.009  0.0109 -0.1398  0.6809
 8845SOL    HW127434   6.237   3.214   6.916 -3.2363 -0.5334 -0.2485
 8845SOL    HW227435   6.210   3.261   7.070  0.4538  0.2418  0.2574
 8846SOL     OW27436   0.020   5.127   1.639 -0.0928  0.0188 -0.0300
 8846SOL    HW127437  -0.070   5.171   1.644  0.3975  0.9205  2.3372
 8846SOL    HW227438   0.009   5.031   1.615 -1.6748  0.1753 -0.0463
 8847SOL     OW27439   1.348   2.674   3.050 -0.0883 -0.0131  0.6441
 8847SOL    HW127440   1.278   2.672   3.122 -0.7684 -1.4241 -0.0013
 8847SOL    HW227441   1.334   2.596   2.988 -1.0082  2.4394 -2.4599
 8848SOL     OW27442   2.394   0.350   1.358 -0.8261  0.5131  0.3392
 8848SOL    HW127443   2.320   0.385   1.416 -0.2514  1.0213  0.7797
 8848SOL    HW227444   2.480   0.356   1.408 -0.3967  0.4800 -0.3914
 8849SOL     OW27445   4.053   6.026   4.217  0.0350 -0.2857 -0.1105
 8849SOL    HW127446   4.109   5.996   4.140  0.4855 -1.6653  0.7159
 8849SOL    HW227447   4.096   5.997   4.303 -0.1851  1.6506  0.7153
 8850SOL     OW27448   4.569   6.689   0.302 -0.4381 -0.5238 -0.2036
 8850SOL    HW127449   4.525   6.675   0.213 -0.5610  0.0489 -0.2368
 8850SOL    HW227450   4.626   6.771   0.299  0.3435 -1.0502 -0.0464
 8851SOL     OW27451   3.982   5.929   6.602  0.3600 -0.1487  0.5936
 8851SOL    HW127452   3.936   6.013   6.573 -1.4778 -1.0826  0.6223
 8851SOL    HW227453   4.046   5.900   6.530 -2.6726 -1.3679 -1.8806
 8852SOL     OW27454   3.776   2.885   4.912 -0.2461 -0.4072  0.0233
 8852SOL    HW127455   3.781   2.940   4.995 -2.5036 -0.3054  0.1537
 8852SOL    HW227456   3.861   2.834   4.901  1.6905  2.4748  0.2860
 8853SOL     OW27457   3.368   1.232   3.679  0.2451 -0.5917 -0.2828
 8853SOL    HW127458   3.444   1.289   3.645  0.3529 -0.8019 -0.4013
 8853SOL    HW227459   3.282   1.263   3.639  0.3383 -0.6705 -0.5465
 8854SOL     OW27460   0.560   0.727   2.936 -0.4332 -0.4544  0.3247
 8854SOL    HW127461   0.564   0.627   2.933  1.3318 -0.4053 -0.0482
 8854SOL    HW227462   0.547   0.756   3.031  2.2781 -1.0425  0.9840
 8855SOL     OW27463   4.170   6.792   2.553  0.0710 -0.4682 -1.1435
 8855SOL    HW127464   4.246   6.852   2.577 -1.2261  0.9231 -0.2798
 8855SOL    HW227465   4.115   6.774   2.635  0.0563 -2.3264 -1.5276
 8856SOL     OW27466   1.899   4.654   4.761 -0.1780 -0.2118  0.1343
 8856SOL    HW127467   1.986   4.691   4.730  0.0769  0.4899  1.6248
 8856SOL    HW227468   1.849   4.616   4.683  0.8530  0.6032 -0.9480
 8857SOL     OW27469   3.947   6.187   1.385  1.1611  0.1640  0.4223
 8857SOL    HW127470   4.019   6.233   1.437  0.4067  1.8853  0.0277
 8857SOL    HW227471   3.860   6.198   1.433  0.5687  1.1921 -0.8078
 8858SOL     OW27472   6.788   0.436   2.444 -0.3084 -0.3772  0.1080
 8858SOL    HW127473   6.871   0.465   2.491 -0.2616 -0.9165  0.3604
 8858SOL    HW227474   6.809   0.362   2.380 -0.2247  0.8784 -1.3676
 8859SOL     OW27475   5.821   4.771   2.138 -0.3213 -0.3595 -0.4146
 8859SOL    HW127476   5.865   4.829   2.070 -0.1959 -0.2570 -0.2458
 8859SOL    HW227477   5.801   4.824   2.221  1.4627 -0.9618  0.4589
 8860SOL     OW27478   0.815   1.538   0.159  0.1030 -0.4119 -0.3665
 8860SOL    HW127479   0.800   1.440   0.170 -1.4546 -0.1315  0.2501
 8860SOL    HW227480   0.912   1.560   0.177  0.2795 -1.7103  0.3507
 8861SOL     OW27481   5.714   6.390   5.247  0.3030 -0.0794 -0.1624
 8861SOL    HW127482   5.787   6.330   5.213 -0.3755 -0.1796 -1.5178
 8861SOL    HW227483   5.742   6.485   5.240  0.4866 -0.1387 -0.2254
 8862SOL     OW27484   4.103   0.552   6.790  0.4004  0.0336  0.5539
 8862SOL    HW127485   4.193   0.513   6.771 -0.5518 -1.5867 -1.0504
 8862SOL    HW227486   4.103   0.596   6.880  2.2009 -1.7822  1.5198
 8863SOL     OW27487   3.530   6.344   5.548  0.1146 -0.2389  0.0069
 8863SOL    HW127488   3.616   6.298   5.527 -0.4281 -0.7089 -1.3126
 8863SOL    HW227489   3.458   6.276   5.559 -0.3218  0.2035 -0.0815
 8864SOL     OW27490   2.279   5.338   3.087 -0.3259  0.3798  0.1077
 8864SOL    HW127491   2.233   5.250   3.100  0.4367 -0.1637 -0.7542
 8864SOL    HW227492   2.378   5.325   3.096 -0.2267  1.2049  0.2285
 8865SOL     OW27493   6.430   0.354   3.708 -0.0567 -0.1372  0.0032
 8865SOL    HW127494   6.363   0.418   3.670 -0.8888  0.5212  2.3919
 8865SOL    HW227495   6.522   0.392   3.696 -0.4117  0.7347 -0.0380
 8866SOL     OW27496   3.836   5.683   6.640  0.2799 -0.2890 -0.3799
 8866SOL    HW127497   3.908   5.751   6.649  0.3763 -0.1864 -1.7033
 8866SOL    HW227498   3.752   5.728   6.608 -0.9385 -0.1033  2.6836
 8867SOL     OW27499   2.039   5.483   6.761  0.1067  0.0819  0.3609
 8867SOL    HW127500   2.003   5.550   6.697  1.1469  0.6999  0.3897
 8867SOL    HW227501   2.113   5.525   6.815 -0.1618 -0.6830  1.3490
 8868SOL     OW27502   5.154   0.578   2.528  0.0250 -0.0327  0.4168
 8868SOL    HW127503   5.206   0.585   2.443 -0.1680  0.8251  0.3583
 8868SOL    HW227504   5.107   0.490   2.532  0.2576 -0.1881 -0.2405
 8869SOL     OW27505   5.158   3.816   1.697 -0.1942 -0.2315 -0.6677
 8869SOL    HW127506   5.135   3.719   1.687  0.6394 -0.3690 -1.4268
 8869SOL    HW227507   5.075   3.869   1.712 -0.8805 -0.8549 -2.0501
 8870SOL     OW27508   5.563   3.379   4.910  0.2422  0.2277 -0.8945
 8870SOL    HW127509   5.607   3.468   4.912  0.5772  0.0697 -1.1399
 8870SOL    HW227510   5.489   3.380   4.842  0.5655  0.1711 -1.2485
 8871SOL     OW27511   5.336   0.757   2.985  0.0795 -0.0412 -0.0473
 8871SOL    HW127512   5.408   0.693   3.012  1.7232  1.6869 -0.0400
 8871SOL    HW227513   5.333   0.763   2.885  0.4991  0.4374 -0.0375
 8872SOL     OW27514   6.127   2.600   6.898 -0.0620 -0.4077 -0.0814
 8872SOL    HW127515   6.078   2.602   6.985 -0.1271  0.0769 -0.1238
 8872SOL    HW227516   6.076   2.653   6.830 -0.6098 -1.7341 -0.7448
 8873SOL     OW27517   0.992   6.216   2.715 -0.3843 -0.4607 -0.0304
 8873SOL    HW127518   1.088   6.202   2.742 -0.9814 -2.4499  1.3619
 8873SOL    HW227519   0.968   6.149   2.645 -1.1181 -0.9668  0.6847
 8874SOL     OW27520   3.652   0.752   4.070 -0.0540 -0.4712 -0.0000
 8874SOL    HW127521   3.715   0.777   3.997  1.0711  2.3760  1.8096
 8874SOL    HW227522   3.691   0.777   4.159 -1.2423 -4.0248  1.7396
 8875SOL     OW27523   1.923   4.976   6.733  0.4227 -0.4989  0.7565
 8875SOL    HW127524   1.910   4.923   6.816 -0.2117 -1.3299  0.1411
 8875SOL    HW227525   2.019   4.971   6.705  0.6230 -0.2607  1.4083
 8876SOL     OW27526   6.611   4.817   3.155 -0.3228  0.4173  0.3746
 8876SOL    HW127527   6.517   4.823   3.190 -0.4185 -0.0635  0.2003
 8876SOL    HW227528   6.661   4.900   3.181 -0.9214  0.8763  0.0911
 8877SOL     OW27529   0.312   0.883   2.052 -0.1477 -0.3305  0.1225
 8877SOL    HW127530   0.257   0.802   2.072  0.5142 -0.7380  0.3500
 8877SOL    HW227531   0.332   0.886   1.954 -3.3311  1.6257 -0.6113
 8878SOL     OW27532   6.610   0.971   3.767 -0.1060 -0.1686 -0.0059
 8878SOL    HW127533   6.700   0.956   3.727 -1.4692 -1.6899 -2.7310
 8878SOL    HW227534   6.619   1.032   3.846  3.1173  0.7163 -0.9091
 8879SOL     OW27535   3.717   1.140   5.872  0.0203  0.5989 -0.3882
 8879SOL    HW127536   3.705   1.229   5.828  0.3139  1.3759  1.0570
 8879SOL    HW227537   3.809   1.133   5.908 -0.0440 -0.2542 -0.3687
 8880SOL     OW27538   5.998   3.277   3.053 -0.4885 -0.0379  0.1488
 8880SOL    HW127539   6.018   3.375   3.061 -0.8490  0.0569 -0.0813
 8880SOL    HW227540   5.898   3.264   3.055 -0.4607 -0.3431 -0.4671
 8881SOL     OW27541   5.807   5.445   0.729  0.1221  0.2624 -0.0591
 8881SOL    HW127542   5.848   5.473   0.642  1.2995  0.5087  0.5723
 8881SOL    HW227543   5.712   5.478   0.732  0.5265  1.5457 -0.6157
 8882SOL     OW27544   5.746   4.700   5.788 -0.4489 -0.7979 -0.5614
 8882SOL    HW127545   5.700   4.611   5.782  0.8890 -1.4990 -0.8488
 8882SOL    HW227546   5.805   4.713   5.708 -0.4413  0.2469 -0.4039
 8883SOL     OW27547   5.155   6.151   0.722  0.1227  0.0981  0.0881
 8883SOL    HW127548   5.168   6.250   0.728  1.0109 -0.0728  1.2804
 8883SOL    HW227549   5.061   6.128   0.747 -0.2069  0.6509 -0.5803
 8884SOL     OW27550   4.519   2.457   3.578 -0.4291  0.0953 -0.1529
 8884SOL    HW127551   4.441   2.446   3.640  0.1423 -0.8854  0.4203
 8884SOL    HW227552   4.539   2.369   3.534  0.2241  0.3894 -0.4547
 8885SOL     OW27553   5.374   0.252   4.452  0.5280 -0.0905 -0.3621
 8885SOL    HW127554   5.396   0.312   4.530 -0.9592 -0.5250  0.4347
 8885SOL    HW227555   5.449   0.187   4.439  0.3783 -0.6833  1.4023
 8886SOL     OW27556   3.113   1.772   0.469 -0.2035  0.2741 -1.0320
 8886SOL    HW127557   3.073   1.775   0.377  0.7142 -1.5617 -1.5517
 8886SOL    HW227558   3.040   1.771   0.537 -0.9481 -0.0036 -1.8183
 8887SOL     OW27559   3.746   0.845   3.089  0.2157  0.0826  0.8085
 8887SOL    HW127560   3.724   0.921   3.150  2.0024  0.9736  0.4181
 8887SOL    HW227561   3.831   0.802   3.118  0.0500 -0.7720  0.0908
 8888SOL     OW27562   6.598   1.523   6.808 -0.2295 -0.0279  0.0417
 8888SOL    HW127563   6.574   1.447   6.747  1.4184 -0.7359  0.1912
 8888SOL    HW227564   6.694   1.514   6.834  0.4771  2.9215 -1.0929
 8889SOL     OW27565   0.443   4.996   3.231 -0.1222  0.2595 -0.1983
 8889SOL    HW127566   0.344   4.994   3.214 -0.0352 -1.8134 -0.7343
 8889SOL    HW227567   0.467   4.923   3.294  1.1317  0.5637 -0.3056
 8890SOL     OW27568   6.757   4.286   6.796  0.3180  0.6045 -0.2289
 8890SOL    HW127569   6.748   4.379   6.761  0.9201  1.7385  2.4081
 8890SOL    HW227570   6.836   4.280   6.857 -1.9437 -0.5169  2.8453
 8891SOL     OW27571   0.456   4.047   6.843  0.6771  0.1962 -0.5536
 8891SOL    HW127572   0.493   3.963   6.804  1.7400  0.7237 -0.7263
 8891SOL    HW227573   0.443   4.035   6.942  0.2625 -0.3543 -0.6708
 8892SOL     OW27574   0.218   0.464   3.499  0.0862 -0.9753  0.0924
 8892SOL    HW127575   0.263   0.387   3.453 -1.2611 -1.9748  0.3570
 8892SOL    HW227576   0.280   0.503   3.567  1.8651  0.0794 -2.0018
 8893SOL     OW27577   6.308   5.840   6.356  0.2452 -0.1889 -0.3315
 8893SOL    HW127578   6.264   5.811   6.441  1.2163  0.6160  0.4852
 8893SOL    HW227579   6.398   5.879   6.378  0.7704 -0.5170 -1.7969
 8894SOL     OW27580   3.239   0.019   5.425 -0.3337  0.1676  0.0253
 8894SOL    HW127581   3.151  -0.026   5.431 -0.0973 -0.4726 -1.1050
 8894SOL    HW227582   3.232   0.112   5.461 -2.1219  1.0603 -2.4029
 8895SOL     OW27583   5.419   5.385   3.150  0.6283 -1.3274  0.0564
 8895SOL    HW127584   5.403   5.433   3.237 -0.5396 -1.8657  0.1638
 8895SOL    HW227585   5.413   5.450   3.075 -1.4291 -1.3224  0.1613
 8896SOL     OW27586   5.667   1.931   2.881 -0.5840  0.3849  0.1077
 8896SOL    HW127587   5.623   1.842   2.866 -0.1056  0.1473  0.1044
 8896SOL    HW227588   5.597   2.003   2.880 -0.8821  0.0919 -0.6389
 8897SOL     OW27589   0.631   6.343   3.143  0.1884  0.5302  0.5351
 8897SOL    HW127590   0.693   6.296   3.080  0.0960  0.0137  0.8230
 8897SOL    HW227591   0.591   6.276   3.206  1.9374  1.2857  2.5737
 8898SOL     OW27592   2.805   2.359   6.197 -0.9991 -0.1064  0.0337
 8898SOL    HW127593   2.840   2.359   6.103 -1.0963 -0.0077 -0.0029
 8898SOL    HW227594   2.864   2.302   6.254 -2.5817 -2.6453 -0.6991
 8899SOL     OW27595   4.029   0.765   6.368  0.3039  0.2686 -0.3203
 8899SOL    HW127596   4.095   0.711   6.421  0.4370  1.1989  0.5138
 8899SOL    HW227597   4.041   0.746   6.271  1.4575  0.0303 -0.1536
 8900SOL     OW27598   6.002   4.089   5.808 -0.7229  0.0270  0.3363
 8900SOL    HW127599   5.995   4.000   5.854  1.4696  0.3518  1.4257
 8900SOL    HW227600   6.015   4.074   5.710 -0.8615 -0.8453  0.4378
 8901SOL     OW27601   4.183   0.689   0.666 -0.5047 -0.4867 -0.0207
 8901SOL    HW127602   4.111   0.621   0.684 -0.4708 -0.3697  0.5735
 8901SOL    HW227603   4.147   0.781   0.684  0.1942 -0.5042  1.6936
 8902SOL     OW27604   1.558   2.445   2.714 -0.3678  0.3438 -0.1194
 8902SOL    HW127605   1.459   2.449   2.704 -0.2892  1.3018 -0.6477
 8902SOL    HW227606   1.596   2.382   2.646 -0.6510 -0.4968  0.4810
 8903SOL     OW27607   5.124   0.201   0.832  0.3464  0.1432  0.0873
 8903SOL    HW127608   5.033   0.244   0.829  0.8014  1.0734 -0.8205
 8903SOL    HW227609   5.194   0.272   0.821  1.4002  0.1041  4.5770
 8904SOL     OW27610   3.801   1.662   1.218 -0.0046  0.3284 -0.0905
 8904SOL    HW127611   3.812   1.716   1.301  0.7886  0.1312 -0.0577
 8904SOL    HW227612   3.773   1.569   1.243 -2.9821  1.1085 -0.2271
 8905SOL     OW27613   5.165   0.091   3.979 -0.1023  0.0618 -0.1974
 8905SOL    HW127614   5.221   0.128   3.905 -1.3858 -0.1114 -1.2913
 8905SOL    HW227615   5.105   0.163   4.015  0.9398  0.3055  1.1150
 8906SOL     OW27616   1.202   1.154   3.525  0.1367 -0.0997  0.5906
 8906SOL    HW127617   1.197   1.160   3.425  2.4075  0.0451  0.4379
 8906SOL    HW227618   1.126   1.098   3.558 -0.7965  0.0229 -1.1832
 8907SOL     OW27619   3.824   1.358   0.033  0.2647 -0.3061 -0.3888
 8907SOL    HW127620   3.754   1.311  -0.020 -0.1990  0.3025 -0.3283
 8907SOL    HW227621   3.781   1.419   0.099  0.8441 -0.8471  0.4996
 8908SOL     OW27622   6.752   2.470   2.561 -0.9208  0.3229 -0.4469
 8908SOL    HW127623   6.692   2.498   2.486 -0.1828  1.5796 -0.5970
 8908SOL    HW227624   6.715   2.504   2.648 -1.6263 -0.8923 -0.2482
 8909SOL     OW27625   5.102   0.773   6.111  0.0489  0.0702 -0.6949
 8909SOL    HW127626   5.019   0.780   6.056 -0.0448 -0.3511 -0.6125
 8909SOL    HW227627   5.175   0.825   6.067 -0.2812  0.5206 -0.7183
 8910SOL     OW27628   0.342   2.635   3.497  0.4097  0.3475  0.0914
 8910SOL    HW127629   0.261   2.634   3.438 -0.6988 -1.4812  1.5328
 8910SOL    HW227630   0.321   2.681   3.583 -0.0508 -2.3648  1.5620
 8911SOL     OW27631   0.217   2.373   1.234  0.0348 -0.3798  0.1094
 8911SOL    HW127632   0.152   2.297   1.231 -0.4571 -0.1872  2.8942
 8911SOL    HW227633   0.310   2.337   1.233 -0.1864 -0.9942  0.5661
 8912SOL     OW27634   0.189   6.616   1.045  0.1582  0.6142  0.2445
 8912SOL    HW127635   0.285   6.605   1.022  0.4728 -0.0955  1.8065
 8912SOL    HW227636   0.178   6.622   1.144 -1.6393 -2.9732  0.4437
 8913SOL     OW27637   1.291   2.672   1.987  0.5918  0.6685 -0.0016
 8913SOL    HW127638   1.339   2.630   2.064 -0.0399  0.5256  0.3218
 8913SOL    HW227639   1.351   2.673   1.907  0.4570 -1.3898 -0.1944
 8914SOL     OW27640   5.975   3.202   5.050 -0.1855 -0.0937 -0.4901
 8914SOL    HW127641   5.881   3.197   5.083 -0.7642  2.1628 -1.5368
 8914SOL    HW227642   5.977   3.252   4.963  2.0651  0.8106 -0.0075
 8915SOL     OW27643   0.883   6.070   1.450  0.7438  0.1404  0.2689
 8915SOL    HW127644   0.974   6.052   1.411  0.4583 -2.0744  0.5220
 8915SOL    HW227645   0.814   6.061   1.379  0.5366 -0.2208  0.5177
 8916SOL     OW27646   1.082   3.756   3.262 -0.4108  0.0460  0.5033
 8916SOL    HW127647   1.090   3.787   3.356 -0.4408  1.8882 -0.0517
 8916SOL    HW227648   1.172   3.731   3.227 -0.6572 -2.9172  1.6562
 8917SOL     OW27649   1.050   6.966   0.051  0.5651 -0.0879 -0.1551
 8917SOL    HW127650   1.039   7.040  -0.016  0.9723  0.0318 -0.0937
 8917SOL    HW227651   1.129   6.986   0.110  0.8993 -0.7434 -0.3684
 8918SOL     OW27652   2.302   1.169   2.590 -0.0973 -0.1787 -0.3828
 8918SOL    HW127653   2.236   1.213   2.529 -0.7577  0.0403  0.4671
 8918SOL    HW227654   2.372   1.235   2.617 -0.8191  0.2420  0.5123
 8919SOL     OW27655   5.402   0.652   3.458  0.1113 -0.0199  0.7021
 8919SOL    HW127656   5.377   0.634   3.363  3.0277 -0.3174 -0.0884
 8919SOL    HW227657   5.353   0.734   3.490 -1.3481 -0.2374 -0.8155
 8920SOL     OW27658   1.244   5.748   1.034 -0.7162  0.6925  0.0105
 8920SOL    HW127659   1.317   5.721   1.098 -0.4339  0.4752 -0.4020
 8920SOL    HW227660   1.242   5.848   1.027  1.5442  0.6822 -2.2258
 8921SOL     OW27661   1.735   4.108   1.194 -0.3448 -0.0465 -0.0229
 8921SOL    HW127662   1.833   4.108   1.177 -0.3354  0.0645  0.0243
 8921SOL    HW227663   1.717   4.078   1.288 -0.2815  0.9372  0.3251
 8922SOL     OW27664   0.873   5.174   0.733 -0.2155  0.2762  0.0361
 8922SOL    HW127665   0.821   5.103   0.781 -1.1383  0.5655 -0.5075
 8922SOL    HW227666   0.919   5.232   0.799  0.3249 -0.6599  0.4950
 8923SOL     OW27667   2.073   3.493   3.080 -0.3924 -0.7964 -0.0492
 8923SOL    HW127668   2.055   3.418   3.144 -1.1815 -2.2269 -1.8471
 8923SOL    HW227669   2.082   3.578   3.130 -0.0472 -1.9962  2.0291
 8924SOL     OW27670   1.635   2.498   5.662 -0.1682 -0.5846  0.2611
 8924SOL    HW127671   1.604   2.536   5.749  0.6902 -0.1932  0.4034
 8924SOL    HW227672   1.720   2.447   5.676  0.9399  0.9441 -0.6118
 8925SOL     OW27673   5.847   1.664   6.528 -0.0535 -0.2767  0.5035
 8925SOL    HW127674   5.908   1.586   6.513 -0.0227 -0.1579 -0.0034
 8925SOL    HW227675   5.859   1.698   6.621  2.0670  0.9575 -0.1492
 8926SOL     OW27676   3.274   4.060   3.897 -0.5146  0.4162 -0.3514
 8926SOL    HW127677   3.367   4.063   3.934 -0.0514  1.1382 -1.5226
 8926SOL    HW227678   3.209   4.051   3.972  0.5476 -1.6080  0.4176
 8927SOL     OW27679   2.007   1.462   3.865  0.2975  0.0428  0.3967
 8927SOL    HW127680   2.001   1.562   3.874 -1.2004 -0.0298  0.3510
 8927SOL    HW227681   1.991   1.420   3.954  0.6032 -0.1797  0.3479
 8928SOL     OW27682   1.114   1.508   5.314  0.2700  0.6156  0.0032
 8928SOL    HW127683   1.122   1.599   5.354 -0.6352  1.2873 -1.2759
 8928SOL    HW227684   1.167   1.443   5.369 -0.1573  1.6448  1.7279
 8929SOL     OW27685   2.986   5.462   5.576 -0.3695  0.4266  0.9386
 8929SOL    HW127686   2.991   5.447   5.477  0.0382 -0.5978  1.0993
 8929SOL    HW227687   2.909   5.410   5.613 -0.4583  0.7268  1.1724
 8930SOL     OW27688   0.299   7.010   3.970 -0.2398  0.6119  0.5330
 8930SOL    HW127689   0.393   7.015   4.002 -0.3640  1.5320  0.7877
 8930SOL    HW227690   0.240   6.983   4.046 -0.1793 -0.0297  0.3573
 8931SOL     OW27691   1.475   4.581   4.760 -0.1992  0.1366 -0.5538
 8931SOL    HW127692   1.379   4.559   4.748 -0.0603 -0.8339  0.0220
 8931SOL    HW227693   1.485   4.678   4.783 -0.9879  0.3639 -1.1616
 8932SOL     OW27694   4.423   5.498   5.862  0.1253 -0.6118  0.1486
 8932SOL    HW127695   4.420   5.418   5.921  4.2303 -0.4529  0.9040
 8932SOL    HW227696   4.421   5.581   5.918 -0.0110 -0.3312 -0.2683
 8933SOL     OW27697   1.340   4.181   4.596  0.2774 -0.2989 -0.2469
 8933SOL    HW127698   1.294   4.092   4.595  1.0402 -0.7087 -1.5129
 8933SOL    HW227699   1.438   4.168   4.587  0.6600  0.5847  2.0894
 8934SOL     OW27700   5.874   1.802   6.054  0.5602 -0.0718  0.0400
 8934SOL    HW127701   5.834   1.793   6.145 -0.6033 -1.0477 -0.5442
 8934SOL    HW227702   5.912   1.714   6.025  0.3598  0.0697 -0.6766
 8935SOL     OW27703   1.204   0.945   6.635 -0.8292  0.6958 -0.3632
 8935SOL    HW127704   1.241   0.854   6.614  1.0833  1.7388 -1.8113
 8935SOL    HW227705   1.170   0.946   6.730 -0.4936 -1.3705 -0.1698
 8936SOL     OW27706   6.841   4.715   2.298  0.3038 -0.2079  0.0053
 8936SOL    HW127707   6.765   4.730   2.360  0.0881  1.3289 -0.5848
 8936SOL    HW227708   6.924   4.755   2.336 -0.0747  1.8160 -1.1680
 8937SOL     OW27709   2.718   2.684   0.733 -0.3509  0.1249  0.0935
 8937SOL    HW127710   2.704   2.767   0.679 -1.3532  1.1236  1.7712
 8937SOL    HW227711   2.629   2.650   0.764  0.2074  0.6716  2.5763
 8938SOL     OW27712   4.450   5.283   3.428 -0.2558 -0.5465 -0.7911
 8938SOL    HW127713   4.507   5.358   3.393  0.1052 -0.7633 -0.6741
 8938SOL    HW227714   4.444   5.210   3.359  0.4998 -0.9965 -0.3892
 8939SOL     OW27715   4.671   4.244   3.166 -0.6666 -0.4597  0.1061
 8939SOL    HW127716   4.667   4.343   3.151  3.0410 -0.1006  0.5557
 8939SOL    HW227717   4.685   4.198   3.078 -1.3507 -0.5128  0.0193
 8940SOL     OW27718   6.583   2.280   1.416 -0.0149  0.4160  0.2628
 8940SOL    HW127719   6.617   2.302   1.508 -2.0824  0.3361  1.1057
 8940SOL    HW227720   6.632   2.201   1.381 -0.1775 -0.4860  1.9468
 8941SOL     OW27721   3.541   4.833   6.553  0.0696  0.6381 -0.3364
 8941SOL    HW127722   3.484   4.782   6.618  0.1717  0.7620 -0.1511
 8941SOL    HW227723   3.579   4.914   6.597 -1.7166  2.0109 -1.1835
 8942SOL     OW27724   5.778   0.115   0.754  0.5316 -0.1184 -0.0799
 8942SOL    HW127725   5.840   0.071   0.820 -0.4736  0.0847  1.0338
 8942SOL    HW227726   5.695   0.143   0.801 -0.2232  0.0227 -1.4697
 8943SOL     OW27727   2.638   3.941   6.139  0.0931 -0.6136  0.2628
 8943SOL    HW127728   2.625   3.943   6.040  0.3202  0.1621  0.2455
 8943SOL    HW227729   2.701   3.866   6.163 -1.3035 -1.9263  0.0029
 8944SOL     OW27730   2.863   6.028   5.593  0.5149  0.0735 -0.2151
 8944SOL    HW127731   2.961   6.013   5.607  0.4710 -1.7968 -1.5781
 8944SOL    HW227732   2.815   6.014   5.680  1.5032  2.0728  0.7292
 8945SOL     OW27733   7.010   4.710   3.043 -0.7774  0.1239 -0.3502
 8945SOL    HW127734   6.933   4.655   3.076 -0.5889  0.1651  0.1655
 8945SOL    HW227735   7.090   4.692   3.100 -1.3959  2.9125  1.5856
 8946SOL     OW27736   2.831   4.810   4.455  0.2970 -0.2825  0.0187
 8946SOL    HW127737   2.853   4.802   4.552  0.6931 -1.6878 -0.1576
 8946SOL    HW227738   2.913   4.836   4.404 -0.2355  1.9222  0.1933
 8947SOL     OW27739   1.902   4.420   3.443 -0.1403  0.9117 -0.3766
 8947SOL    HW127740   1.862   4.394   3.355  0.0269 -2.6751  0.4844
 8947SOL    HW227741   1.839   4.397   3.517  0.2154  2.7933  0.5707
 8948SOL     OW27742   5.658   5.449   4.389  0.4727 -0.8743  0.7560
 8948SOL    HW127743   5.581   5.490   4.339 -0.9139 -1.2775  2.4692
 8948SOL    HW227744   5.731   5.425   4.324 -0.4331  0.3785 -0.7997
 8949SOL     OW27745   1.747   2.991   4.893 -0.2073  0.3621  0.4514
 8949SOL    HW127746   1.691   2.926   4.841  0.0889  0.1330  0.4197
 8949SOL    HW227747   1.843   2.967   4.884 -0.0101  1.4456 -0.4433
 8950SOL     OW27748   0.469   0.375   2.751 -0.2621 -0.0603  0.0965
 8950SOL    HW127749   0.486   0.284   2.713  1.2627  0.1203  0.2707
 8950SOL    HW227750   0.499   0.444   2.685 -0.7550  0.3068  0.2530
 8951SOL     OW27751   3.963   3.376   0.590 -0.5390 -0.2252  0.1834
 8951SOL    HW127752   3.870   3.388   0.556 -0.7650 -1.8217  0.1422
 8951SOL    HW227753   3.960   3.329   0.678  0.2224 -0.0559  0.3038
 8952SOL     OW27754   1.897   3.467   4.128  0.1975 -0.6972  0.0217
 8952SOL    HW127755   1.948   3.509   4.203  0.1990  0.8184 -0.8071
 8952SOL    HW227756   1.943   3.486   4.042 -1.4168  0.1648 -0.6809
 8953SOL     OW27757   0.060   2.857   1.902 -0.1466 -0.0317 -0.3785
 8953SOL    HW127758   0.075   2.928   1.832  0.4388 -0.0539 -0.2837
 8953SOL    HW227759   0.147   2.836   1.946 -0.7640  1.1938  1.5448
 8954SOL     OW27760   4.008   4.471   6.217 -0.9260 -0.4058 -0.0011
 8954SOL    HW127761   4.087   4.512   6.171 -1.0234  2.0529  1.8552
 8954SOL    HW227762   4.030   4.377   6.243  1.3765  0.1946  0.4157
 8955SOL     OW27763   0.919   5.808   6.002 -0.0674 -0.3008  0.0140
 8955SOL    HW127764   0.877   5.892   5.969  1.3252  1.1484  1.6834
 8955SOL    HW227765   0.953   5.754   5.925 -1.8779  0.1541 -1.1400
 8956SOL     OW27766   6.827   0.493   6.503  0.6306 -0.5787  0.2135
 8956SOL    HW127767   6.827   0.519   6.407  1.1557 -0.6003  0.2024
 8956SOL    HW227768   6.813   0.574   6.560 -0.0846 -0.6266  0.1088
 8957SOL     OW27769   0.737   4.110   3.763  0.5556 -0.0297 -0.1981
 8957SOL    HW127770   0.791   4.128   3.846  0.7502 -0.5180 -0.2138
 8957SOL    HW227771   0.687   4.024   3.774 -0.8704  0.8243  0.1353
 8958SOL     OW27772   2.845   2.311   5.025 -0.3704 -0.0153 -0.1088
 8958SOL    HW127773   2.837   2.305   4.925  0.1962  1.3107 -0.2532
 8958SOL    HW227774   2.941   2.322   5.050 -0.6871  1.9349  0.4144
 8959SOL     OW27775   1.201   6.666   4.033  0.2975 -0.7259  0.0752
 8959SOL    HW127776   1.149   6.607   3.970  0.5161  0.9730 -1.7875
 8959SOL    HW227777   1.190   6.761   4.007 -0.6993  0.2433  3.5031
 8960SOL     OW27778   5.756   4.242   4.968 -0.3059 -0.6690  0.2296
 8960SOL    HW127779   5.711   4.274   4.884 -1.5201 -1.1423  0.6794
 8960SOL    HW227780   5.705   4.166   5.006  1.1710 -1.5477  0.5201
 8961SOL     OW27781   0.234   1.056   5.508 -0.4580 -0.6397  0.3352
 8961SOL    HW127782   0.319   1.094   5.470  0.5892 -1.6138  1.6291
 8961SOL    HW227783   0.191   0.998   5.440 -0.2135  0.0386 -0.4199
 8962SOL     OW27784   5.055   3.683   5.084  0.1374  0.8530 -0.0681
 8962SOL    HW127785   5.035   3.738   5.164 -0.0963  0.4124  0.1838
 8962SOL    HW227786   4.972   3.633   5.057  0.2249  0.9676 -0.5562
 8963SOL     OW27787   1.864   0.153   6.270 -0.3185 -0.2753  0.1286
 8963SOL    HW127788   1.888   0.143   6.366  0.7914 -0.4579 -0.1574
 8963SOL    HW227789   1.874   0.249   6.243  1.2698 -0.5372 -0.2811
 8964SOL     OW27790   0.546   1.904   5.639  0.3603 -0.0684 -0.5704
 8964SOL    HW127791   0.616   1.940   5.577  1.5744  1.7091  1.6819
 8964SOL    HW227792   0.573   1.814   5.672 -0.2059 -0.9500 -2.3817
 8965SOL     OW27793   0.188   4.348   2.738  0.0608  0.1324  0.0747
 8965SOL    HW127794   0.226   4.256   2.746  0.4799  0.3924  1.1327
 8965SOL    HW227795   0.092   4.342   2.708  0.3555 -0.5924 -0.7842
 8966SOL     OW27796   0.197   0.878   0.177  0.4146 -0.0903  0.2869
 8966SOL    HW127797   0.231   0.954   0.121 -2.2249 -0.3395 -1.8655
 8966SOL    HW227798   0.238   0.793   0.146 -0.9276 -0.2090 -1.3120
 8967SOL     OW27799   2.612   0.280   2.188 -0.1896  0.3630 -0.5596
 8967SOL    HW127800   2.581   0.200   2.239 -0.8562  0.8441 -0.1884
 8967SOL    HW227801   2.540   0.349   2.188  0.5806  1.1978 -0.3720
 8968SOL     OW27802   6.033   0.972   2.563 -0.2332  0.0548 -0.3751
 8968SOL    HW127803   5.996   0.904   2.626 -2.0391  0.4581 -0.9240
 8968SOL    HW227804   6.093   1.035   2.612  2.1619 -2.3530 -0.0049
 8969SOL     OW27805   5.973   2.893   5.083 -0.0189 -0.0093 -0.0701
 8969SOL    HW127806   5.931   2.983   5.083  1.2895  0.6491 -1.5131
 8969SOL    HW227807   6.071   2.902   5.100  0.5406 -0.8873 -2.4796
 8970SOL     OW27808   0.171   4.971   3.214  0.3675 -0.0542 -0.2532
 8970SOL    HW127809   0.154   4.990   3.117 -0.6122 -0.2398 -0.1271
 8970SOL    HW227810   0.119   5.035   3.270  0.8480 -0.0187  0.1601
 8971SOL     OW27811   5.771   3.609   1.725 -0.1474  0.2361 -0.5964
 8971SOL    HW127812   5.698   3.654   1.672 -0.0749  1.1441  0.0457
 8971SOL    HW227813   5.849   3.672   1.732  0.4805 -0.5107 -0.7893
 8972SOL     OW27814   3.833   3.917   2.135 -0.9385 -0.5038  0.3970
 8972SOL    HW127815   3.858   3.827   2.170  2.4526  0.3107  0.4141
 8972SOL    HW227816   3.821   3.980   2.212 -0.9248 -0.4009  0.3148
 8973SOL     OW27817   5.903   5.540   5.260  0.3367 -1.0046 -0.5972
 8973SOL    HW127818   5.905   5.587   5.348 -0.6260 -0.8230 -0.6583
 8973SOL    HW227819   5.995   5.511   5.235  0.4990 -1.7923  0.8518
 8974SOL     OW27820   5.487   5.472   1.769 -0.5349  0.0774 -0.1861
 8974SOL    HW127821   5.408   5.412   1.783 -0.6197 -0.1064 -1.3342
 8974SOL    HW227822   5.468   5.534   1.693  1.3404 -1.6643 -2.2338
 8975SOL     OW27823   5.578   6.300   0.954  0.3199 -0.5036 -0.7898
 8975SOL    HW127824   5.660   6.316   0.900  1.3699  0.7024  1.0422
 8975SOL    HW227825   5.500   6.343   0.908  1.2026  0.6236 -1.3001
 8976SOL     OW27826   5.245   3.833   5.509  0.3792  0.8293  0.0208
 8976SOL    HW127827   5.212   3.825   5.603  0.1590  0.7996 -0.0575
 8976SOL    HW227828   5.171   3.808   5.446  0.6108  0.5881 -0.1542
 8977SOL     OW27829   6.679   2.367   1.685 -0.0180 -0.2930  0.2468
 8977SOL    HW127830   6.687   2.296   1.755  1.6573  1.2602  1.7440
 8977SOL    HW227831   6.625   2.443   1.721  0.7855  0.4883 -0.1587
 8978SOL     OW27832   0.762   0.386   6.867  0.2140  0.2061  0.2933
 8978SOL    HW127833   0.749   0.288   6.854 -0.5373  0.1886  1.0896
 8978SOL    HW227834   0.714   0.436   6.795 -0.6039  0.0185  0.6965
 8979SOL     OW27835   4.719   2.026   3.405 -0.3693 -0.4429  0.0748
 8979SOL    HW127836   4.785   2.078   3.460 -1.4916  0.8058  0.2707
 8979SOL    HW227837   4.760   2.006   3.315  0.7761 -0.9064  0.6663
 8980SOL     OW27838   1.215   6.150   5.038 -0.0850 -0.1968  0.0512
 8980SOL    HW127839   1.269   6.233   5.032 -1.0361  0.7065  2.5757
 8980SOL    HW227840   1.151   6.146   4.961  2.2321 -0.4246 -2.0076
 8981SOL     OW27841   1.892   2.973   5.921 -0.0272  0.4507  0.2059
 8981SOL    HW127842   1.988   2.954   5.942  0.1423 -0.1162 -0.9968
 8981SOL    HW227843   1.878   3.072   5.918  0.7545  0.5564 -0.5291
 8982SOL     OW27844   2.795   6.882   3.860 -0.1525 -0.1322  0.4689
 8982SOL    HW127845   2.790   6.791   3.817  0.1738  0.3326 -0.5683
 8982SOL    HW227846   2.770   6.874   3.957 -2.0189 -1.0137 -0.0442
 8983SOL     OW27847   6.332   5.103   3.369 -0.3656  0.5840 -0.3850
 8983SOL    HW127848   6.278   5.026   3.402  1.3375  0.1691  1.6261
 8983SOL    HW227849   6.409   5.120   3.431  1.5695  1.4529 -2.8169
 8984SOL     OW27850   3.619   6.141   0.963 -0.4101 -0.4982  0.4841
 8984SOL    HW127851   3.579   6.056   0.929  1.1831  0.1692 -3.5904
 8984SOL    HW227852   3.554   6.216   0.951  0.5875 -0.0276 -2.7835
 8985SOL     OW27853   0.257   0.645   3.098  0.0568  0.3599  0.0870
 8985SOL    HW127854   0.191   0.620   3.169  1.0048  0.3691  0.9863
 8985SOL    HW227855   0.326   0.706   3.135 -0.3039  1.6423 -1.2485
 8986SOL     OW27856   0.623   2.828   2.030 -0.1231  0.6795 -0.4991
 8986SOL    HW127857   0.698   2.764   2.046  0.1244  0.5171 -2.1185
 8986SOL    HW227858   0.585   2.857   2.118  0.3458 -0.9786  0.3065
 8987SOL     OW27859   6.001   4.722   4.144  0.6076 -0.0033  0.0826
 8987SOL    HW127860   5.949   4.783   4.203 -1.8979 -1.7071 -0.1904
 8987SOL    HW227861   6.086   4.696   4.189  0.8062  2.1098  1.0111
 8988SOL     OW27862   0.384   4.262   1.825 -0.5912 -0.4681 -0.8015
 8988SOL    HW127863   0.422   4.201   1.895  1.1154 -0.8409 -1.9848
 8988SOL    HW227864   0.345   4.207   1.751 -0.2749 -0.1045 -1.2399
 8989SOL     OW27865   0.879   4.320   0.297 -0.1987 -0.7636  0.0039
 8989SOL    HW127866   0.894   4.414   0.266  1.3071 -0.2845  1.9482
 8989SOL    HW227867   0.784   4.309   0.327 -1.1499 -0.7020 -2.7106
 8990SOL     OW27868   6.008   1.704   4.824 -0.0575 -0.1435 -0.0440
 8990SOL    HW127869   6.095   1.751   4.842 -0.5626  1.4707 -1.5507
 8990SOL    HW227870   5.936   1.772   4.811 -0.9405 -1.3367 -1.7112
 8991SOL     OW27871   4.814   2.261   0.054  0.6766 -0.3137 -0.4861
 8991SOL    HW127872   4.812   2.163   0.072 -1.9728 -0.3054 -0.3703
 8991SOL    HW227873   4.729   2.289   0.009  0.8951  2.0734  0.4032
 8992SOL     OW27874   0.676   1.115   4.264 -0.0416  0.7562 -0.5180
 8992SOL    HW127875   0.752   1.064   4.303 -2.7615 -1.8443  1.8436
 8992SOL    HW227876   0.644   1.069   4.181 -0.9729 -0.0699  0.2716
 8993SOL     OW27877   5.527   0.551   1.881  0.3841 -0.3721  0.1095
 8993SOL    HW127878   5.601   0.493   1.915  0.9420 -0.0195 -0.4767
 8993SOL    HW227879   5.441   0.501   1.886  0.9021 -1.3834 -0.6691
 8994SOL     OW27880   2.248   6.443   2.468  1.1109  0.6025 -0.0415
 8994SOL    HW127881   2.160   6.438   2.419  1.1712  2.8175 -0.4856
 8994SOL    HW227882   2.322   6.425   2.403  1.0691  0.7656 -0.1361
 8995SOL     OW27883   5.583   5.391   5.763  0.1559 -0.1154  0.5249
 8995SOL    HW127884   5.557   5.295   5.762  1.2568 -0.4800  2.0993
 8995SOL    HW227885   5.504   5.447   5.737 -0.4897 -1.4201 -0.4605
 8996SOL     OW27886   0.335   2.753   3.743 -0.2322 -0.4322 -0.1611
 8996SOL    HW127887   0.302   2.687   3.810  0.0129 -0.0902  0.3036
 8996SOL    HW227888   0.350   2.841   3.788 -0.5616 -0.0531 -0.7724
 8997SOL     OW27889   6.887   1.726   2.483 -0.0730 -0.0614  0.1199
 8997SOL    HW127890   6.985   1.706   2.488 -0.3128 -1.1601  0.7083
 8997SOL    HW227891   6.854   1.752   2.573 -0.3356  0.2928 -0.0755
 8998SOL     OW27892   4.841   5.535   1.681 -0.0043 -0.4462  0.4341
 8998SOL    HW127893   4.789   5.456   1.713  0.2587 -1.1110 -0.7110
 8998SOL    HW227894   4.823   5.550   1.583  2.6831 -1.3437 -0.3006
 8999SOL     OW27895   3.740   1.833   0.964 -0.0967  0.0159 -0.5164
 8999SOL    HW127896   3.665   1.841   0.897  1.3247  2.9593 -1.9688
 8999SOL    HW227897   3.706   1.855   1.055 -1.4216 -0.8736 -0.7737
 9000SOL     OW27898   4.309   0.637   5.671 -0.1214 -0.4191 -0.1121
 9000SOL    HW127899   4.360   0.707   5.720 -0.5683  0.4288 -0.8409
 9000SOL    HW227900   4.367   0.595   5.602 -0.5909  1.0983 -1.4886
 9001SOL     OW27901   1.140   1.583   3.812  0.0838 -0.4272  0.0631
 9001SOL    HW127902   1.111   1.678   3.808 -0.4090 -0.6047 -0.7683
 9001SOL    HW227903   1.095   1.539   3.890 -0.2342 -0.1524  0.0402
 9002SOL     OW27904   4.755   6.379   6.731 -0.0737 -0.5463 -0.0431
 9002SOL    HW127905   4.743   6.322   6.811 -2.1638 -1.0086 -0.6306
 9002SOL    HW227906   4.666   6.405   6.694  0.7240  2.9115  0.0268
 9003SOL     OW27907   2.754   6.371   3.684 -0.0508 -0.6028  0.2768
 9003SOL    HW127908   2.796   6.324   3.607 -0.0127 -0.0154 -0.0636
 9003SOL    HW227909   2.707   6.304   3.742  0.4310 -1.1227  0.0788
 9004SOL     OW27910   1.181   0.310   2.720  0.3188  0.4004 -0.0275
 9004SOL    HW127911   1.238   0.389   2.698  0.4659 -0.1055 -1.6185
 9004SOL    HW227912   1.217   0.228   2.674 -0.6932 -0.2805  0.3397
 9005SOL     OW27913   3.554   1.864   3.365 -0.0538  0.1358  0.4957
 9005SOL    HW127914   3.616   1.943   3.365  1.2179 -0.8012 -1.0421
 9005SOL    HW227915   3.504   1.862   3.451  1.4810  1.3853  1.4929
 9006SOL     OW27916   6.875   0.333   4.127  0.2482  0.1125  0.5888
 9006SOL    HW127917   6.810   0.380   4.067  0.4675  1.0210  1.0328
 9006SOL    HW227918   6.832   0.315   4.215  0.2987 -0.1350  0.5614
 9007SOL     OW27919   6.120   2.014   3.638  0.0644  0.3896 -0.0399
 9007SOL    HW127920   6.027   2.025   3.603 -0.1828  0.6445  0.6962
 9007SOL    HW227921   6.119   1.956   3.719  0.2401  2.2852  1.3628
 9008SOL     OW27922   1.236   0.977   1.924  0.0010 -0.3830  0.5509
 9008SOL    HW127923   1.284   0.996   2.009 -0.7589 -1.0938  1.1570
 9008SOL    HW227924   1.298   0.988   1.847  0.4327  1.2792  1.1078
 9009SOL     OW27925   1.223   2.236   3.992  0.4551  0.7006  0.2037
 9009SOL    HW127926   1.197   2.290   3.911  0.0569  1.2800  0.7080
 9009SOL    HW227927   1.250   2.298   4.065 -1.0726  0.2772  1.1643
 9010SOL     OW27928   5.737   3.982   2.439 -0.1585  0.2261 -0.1339
 9010SOL    HW127929   5.734   4.005   2.536  0.6151  1.0877 -0.3096
 9010SOL    HW227930   5.722   3.883   2.428 -0.5047  0.1624  0.8310
 9011SOL     OW27931   3.732   6.754   3.643  0.1059 -0.1047 -0.0788
 9011SOL    HW127932   3.744   6.741   3.741 -0.7446 -0.7978 -0.0547
 9011SOL    HW227933   3.767   6.675   3.594  0.6387  0.2923 -0.3520
 9012SOL     OW27934   1.108   6.192   1.893 -0.2827  0.4848  0.2173
 9012SOL    HW127935   1.053   6.223   1.971  0.7158  1.4065  0.5758
 9012SOL    HW227936   1.094   6.255   1.816 -2.2295 -1.0924 -0.8384
 9013SOL     OW27937   4.080   6.815   4.249 -0.3648 -0.2026 -0.2155
 9013SOL    HW127938   4.100   6.720   4.274 -0.3807 -0.5243 -1.3408
 9013SOL    HW227939   4.064   6.869   4.331  0.9420 -0.8840  0.5152
 9014SOL     OW27940   1.830   5.802   0.571  0.4269 -0.0046  0.0067
 9014SOL    HW127941   1.732   5.820   0.558  0.2663 -0.8308  0.0518
 9014SOL    HW227942   1.857   5.831   0.663 -0.2886 -1.8232  0.8499
 9015SOL     OW27943   3.165   4.642   6.192  0.5496 -0.1487  0.5268
 9015SOL    HW127944   3.258   4.638   6.157 -0.5161 -1.5816 -2.4518
 9015SOL    HW227945   3.130   4.549   6.204 -0.9995  0.3428  0.0516
 9016SOL     OW27946   2.484   1.558   6.275  0.5915 -0.0308  0.1129
 9016SOL    HW127947   2.553   1.495   6.239  0.1254 -0.0937 -0.7041
 9016SOL    HW227948   2.405   1.505   6.307 -0.1026  0.1385 -1.2269
 9017SOL     OW27949   6.111   1.777   5.698  0.1602 -0.1977 -0.3553
 9017SOL    HW127950   6.074   1.711   5.633 -0.0173 -0.4716  0.0159
 9017SOL    HW227951   6.041   1.843   5.723  0.2428 -0.0623 -0.4809
 9018SOL     OW27952   6.565   5.969   6.415 -0.1127 -0.5615 -0.6688
 9018SOL    HW127953   6.645   5.948   6.358  0.8108 -0.2037  0.4495
 9018SOL    HW227954   6.595   5.981   6.510 -1.6688 -1.6495  0.0020
 9019SOL     OW27955   1.667   0.941   1.477 -0.1169  0.8460  0.0517
 9019SOL    HW127956   1.711   0.998   1.547 -0.1705  1.4191 -0.3775
 9019SOL    HW227957   1.734   0.878   1.439 -0.4749 -0.7233  1.8572
 9020SOL     OW27958   2.360   2.772   5.232 -0.3793  0.3145 -1.2212
 9020SOL    HW127959   2.383   2.700   5.167 -1.1391  0.0288 -1.1799
 9020SOL    HW227960   2.412   2.855   5.209  0.7841 -0.3511 -1.0274
 9021SOL     OW27961   2.019   0.133   3.168  0.2667 -0.4360 -0.0855
 9021SOL    HW127962   2.025   0.200   3.093 -0.5960 -0.5629 -0.2806
 9021SOL    HW227963   1.957   0.167   3.238 -0.8208 -1.3613 -0.5584
 9022SOL     OW27964   6.621   4.879   0.750 -0.2445 -0.0626 -0.0685
 9022SOL    HW127965   6.700   4.820   0.768 -0.8561 -0.5534  1.1503
 9022SOL    HW227966   6.543   4.822   0.725 -0.5513  0.3137  0.0321
 9023SOL     OW27967   6.866   1.490   6.130  0.7482  0.7409 -0.4218
 9023SOL    HW127968   6.860   1.403   6.081  2.1379  0.8581 -0.8452
 9023SOL    HW227969   6.794   1.551   6.098 -0.3570 -0.2920 -0.0007
 9024SOL     OW27970   1.159   1.195   0.413 -0.2453  0.5291  0.1728
 9024SOL    HW127971   1.098   1.142   0.354 -0.2162 -0.9702  1.4201
 9024SOL    HW227972   1.244   1.214   0.365 -0.0382 -1.0720 -0.1548
 9025SOL     OW27973   3.897   6.521   1.892  0.1907 -0.2047 -1.1283
 9025SOL    HW127974   3.968   6.581   1.854  0.7333  0.5298  0.8848
 9025SOL    HW227975   3.862   6.561   1.977 -0.1300 -2.2656 -0.2303
 9026SOL     OW27976   6.142   6.692   1.321 -0.4457 -0.3124 -0.1387
 9026SOL    HW127977   6.240   6.707   1.331 -0.3132 -1.9541  1.7201
 9026SOL    HW227978   6.096   6.779   1.305  1.2691  0.5109 -0.7767
 9027SOL     OW27979   5.169   3.807   5.766 -0.0621  0.2982 -0.2461
 9027SOL    HW127980   5.079   3.816   5.810  0.5668  0.0421  1.1665
 9027SOL    HW227981   5.240   3.801   5.837  0.8264 -2.1752 -1.2253
 9028SOL     OW27982   4.233   0.542   3.437 -0.4644  0.2036 -0.1268
 9028SOL    HW127983   4.301   0.596   3.487 -1.3965  0.5410  0.8178
 9028SOL    HW227984   4.218   0.455   3.485 -4.0309  1.9819  2.4763
 9029SOL     OW27985   3.424   2.415   5.355  0.1513 -0.1239 -0.1879
 9029SOL    HW127986   3.361   2.400   5.278  0.0524 -0.9869  0.0495
 9029SOL    HW227987   3.371   2.430   5.438  0.2590 -0.7816 -0.0004
 9030SOL     OW27988   5.033   2.886   5.842 -0.0866  0.3388  1.1348
 9030SOL    HW127989   5.001   2.978   5.819 -0.7811  0.2710  1.8156
 9030SOL    HW227990   4.958   2.833   5.880 -0.6061 -1.5947 -2.2141
 9031SOL     OW27991   2.024   2.899   1.014  0.1762  0.0038  0.5589
 9031SOL    HW127992   2.114   2.934   0.988 -1.2890  2.1660 -2.1231
 9031SOL    HW227993   1.997   2.826   0.952 -0.4519  0.2691  0.5108
 9032SOL     OW27994   3.070   0.097   6.557 -0.3474  0.3447  0.5472
 9032SOL    HW127995   3.111   0.108   6.467 -2.1780 -0.0330 -0.3729
 9032SOL    HW227996   2.978   0.061   6.548 -0.7187  0.6559  2.5637
 9033SOL     OW27997   6.159   6.268   0.772  0.1363 -0.3245  0.5353
 9033SOL    HW127998   6.203   6.208   0.838  1.8517 -1.4423 -1.5008
 9033SOL    HW227999   6.228   6.308   0.712 -1.4121 -0.2924 -1.3341
 9034SOL     OW28000   0.172   2.233   5.832  0.1723  0.9100 -0.2483
 9034SOL    HW128001   0.225   2.151   5.852 -2.4957 -0.3405  2.5227
 9034SOL    HW228002   0.179   2.297   5.909 -0.9538  1.4850 -0.5940
 9035SOL     OW28003   5.054   0.552   0.696  0.2258  0.6052  0.2151
 9035SOL    HW128004   5.116   0.483   0.734  0.2156  2.0684  3.1655
 9035SOL    HW228005   4.959   0.525   0.712  0.2239  1.4737  1.8795
 9036SOL     OW28006   4.539   3.207   1.468  0.4784  0.2622 -0.3779
 9036SOL    HW128007   4.561   3.160   1.383 -0.6373  1.4225 -1.3555
 9036SOL    HW228008   4.614   3.269   1.492  0.0100  1.3350 -1.5773
 9037SOL     OW28009   1.343   3.830   6.013 -0.1454  0.4072  0.4109
 9037SOL    HW128010   1.383   3.889   6.083 -1.2936 -1.0244  2.3821
 9037SOL    HW228011   1.243   3.837   6.017 -0.2299  0.2388 -1.0631
 9038SOL     OW28012   4.055   6.263   0.884 -0.0014  0.5969 -0.0488
 9038SOL    HW128013   4.034   6.190   0.949  1.5313  0.1057 -0.0642
 9038SOL    HW228014   3.970   6.297   0.844 -0.8327 -0.3887  0.8055
 9039SOL     OW28015   3.853   5.037   3.003  0.0578  0.5540  0.1168
 9039SOL    HW128016   3.758   5.057   3.027  0.0614  2.3552 -1.1111
 9039SOL    HW228017   3.913   5.104   3.046  0.7340 -0.2744  0.4889
 9040SOL     OW28018   5.059   6.397   5.196 -0.1403 -0.1697  0.6806
 9040SOL    HW128019   5.125   6.472   5.208  0.6848 -0.6444 -0.7089
 9040SOL    HW228020   5.013   6.408   5.108  1.3139 -2.2732 -0.4006
 9041SOL     OW28021   6.613   6.516   0.782  0.0537 -0.4122 -0.1894
 9041SOL    HW128022   6.684   6.551   0.720 -0.9005  2.1715  0.0399
 9041SOL    HW228023   6.528   6.502   0.732 -0.3975  0.5749  0.2554
 9042SOL     OW28024   4.293   6.577   5.395  0.2708 -0.4925 -0.2959
 9042SOL    HW128025   4.360   6.637   5.440 -0.0448 -0.0625 -0.3979
 9042SOL    HW228026   4.270   6.614   5.306 -1.5808  0.4341  0.5191
 9043SOL     OW28027   6.625   4.383   4.576 -0.3054  0.0656 -0.7937
 9043SOL    HW128028   6.571   4.460   4.610 -1.5060 -0.9896 -0.2289
 9043SOL    HW228029   6.630   4.386   4.477 -1.4952  0.1433 -0.8608
 9044SOL     OW28030   0.757   5.594   6.420  1.1240 -0.2159 -0.1250
 9044SOL    HW128031   0.804   5.636   6.498 -0.3093 -0.3108  0.8145
 9044SOL    HW228032   0.799   5.627   6.335  1.5952  1.2448  0.6387
 9045SOL     OW28033   6.827   6.944   5.144 -0.3215  0.3797  0.0827
 9045SOL    HW128034   6.906   6.920   5.088  0.4333 -0.6331  1.5189
 9045SOL    HW228035   6.765   6.866   5.150  0.1856  0.0646  1.5772
 9046SOL     OW28036   2.509   1.096   4.353  0.2447  0.6622  0.8524
 9046SOL    HW128037   2.472   1.055   4.270 -0.5171 -0.1344  1.5659
 9046SOL    HW228038   2.456   1.176   4.378  1.1017  1.5097  0.0246
 9047SOL     OW28039   6.676   5.003   0.378 -0.4226  0.0968  0.0403
 9047SOL    HW128040   6.618   5.037   0.304 -1.5307  0.0754  0.8826
 9047SOL    HW228041   6.663   5.059   0.459 -1.0143 -1.2825  0.9424
 9048SOL     OW28042   0.414   4.628   1.539 -0.1654 -0.8390 -0.0668
 9048SOL    HW128043   0.417   4.529   1.524 -1.0121 -1.2109  1.8076
 9048SOL    HW228044   0.408   4.646   1.637  1.1917  1.1403 -0.2839
 9049SOL     OW28045   1.758   1.326   3.075 -0.0209  0.0391 -0.0687
 9049SOL    HW128046   1.674   1.293   3.032  0.8394 -1.6603 -0.5551
 9049SOL    HW228047   1.820   1.361   3.005  0.3096 -0.2314  0.0834
 9050SOL     OW28048   4.259   2.324   4.516  0.6841  0.3986  0.2678
 9050SOL    HW128049   4.165   2.345   4.489  0.8991  3.0179  1.2504
 9050SOL    HW228050   4.267   2.327   4.615  1.6664 -0.5490  0.2382
 9051SOL     OW28051   1.381   2.771   2.669  0.0465 -0.0925  0.4307
 9051SOL    HW128052   1.414   2.841   2.732  1.1545  0.0376 -0.2764
 9051SOL    HW228053   1.439   2.768   2.587 -0.1395 -1.6475  0.3148
 9052SOL     OW28054   3.239   0.258   6.743 -0.2793 -0.2327  0.2873
 9052SOL    HW128055   3.224   0.320   6.820  1.2986 -0.9438  1.2392
 9052SOL    HW228056   3.190   0.172   6.758 -0.7343 -0.0223  0.0220
 9053SOL     OW28057   2.727   5.008   6.073 -0.3574  0.7959  0.5545
 9053SOL    HW128058   2.818   5.050   6.078 -0.1046  0.5151 -1.1123
 9053SOL    HW228059   2.706   4.963   6.160  1.8921 -0.7130  0.3920
 9054SOL     OW28060   6.118   0.932   4.464  0.0713 -0.5778 -0.2534
 9054SOL    HW128061   6.036   0.885   4.498 -0.2830  1.0452  1.3031
 9054SOL    HW228062   6.131   0.912   4.367 -2.2441 -0.7829 -0.5741
 9055SOL     OW28063   6.715   0.342   2.050 -0.0273  0.5784  0.1176
 9055SOL    HW128064   6.806   0.312   2.078  0.4961  0.4858 -1.5734
 9055SOL    HW228065   6.648   0.315   2.119  1.1786  0.4017  1.2524
 9056SOL     OW28066   1.406   4.391   6.211  0.0515 -0.0501 -0.2819
 9056SOL    HW128067   1.323   4.445   6.222  1.3624  1.7918  1.2637
 9056SOL    HW228068   1.424   4.376   6.114 -0.8195  1.5556 -0.7261
 9057SOL     OW28069   1.036   6.819   1.765  0.3658 -0.1294  0.5841
 9057SOL    HW128070   1.100   6.855   1.833 -0.1443 -2.1317  2.2420
 9057SOL    HW228071   1.065   6.847   1.674  2.9892 -0.0532  1.3419
 9058SOL     OW28072   0.964   4.714   2.110  0.4318 -0.1386 -0.7703
 9058SOL    HW128073   1.023   4.663   2.172  0.5400 -2.0796 -2.3768
 9058SOL    HW228074   0.877   4.733   2.156 -0.7632 -4.3237 -0.8871
 9059SOL     OW28075   4.951   0.366   2.359  0.2363  0.0925  0.3620
 9059SOL    HW128076   4.939   0.316   2.274 -0.7802  1.3271 -0.2509
 9059SOL    HW228077   5.014   0.316   2.419 -2.5830 -3.2721  0.8685
 9060SOL     OW28078   0.838   0.812   1.544 -0.0046  0.9143 -0.4761
 9060SOL    HW128079   0.861   0.748   1.618 -0.8633  1.8644  0.6522
 9060SOL    HW228080   0.841   0.764   1.457 -0.0453 -0.5139  0.2724
 9061SOL     OW28081   0.003   2.499   0.580  0.2071 -0.3268  0.3227
 9061SOL    HW128082  -0.083   2.493   0.529  0.3471  2.7853 -0.4647
 9061SOL    HW228083  -0.016   2.512   0.677 -0.2789  0.8448  0.0910
 9062SOL     OW28084   2.574   6.204   2.486  0.0806  0.8355 -0.0321
 9062SOL    HW128085   2.532   6.114   2.479  1.7323  0.1342 -2.4416
 9062SOL    HW228086   2.645   6.202   2.557  0.0032  0.2580  0.0355
 9063SOL     OW28087   0.489   1.950   3.120  0.3250  0.2236 -0.4793
 9063SOL    HW128088   0.533   1.992   3.040 -0.7609 -0.2194 -1.3500
 9063SOL    HW228089   0.532   1.862   3.140 -0.9162 -0.8224 -2.1312
 9064SOL     OW28090   0.409   1.993   4.814  0.3669 -0.4852  0.0077
 9064SOL    HW128091   0.458   1.937   4.747 -0.4882  0.5418 -1.5556
 9064SOL    HW228092   0.426   2.090   4.794 -0.7111 -0.1496  0.6497
 9065SOL     OW28093   1.606   5.037   1.187 -0.0433  0.0607 -0.2552
 9065SOL    HW128094   1.664   4.956   1.177 -0.9218 -0.4660 -1.3003
 9065SOL    HW228095   1.633   5.088   1.269  1.8957 -0.1507 -0.7231
 9066SOL     OW28096   2.691   1.506   5.016  0.0316 -0.4407 -0.1427
 9066SOL    HW128097   2.773   1.479   4.965  1.0658  2.2095 -0.0568
 9066SOL    HW228098   2.714   1.519   5.112 -0.5705 -0.0390 -0.0475
 9067SOL     OW28099   6.768   1.704   3.417  0.1716  0.2666  0.0958
 9067SOL    HW128100   6.735   1.798   3.426  3.4369  1.4792  0.6118
 9067SOL    HW228101   6.764   1.659   3.506  1.9063  1.1773  0.6724
 9068SOL     OW28102   4.825   5.237   5.780  0.3507  0.1331  0.6847
 9068SOL    HW128103   4.812   5.305   5.707 -1.0950 -1.4028 -0.5694
 9068SOL    HW228104   4.870   5.280   5.858  1.6652  1.9269 -0.9753
 9069SOL     OW28105   6.894   6.636   5.382  0.3561  0.4089  0.3200
 9069SOL    HW128106   6.860   6.542   5.393 -1.8528  0.9717 -1.0263
 9069SOL    HW228107   6.906   6.677   5.472 -1.6237 -0.2091  0.9309
 9070SOL     OW28108   6.811   1.922   6.257 -0.1898 -0.1063 -0.2722
 9070SOL    HW128109   6.819   1.823   6.254 -0.4404 -0.1455  0.3285
 9070SOL    HW228110   6.727   1.950   6.210 -1.1874 -0.3309  1.3090
 9071SOL     OW28111   5.661   6.684   7.008 -0.0818 -0.0204 -0.3953
 9071SOL    HW128112   5.724   6.633   7.067  0.9724  0.1035 -1.3799
 9071SOL    HW228113   5.601   6.620   6.960 -0.2869 -0.1813  0.0675
 9072SOL     OW28114   4.630   1.403   0.904  0.1265  0.0093  0.0068
 9072SOL    HW128115   4.714   1.414   0.958 -0.4107 -1.3051  1.1897
 9072SOL    HW228116   4.654   1.376   0.811  1.0456 -1.2759  0.5729
 9073SOL     OW28117   2.293   5.397   4.495  0.3839 -0.3106  0.3945
 9073SOL    HW128118   2.288   5.303   4.527  3.2764 -0.9860 -0.7897
 9073SOL    HW228119   2.370   5.444   4.539 -2.2144  2.2889  2.5531
 9074SOL     OW28120   3.059   0.806   5.314  0.0774  0.8076  0.1631
 9074SOL    HW128121   3.151   0.767   5.323  0.3274  1.5097  0.8088
 9074SOL    HW228122   2.991   0.733   5.317  0.6778  0.1024 -1.9879
 9075SOL     OW28123   6.760   3.883   4.240  0.3843 -0.3573  0.5545
 9075SOL    HW128124   6.714   3.802   4.278  0.9057 -0.1520  1.6804
 9075SOL    HW228125   6.737   3.963   4.296  1.0241  0.0008  0.3096
 9076SOL     OW28126   3.784   4.934   3.906  0.4448  0.1138  0.1978
 9076SOL    HW128127   3.815   4.862   3.968  1.8172  1.4467  1.1335
 9076SOL    HW228128   3.698   4.972   3.939 -0.3192 -1.1149 -0.3378
 9077SOL     OW28129   2.588   1.679   0.223 -0.1178 -0.9366 -0.7061
 9077SOL    HW128130   2.505   1.721   0.186 -0.0062  1.1343  1.1884
 9077SOL    HW228131   2.589   1.582   0.199 -1.6500 -0.4453 -3.1744
 9078SOL     OW28132   6.488   1.438   4.822  0.0538  0.1025 -0.3276
 9078SOL    HW128133   6.511   1.498   4.745  0.3802 -0.4790 -0.6887
 9078SOL    HW228134   6.568   1.426   4.880  0.2943 -0.8499 -0.8511
 9079SOL     OW28135   4.987   5.073   6.794 -0.3711 -0.4831 -0.2357
 9079SOL    HW128136   4.988   5.163   6.835 -3.1055 -0.0067 -0.9768
 9079SOL    HW228137   4.917   5.016   6.839 -3.0692 -0.1314 -3.5326
 9080SOL     OW28138   3.838   5.613   5.437 -0.2810  0.3341  0.0014
 9080SOL    HW128139   3.831   5.514   5.441 -0.7021  0.4026  1.8934
 9080SOL    HW228140   3.933   5.639   5.421  0.1152 -0.3758  1.0941
 9081SOL     OW28141   2.668   0.320   2.757 -0.3087 -0.4998 -0.1178
 9081SOL    HW128142   2.689   0.398   2.698  0.8978 -1.5757 -1.1920
 9081SOL    HW228143   2.616   0.252   2.705  1.4331 -1.8093 -0.2573
 9082SOL     OW28144   4.589   2.950   6.790 -0.0480  0.3086 -0.1229
 9082SOL    HW128145   4.558   2.883   6.857  0.7248  0.7942  0.7475
 9082SOL    HW228146   4.676   2.921   6.751 -0.7177 -0.2011 -1.2861
 9083SOL     OW28147   6.352   0.664   0.040  0.2057  0.2418  0.4807
 9083SOL    HW128148   6.301   0.739   0.082 -0.0225 -0.0726  0.7730
 9083SOL    HW228149   6.367   0.683  -0.057 -1.4152 -0.1616  0.1297
 9084SOL     OW28150   4.981   4.620   6.144  0.1326  0.2739  0.2927
 9084SOL    HW128151   4.890   4.606   6.105  0.0742  1.6955 -0.1425
 9084SOL    HW228152   5.044   4.649   6.071  0.9610 -0.7325  0.5786
 9085SOL     OW28153   3.881   6.668   0.374 -0.1390  0.2908 -0.4402
 9085SOL    HW128154   3.865   6.766   0.363  0.2639  0.5273  0.9052
 9085SOL    HW228155   3.794   6.623   0.397 -0.0043  0.6205  0.7471
 9086SOL     OW28156   2.303   4.557   2.373 -0.5533  0.0148  0.1081
 9086SOL    HW128157   2.247   4.623   2.323 -1.6212  0.9570  2.3776
 9086SOL    HW228158   2.400   4.578   2.357 -0.8418  0.3569 -1.3894
 9087SOL     OW28159   1.821   4.063   1.954 -0.2637  0.9121 -0.0718
 9087SOL    HW128160   1.736   4.070   2.005 -1.0401  2.8349 -1.5137
 9087SOL    HW228161   1.846   3.966   1.943 -0.8567  0.4012  2.5232
 9088SOL     OW28162   0.535   2.531   3.329  0.0292 -0.5162 -0.0703
 9088SOL    HW128163   0.464   2.557   3.395  1.0243 -0.8096  1.1607
 9088SOL    HW228164   0.619   2.508   3.378  1.4617  1.2502 -1.5435
 9089SOL     OW28165   4.049   3.890   5.064 -0.2245 -0.1340  0.1343
 9089SOL    HW128166   4.057   3.840   4.977 -1.9152 -0.3924  0.0822
 9089SOL    HW228167   4.015   3.827   5.135  0.8867  0.1397  0.9315
 9090SOL     OW28168   0.231   2.285   0.633  0.3573  0.2611 -0.4995
 9090SOL    HW128169   0.169   2.226   0.685  1.8817 -1.4681 -0.5527
 9090SOL    HW228170   0.179   2.360   0.593 -1.7382 -1.1893 -0.6753
 9091SOL     OW28171   0.421   3.000   3.522 -0.2364 -0.2699 -0.8996
 9091SOL    HW128172   0.376   2.927   3.573 -0.1168 -0.1589 -0.6333
 9091SOL    HW228173   0.485   2.960   3.456 -0.9855 -0.4387 -1.5361
 9092SOL     OW28174   0.176   4.682   0.057 -0.2486  0.0135  0.4402
 9092SOL    HW128175   0.139   4.674   0.149 -1.0189  0.9343  0.2165
 9092SOL    HW228176   0.262   4.733   0.060 -0.3742  0.2160  0.6245
 9093SOL     OW28177   5.447   3.042   5.495  0.2778  1.4516  0.0762
 9093SOL    HW128178   5.364   3.078   5.537 -0.0799  1.3664 -0.5339
 9093SOL    HW228179   5.467   2.952   5.532 -0.8021  0.7853 -0.8739
 9094SOL     OW28180   0.243   1.502   1.580 -0.5492 -0.1946 -0.2152
 9094SOL    HW128181   0.241   1.528   1.677  1.2478 -3.1707  0.7319
 9094SOL    HW228182   0.174   1.432   1.563  0.0576 -0.6703 -0.7582
 9095SOL     OW28183   1.965   4.822   3.208 -0.6633  0.1209 -0.2612
 9095SOL    HW128184   1.955   4.841   3.110 -1.0457 -1.2131 -0.5033
 9095SOL    HW228185   2.041   4.758   3.221 -1.1705 -0.3867  0.2214
 9096SOL     OW28186   6.512   2.542   5.605 -0.5483  0.0689 -0.4518
 9096SOL    HW128187   6.430   2.530   5.661 -0.2464  1.7290  0.3980
 9096SOL    HW228188   6.592   2.554   5.665 -0.0857  1.0266 -1.2333
 9097SOL     OW28189   1.861   1.018   1.683 -0.2740  0.0857 -0.3532
 9097SOL    HW128190   1.814   1.055   1.763 -1.0024  1.0479 -1.1891
 9097SOL    HW228191   1.938   1.077   1.659  0.3900 -0.6003  0.0579
 9098SOL     OW28192   3.182   2.679   0.581  0.4917 -0.1516  0.1434
 9098SOL    HW128193   3.164   2.641   0.490  0.1805 -0.9911  0.5458
 9098SOL    HW228194   3.262   2.739   0.577 -0.4395  1.0944 -1.0128
 9099SOL     OW28195   5.027   0.565   5.241  0.0747  0.0913  0.0515
 9099SOL    HW128196   5.095   0.571   5.167  0.6827  0.6943  0.6489
 9099SOL    HW228197   4.978   0.479   5.233  1.6456 -0.8563  0.2314
 9100SOL     OW28198   3.520   4.095   6.910 -0.0284 -0.2326 -0.3833
 9100SOL    HW128199   3.606   4.047   6.927 -0.0234 -0.4314 -0.9685
 9100SOL    HW228200   3.455   4.072   6.982 -0.7074 -2.7377 -1.7031
 9101SOL     OW28201   5.128   0.691   0.062 -0.5712 -0.5298 -0.2786
 9101SOL    HW128202   5.084   0.607   0.095 -0.1389 -0.2052  1.1880
 9101SOL    HW228203   5.132   0.758   0.136 -0.5864  0.6702 -1.3315
 9102SOL     OW28204   5.357   0.412   0.371 -0.2929  0.1809  0.7164
 9102SOL    HW128205   5.423   0.348   0.333  1.6238  1.4165  1.8192
 9102SOL    HW228206   5.330   0.477   0.300  2.3147  1.7138  1.0090
 9103SOL     OW28207   5.192   6.117   0.202 -0.2298  0.2139  0.2177
 9103SOL    HW128208   5.122   6.046   0.196  1.1876 -1.2939  0.7598
 9103SOL    HW228209   5.174   6.174   0.282 -0.0826 -1.0567  1.1955
 9104SOL     OW28210   6.533   4.789   4.491 -0.2450  0.1853  0.7724
 9104SOL    HW128211   6.448   4.741   4.517  0.9173 -1.2602  2.1082
 9104SOL    HW228212   6.526   4.885   4.517 -1.5234  0.1293  0.7303
 9105SOL     OW28213   1.547   5.865   0.724  0.3873  0.2540 -1.0962
 9105SOL    HW128214   1.564   5.783   0.777  0.3220  0.1473 -1.2398
 9105SOL    HW228215   1.567   5.946   0.779 -0.8141  0.1675 -0.5117
 9106SOL     OW28216   6.936   0.577   4.328  0.1141 -0.0496 -0.0187
 9106SOL    HW128217   6.954   0.633   4.408  0.0989 -0.4151  0.2425
 9106SOL    HW228218   6.948   0.480   4.351  0.1249 -0.1578 -0.4592
 9107SOL     OW28219   3.546   6.324   6.151 -0.2418 -0.3421 -0.0560
 9107SOL    HW128220   3.487   6.248   6.179 -1.9520  0.3925 -1.4813
 9107SOL    HW228221   3.559   6.386   6.229 -0.8159 -0.8444  0.4494
 9108SOL     OW28222   5.853   2.515   4.031  0.8497  0.2102 -0.4049
 9108SOL    HW128223   5.883   2.519   3.936  2.2181  0.7166  0.0347
 9108SOL    HW228224   5.862   2.605   4.073  0.2522 -0.0066  0.2117
 9109SOL     OW28225   2.433   1.146   6.493 -0.0409  0.4199  0.1058
 9109SOL    HW128226   2.417   1.062   6.545 -0.7870  0.1170 -0.5951
 9109SOL    HW228227   2.527   1.147   6.460 -0.3451 -0.7333 -0.8906
 9110SOL     OW28228   5.227   2.603   1.841 -0.6828  0.5954 -0.1182
 9110SOL    HW128229   5.268   2.693   1.858 -1.2086  0.6838  0.7837
 9110SOL    HW228230   5.232   2.548   1.925 -0.5448 -0.1447 -0.6073
 9111SOL     OW28231   6.405   4.879   6.128 -0.1751  0.2697  0.5258
 9111SOL    HW128232   6.369   4.919   6.043  2.6363  0.9185 -0.4599
 9111SOL    HW228233   6.419   4.952   6.195  0.3246  0.2081  0.4911
 9112SOL     OW28234   5.102   2.105   6.415 -0.4123  0.1362  0.1563
 9112SOL    HW128235   5.058   2.038   6.355 -0.8345  0.7587 -0.2390
 9112SOL    HW228236   5.196   2.122   6.384 -0.3036 -0.2699  0.2594
 9113SOL     OW28237   0.211   1.220   5.938  0.0405 -0.3810  0.0612
 9113SOL    HW128238   0.291   1.161   5.950  0.1725 -0.0804  0.6639
 9113SOL    HW228239   0.239   1.316   5.942 -0.1923 -0.2613 -0.7932
 9114SOL     OW28240   2.163   3.431   4.609  0.6346 -0.1040 -0.0606
 9114SOL    HW128241   2.132   3.384   4.692 -1.4365  1.0192 -0.1356
 9114SOL    HW228242   2.120   3.522   4.604  0.8481 -0.0714 -2.2659
 9115SOL     OW28243   4.134   3.568   5.543  0.8446  0.2318  0.5037
 9115SOL    HW128244   4.204   3.565   5.472  1.7064 -1.1979  1.3637
 9115SOL    HW228245   4.108   3.475   5.569 -0.3925  0.7298  1.1668
 9116SOL     OW28246   0.435   1.130   5.829 -0.0484 -0.2084 -0.4528
 9116SOL    HW128247   0.524   1.109   5.871 -0.5600  0.4376  1.0297
 9116SOL    HW228248   0.443   1.214   5.774  0.3099 -0.2725 -0.5000
 9117SOL     OW28249   5.498   4.585   5.534  0.0203  0.1502 -0.1564
 9117SOL    HW128250   5.400   4.593   5.520  0.0416  0.6066 -0.0480
 9117SOL    HW228251   5.516   4.520   5.608 -0.2163  0.3908  0.1148
 9118SOL     OW28252   5.826   5.976   3.547  0.4752 -0.3327  0.2067
 9118SOL    HW128253   5.893   6.044   3.576 -0.4485  2.0680 -2.7337
 9118SOL    HW228254   5.862   5.924   3.470 -0.4843  0.0732 -0.5458
 9119SOL     OW28255   1.096   2.316   5.868  0.0957  1.0935 -0.0835
 9119SOL    HW128256   1.070   2.221   5.849  0.6692  0.9226 -0.0267
 9119SOL    HW228257   1.147   2.352   5.790 -0.2085  1.3857 -0.1451
 9120SOL     OW28258   6.948   4.782   3.874  0.3885  0.1314 -0.7342
 9120SOL    HW128259   6.850   4.785   3.853  0.2084  0.5275  0.1191
 9120SOL    HW228260   6.964   4.820   3.965  1.0278 -2.4932  0.3271
 9121SOL     OW28261   5.960   2.479   6.441  0.0086 -0.5235  0.1162
 9121SOL    HW128262   6.033   2.509   6.503  0.4891 -0.3228 -0.5254
 9121SOL    HW228263   5.875   2.526   6.465  0.7023  1.3134 -0.7544
 9122SOL     OW28264   5.876   6.538   6.793 -0.2598 -0.2230 -0.0942
 9122SOL    HW128265   5.876   6.568   6.888  0.5404  0.0640 -0.1758
 9122SOL    HW228266   5.910   6.612   6.735 -0.0821 -0.6330 -0.5196
 9123SOL     OW28267   2.166   5.680   0.753  0.9748 -0.1628 -0.0733
 9123SOL    HW128268   2.082   5.654   0.800  1.2037 -1.7410 -0.4829
 9123SOL    HW228269   2.187   5.775   0.774 -1.7642  0.8097 -1.2153
 9124SOL     OW28270   4.131   5.478   3.645  0.1248 -0.1107  0.2759
 9124SOL    HW128271   4.114   5.441   3.736  0.8377 -0.7328  0.1588
 9124SOL    HW228272   4.065   5.438   3.581 -0.2648  0.1965  0.4781
 9125SOL     OW28273   5.218   3.802   2.174  0.5292  0.1746 -0.3636
 9125SOL    HW128274   5.218   3.902   2.181 -0.5307  0.2779 -1.5450
 9125SOL    HW228275   5.142   3.772   2.116  1.1641 -1.2882 -0.4924
 9126SOL     OW28276   6.490   1.839   1.930 -0.7075  0.4603  0.6221
 9126SOL    HW128277   6.401   1.883   1.941 -0.5725  1.0731 -0.5540
 9126SOL    HW228278   6.485   1.772   1.856  0.0008  1.1235 -0.0585
 9127SOL     OW28279   3.447   1.727   2.780 -0.1844  0.5934 -0.1339
 9127SOL    HW128280   3.505   1.720   2.699 -0.6968  0.4389 -0.4927
 9127SOL    HW228281   3.352   1.712   2.754 -0.2887 -0.0976  0.6061
 9128SOL     OW28282   1.579   4.061   2.059 -0.0868 -0.2668 -0.1674
 9128SOL    HW128283   1.490   4.040   2.018 -0.9585  2.0074  0.4348
 9128SOL    HW228284   1.568   4.073   2.158  1.0911 -0.8511  0.0572
 9129SOL     OW28285   5.557   3.160   0.618 -0.2083 -0.9714 -0.3843
 9129SOL    HW128286   5.523   3.092   0.683  3.6222 -0.4046  2.6040
 9129SOL    HW228287   5.522   3.251   0.644 -1.3508 -1.1274 -1.2962
 9130SOL     OW28288   1.232   0.488   6.175 -0.0974 -0.6392  0.1216
 9130SOL    HW128289   1.200   0.540   6.096  0.5326 -1.7175 -0.8600
 9130SOL    HW228290   1.183   0.402   6.181  0.1428 -0.7437  0.6687
 9131SOL     OW28291   3.071   6.435   6.423 -0.6457  0.4631  0.0698
 9131SOL    HW128292   3.027   6.371   6.486  1.7658 -0.0731  1.3393
 9131SOL    HW228293   3.157   6.468   6.463  0.7102  0.5875 -2.6574
 9132SOL     OW28294   4.320   0.924   3.396  0.3354  0.5837  0.5183
 9132SOL    HW128295   4.356   1.014   3.422 -1.6856  1.4375  0.5863
 9132SOL    HW228296   4.327   0.863   3.475  0.2552  1.1806  1.0063
 9133SOL     OW28297   3.984   1.983   2.875  0.3911 -0.7979  0.4401
 9133SOL    HW128298   3.999   1.902   2.820  0.0256 -0.5321 -0.0604
 9133SOL    HW228299   3.986   2.064   2.817 -0.5041 -0.5569  0.7234
 9134SOL     OW28300   2.018   6.406   2.348  0.4800  0.5327  0.6257
 9134SOL    HW128301   1.974   6.374   2.264  0.2119 -0.3517  1.0932
 9134SOL    HW228302   1.958   6.473   2.393  0.9546  1.5719 -0.2522
 9135SOL     OW28303   4.136   3.379   3.090  0.2751 -0.1643  0.2253
 9135SOL    HW128304   4.135   3.479   3.082  1.0464 -0.0987  0.9158
 9135SOL    HW228305   4.141   3.353   3.186  0.7541 -0.8687  0.0152
 9136SOL     OW28306   4.605   2.797   5.168 -0.2593  0.1092 -0.3582
 9136SOL    HW128307   4.695   2.800   5.124 -0.0593 -0.4334  0.0173
 9136SOL    HW228308   4.553   2.879   5.142  0.1398  0.1676 -0.9979
 9137SOL     OW28309   1.806   0.968   2.223 -0.2883  0.2194 -0.4173
 9137SOL    HW128310   1.736   1.009   2.282 -0.1073 -0.0719  0.0080
 9137SOL    HW228311   1.887   0.946   2.278 -0.0968 -0.0147 -0.7874
 9138SOL     OW28312   0.634   6.923   0.940 -0.0222  0.5986 -0.3966
 9138SOL    HW128313   0.668   6.997   0.882  1.5602  1.8040  1.9254
 9138SOL    HW228314   0.640   6.836   0.890  0.8834  1.6209 -2.1516
 9139SOL     OW28315   3.309   0.839   0.101 -0.1013 -0.0105 -0.3055
 9139SOL    HW128316   3.213   0.857   0.121  0.3236  1.0489  0.8968
 9139SOL    HW228317   3.361   0.830   0.186  0.9796  0.0610 -0.9269
 9140SOL     OW28318   5.184   5.368   4.319  0.4913  0.3515  0.8031
 9140SOL    HW128319   5.240   5.316   4.383  0.9445  1.5487  1.4038
 9140SOL    HW228320   5.189   5.466   4.341 -0.4100  0.6571 -0.2379
 9141SOL     OW28321   3.089   5.810   4.046  0.0737 -0.6171  0.1067
 9141SOL    HW128322   3.097   5.777   4.140  1.5701 -1.6238 -0.3481
 9141SOL    HW228323   3.131   5.745   3.983 -0.7462  0.1215 -1.2593
 9142SOL     OW28324   6.316   5.628   4.073  0.3027  0.5308  0.2886
 9142SOL    HW128325   6.319   5.560   4.147  0.3399  0.0127 -0.1823
 9142SOL    HW228326   6.234   5.613   4.018  0.2788  0.9107  0.2175
 9143SOL     OW28327   5.876   1.928   4.668  0.4888  0.2457  0.1942
 9143SOL    HW128328   5.941   1.965   4.602 -0.3327 -0.8003 -1.2353
 9143SOL    HW228329   5.790   1.979   4.663 -1.3199 -2.7662 -3.1027
 9144SOL     OW28330   5.302   5.012   3.245 -0.3985  0.1860  0.0692
 9144SOL    HW128331   5.400   5.023   3.226 -0.8378  2.1855 -1.2510
 9144SOL    HW228332   5.275   4.919   3.221  0.9886 -0.1266 -0.4060
 9145SOL     OW28333   2.590   1.138   5.518  0.0171  0.0702 -0.7901
 9145SOL    HW128334   2.494   1.140   5.546  0.3412  0.3112  0.3575
 9145SOL    HW228335   2.599   1.180   5.427 -0.9201  0.3022 -0.7860
 9146SOL     OW28336   3.107   3.721   6.936  0.2116  0.3322  0.1579
 9146SOL    HW128337   3.152   3.698   7.022 -0.8013  1.5976  1.0633
 9146SOL    HW228338   3.091   3.820   6.932  0.2784  0.3079 -1.5185
 9147SOL     OW28339   2.933   1.391   6.336  0.3953  0.1355 -0.7465
 9147SOL    HW128340   3.026   1.399   6.300  0.4375  0.3811 -0.5810
 9147SOL    HW228341   2.933   1.407   6.434  0.2895 -0.6231 -0.6168
 9148SOL     OW28342   0.065   6.089   1.021  0.2945 -0.2709 -0.4168
 9148SOL    HW128343   0.010   6.169   1.046 -0.4325 -0.3971 -1.5160
 9148SOL    HW228344   0.118   6.109   0.939  0.3962 -0.7878 -0.4821
 9149SOL     OW28345   1.300   4.470   4.178  0.0041  0.0550  0.0089
 9149SOL    HW128346   1.398   4.457   4.195  0.1814  1.1567 -0.0647
 9149SOL    HW228347   1.260   4.520   4.255 -0.3339  0.2660 -0.3030
 9150SOL     OW28348   6.783   4.396   3.987  0.4669  0.6546  0.1221
 9150SOL    HW128349   6.870   4.388   4.035 -0.6711 -1.4257  2.0260
 9150SOL    HW228350   6.709   4.364   4.046 -1.2795 -0.2489 -2.3632
 9151SOL     OW28351   4.470   2.079   4.144  0.3522 -0.0468 -0.1580
 9151SOL    HW128352   4.522   2.044   4.066  1.3310  1.4252 -0.1988
 9151SOL    HW228353   4.421   2.162   4.117 -0.9022 -0.6200  0.2779
 9152SOL     OW28354   3.910   0.460   5.668  0.4946  0.3040  0.3596
 9152SOL    HW128355   3.878   0.479   5.760  1.0397 -0.4626  0.7255
 9152SOL    HW228356   3.964   0.375   5.669 -1.0770 -0.7780 -0.9899
 9153SOL     OW28357   1.920   5.470   2.877  0.3219  0.0742 -0.2519
 9153SOL    HW128358   1.947   5.404   2.807 -1.2924  0.2278 -1.0835
 9153SOL    HW228359   1.824   5.495   2.863  0.3850  1.2235  1.1528
 9154SOL     OW28360   6.028   4.834   2.385 -0.3422  0.0473 -0.0322
 9154SOL    HW128361   5.946   4.836   2.442 -0.4706 -1.2192 -0.1355
 9154SOL    HW228362   6.034   4.918   2.332  0.8136  2.2131  3.2225
 9155SOL     OW28363   0.338   4.647   5.564 -0.0315 -0.1105  0.4057
 9155SOL    HW128364   0.415   4.615   5.620 -0.3501  0.3307  1.1187
 9155SOL    HW228365   0.320   4.743   5.585 -0.6888 -0.1722  0.1504
 9156SOL     OW28366   5.543   5.147   1.963  0.6145  0.1803 -0.1861
 9156SOL    HW128367   5.623   5.139   2.022  0.4663 -0.4802 -0.0703
 9156SOL    HW228368   5.526   5.060   1.917 -1.1697 -0.3193  1.2778
 9157SOL     OW28369   6.050   4.246   5.271  0.0170  0.0196  0.5408
 9157SOL    HW128370   5.960   4.254   5.315  0.1876 -1.5445  1.2732
 9157SOL    HW228371   6.100   4.332   5.279 -0.4027  0.1329  2.4650
 9158SOL     OW28372   4.638   2.764   2.813 -0.0105 -0.9729  0.3426
 9158SOL    HW128373   4.548   2.759   2.855  0.7390 -4.0079  1.8739
 9158SOL    HW228374   4.662   2.675   2.774  2.7407 -0.6042  0.9839
 9159SOL     OW28375   4.909   3.184   1.799 -0.0530 -0.1347  0.5685
 9159SOL    HW128376   5.000   3.154   1.826 -0.0117 -0.1720  0.3901
 9159SOL    HW228377   4.841   3.145   1.861  0.0247 -0.3691  0.5080
 9160SOL     OW28378   5.976   0.452   4.892 -0.0254 -0.3454 -0.8787
 9160SOL    HW128379   6.016   0.541   4.916 -0.8452  0.2398 -1.5852
 9160SOL    HW228380   6.019   0.418   4.808  1.6595 -1.5814  0.4244
 9161SOL     OW28381   4.852   5.843   3.557  0.4183 -0.3280  0.3304
 9161SOL    HW128382   4.786   5.816   3.626  1.2084  1.1612  1.7607
 9161SOL    HW228383   4.807   5.851   3.468 -0.9812 -0.7780  0.9794
 9162SOL     OW28384   4.988   3.790   0.213 -0.3758 -0.1668  0.6763
 9162SOL    HW128385   4.964   3.853   0.287 -3.9287 -0.2821 -0.2018
 9162SOL    HW228386   5.029   3.708   0.252  0.3270  0.8698  2.2430
 9163SOL     OW28387   3.215   5.603   0.926  0.7517 -0.2451 -0.3984
 9163SOL    HW128388   3.212   5.581   1.024  3.4079  0.5841 -0.0437
 9163SOL    HW228389   3.191   5.699   0.913  0.4490 -0.3419 -0.5710
 9164SOL     OW28390   4.802   6.718   2.603  0.1507  0.4188 -0.0389
 9164SOL    HW128391   4.730   6.782   2.630  0.0203  0.7672 -1.1804
 9164SOL    HW228392   4.808   6.644   2.670 -0.2955  1.1470  0.8238
 9165SOL     OW28393   5.636   0.267   2.416 -0.2920  0.8056  0.4558
 9165SOL    HW128394   5.644   0.179   2.463 -1.1660  0.5139  0.0792
 9165SOL    HW228395   5.652   0.253   2.318  0.1210  1.1662  0.4712
 9166SOL     OW28396   5.636   2.453   6.051  0.1357 -0.3387  0.0440
 9166SOL    HW128397   5.670   2.370   6.096 -0.5785 -0.3044  0.6672
 9166SOL    HW228398   5.593   2.512   6.119 -0.6972 -0.1444 -0.6400
 9167SOL     OW28399   0.599   0.433   5.783  0.2523  0.2151 -0.7429
 9167SOL    HW128400   0.599   0.525   5.743 -0.4990  0.9921  0.9604
 9167SOL    HW228401   0.564   0.437   5.877 -0.1055 -1.8698 -0.7396
 9168SOL     OW28402   5.729   3.169   2.978 -0.5261  0.1149  0.2265
 9168SOL    HW128403   5.744   3.117   3.062 -0.3631  1.1344  0.8572
 9168SOL    HW228404   5.744   3.111   2.898 -1.1110 -0.9928  0.9004
 9169SOL     OW28405   0.024   2.508   6.310 -0.1883  0.3690  0.2422
 9169SOL    HW128406  -0.051   2.487   6.372 -0.4209  1.0023  0.1710
 9169SOL    HW228407   0.005   2.592   6.259 -1.0975 -1.3047 -2.4112
 9170SOL     OW28408   3.815   2.787   5.308 -0.2182 -1.2261 -0.2903
 9170SOL    HW128409   3.895   2.742   5.267 -0.1584 -0.4387 -1.0632
 9170SOL    HW228410   3.809   2.881   5.276  1.1872  0.2797  3.3326
 9171SOL     OW28411   0.400   4.277   0.176 -0.2462 -0.3552 -0.7119
 9171SOL    HW128412   0.359   4.238   0.259 -0.5559  0.4459 -0.4761
 9171SOL    HW228413   0.496   4.247   0.170  0.1151  0.4483  0.5417
 9172SOL     OW28414   1.577   1.946   3.170  0.0814  0.7764 -0.1057
 9172SOL    HW128415   1.549   1.862   3.125 -1.1350 -0.4939  2.7791
 9172SOL    HW228416   1.669   1.934   3.207 -1.0765 -0.4388  2.6455
 9173SOL     OW28417   6.176   3.787   4.084 -0.1614 -0.5149 -0.2256
 9173SOL    HW128418   6.226   3.839   4.154  0.4412  0.4504 -1.3343
 9173SOL    HW228419   6.241   3.730   4.033  0.0088  1.3708 -2.2235
 9174SOL     OW28420   7.008   4.792   5.944  0.3641 -0.1313 -0.0207
 9174SOL    HW128421   7.099   4.755   5.922  0.3337 -0.1785 -0.0687
 9174SOL    HW228422   6.949   4.717   5.975  0.8430  0.1486  1.6924
 9175SOL     OW28423   6.031   3.161   2.808  0.3405 -0.3654 -0.5553
 9175SOL    HW128424   5.946   3.173   2.757  1.3192  0.4492 -2.0654
 9175SOL    HW228425   6.024   3.209   2.896 -1.0326 -0.9929 -0.2945
 9176SOL     OW28426   1.464   3.197   1.512 -0.2351 -0.2126 -0.1550
 9176SOL    HW128427   1.420   3.222   1.599  0.4851 -0.4782  0.2962
 9176SOL    HW228428   1.560   3.174   1.529 -0.0636 -0.1745 -1.0433
 9177SOL     OW28429   4.571   1.734   1.873  0.0784  0.4752  0.2184
 9177SOL    HW128430   4.636   1.664   1.901 -0.5479 -0.5289 -0.7588
 9177SOL    HW228431   4.497   1.740   1.940 -1.6727 -2.2539 -1.2865
 9178SOL     OW28432   6.791   6.265   5.688 -0.3234  1.3845 -0.3598
 9178SOL    HW128433   6.847   6.290   5.767 -1.4071  4.5305 -0.4505
 9178SOL    HW228434   6.833   6.300   5.605 -0.2934 -0.0404 -0.9753
 9179SOL     OW28435   4.909   6.579   3.489 -0.5909  0.2509 -0.0904
 9179SOL    HW128436   4.916   6.551   3.584 -1.1186  0.1348 -0.0876
 9179SOL    HW228437   5.001   6.585   3.450 -0.4209 -0.6086  0.1576
 9180SOL     OW28438   6.075   2.320   2.772  0.5591  0.4537  0.4062
 9180SOL    HW128439   6.055   2.276   2.685  0.2790  0.3328  0.5300
 9180SOL    HW228440   6.171   2.305   2.796  0.3935 -0.3529  0.5957
 9181SOL     OW28441   5.739   6.286   1.564  0.3374 -0.4869  0.3043
 9181SOL    HW128442   5.785   6.236   1.491  2.4228  2.0936 -0.2861
 9181SOL    HW228443   5.762   6.244   1.652  0.7858 -1.4386 -0.2418
 9182SOL     OW28444   2.189   5.085   4.136 -0.7959 -0.7089 -0.3666
 9182SOL    HW128445   2.260   5.058   4.070 -0.4945  0.8784 -0.7362
 9182SOL    HW228446   2.099   5.065   4.097 -0.6032 -0.3814 -1.0035
 9183SOL     OW28447   4.601   0.223   6.633  0.0667  0.4767 -0.0871
 9183SOL    HW128448   4.651   0.288   6.690 -0.1034 -0.6028  1.3269
 9183SOL    HW228449   4.666   0.165   6.584  0.2219  0.1345  0.5126
 9184SOL     OW28450   1.290   4.571   3.231 -0.1226  0.7327  0.4607
 9184SOL    HW128451   1.369   4.571   3.169 -0.2519 -0.3192  0.2767
 9184SOL    HW228452   1.239   4.486   3.220 -0.2047  0.5595  1.9412
 9185SOL     OW28453   4.518   0.816   5.775  0.1333 -0.1882  0.3177
 9185SOL    HW128454   4.613   0.828   5.804 -0.6955 -0.0726  3.3969
 9185SOL    HW228455   4.457   0.837   5.852 -2.3839 -0.8346 -1.3719
 9186SOL     OW28456   3.332   3.021   1.401  0.0651  0.4576 -0.2048
 9186SOL    HW128457   3.403   3.091   1.413  0.7558 -0.3850  0.8182
 9186SOL    HW228458   3.359   2.958   1.329 -0.5442  1.2010 -1.1072
 9187SOL     OW28459   6.429   3.661   6.326  0.1548 -0.1337 -0.6109
 9187SOL    HW128460   6.449   3.692   6.419  1.4513  1.1502 -1.2712
 9187SOL    HW228461   6.330   3.662   6.311 -0.0476 -0.0065  0.6239
 9188SOL     OW28462   3.434   5.107   5.873  0.0338  0.1947 -0.6290
 9188SOL    HW128463   3.451   5.076   5.967 -0.0017 -0.3919 -0.8143
 9188SOL    HW228464   3.374   5.187   5.876  1.2077  1.0889 -0.0828
 9189SOL     OW28465   4.602   1.513   6.255  0.0225  0.0818 -0.2642
 9189SOL    HW128466   4.508   1.483   6.268 -0.3417  0.6524 -1.4093
 9189SOL    HW228467   4.625   1.509   6.158  0.5667  1.6668 -0.2302
 9190SOL     OW28468   1.487   3.001   2.204 -0.4155 -0.3211 -0.2979
 9190SOL    HW128469   1.563   3.030   2.262 -0.6871 -1.7347  0.8165
 9190SOL    HW228470   1.419   3.073   2.200 -0.4560 -0.2298  1.2976
 9191SOL     OW28471   6.309   4.897   2.135 -0.5227 -0.0845  0.2130
 9191SOL    HW128472   6.272   4.981   2.094  1.6658  0.5752 -0.5458
 9191SOL    HW228473   6.367   4.920   2.213 -0.3869 -0.9489  0.3787
 9192SOL     OW28474   0.321   2.796   1.460 -0.4985  0.1674 -0.0672
 9192SOL    HW128475   0.282   2.841   1.380 -0.0826  0.3338 -0.1780
 9192SOL    HW228476   0.266   2.715   1.483 -0.4306 -0.0659 -0.7124
 9193SOL     OW28477   5.935   4.458   0.462 -0.2526 -0.1378  0.1486
 9193SOL    HW128478   5.913   4.522   0.388  0.1412  0.0418  0.1881
 9193SOL    HW228479   5.906   4.497   0.549  1.5451  0.7601  0.3754
 9194SOL     OW28480   1.201   2.010   3.225  0.2058  0.0651  0.3081
 9194SOL    HW128481   1.286   2.048   3.187  0.7756 -1.3820  0.0651
 9194SOL    HW228482   1.220   1.920   3.264 -1.1619 -0.1332  0.5509
 9195SOL     OW28483   5.699   6.177   0.458  0.0339  0.0018 -0.6050
 9195SOL    HW128484   5.793   6.200   0.482 -0.0588 -0.0129 -0.2250
 9195SOL    HW228485   5.654   6.134   0.536 -0.2733 -0.0330 -0.8006
 9196SOL     OW28486   5.550   4.434   5.275 -0.0416 -0.3967 -0.7915
 9196SOL    HW128487   5.508   4.490   5.346  2.1541  0.1090  0.2205
 9196SOL    HW228488   5.594   4.493   5.207 -1.6087 -0.8871 -2.3149
 9197SOL     OW28489   2.117   3.926   6.286  0.2371  0.2475 -0.2649
 9197SOL    HW128490   2.057   3.973   6.221  0.3352  0.3566 -0.2772
 9197SOL    HW228491   2.102   3.964   6.378  1.2834  1.2545 -0.4862
 9198SOL     OW28492   4.888   1.554   2.641  0.2062  0.0230 -0.0845
 9198SOL    HW128493   4.799   1.547   2.687  0.1783  1.2037  0.0877
 9198SOL    HW228494   4.885   1.627   2.573  1.3386  0.8186  0.6733
 9199SOL     OW28495   1.322   6.867   2.235 -0.3085 -0.3434  0.3630
 9199SOL    HW128496   1.306   6.768   2.243 -1.4740 -0.3145 -1.0833
 9199SOL    HW228497   1.420   6.884   2.230 -0.0966 -1.7505 -2.2480
 9200SOL     OW28498   0.551   6.312   1.272  0.0937  0.4824  0.4501
 9200SOL    HW128499   0.593   6.401   1.256 -0.7523  0.8361  0.1548
 9200SOL    HW228500   0.452   6.319   1.259  0.2481 -1.1761 -2.8559
 9201SOL     OW28501   2.982   6.633   3.384 -0.1958  0.2687 -0.1409
 9201SOL    HW128502   3.059   6.632   3.321  0.3428 -0.1396  0.5195
 9201SOL    HW228503   2.909   6.690   3.346  0.8393  1.5469 -0.2852
 9202SOL     OW28504   4.025   6.527   3.380 -0.6714 -0.3550 -0.5519
 9202SOL    HW128505   4.057   6.494   3.469 -1.1382 -1.2130 -0.6907
 9202SOL    HW228506   4.003   6.449   3.321 -2.1286  0.2053 -0.7812
 9203SOL     OW28507   5.742   3.072   3.605  0.3718 -0.1797 -0.4246
 9203SOL    HW128508   5.841   3.058   3.606  0.7493  2.1574 -0.7100
 9203SOL    HW228509   5.715   3.113   3.518 -0.5579  1.0092  0.4013
 9204SOL     OW28510   4.288   5.641   2.854  0.0602 -0.2901 -0.0697
 9204SOL    HW128511   4.314   5.567   2.792  0.4875  0.0420 -0.2987
 9204SOL    HW228512   4.222   5.701   2.809 -0.5474 -0.7222  0.2419
 9205SOL     OW28513   1.793   1.362   6.742 -0.8480 -0.2861 -0.1422
 9205SOL    HW128514   1.814   1.459   6.757 -0.2241 -0.3237 -0.6808
 9205SOL    HW228515   1.787   1.345   6.643 -0.9831 -0.7902 -0.0485
 9206SOL     OW28516   1.696   5.768   6.130  0.1837  0.2794 -0.1228
 9206SOL    HW128517   1.619   5.705   6.134  1.2792 -1.1478 -0.5649
 9206SOL    HW228518   1.732   5.770   6.036  1.3983 -0.0122  0.3132
 9207SOL     OW28519   2.192   4.189   1.672  0.4429  0.1874 -0.1560
 9207SOL    HW128520   2.099   4.212   1.703 -0.1301 -0.3137 -1.4140
 9207SOL    HW228521   2.227   4.265   1.617  0.5789  0.1622 -0.1022
 9208SOL     OW28522   2.121   2.931   5.078  0.2198 -0.5476 -0.5963
 9208SOL    HW128523   2.216   2.940   5.050  0.4150  1.4804  0.5428
 9208SOL    HW228524   2.117   2.905   5.174 -0.3027  1.4501 -0.0318
 9209SOL     OW28525   2.304   1.322   4.399 -0.2808  0.2206  0.1368
 9209SOL    HW128526   2.239   1.265   4.348 -0.1550 -0.7229  1.0063
 9209SOL    HW228527   2.279   1.323   4.495  0.0111  1.2604  0.2113
 9210SOL     OW28528   3.395   3.258   1.668  0.0112 -0.6266  0.1278
 9210SOL    HW128529   3.321   3.322   1.648 -0.7508 -1.0671  1.3984
 9210SOL    HW228530   3.455   3.250   1.588 -1.3679 -0.3541 -0.9682
 9211SOL     OW28531   5.977   6.763   6.667 -0.7676 -0.4544 -0.1228
 9211SOL    HW128532   5.946   6.854   6.691 -2.8250 -0.7315 -1.4826
 9211SOL    HW228533   6.073   6.753   6.691 -1.7603  0.1217  5.4352
 9212SOL     OW28534   1.809   1.101   1.965 -0.2597  0.5889  0.0683
 9212SOL    HW128535   1.903   1.118   1.937  0.0277 -2.9830 -1.7582
 9212SOL    HW228536   1.808   1.040   2.044 -0.9871 -0.1458 -0.4881
 9213SOL     OW28537   3.130   1.374   6.066 -0.1310  0.5394 -0.0836
 9213SOL    HW128538   3.202   1.396   6.001  1.8427 -2.6481  0.7979
 9213SOL    HW228539   3.155   1.408   6.157  0.6818 -1.1042  0.3521
 9214SOL     OW28540   2.547   2.981   6.548  0.1435  0.0613 -0.3164
 9214SOL    HW128541   2.607   3.029   6.484  0.1216 -0.6097 -0.8484
 9214SOL    HW228542   2.603   2.934   6.616  0.1592  1.0287  0.3568
 9215SOL     OW28543   3.242   1.683   4.428  0.3375 -0.1849 -0.2645
 9215SOL    HW128544   3.313   1.747   4.398 -0.3995  0.8122  0.0631
 9215SOL    HW228545   3.153   1.716   4.398 -0.0336 -1.2852 -0.4371
 9216SOL     OW28546   4.950   3.294   2.989  0.0067 -0.0794  0.0771
 9216SOL    HW128547   4.908   3.211   3.026  0.3915 -0.9508 -1.3752
 9216SOL    HW228548   5.032   3.270   2.937  0.5133  1.2874  0.2008
 9217SOL     OW28549   6.267   1.708   5.905  0.2163  0.6528 -0.8629
 9217SOL    HW128550   6.231   1.727   5.814 -0.8621  0.3227 -0.5172
 9217SOL    HW228551   6.197   1.662   5.959  0.6694  1.3183  0.3094
 9218SOL     OW28552   5.781   0.232   6.014  0.1510  0.3769  0.6805
 9218SOL    HW128553   5.839   0.176   6.072 -0.3147  0.2570  1.0354
 9218SOL    HW228554   5.685   0.212   6.033 -0.0769 -1.7289 -2.0485
 9219SOL     OW28555   6.165   3.589   6.825 -0.2238  0.0754 -0.0458
 9219SOL    HW128556   6.091   3.601   6.892 -0.8133 -0.4673 -0.5900
 9219SOL    HW228557   6.253   3.602   6.871 -0.6623  1.6010  0.4283
 9220SOL     OW28558   3.518   4.966   0.824 -0.3497  0.2370 -0.6142
 9220SOL    HW128559   3.473   4.932   0.906 -0.5698 -2.7389 -1.8641
 9220SOL    HW228560   3.565   5.052   0.845  0.9527 -1.1757  3.0256
 9221SOL     OW28561   3.999   3.683   3.604 -0.3762 -0.5165 -0.7180
 9221SOL    HW128562   4.059   3.613   3.643 -0.9597  0.2775  1.7768
 9221SOL    HW228563   4.056   3.758   3.569  0.1594 -0.7237 -0.3186
 9222SOL     OW28564   5.067   1.851   4.293  0.4293  0.3401  0.4249
 9222SOL    HW128565   4.996   1.920   4.275 -1.1572 -1.9142 -3.2199
 9222SOL    HW228566   5.032   1.784   4.358  0.4022  0.7699  0.8647
 9223SOL     OW28567   5.742   1.132   3.175 -0.7520  0.0811  0.7589
 9223SOL    HW128568   5.747   1.222   3.219 -0.9152 -0.3209  1.6266
 9223SOL    HW228569   5.736   1.143   3.076  0.9727  0.9961  0.7099
 9224SOL     OW28570   6.362   2.878   5.408  0.3667  0.9775  0.3265
 9224SOL    HW128571   6.427   2.916   5.474 -0.8058  1.2819  1.3686
 9224SOL    HW228572   6.270   2.909   5.431 -0.0058  1.7811 -1.9946
 9225SOL     OW28573   4.868   6.428   0.604 -0.6436  0.0846  0.0845
 9225SOL    HW128574   4.787   6.486   0.607 -0.3079  0.5842 -0.1804
 9225SOL    HW228575   4.905   6.427   0.511 -0.7132 -0.6580  0.0622
 9226SOL     OW28576   5.186   0.507   5.587  0.1931  0.0636  0.3854
 9226SOL    HW128577   5.175   0.463   5.676  0.6492 -0.2095  0.3134
 9226SOL    HW228578   5.284   0.512   5.564  0.0377 -0.8681 -0.5846
 9227SOL     OW28579   5.966   4.830   6.802 -0.1754  0.0495 -0.3960
 9227SOL    HW128580   5.913   4.790   6.727  0.5459 -1.5059 -0.1164
 9227SOL    HW228581   5.920   4.913   6.835 -2.2176 -0.9937 -0.4553
 9228SOL     OW28582   4.920   1.772   0.733 -0.3424  0.2817  0.4091
 9228SOL    HW128583   4.833   1.734   0.764 -0.0951  0.0200  0.7885
 9228SOL    HW228584   4.904   1.834   0.657 -0.7669 -0.5216 -0.1782
 9229SOL     OW28585   0.655   2.498   0.602  0.1191  0.4751 -0.1940
 9229SOL    HW128586   0.711   2.473   0.681 -0.9792  0.2767  0.5317
 9229SOL    HW228587   0.640   2.418   0.544  0.1922  0.4245 -0.1425
 9230SOL     OW28588   6.826   4.218   5.452  0.7490 -0.3711  0.3859
 9230SOL    HW128589   6.803   4.152   5.380  1.4727  0.7415 -0.9044
 9230SOL    HW228590   6.747   4.231   5.512  0.9747 -3.4082  1.5355
 9231SOL     OW28591   6.607   5.062   4.443 -0.5194 -0.4781  0.3387
 9231SOL    HW128592   6.546   5.095   4.515 -1.4422 -0.6287 -0.3530
 9231SOL    HW228593   6.695   5.108   4.451 -0.9550  0.2924  0.9212
 9232SOL     OW28594   4.038   1.351   1.871  0.1020  0.0582  0.4470
 9232SOL    HW128595   4.132   1.334   1.841  0.8069  1.4348  1.7215
 9232SOL    HW228596   4.022   1.305   1.958 -0.4149 -0.1430  0.2515
 9233SOL     OW28597   6.748   2.941   6.961 -0.6434 -0.5231  0.2419
 9233SOL    HW128598   6.838   2.958   6.920 -0.1225 -1.3341  1.0244
 9233SOL    HW228599   6.748   2.851   7.005 -1.6279 -0.2462  0.8220
 9234SOL     OW28600   5.804   1.148   6.043 -0.6321 -0.2901  0.3380
 9234SOL    HW128601   5.721   1.125   5.992 -0.1850  0.4145 -0.7319
 9234SOL    HW228602   5.790   1.234   6.092 -0.9172 -0.7551  1.0883
 9235SOL     OW28603   5.302   3.779   2.965  0.3855 -0.4661  0.3574
 9235SOL    HW128604   5.306   3.869   2.921  0.9437 -0.2429  0.8559
 9235SOL    HW228605   5.277   3.710   2.897  4.2494 -0.6543 -1.1254
 9236SOL     OW28606   6.982   6.728   3.040  0.0194  0.0866  0.1383
 9236SOL    HW128607   6.907   6.762   2.982  0.1835 -0.3384 -0.3346
 9236SOL    HW228608   7.000   6.632   3.018  1.6041  0.5419 -0.7212
 9237SOL     OW28609   1.543   1.240   2.559  0.5572  0.2572 -0.2592
 9237SOL    HW128610   1.509   1.167   2.618 -1.1434 -1.3895 -3.0206
 9237SOL    HW228611   1.494   1.324   2.578 -0.7040 -0.5121 -0.0097
 9238SOL     OW28612   0.090   1.293   2.301  0.5595  0.4368 -0.4045
 9238SOL    HW128613   0.134   1.358   2.238 -0.9688  1.2116 -0.7076
 9238SOL    HW228614  -0.006   1.283   2.278 -0.9741  3.2171  3.5973
 9239SOL     OW28615   2.335   3.256   6.557  0.2005 -0.4308 -0.2204
 9239SOL    HW128616   2.243   3.245   6.595  0.4110 -1.1980  0.0625
 9239SOL    HW228617   2.356   3.180   6.496  1.0780 -0.8501  0.5813
 9240SOL     OW28618   3.241   3.977   6.138 -0.3493  0.3212  0.5055
 9240SOL    HW128619   3.282   3.951   6.225 -2.3906 -1.2635  1.0889
 9240SOL    HW228620   3.243   4.077   6.129 -0.8171  0.6018  2.7843
 9241SOL     OW28621   0.890   5.124   2.414 -0.4593  0.1622  0.3039
 9241SOL    HW128622   0.815   5.154   2.472 -1.5664 -0.7877 -0.6001
 9241SOL    HW228623   0.914   5.029   2.436 -1.2415 -0.3838 -1.1123
 9242SOL     OW28624   2.541   0.444   1.751  0.0241 -0.0484 -0.2621
 9242SOL    HW128625   2.613   0.479   1.811  0.4761 -2.6628  0.8507
 9242SOL    HW228626   2.451   0.465   1.789  0.2158  1.3637 -0.5476
 9243SOL     OW28627   5.832   3.850   3.081 -0.1644  0.0607  0.6354
 9243SOL    HW128628   5.736   3.833   3.059  0.3501 -1.7209 -0.4282
 9243SOL    HW228629   5.853   3.947   3.069 -1.4276  0.1855 -0.7533
 9244SOL     OW28630   0.631   0.809   1.988  0.1120 -0.0353 -0.1959
 9244SOL    HW128631   0.541   0.775   2.017 -0.0614 -0.6004 -1.3642
 9244SOL    HW228632   0.621   0.901   1.950 -0.1029 -0.4093 -1.0564
 9245SOL     OW28633   2.227   5.901   3.328  0.0049 -0.5726 -0.0324
 9245SOL    HW128634   2.190   5.857   3.247 -0.4840 -1.9591  0.9042
 9245SOL    HW228635   2.153   5.950   3.376 -0.2956 -1.8803  0.9011
 9246SOL     OW28636   0.494   4.404   6.522  0.6412 -0.0962  0.1592
 9246SOL    HW128637   0.494   4.353   6.609 -0.8073  0.8437  0.7351
 9246SOL    HW228638   0.526   4.497   6.538  0.9395 -0.0933 -0.4382
 9247SOL     OW28639   2.261   1.345   4.937 -0.5343  0.2771 -0.1608
 9247SOL    HW128640   2.356   1.323   4.914 -0.7740  0.3759 -1.2788
 9247SOL    HW228641   2.229   1.282   5.008  0.4294  0.3838  0.3898
 9248SOL     OW28642   1.739   0.475   0.859 -0.5356  0.5039  0.0707
 9248SOL    HW128643   1.727   0.537   0.782 -0.2295  0.2775 -0.1593
 9248SOL    HW228644   1.836   0.463   0.878 -0.6154  1.2173  1.0296
 9249SOL     OW28645   2.619   4.780   0.884 -0.2426  0.3261  0.4736
 9249SOL    HW128646   2.665   4.738   0.962  1.6520  1.1937 -0.1004
 9249SOL    HW228647   2.559   4.853   0.915 -0.2774  0.0013  1.1796
 9250SOL     OW28648   3.094   4.008   6.422 -0.2308  0.4092 -0.5142
 9250SOL    HW128649   3.005   4.051   6.403 -0.7014 -0.4923 -0.3992
 9250SOL    HW228650   3.080   3.911   6.442  0.5375  0.6548  1.5003
 9251SOL     OW28651   6.524   0.521   6.007 -0.5084  0.0391 -0.5563
 9251SOL    HW128652   6.515   0.428   6.043 -3.2646 -0.2363 -1.6702
 9251SOL    HW228653   6.578   0.519   5.923 -0.2698 -0.4899 -0.3984
 9252SOL     OW28654   1.096   5.443   5.969 -0.2779  0.1882 -0.0920
 9252SOL    HW128655   1.125   5.403   5.882 -2.8090 -1.0235 -0.4659
 9252SOL    HW228656   1.166   5.425   6.038  1.9335  1.4248 -1.8423
 9253SOL     OW28657   5.994   1.549   5.957 -0.0003 -0.6542 -0.6791
 9253SOL    HW128658   5.907   1.548   5.907 -0.7286 -0.5727  0.5328
 9253SOL    HW228659   6.023   1.456   5.976  1.1841 -0.7574 -2.6962
 9254SOL     OW28660   5.003   0.459   0.160  0.0632 -0.3008  0.3615
 9254SOL    HW128661   4.962   0.391   0.220  2.1986 -1.1400  0.9647
 9254SOL    HW228662   5.038   0.415   0.078 -0.8048  0.4880 -0.4460
 9255SOL     OW28663   2.517   4.299   1.391  0.5732  0.0653 -0.2534
 9255SOL    HW128664   2.565   4.387   1.389  1.8545 -0.6018  0.1681
 9255SOL    HW228665   2.571   4.233   1.443 -0.3314 -1.0022 -0.6403
 9256SOL     OW28666   1.130   4.641   2.322 -0.7165  0.3428 -0.5967
 9256SOL    HW128667   1.219   4.602   2.298  0.4906  2.5095  0.1096
 9256SOL    HW228668   1.107   4.615   2.416 -0.2341  0.7838 -0.3550
 9257SOL     OW28669   4.710   6.751   1.377  0.3076  0.3004 -0.0643
 9257SOL    HW128670   4.750   6.712   1.459  1.3583 -1.2538 -1.2706
 9257SOL    HW228671   4.618   6.714   1.363  0.6968 -0.5818 -0.3576
 9258SOL     OW28672   6.542   3.950   2.640 -0.4397 -0.3323  0.1075
 9258SOL    HW128673   6.566   3.965   2.544  0.6917  1.2425  0.5863
 9258SOL    HW228674   6.593   3.872   2.676 -1.3083 -1.2976 -0.6906
 9259SOL     OW28675   2.387   2.763   3.277  0.7002 -0.4256  0.5407
 9259SOL    HW128676   2.366   2.848   3.229  1.9818 -0.2761  0.2254
 9259SOL    HW228677   2.379   2.777   3.376  0.8606  0.0349  0.4896
 9260SOL     OW28678   5.806   1.382   4.048 -0.3357 -0.2154 -0.2775
 9260SOL    HW128679   5.738   1.352   4.115  0.8044  0.2772  1.1690
 9260SOL    HW228680   5.763   1.393   3.958 -1.7998 -1.4120  0.2421
 9261SOL     OW28681   3.680   4.963   0.605 -0.5845 -0.3635 -0.3312
 9261SOL    HW128682   3.698   5.059   0.582 -0.3850 -0.5903 -1.1548
 9261SOL    HW228683   3.616   4.958   0.681 -2.0955  0.4238 -1.5049
 9262SOL     OW28684   4.121   3.530   6.700  0.6327 -0.2560 -0.0294
 9262SOL    HW128685   4.183   3.572   6.633  0.8398 -1.4615 -0.6181
 9262SOL    HW228686   4.032   3.514   6.657  0.3569  0.1601  0.3837
 9263SOL     OW28687   1.520   6.491   4.456  0.1700 -0.4649 -0.0603
 9263SOL    HW128688   1.468   6.560   4.507 -0.2539  1.4852 -2.9070
 9263SOL    HW228689   1.459   6.416   4.430 -0.2424 -0.1489 -0.0139
 9264SOL     OW28690   5.619   6.195   3.400  0.0211 -0.5622  1.1353
 9264SOL    HW128691   5.694   6.252   3.431 -0.5522  0.0485  1.4311
 9264SOL    HW228692   5.654   6.123   3.341  0.7757 -0.0217  0.9107
 9265SOL     OW28693   4.857   0.327   0.796  0.5369  0.4245 -0.6190
 9265SOL    HW128694   4.782   0.315   0.731  0.3159 -2.5378  0.0397
 9265SOL    HW228695   4.819   0.337   0.888  0.9275  1.2714 -0.5395
 9266SOL     OW28696   5.414   5.224   0.867  0.2582  0.1917 -0.3814
 9266SOL    HW128697   5.411   5.182   0.958  0.2275 -0.1863 -0.5530
 9266SOL    HW228698   5.490   5.288   0.863  0.7720 -0.4074 -0.3483
 9267SOL     OW28699   2.602   1.076   3.176 -0.1707  0.0264  0.0518
 9267SOL    HW128700   2.618   1.174   3.182 -2.7589  0.6292 -1.2802
 9267SOL    HW228701   2.513   1.054   3.216 -0.4071 -1.5005 -1.1970
 9268SOL     OW28702   1.174   5.125   4.293  0.5010  0.2556 -0.3413
 9268SOL    HW128703   1.197   5.045   4.349 -0.7094  0.9926  1.2905
 9268SOL    HW228704   1.252   5.188   4.290  0.6566  0.1002  0.3500
 9269SOL     OW28705   5.095   6.197   4.182 -0.4516  0.0413  0.5685
 9269SOL    HW128706   5.077   6.287   4.220  2.1682  0.5496  0.8234
 9269SOL    HW228707   5.093   6.201   4.082  0.2272  0.5414  0.5695
 9270SOL     OW28708   0.005   6.034   6.786 -0.1591  0.5382 -0.5897
 9270SOL    HW128709   0.036   6.126   6.812  0.7148 -0.1181  0.7851
 9270SOL    HW228710  -0.060   6.001   6.854  2.0134 -1.1400  0.7975
 9271SOL     OW28711   0.367   4.085   6.522  0.8351 -0.1910 -0.2388
 9271SOL    HW128712   0.390   4.052   6.431  0.0090 -1.4986 -0.0045
 9271SOL    HW228713   0.273   4.059   6.544  1.6576 -1.7786  1.7894
 9272SOL     OW28714   4.138   2.671   6.930  0.1030  0.7886 -0.1249
 9272SOL    HW128715   4.063   2.606   6.940  0.8653 -0.0815  0.1660
 9272SOL    HW228716   4.104   2.757   6.894 -1.6032  1.5688  2.9887
 9273SOL     OW28717   2.718   2.485   5.180  0.6897 -0.4844  0.1856
 9273SOL    HW128718   2.734   2.431   5.097 -0.1850  0.2741 -0.5075
 9273SOL    HW228719   2.632   2.458   5.222  0.9345 -0.5914  0.6191
 9274SOL     OW28720   4.558   4.965   2.550 -0.2297  0.5646 -0.2501
 9274SOL    HW128721   4.561   4.969   2.450  1.9603 -2.4089 -0.4435
 9274SOL    HW228722   4.620   5.033   2.588 -0.7628  1.4377 -0.9110
 9275SOL     OW28723   3.406   4.438   6.499 -0.3762  0.6129 -0.1353
 9275SOL    HW128724   3.355   4.514   6.540  0.3228  0.8003  0.4060
 9275SOL    HW228725   3.412   4.363   6.565  0.4863  0.7940 -0.0015
 9276SOL     OW28726   0.801   2.794   1.570  0.4153  0.3413  0.4192
 9276SOL    HW128727   0.751   2.801   1.484  0.0715 -0.2898  0.5668
 9276SOL    HW228728   0.886   2.744   1.556  0.7864  0.9913  0.2727
 9277SOL     OW28729   4.221   1.848   3.466  0.2476  0.3704  0.3131
 9277SOL    HW128730   4.219   1.749   3.455  1.9734  0.1606  1.5841
 9277SOL    HW228731   4.254   1.890   3.381  1.1353 -0.2767  0.3287
 9278SOL     OW28732   4.815   2.876   1.430 -0.0122  0.0746  0.8302
 9278SOL    HW128733   4.872   2.795   1.444 -0.2852 -0.1476  0.6607
 9278SOL    HW228734   4.797   2.920   1.518 -0.3978 -0.4135  0.9970
 9279SOL     OW28735   1.214   1.456   3.007 -0.1232  0.4374 -0.0302
 9279SOL    HW128736   1.230   1.468   3.105 -2.1869  0.6501  0.3121
 9279SOL    HW228737   1.153   1.527   2.974 -0.2273 -0.2036 -1.2772
 9280SOL     OW28738   0.199   3.613   4.492  0.0631  0.2828 -0.4993
 9280SOL    HW128739   0.106   3.614   4.455 -0.2188 -1.4661  0.0832
 9280SOL    HW228740   0.208   3.686   4.559 -0.9518  0.3758 -0.4362
 9281SOL     OW28741   1.728   0.223   0.703  0.1536 -0.4726  0.3086
 9281SOL    HW128742   1.806   0.174   0.741  1.5352  0.6747 -0.9183
 9281SOL    HW228743   1.731   0.318   0.734 -0.6340 -0.3636  0.0694
 9282SOL     OW28744   6.226   0.700   5.723 -0.2527  0.5555  0.2047
 9282SOL    HW128745   6.211   0.770   5.653 -0.4179 -0.3589 -0.6841
 9282SOL    HW228746   6.297   0.731   5.786 -1.3507  2.1768  0.7150
 9283SOL     OW28747   3.622   6.176   2.510  0.4004 -0.0201  0.2172
 9283SOL    HW128748   3.590   6.266   2.482 -0.5128  0.0453  1.3772
 9283SOL    HW228749   3.562   6.106   2.473 -0.4634  0.0330  1.4388
 9284SOL     OW28750   3.533   5.628   1.686  0.2463  0.0886  0.1345
 9284SOL    HW128751   3.456   5.683   1.716  0.2418 -1.0659  2.4942
 9284SOL    HW228752   3.594   5.684   1.629  0.4016  2.6743  2.6085
 9285SOL     OW28753   5.240   0.992   1.145 -0.1039 -0.2067  0.5272
 9285SOL    HW128754   5.282   1.048   1.216  0.5780 -1.1114  0.8566
 9285SOL    HW228755   5.168   0.936   1.186  0.5824 -1.0494  0.6070
 9286SOL     OW28756   6.201   2.397   5.232 -0.7573 -0.0980  0.1374
 9286SOL    HW128757   6.189   2.479   5.288  0.3173  0.7518 -0.8042
 9286SOL    HW228758   6.267   2.337   5.276 -1.7553 -0.6216  0.9713
 9287SOL     OW28759   3.020   2.568   1.073 -0.2370  0.4289  0.3438
 9287SOL    HW128760   3.063   2.656   1.091  1.5398 -0.7645  2.3646
 9287SOL    HW228761   3.090   2.496   1.067 -1.7771 -1.4176  2.5733
 9288SOL     OW28762   4.692   1.755   3.489 -0.1098 -0.0154 -0.5379
 9288SOL    HW128763   4.669   1.852   3.486  1.0360  0.3121  0.1937
 9288SOL    HW228764   4.792   1.745   3.483 -0.2421 -1.1722 -1.0011
 9289SOL     OW28765   2.778   6.738   6.916  0.4892  0.3704  0.6245
 9289SOL    HW128766   2.740   6.781   6.834  2.9983  1.3384 -0.1469
 9289SOL    HW228767   2.787   6.640   6.901  0.6918  0.5042 -0.1973
 9290SOL     OW28768   6.701   3.597   0.084 -0.7789 -0.5276 -0.0723
 9290SOL    HW128769   6.765   3.651   0.028 -1.2899 -0.1395 -0.2888
 9290SOL    HW228770   6.617   3.649   0.097 -1.3767 -1.3764 -0.4999
 9291SOL     OW28771   6.005   6.051   3.016 -0.5907 -0.8120 -0.1337
 9291SOL    HW128772   6.047   5.965   3.043 -0.0507 -0.3344  0.5683
 9291SOL    HW228773   6.033   6.124   3.079  1.1115  0.4423 -2.2061
 9292SOL     OW28774   4.757   3.828   1.082  0.0725  0.2757  0.0133
 9292SOL    HW128775   4.665   3.812   1.117  0.5855 -0.0436  1.2970
 9292SOL    HW228776   4.764   3.795   0.988 -0.6917 -1.1993  0.4378
 9293SOL     OW28777   2.564   2.100   0.542 -0.2162 -0.0820 -0.8112
 9293SOL    HW128778   2.645   2.150   0.511  1.9419 -2.7205  0.1598
 9293SOL    HW228779   2.550   2.021   0.483  0.0152 -1.5150  0.9785
 9294SOL     OW28780   5.816   0.480   3.388  0.1265 -0.3092 -0.0276
 9294SOL    HW128781   5.775   0.558   3.340 -1.1021 -1.0766 -0.2732
 9294SOL    HW228782   5.794   0.485   3.485 -0.8107 -0.8500 -0.1969
 9295SOL     OW28783   5.076   3.994   3.166 -0.2344  0.0656 -0.0212
 9295SOL    HW128784   5.014   4.019   3.241  1.1050 -0.8955  1.4837
 9295SOL    HW228785   5.072   3.895   3.152  0.4084  0.0942 -0.4034
 9296SOL     OW28786   2.116   2.927   2.538  0.2109  0.3890  0.3104
 9296SOL    HW128787   2.155   2.938   2.629 -1.0777 -0.4040  0.9756
 9296SOL    HW228788   2.160   2.850   2.492 -1.6586 -1.6415  1.7269
 9297SOL     OW28789   6.457   5.307   4.038 -0.8174  0.0401 -0.0817
 9297SOL    HW128790   6.427   5.394   4.078 -1.3279  0.1675 -0.7206
 9297SOL    HW228791   6.461   5.237   4.109 -0.2521  0.6226  0.4666
 9298SOL     OW28792   0.536   4.362   1.046 -0.0497 -0.2315  0.4487
 9298SOL    HW128793   0.454   4.306   1.048 -1.0592  1.0999 -1.2084
 9298SOL    HW228794   0.592   4.342   1.127 -1.9492 -1.2157  1.5954
 9299SOL     OW28795   6.409   6.986   1.631 -0.1651  0.2349 -0.4518
 9299SOL    HW128796   6.315   6.952   1.625 -0.3947  0.4055  1.4990
 9299SOL    HW228797   6.468   6.929   1.574 -1.1504 -1.0400 -0.2698
 9300SOL     OW28798   5.443   0.866   0.998 -0.2712 -0.1088  0.1437
 9300SOL    HW128799   5.474   0.923   0.922 -0.3716  1.0342  0.9241
 9300SOL    HW228800   5.351   0.894   1.025  0.2723  0.4656  1.5451
 9301SOL     OW28801   4.602   4.131   1.505 -0.1309  0.3475  0.5231
 9301SOL    HW128802   4.575   4.171   1.417 -0.5023 -2.2281 -0.6227
 9301SOL    HW228803   4.694   4.091   1.496 -0.8024 -1.3281  0.7662
 9302SOL     OW28804   2.662   4.188   1.042  0.6651  0.0753  0.4540
 9302SOL    HW128805   2.643   4.130   0.963 -1.3010  0.5027  0.5773
 9302SOL    HW228806   2.672   4.131   1.123  0.5334 -0.2197  0.2668
 9303SOL     OW28807   5.326   1.401   3.843  0.2515 -0.2368 -0.5013
 9303SOL    HW128808   5.359   1.362   3.757  0.8826 -2.2617  0.5722
 9303SOL    HW228809   5.227   1.387   3.850  0.4960 -1.9615 -0.0411
 9304SOL     OW28810   3.396   1.326   5.880  0.3417  0.5441  0.2540
 9304SOL    HW128811   3.477   1.323   5.821  1.4715  0.5721  1.7540
 9304SOL    HW228812   3.342   1.243   5.866 -0.0244  1.0526 -1.6125
 9305SOL     OW28813   6.857   5.214   2.741  0.9563  0.0659  0.2139
 9305SOL    HW128814   6.770   5.170   2.764  0.9569  0.2913  0.6704
 9305SOL    HW228815   6.903   5.162   2.669  0.4866 -0.1051  0.0313
 9306SOL     OW28816   5.295   6.245   4.402 -0.5805  0.0205  0.0682
 9306SOL    HW128817   5.202   6.222   4.373 -0.4172 -1.3671  0.5373
 9306SOL    HW228818   5.361   6.195   4.345 -0.1086  1.1034 -0.3565
 9307SOL     OW28819   6.789   5.229   4.298 -0.4165 -0.4910  0.1511
 9307SOL    HW128820   6.889   5.231   4.302 -0.3988  0.0292 -0.4177
 9307SOL    HW228821   6.754   5.322   4.301 -1.0218 -0.7270  2.8393
 9308SOL     OW28822   1.288   6.178   5.557  0.4875 -0.1928 -0.4982
 9308SOL    HW128823   1.215   6.129   5.510  1.6723 -1.5610 -0.9999
 9308SOL    HW228824   1.259   6.201   5.650 -0.1254 -1.8830 -0.2354
 9309SOL     OW28825   2.606   5.381   5.452 -0.3847  0.1314  0.3461
 9309SOL    HW128826   2.679   5.332   5.500 -0.6389 -1.8296 -1.1565
 9309SOL    HW228827   2.636   5.401   5.359 -0.8644  1.5493  0.4874
 9310SOL     OW28828   2.498   5.978   1.252 -0.9557  0.2411  0.2861
 9310SOL    HW128829   2.586   6.021   1.273 -0.5518  0.0294 -0.8828
 9310SOL    HW228830   2.463   5.931   1.333 -0.4985  1.1919  1.0525
 9311SOL     OW28831   3.062   3.833   1.398  0.5183 -0.2191  0.0578
 9311SOL    HW128832   3.081   3.793   1.309  1.1757  0.7281 -0.2358
 9311SOL    HW228833   3.019   3.764   1.457  3.2104 -1.9408  0.1745
 9312SOL     OW28834   4.912   0.084   1.060 -0.1569 -0.6333  0.4335
 9312SOL    HW128835   4.874   0.036   1.139 -2.1818 -0.9227 -0.6697
 9312SOL    HW228836   4.900   0.182   1.072  1.1959 -0.5313  1.2660
 9313SOL     OW28837   6.513   2.607   0.156  0.5430 -0.5525  0.1110
 9313SOL    HW128838   6.448   2.532   0.148  1.7843 -1.5729 -1.0091
 9313SOL    HW228839   6.605   2.570   0.167  1.0551  0.8391  0.7455
 9314SOL     OW28840   1.228   2.464   0.556  0.5252 -0.0580  0.1795
 9314SOL    HW128841   1.286   2.535   0.517  0.3603  0.0586  0.1443
 9314SOL    HW228842   1.219   2.388   0.492 -0.0604  0.3027 -0.1764
 9315SOL     OW28843   1.334   4.430   3.525  0.3677  0.5106 -0.0031
 9315SOL    HW128844   1.244   4.411   3.564  0.5731 -0.4814  0.0009
 9315SOL    HW228845   1.379   4.502   3.579  0.3774 -0.3795  1.2005
 9316SOL     OW28846   2.366   0.815   7.006  0.5811 -0.2981  0.1682
 9316SOL    HW128847   2.397   0.859   7.091  0.3648 -0.5359  0.3725
 9316SOL    HW228848   2.421   0.733   6.989  0.1298 -0.6742  0.4869
 9317SOL     OW28849   2.338   1.713   6.997 -0.4945 -0.0410 -0.1851
 9317SOL    HW128850   2.384   1.772   6.930 -1.3931  0.1689 -0.6244
 9317SOL    HW228851   2.352   1.617   6.971  1.4138 -0.0874  0.8164
 9318SOL     OW28852   1.185   0.977   1.170 -0.6231  0.4006 -0.1536
 9318SOL    HW128853   1.108   0.949   1.113  0.3510  0.8174 -1.7301
 9318SOL    HW228854   1.226   0.896   1.212 -1.3012  0.0765 -0.1023
 9319SOL     OW28855   0.136   4.553   1.093  0.3916 -0.2179 -0.5723
 9319SOL    HW128856   0.194   4.543   1.012  0.9627 -1.2104 -0.0605
 9319SOL    HW228857   0.106   4.648   1.101  1.9407  0.3122 -0.8551
 9320SOL     OW28858   2.528   0.988   2.905  0.8079  0.2182  0.1028
 9320SOL    HW128859   2.542   1.008   3.002  2.3499  0.0154 -0.0587
 9320SOL    HW228860   2.433   0.960   2.891  0.6193  0.0022  1.5922
 9321SOL     OW28861   3.863   3.351   1.989  0.1774  0.0894  0.4538
 9321SOL    HW128862   3.879   3.379   2.083  1.8233  0.0319  0.2141
 9321SOL    HW228863   3.881   3.254   1.979 -0.6475 -0.0502  0.2031
 9322SOL     OW28864   1.722   3.472   1.184 -0.2781  0.1356  0.8562
 9322SOL    HW128865   1.633   3.480   1.229 -1.7959  1.2237 -2.0765
 9322SOL    HW228866   1.773   3.557   1.194  0.5794 -0.5446  2.6786
 9323SOL     OW28867   0.497   5.564   6.815 -0.1039 -0.6225 -0.0590
 9323SOL    HW128868   0.514   5.635   6.747  0.0898  0.1148  0.7282
 9323SOL    HW228869   0.508   5.474   6.774 -0.1803 -0.1898 -1.0381
 9324SOL     OW28870   6.588   6.719   6.429  0.3674  0.3340  0.2446
 9324SOL    HW128871   6.548   6.646   6.485 -0.6539  1.0439  0.4751
 9324SOL    HW228872   6.520   6.750   6.363  1.5447 -0.4891 -1.4432
 9325SOL     OW28873   6.049   2.134   4.504 -0.0144  0.4361  0.4464
 9325SOL    HW128874   5.985   2.196   4.458  0.8430 -0.1983 -1.7035
 9325SOL    HW228875   6.115   2.188   4.557  0.1690  1.3369 -0.6654
 9326SOL     OW28876   2.644   0.358   1.506  0.2346 -0.0185  0.2685
 9326SOL    HW128877   2.633   0.387   1.601  0.6331 -1.8075  0.8997
 9326SOL    HW228878   2.742   0.357   1.482  0.2603 -1.2082  0.3981
 9327SOL     OW28879   4.990   0.828   2.847 -0.2693  0.1685  0.0655
 9327SOL    HW128880   4.948   0.818   2.757  0.1410  1.0343 -0.2404
 9327SOL    HW228881   4.920   0.854   2.914 -0.6732 -1.0235  0.1261
 9328SOL     OW28882   2.109   3.768   4.019  0.0513  0.2894  0.1219
 9328SOL    HW128883   2.025   3.819   4.002  1.4040  1.9558 -2.0657
 9328SOL    HW228884   2.100   3.675   3.983 -1.4670 -0.2506  1.7019
 9329SOL     OW28885   4.131   0.718   1.095 -0.2494 -0.2596  0.4720
 9329SOL    HW128886   4.159   0.732   1.190 -1.3291  0.8036  0.6553
 9329SOL    HW228887   4.038   0.680   1.093  0.5224 -2.2720 -0.1518
 9330SOL     OW28888   5.707   6.025   3.187 -0.0396  0.3627  0.4094
 9330SOL    HW128889   5.743   6.080   3.112  0.4984 -1.4828 -0.7564
 9330SOL    HW228890   5.782   5.994   3.245 -0.3089  0.7165  0.9438
 9331SOL     OW28891   5.064   2.442   1.055  0.0217 -0.3307 -0.4190
 9331SOL    HW128892   5.058   2.349   1.019 -0.5221 -0.3942 -0.1847
 9331SOL    HW228893   4.971   2.479   1.065  0.1956 -0.0539  0.2312
 9332SOL     OW28894   6.935   3.743   1.216  0.1340  0.0289 -0.0653
 9332SOL    HW128895   6.849   3.735   1.264  0.1178 -0.8823 -0.2401
 9332SOL    HW228896   6.971   3.652   1.195  0.8965  0.4002 -0.4155
 9333SOL     OW28897   2.828   2.910   5.854  0.1262 -0.4196 -0.1883
 9333SOL    HW128898   2.853   2.938   5.761  0.9918  2.3367  0.7607
 9333SOL    HW228899   2.906   2.926   5.915 -1.8311  2.5415  1.8177
 9334SOL     OW28900   5.579   1.665   6.581  0.1898  0.2388 -0.3419
 9334SOL    HW128901   5.583   1.622   6.671 -1.4375  0.9779  0.1383
 9334SOL    HW228902   5.660   1.641   6.528  1.7853  0.7476  1.7412
 9335SOL     OW28903   5.058   2.796   0.491 -0.2029 -0.5205 -0.2106
 9335SOL    HW128904   5.108   2.711   0.474  1.3681  0.5601 -1.3602
 9335SOL    HW228905   4.997   2.815   0.414  1.6717  0.8311 -1.4504
 9336SOL     OW28906   2.464   0.601   4.921 -0.6991 -0.0864  0.3504
 9336SOL    HW128907   2.366   0.590   4.908 -0.9585  0.0277  1.9706
 9336SOL    HW228908   2.492   0.693   4.894 -1.2435  0.2453  0.8933
 9337SOL     OW28909   2.008   6.358   6.810  0.3625  0.3934  0.7369
 9337SOL    HW128910   1.932   6.388   6.867  1.5328  0.5449  2.2846
 9337SOL    HW228911   2.030   6.262   6.831  0.2534  0.1685 -0.1174
 9338SOL     OW28912   6.600   0.739   3.096  0.3635  0.1042 -0.2238
 9338SOL    HW128913   6.656   0.688   3.031 -0.6029 -2.3743  0.7682
 9338SOL    HW228914   6.654   0.759   3.178 -0.1299 -2.4771  0.8270
 9339SOL     OW28915   3.152   6.072   1.946 -0.1582  0.0235 -0.0388
 9339SOL    HW128916   3.126   6.148   1.887 -0.3708  1.0877  1.3514
 9339SOL    HW228917   3.112   5.987   1.912 -1.5414  0.8548 -0.5671
 9340SOL     OW28918   3.447   2.685   6.904  0.5691 -0.0040  0.0464
 9340SOL    HW128919   3.530   2.644   6.943  0.1860  0.1767  1.0835
 9340SOL    HW228920   3.367   2.651   6.953 -0.1231 -1.3327 -1.9183
 9341SOL     OW28921   6.806   6.784   3.550 -0.0935 -0.1687 -1.0082
 9341SOL    HW128922   6.810   6.826   3.459 -1.7614  0.2481 -0.9148
 9341SOL    HW228923   6.827   6.687   3.542 -0.8393 -0.2667 -1.9522
 9342SOL     OW28924   1.421   5.491   2.977  0.0914  0.2338  0.1060
 9342SOL    HW128925   1.368   5.407   2.986 -2.4937  1.3281 -2.8825
 9342SOL    HW228926   1.371   5.566   3.019  0.0325  1.0067 -1.2742
 9343SOL     OW28927   2.041   2.224   6.803 -0.5722 -0.1961  0.1667
 9343SOL    HW128928   2.101   2.201   6.726 -1.8074  3.6876 -2.2514
 9343SOL    HW228929   1.966   2.159   6.808  1.2174 -2.4001  0.3022
 9344SOL     OW28930   4.676   5.599   0.055  0.3472  0.3124 -0.4709
 9344SOL    HW128931   4.679   5.501   0.038  0.0468 -0.5212  3.3421
 9344SOL    HW228932   4.588   5.636   0.023 -0.0333 -0.9118 -0.8744
 9345SOL     OW28933   1.899   3.005   6.509 -0.5117 -0.0966  0.6781
 9345SOL    HW128934   1.839   2.947   6.454 -1.8820  0.8083  1.1439
 9345SOL    HW228935   1.859   3.017   6.600 -1.1811  2.8225  0.1187
 9346SOL     OW28936   3.003   5.706   5.054 -0.0570  0.6826 -0.3395
 9346SOL    HW128937   2.980   5.749   4.967  0.4499  0.2259 -0.7079
 9346SOL    HW228938   3.055   5.769   5.110 -1.3888  1.4057  0.1321
 9347SOL     OW28939   1.117   0.936   6.921 -0.1233 -0.1705 -0.2808
 9347SOL    HW128940   1.117   0.837   6.931  3.3788 -0.2860 -0.1554
 9347SOL    HW228941   1.156   0.978   7.004 -1.1339  1.2920 -0.5114
 9348SOL     OW28942   3.866   6.666   4.800 -0.1428 -0.5596  0.1841
 9348SOL    HW128943   3.941   6.602   4.786 -0.4720 -0.7798 -0.6298
 9348SOL    HW228944   3.841   6.667   4.897  2.2084  0.9888  0.8766
 9349SOL     OW28945   4.188   5.850   4.383 -0.2404 -0.4052  0.1664
 9349SOL    HW128946   4.263   5.894   4.432 -0.0112  0.2441 -0.7539
 9349SOL    HW228947   4.156   5.772   4.436 -2.5679  2.4011  3.3787
 9350SOL     OW28948   2.737   4.850   0.647  0.3810 -0.2592  0.1489
 9350SOL    HW128949   2.680   4.817   0.722  0.8570 -0.2772  0.5079
 9350SOL    HW228950   2.825   4.803   0.648  1.0301  0.9193  0.6099
 9351SOL     OW28951   1.536   1.192   2.989  0.0772  0.1325 -0.0641
 9351SOL    HW128952   1.534   1.104   2.941  1.7943  0.6345 -1.1485
 9351SOL    HW228953   1.459   1.248   2.961 -1.0374 -1.0045  0.6412
 9352SOL     OW28954   4.871   1.495   4.813  0.1993 -0.2122  0.1067
 9352SOL    HW128955   4.909   1.453   4.731  1.2728  1.6604 -0.4266
 9352SOL    HW228956   4.776   1.522   4.795  0.1063 -0.7204 -0.1688
 9353SOL     OW28957   5.235   5.811   2.587  0.1348  0.4152  0.0223
 9353SOL    HW128958   5.196   5.724   2.615  0.3145 -0.2242 -1.6100
 9353SOL    HW228959   5.193   5.885   2.640 -1.2302 -0.5065  0.2666
 9354SOL     OW28960   6.815   3.423   3.435  0.3491  0.0833  0.2548
 9354SOL    HW128961   6.756   3.437   3.355  0.0897 -0.5862  0.3274
 9354SOL    HW228962   6.792   3.336   3.479  4.0503 -2.3022 -2.0505
 9355SOL     OW28963   1.343   1.968   1.443  0.1724 -0.2933 -0.3178
 9355SOL    HW128964   1.349   2.064   1.473  0.1519  0.0622 -1.4174
 9355SOL    HW228965   1.398   1.956   1.361  2.5012 -1.8959  1.3404
 9356SOL     OW28966   3.125   2.528   6.310 -0.2706  0.5144  0.0918
 9356SOL    HW128967   3.219   2.495   6.295 -0.8768 -1.3966  0.2533
 9356SOL    HW228968   3.073   2.520   6.226 -0.7898 -0.2607  0.4683
 9357SOL     OW28969   6.997   1.433   5.634 -0.3497  0.3293  0.0550
 9357SOL    HW128970   7.029   1.487   5.711 -0.9741  0.8905 -0.0671
 9357SOL    HW228971   7.019   1.337   5.649  0.8736  0.6236  0.2220
 9358SOL     OW28972   1.742   3.004   6.710  0.4310  0.1672 -0.5281
 9358SOL    HW128973   1.701   2.954   6.633 -2.0349  2.4033 -0.8081
 9358SOL    HW228974   1.672   3.059   6.755  2.4762  1.3803  1.3735
 9359SOL     OW28975   4.755   5.920   6.932  0.2510  0.5221 -0.1646
 9359SOL    HW128976   4.720   6.012   6.949 -3.2538 -0.7268  0.1521
 9359SOL    HW228977   4.735   5.892   6.838  0.2548 -0.3194  0.0711
 9360SOL     OW28978   1.330   6.464   3.244  0.3376 -0.2093 -0.3770
 9360SOL    HW128979   1.401   6.425   3.303  0.2628 -0.0239 -0.1697
 9360SOL    HW228980   1.320   6.562   3.262  0.2125 -0.1815 -0.5911
 9361SOL     OW28981   0.408   0.142   1.705  0.9152 -0.2301 -0.9941
 9361SOL    HW128982   0.419   0.132   1.606 -2.7760 -0.0210 -1.5597
 9361SOL    HW228983   0.324   0.097   1.734 -1.4969  4.7162  0.9417
 9362SOL     OW28984   4.173   3.428   2.037 -0.5738 -0.6645  0.7840
 9362SOL    HW128985   4.154   3.395   1.945  0.6337 -1.0271  0.6544
 9362SOL    HW228986   4.167   3.352   2.101  1.3786 -1.0040  0.6010
 9363SOL     OW28987   4.514   5.000   4.480  0.0104  0.4926 -0.3783
 9363SOL    HW128988   4.518   5.058   4.561 -1.7884 -0.0179  0.1342
 9363SOL    HW228989   4.486   4.907   4.507  1.0982 -0.1692 -1.3950
 9364SOL     OW28990   4.830   3.875   5.144  0.0536  0.4135  0.2030
 9364SOL    HW128991   4.770   3.796   5.133 -1.6549  1.8829 -1.7760
 9364SOL    HW228992   4.853   3.913   5.055  1.2067  1.9063  1.0795
 9365SOL     OW28993   0.207   1.459   2.532 -0.3225  0.2338 -0.5786
 9365SOL    HW128994   0.239   1.424   2.620 -0.7134  1.2851  0.0055
 9365SOL    HW228995   0.153   1.389   2.485 -0.5509 -0.1650  0.2614
 9366SOL     OW28996   3.378   5.266   0.996 -0.5407  0.5020  0.1605
 9366SOL    HW128997   3.304   5.291   0.934 -1.4268  1.7205  1.6404
 9366SOL    HW228998   3.342   5.208   1.069 -0.2240  1.6666  1.2797
 9367SOL     OW28999   2.937   5.187   4.354  0.2354 -0.0493  0.6967
 9367SOL    HW129000   2.884   5.153   4.431 -0.3150  1.0013  0.8112
 9367SOL    HW229001   2.882   5.254   4.304  0.4370 -0.9822 -0.8396
 9368SOL     OW29002   0.604   0.151   2.607  0.0005 -0.3963 -0.7717
 9368SOL    HW129003   0.620   0.098   2.524  2.2114 -1.9041  0.4911
 9368SOL    HW229004   0.688   0.201   2.630 -1.4013  2.0869 -0.8027
 9369SOL     OW29005   4.885   3.441   3.259  0.4330  0.3144  0.2599
 9369SOL    HW129006   4.894   3.413   3.163 -0.4005  1.2195 -0.1093
 9369SOL    HW229007   4.800   3.405   3.296  0.3720  0.6105  0.4126
 9370SOL     OW29008   0.221   1.821   5.874 -0.2036 -0.3212 -0.0457
 9370SOL    HW129009   0.284   1.896   5.858 -1.6291  0.8367 -0.4601
 9370SOL    HW229010   0.179   1.832   5.965 -1.3192  0.0984 -0.5939
 9371SOL     OW29011   5.252   4.731   3.297  0.4596 -0.3337  0.6492
 9371SOL    HW129012   5.314   4.720   3.374 -0.1751 -0.9670  1.0751
 9371SOL    HW229013   5.158   4.723   3.328  0.2179 -2.8069 -0.5083
 9372SOL     OW29014   2.988   2.563   0.110  0.1226 -0.2863  0.4819
 9372SOL    HW129015   2.944   2.488   0.061  0.2906 -0.1210  0.0696
 9372SOL    HW229016   2.999   2.641   0.048 -0.1672  0.1244  0.9414
 9373SOL     OW29017   3.833   3.489   5.771  0.0257  0.0484 -0.0950
 9373SOL    HW129018   3.770   3.565   5.756 -1.3855 -1.1272 -0.3311
 9373SOL    HW229019   3.811   3.415   5.708  0.4207 -1.1367  1.1202
 9374SOL     OW29020   3.220   0.589   6.654 -0.0467 -0.0327  0.2223
 9374SOL    HW129021   3.171   0.665   6.696  1.1428  1.3590 -0.7885
 9374SOL    HW229022   3.155   0.526   6.611 -1.1096 -0.1135  1.8630
 9375SOL     OW29023   6.382   4.734   0.704  0.4941  0.1684  0.0966
 9375SOL    HW129024   6.378   4.783   0.617  0.0616  1.7085  0.9489
 9375SOL    HW229025   6.347   4.641   0.691  0.2991  0.4189 -1.3371
 9376SOL     OW29026   1.848   5.340   3.337  0.3864  0.4671  0.6504
 9376SOL    HW129027   1.771   5.337   3.402  1.4351 -1.4780  1.9300
 9376SOL    HW229028   1.853   5.252   3.289 -0.4802  1.9318 -2.3251
 9377SOL     OW29029   0.167   3.968   2.067  0.0524 -0.4114 -0.0406
 9377SOL    HW129030   0.150   3.897   1.999 -0.5872 -0.6722  0.3740
 9377SOL    HW229031   0.094   4.037   2.063  1.1503  0.7371 -1.0629
 9378SOL     OW29032   2.870   5.067   3.897  0.0341  0.3004 -0.2993
 9378SOL    HW129033   2.925   4.983   3.902  0.6515  0.7539  0.7563
 9378SOL    HW229034   2.781   5.051   3.939  0.4493  0.3885  0.6436
 9379SOL     OW29035   4.439   1.118   5.805  0.5757  0.6407 -0.6242
 9379SOL    HW129036   4.391   1.050   5.860  1.1439 -0.1893 -1.1342
 9379SOL    HW229037   4.402   1.209   5.824  0.0748  0.2405  0.3574
 9380SOL     OW29038   1.518   4.329   5.636 -0.1207  0.1192 -0.7792
 9380SOL    HW129039   1.500   4.323   5.538 -0.0456  1.3754 -0.8853
 9380SOL    HW229040   1.602   4.382   5.652  0.4368 -0.9312 -0.0657
 9381SOL     OW29041   2.786   5.209   5.591 -0.5831  0.6026  0.6598
 9381SOL    HW129042   2.827   5.176   5.676  0.7328  2.0008  0.6096
 9381SOL    HW229043   2.841   5.177   5.514  0.3772  2.3499  0.5792
 9382SOL     OW29044   6.039   0.241   3.939  0.1207 -0.0288 -0.4159
 9382SOL    HW129045   5.947   0.230   3.903 -0.6043  0.9303  1.0609
 9382SOL    HW229046   6.054   0.337   3.963  1.1437 -0.3542  0.2924
 9383SOL     OW29047   3.491   1.609   4.755  0.0036 -0.1092  0.2924
 9383SOL    HW129048   3.455   1.686   4.808  1.1222 -0.4251  1.5770
 9383SOL    HW229049   3.422   1.537   4.749 -0.5965  0.4680  0.1811
 9384SOL     OW29050   3.963   5.736   4.887 -0.0857 -0.1349  0.3554
 9384SOL    HW129051   3.928   5.644   4.903  0.3842 -0.3348  0.2539
 9384SOL    HW229052   3.886   5.799   4.875 -0.4114 -0.4877  0.5520
 9385SOL     OW29053   3.783   5.095   0.311 -0.5647 -0.1536 -0.2190
 9385SOL    HW129054   3.723   5.126   0.237 -1.9197 -0.8714  0.5499
 9385SOL    HW229055   3.859   5.043   0.272 -1.3502 -0.6605 -1.1116
 9386SOL     OW29056   1.161   4.918   2.318 -0.2133  0.2765  0.3101
 9386SOL    HW129057   1.155   4.820   2.335  0.2909 -0.0382 -1.1637
 9386SOL    HW229058   1.103   4.942   2.240 -0.5194  1.1888  0.8089
 9387SOL     OW29059   2.409   0.375   2.892  0.2133 -0.3406 -0.4014
 9387SOL    HW129060   2.403   0.282   2.927  0.1897  0.0713  0.7389
 9387SOL    HW229061   2.496   0.388   2.844  0.1727 -0.9698 -0.6478
 9388SOL     OW29062   4.576   5.502   3.339  0.4777 -0.0272 -0.0125
 9388SOL    HW129063   4.668   5.539   3.326 -0.1970  1.6657 -0.2125
 9388SOL    HW229064   4.518   5.529   3.262 -0.3460 -0.5657  0.4027
 9389SOL     OW29065   1.673   0.541   2.908 -0.4470  0.0375 -0.0616
 9389SOL    HW129066   1.744   0.479   2.941  0.2115 -0.2008 -1.8276
 9389SOL    HW229067   1.631   0.589   2.985  1.4656  0.0079  1.0438
 9390SOL     OW29068   0.576   1.807   2.787 -0.1635  1.0467  0.0645
 9390SOL    HW129069   0.512   1.732   2.805 -1.0472  0.8788 -3.1638
 9390SOL    HW229070   0.530   1.894   2.802 -0.3586  0.9320  0.1480
 9391SOL     OW29071   0.285   5.946   4.132 -0.5714  0.2060  0.2520
 9391SOL    HW129072   0.245   5.880   4.069 -0.5870 -1.0262  1.5076
 9391SOL    HW229073   0.383   5.955   4.112 -1.0626  2.0057 -1.7637
 9392SOL     OW29074   5.954   5.769   4.713 -0.1094  0.5376 -0.0668
 9392SOL    HW129075   5.974   5.760   4.811 -1.0084  3.1259  0.4310
 9392SOL    HW229076   5.888   5.699   4.686  1.8821 -1.7354  0.5426
 9393SOL     OW29077   5.138   3.613   1.315 -0.1830 -0.0938 -0.2337
 9393SOL    HW129078   5.142   3.544   1.388  1.6684  0.8833  0.6665
 9393SOL    HW229079   5.168   3.571   1.229 -0.6358 -0.8188 -0.0476
 9394SOL     OW29080   1.797   4.317   6.333 -0.0572 -0.3154  0.2647
 9394SOL    HW129081   1.801   4.339   6.431  0.4740 -1.1638  0.4456
 9394SOL    HW229082   1.748   4.231   6.321  0.9739 -0.8611 -0.1001
 9395SOL     OW29083   6.304   2.336   1.308 -0.2091 -0.1596  0.0699
 9395SOL    HW129084   6.260   2.412   1.355  0.2362  0.8577 -1.0757
 9395SOL    HW229085   6.392   2.316   1.352  0.4819  1.1750 -0.6394
 9396SOL     OW29086   2.167   6.485   1.790 -0.4845 -0.3569 -0.0403
 9396SOL    HW129087   2.255   6.438   1.788 -0.3300 -0.0909  0.2752
 9396SOL    HW229088   2.137   6.495   1.885 -0.0523  1.0112 -0.0162
 9397SOL     OW29089   6.788   5.861   4.747 -0.3652 -0.2020 -0.0189
 9397SOL    HW129090   6.729   5.780   4.749 -1.3413  0.4862  0.1487
 9397SOL    HW229091   6.854   5.856   4.821 -0.3989 -0.8499 -0.0248
 9398SOL     OW29092   0.184   0.728   2.818 -0.1866  0.0176 -0.4084
 9398SOL    HW129093   0.198   0.714   2.916 -1.0104  2.0726  0.0380
 9398SOL    HW229094   0.273   0.726   2.771  0.3339  0.2611  0.5554
 9399SOL     OW29095   4.818   5.205   3.337 -0.5523  0.5708  0.0112
 9399SOL    HW129096   4.811   5.190   3.239 -2.0504  1.8865 -0.1195
 9399SOL    HW229097   4.914   5.203   3.365 -0.2062 -1.7366 -1.1263
 9400SOL     OW29098   6.896   6.497   3.643  0.0830  0.5392 -0.3830
 9400SOL    HW129099   6.940   6.467   3.728  0.5988  0.1009 -0.7923
 9400SOL    HW229100   6.948   6.462   3.565 -0.5680  0.6672 -0.8812
 9401SOL     OW29101   5.618   1.147   5.488 -0.1901 -0.1147 -0.1397
 9401SOL    HW129102   5.571   1.163   5.401  0.0975 -0.8754 -0.4415
 9401SOL    HW229103   5.573   1.072   5.536  0.3776 -0.4811 -0.1781
 9402SOL     OW29104   2.834   1.265   5.533  0.2206 -0.3870 -0.7544
 9402SOL    HW129105   2.822   1.277   5.435 -0.3450  0.3843 -0.6030
 9402SOL    HW229106   2.750   1.226   5.572  0.6049 -1.1183 -0.6358
 9403SOL     OW29107   3.885   6.408   5.331  0.2123 -0.1459  0.0178
 9403SOL    HW129108   3.815   6.353   5.376  1.6332 -1.4498  0.7372
 9403SOL    HW229109   3.974   6.389   5.373  1.1716  0.6582 -1.5621
 9404SOL     OW29110   1.643   0.231   5.379  0.2462  0.9118  0.1062
 9404SOL    HW129111   1.633   0.297   5.453  1.1122  0.6116  0.5138
 9404SOL    HW229112   1.725   0.176   5.395  0.0494  0.3620 -0.7094
 9405SOL     OW29113   1.595   2.597   3.892  0.0071  0.5791  0.2021
 9405SOL    HW129114   1.611   2.621   3.988 -0.6902  0.7040  0.2918
 9405SOL    HW229115   1.674   2.625   3.837  1.5836 -1.8160  1.0983
 9406SOL     OW29116   3.574   1.599   3.134  0.2598 -0.3455  0.3979
 9406SOL    HW129117   3.515   1.607   3.054 -1.1922  4.3134  1.5674
 9406SOL    HW229118   3.652   1.662   3.124  2.1895 -2.4608  1.1738
 9407SOL     OW29119   6.954   5.453   0.853 -0.5798 -0.1308 -0.4581
 9407SOL    HW129120   7.029   5.518   0.868 -0.2061 -0.6467 -0.0510
 9407SOL    HW229121   6.983   5.362   0.881 -1.2618 -0.3931 -0.5897
 9408SOL     OW29122   4.186   6.117   5.337  0.0741  0.4261 -0.3037
 9408SOL    HW129123   4.280   6.090   5.316  0.3828  0.3484  1.1290
 9408SOL    HW229124   4.187   6.204   5.387 -0.5206 -0.2604  0.9299
 9409SOL     OW29125   4.120   3.480   6.393  0.0798 -0.5903  0.4738
 9409SOL    HW129126   4.075   3.393   6.372  2.9080 -2.3153  1.1110
 9409SOL    HW229127   4.200   3.491   6.335 -0.4770  1.9082  0.0520
 9410SOL     OW29128   0.498   6.104   0.839  0.3042 -0.0642  0.8043
 9410SOL    HW129129   0.541   6.059   0.760  0.9526  0.0547  1.0814
 9410SOL    HW229130   0.483   6.037   0.911  0.5756  0.0059  0.9296
 9411SOL     OW29131   2.431   0.569   4.431  0.5329 -0.4343 -0.0022
 9411SOL    HW129132   2.456   0.666   4.433 -0.0704 -0.2829  0.5097
 9411SOL    HW229133   2.423   0.539   4.336 -1.1192  0.5125 -0.1911
 9412SOL     OW29134   6.380   1.603   1.826 -0.1227 -0.3537 -0.2616
 9412SOL    HW129135   6.313   1.548   1.877 -0.4709  0.1819 -0.1386
 9412SOL    HW229136   6.472   1.570   1.847 -0.1226  0.9592  2.1066
 9413SOL     OW29137   2.757   5.584   2.534 -0.0317 -0.3386 -0.4883
 9413SOL    HW129138   2.726   5.490   2.520  0.3013 -0.6048  0.5086
 9413SOL    HW229139   2.849   5.584   2.574  0.0575  0.4131 -0.6699
 9414SOL     OW29140   3.576   3.966   5.589 -0.3547  0.0915 -0.0741
 9414SOL    HW129141   3.480   3.994   5.582 -0.6259 -0.9317 -0.5223
 9414SOL    HW229142   3.627   4.003   5.510 -0.3293  0.7692  0.2469
 9415SOL     OW29143   4.422   7.005   4.713  0.2712 -0.3960  0.2745
 9415SOL    HW129144   4.475   7.084   4.681 -0.9256 -0.2458 -1.5227
 9415SOL    HW229145   4.462   6.921   4.677 -1.7700 -0.1563 -2.9851
 9416SOL     OW29146   5.250   1.007   0.799  0.0917 -0.1113 -0.6261
 9416SOL    HW129147   5.217   0.914   0.815  1.2168 -0.5447 -0.7302
 9416SOL    HW229148   5.242   1.029   0.702 -2.2116  0.7343 -0.3039
 9417SOL     OW29149   1.152   3.351   6.625  0.0699  0.3118 -0.4844
 9417SOL    HW129150   1.227   3.318   6.682 -0.0345  1.0727  0.1048
 9417SOL    HW229151   1.074   3.374   6.683 -0.0571  1.0518 -0.9348
 9418SOL     OW29152   4.665   0.346   4.377 -0.3747 -0.3950 -0.5559
 9418SOL    HW129153   4.591   0.395   4.331  0.1184  0.6839 -0.2394
 9418SOL    HW229154   4.629   0.298   4.457 -0.8020 -0.2266 -0.6442
 9419SOL     OW29155   5.518   1.060   4.835 -0.8158 -0.3890 -0.0815
 9419SOL    HW129156   5.541   1.153   4.865 -0.3495 -0.5740  0.1352
 9419SOL    HW229157   5.474   1.011   4.911 -0.9491 -0.3881 -0.1577
 9420SOL     OW29158   6.233   4.941   6.738  0.5258  0.1090 -0.6654
 9420SOL    HW129159   6.287   4.861   6.710  0.1983 -0.7613  1.0784
 9420SOL    HW229160   6.140   4.912   6.761  0.1004  1.1764 -0.9651
 9421SOL     OW29161   0.573   6.726   2.685  0.0117  0.4638  0.5797
 9421SOL    HW129162   0.498   6.785   2.717  2.2506  2.9074  1.7077
 9421SOL    HW229163   0.637   6.711   2.760  0.7412 -1.5077 -0.3826
 9422SOL     OW29164   5.170   6.490   6.786 -0.0963 -0.1839  0.2008
 9422SOL    HW129165   5.119   6.405   6.775 -0.6636  0.1309  0.3342
 9422SOL    HW229166   5.109   6.561   6.821  0.3529  0.2943  0.0336
 9423SOL     OW29167   1.164   6.305   3.576 -0.0164  0.1922 -0.1945
 9423SOL    HW129168   1.193   6.399   3.557  0.3143 -0.2377 -1.9316
 9423SOL    HW229169   1.130   6.263   3.493 -1.5780 -0.7722  0.8892
 9424SOL     OW29170   3.195   6.629   5.027  0.3989  0.5366  0.0315
 9424SOL    HW129171   3.204   6.580   4.940 -1.1258 -0.5191  0.4432
 9424SOL    HW229172   3.274   6.690   5.038  2.0749 -1.3402 -0.7920
 9425SOL     OW29173   4.359   5.250   4.776  0.5632 -0.3894  0.6929
 9425SOL    HW129174   4.355   5.222   4.680  3.5312 -0.3675  0.4749
 9425SOL    HW229175   4.333   5.173   4.835 -1.5201 -0.3308 -0.0435
 9426SOL     OW29176   5.537   4.067   6.619  0.5341 -0.2409 -0.3147
 9426SOL    HW129177   5.454   4.042   6.570  1.6121 -2.6437 -1.0840
 9426SOL    HW229178   5.542   4.014   6.704  1.6678 -0.7693 -0.6954
 9427SOL     OW29179   3.378   2.857   1.189  0.0238 -0.6103 -0.3351
 9427SOL    HW129180   3.458   2.802   1.215  2.2411  1.8884 -1.3744
 9427SOL    HW229181   3.378   2.870   1.090 -0.8675  0.6207 -0.1878
 9428SOL     OW29182   4.038   5.098   3.987 -0.1301  0.1342 -0.3621
 9428SOL    HW129183   3.956   5.042   3.985 -1.2310  1.5678  1.4973
 9428SOL    HW229184   4.118   5.040   4.001 -0.9410 -1.1603 -0.9350
 9429SOL     OW29185   2.176   4.984   0.006  0.1643  0.4792  0.3781
 9429SOL    HW129186   2.198   4.964  -0.090 -0.6285 -0.8943  0.4501
 9429SOL    HW229187   2.243   4.941   0.066  0.1134  0.5177  0.4638
 9430SOL     OW29188   4.244   3.168   5.771  0.1231  0.0969 -0.0593
 9430SOL    HW129189   4.154   3.171   5.815  1.3207  0.7633  2.5177
 9430SOL    HW229190   4.253   3.248   5.711 -0.7391  0.4348  0.2341
 9431SOL     OW29191   4.634   1.219   5.644  0.6414  0.4693  0.3153
 9431SOL    HW129192   4.561   1.172   5.694  0.6047  0.7997  0.5782
 9431SOL    HW229193   4.654   1.307   5.689  0.0627  1.1388 -0.6894
 9432SOL     OW29194   6.324   5.355   2.764 -0.3558 -0.8485  0.2347
 9432SOL    HW129195   6.247   5.327   2.707 -0.4286 -1.3506  0.5703
 9432SOL    HW229196   6.396   5.286   2.760  0.8776  0.4455 -1.5186
 9433SOL     OW29197   3.189   5.641   0.502  0.3348 -0.5014 -0.7565
 9433SOL    HW129198   3.122   5.570   0.523 -0.1561  0.3938  0.8488
 9433SOL    HW229199   3.278   5.599   0.487  0.4358 -1.3688  1.8763
 9434SOL     OW29200   2.626   0.867   1.844  0.4680 -0.3197 -0.4819
 9434SOL    HW129201   2.661   0.961   1.841 -2.1948  0.7701 -0.8704
 9434SOL    HW229202   2.638   0.824   1.755  1.7758 -0.3871 -0.2815
 9435SOL     OW29203   4.463   0.028   2.133 -0.3176 -0.0957 -0.3514
 9435SOL    HW129204   4.555   0.012   2.170  0.2765  0.7994 -1.3736
 9435SOL    HW229205   4.470   0.047   2.035 -1.3291  2.3612 -0.0163
 9436SOL     OW29206   6.397   2.471   6.640  0.0924 -0.0712  0.0666
 9436SOL    HW129207   6.380   2.451   6.544 -0.5879  1.1655 -0.0861
 9436SOL    HW229208   6.447   2.395   6.681 -1.3280 -1.5171 -0.7540
 9437SOL     OW29209   1.412   6.702   5.299 -0.1324  0.3548  0.1713
 9437SOL    HW129210   1.457   6.736   5.382 -0.0563 -1.3774  0.8829
 9437SOL    HW229211   1.313   6.705   5.312 -0.1255 -1.6058  1.1237
 9438SOL     OW29212   6.031   3.776   4.381  0.2307  0.0583  0.3031
 9438SOL    HW129213   5.969   3.732   4.316  0.9030 -2.4721  1.2723
 9438SOL    HW229214   5.999   3.869   4.399 -1.8301 -0.3015 -1.0978
 9439SOL     OW29215   0.559   6.132   3.325 -0.1362  1.0457 -0.2840
 9439SOL    HW129216   0.459   6.140   3.321 -0.6120 -2.2472  1.2116
 9439SOL    HW229217   0.584   6.066   3.397  3.2030  2.3936 -0.0195
 9440SOL     OW29218   0.927   2.366   5.013  0.0557  0.1689  0.1360
 9440SOL    HW129219   0.868   2.296   4.974  0.6735 -0.0964 -0.3236
 9440SOL    HW229220   0.896   2.456   4.983 -0.3436  0.0565  0.2044
 9441SOL     OW29221   3.020   1.635   5.072  0.2405 -0.7591 -0.3064
 9441SOL    HW129222   3.001   1.729   5.041 -1.1643 -0.8069  0.2961
 9441SOL    HW229223   3.109   1.632   5.117  0.0122  0.4501  0.2753
 9442SOL     OW29224   2.398   0.133   5.298 -0.4754 -0.4969  0.0591
 9442SOL    HW129225   2.338   0.130   5.218  2.3596  1.5642 -2.3286
 9442SOL    HW229226   2.356   0.080   5.372 -3.3919 -2.3083 -2.6137
 9443SOL     OW29227   6.834   1.788   1.718 -0.6470  0.0138 -0.6670
 9443SOL    HW129228   6.794   1.714   1.772 -1.6113 -0.7411 -2.3141
 9443SOL    HW229229   6.824   1.766   1.620 -2.0962  2.8433 -1.2599
 9444SOL     OW29230   4.093   0.489   4.870  0.5139  1.2870  0.2104
 9444SOL    HW129231   4.149   0.553   4.922 -0.1438  1.3721  0.8290
 9444SOL    HW229232   4.114   0.395   4.898  0.2756  1.3248  0.5246
 9445SOL     OW29233   5.166   2.980   4.928  0.7838  0.0495  0.4404
 9445SOL    HW129234   5.164   2.901   4.867  0.2195 -0.8467  1.5813
 9445SOL    HW229235   5.076   3.024   4.929  0.6430 -0.2421  0.9949
 9446SOL     OW29236   4.971   6.084   6.574 -0.0822 -0.3447  0.0575
 9446SOL    HW129237   4.895   6.040   6.621 -0.1818  0.5493  0.7451
 9446SOL    HW229238   4.941   6.114   6.483  0.0017 -1.7014 -0.4457
 9447SOL     OW29239   5.468   2.155   4.360  0.2133  0.1438 -0.7833
 9447SOL    HW129240   5.370   2.168   4.346  0.1997  0.8476 -0.0854
 9447SOL    HW229241   5.519   2.228   4.315  0.4838 -0.6965 -1.8933
 9448SOL     OW29242   2.016   5.073   2.486  0.8448 -0.2680 -0.4054
 9448SOL    HW129243   1.992   4.976   2.478 -0.0425 -0.1616  0.7735
 9448SOL    HW229244   2.063   5.103   2.403  2.3119 -2.0296 -0.2614
 9449SOL     OW29245   2.800   0.608   0.676  0.3511  0.6800  0.4302
 9449SOL    HW129246   2.798   0.546   0.597  1.1139  0.1868  0.7919
 9449SOL    HW229247   2.867   0.575   0.742 -2.2668 -0.5727  2.6405
 9450SOL     OW29248   2.975   2.075   2.053  0.0163 -0.4147  0.2790
 9450SOL    HW129249   2.969   2.167   2.013  2.0559  0.5883  2.0604
 9450SOL    HW229250   3.063   2.034   2.029 -1.5471 -2.7849 -2.0211
 9451SOL     OW29251   4.452   1.014   0.589 -0.3091  0.2368 -0.4530
 9451SOL    HW129252   4.490   1.022   0.497 -0.4490  0.3258 -0.5044
 9451SOL    HW229253   4.397   1.095   0.609  2.0951  1.6633  0.8344
 9452SOL     OW29254   4.190   5.711   5.937 -0.3424 -0.1314  0.5561
 9452SOL    HW129255   4.162   5.626   5.892 -3.1514  1.3844 -0.8086
 9452SOL    HW229256   4.240   5.768   5.872 -0.3065  0.1299  0.8119
 9453SOL     OW29257   3.529   0.897   1.631 -0.1527 -0.2173 -0.1407
 9453SOL    HW129258   3.501   0.980   1.582  0.7696 -1.1554 -2.3831
 9453SOL    HW229259   3.474   0.820   1.599 -0.1548 -0.7140  1.0218
 9454SOL     OW29260   6.460   1.323   0.237  0.3312  0.4319 -0.2947
 9454SOL    HW129261   6.476   1.415   0.272 -1.1915  0.7512 -0.3823
 9454SOL    HW229262   6.541   1.267   0.254  0.8428  1.4568  0.8284
 9455SOL     OW29263   5.239   3.325   1.400 -0.0270  0.3061 -0.0341
 9455SOL    HW129264   5.316   3.388   1.411  0.0712  0.1157  0.4230
 9455SOL    HW229265   5.273   3.231   1.402 -0.1244  0.2345 -1.1003
 9456SOL     OW29266   2.831   2.266   2.229  0.0240 -0.7462  0.0218
 9456SOL    HW129267   2.824   2.311   2.140 -0.7035 -0.6040  0.1394
 9456SOL    HW229268   2.927   2.263   2.257  0.2144 -0.3731 -0.5510
 9457SOL     OW29269   3.729   5.324   3.776  0.3324 -0.0093  0.8097
 9457SOL    HW129270   3.693   5.324   3.869 -0.6513 -1.1265  0.4566
 9457SOL    HW229271   3.669   5.269   3.717  2.0214 -1.0326 -0.0357
 9458SOL     OW29272   2.834   0.559   6.798  0.2608 -0.4169  0.4743
 9458SOL    HW129273   2.892   0.607   6.864  0.8702 -1.1204  0.4674
 9458SOL    HW229274   2.839   0.604   6.709  0.4870 -0.2494  0.5718
 9459SOL     OW29275   3.922   4.492   0.841  0.1934 -0.0767 -0.3138
 9459SOL    HW129276   4.000   4.552   0.861  1.6981 -1.6290 -1.2304
 9459SOL    HW229277   3.939   4.402   0.879 -1.4271 -0.3048 -0.0895
 9460SOL     OW29278   1.707   3.516   0.040 -0.0311 -0.0173  0.4538
 9460SOL    HW129279   1.630   3.456   0.063  0.0250 -0.6780 -0.9526
 9460SOL    HW229280   1.793   3.471   0.063 -0.0232  0.2082  0.8814
 9461SOL     OW29281   6.973   2.080   1.062 -0.0038 -0.3023  0.0702
 9461SOL    HW129282   7.006   1.990   1.091  0.2125 -0.5303 -0.8696
 9461SOL    HW229283   6.877   2.072   1.035 -0.0675 -0.1842  0.2579
 9462SOL     OW29284   1.326   1.885   2.641  0.2812 -0.0049  0.4794
 9462SOL    HW129285   1.367   1.950   2.577  0.7146 -0.5595  0.1855
 9462SOL    HW229286   1.235   1.859   2.609  0.8343 -0.9472 -0.3974
 9463SOL     OW29287   2.727   0.864   4.604  0.1559  0.0413 -0.2843
 9463SOL    HW129288   2.710   0.963   4.601 -1.8103 -0.2916 -1.8090
 9463SOL    HW229289   2.677   0.824   4.680 -1.4989 -0.1392 -1.4111
 9464SOL     OW29290   5.091   0.903   2.048 -0.3146  0.3239  0.4180
 9464SOL    HW129291   5.029   0.907   2.127 -0.0257 -0.0063  0.6628
 9464SOL    HW229292   5.176   0.951   2.069  0.0229 -0.3159  0.5459
 9465SOL     OW29293   5.173   2.109   4.439  0.0802  0.4500  1.0571
 9465SOL    HW129294   5.162   2.110   4.340 -0.9329  1.0476  1.1588
 9465SOL    HW229295   5.084   2.088   4.482  0.7072 -0.7874  1.8154
 9466SOL     OW29296   6.249   3.201   5.152  0.0834  0.5164 -0.4103
 9466SOL    HW129297   6.153   3.221   5.136 -1.3017 -1.4475  3.9716
 9466SOL    HW229298   6.264   3.102   5.145  1.4835  0.6702  0.0782
 9467SOL     OW29299   5.599   4.680   0.547 -0.2900 -0.3455 -0.1397
 9467SOL    HW129300   5.667   4.619   0.588 -1.4471 -0.9373  0.9485
 9467SOL    HW229301   5.571   4.748   0.614  0.1240  0.6933 -0.9831
 9468SOL     OW29302   4.709   1.647   0.141 -0.2089 -0.1299 -0.0022
 9468SOL    HW129303   4.621   1.636   0.187  0.4673 -0.2292  1.3145
 9468SOL    HW229304   4.771   1.699   0.199  0.7915 -0.5504 -0.6569
 9469SOL     OW29305   3.199   2.275   6.937  0.7737 -0.2892 -0.2947
 9469SOL    HW129306   3.200   2.181   6.969 -1.5625 -0.2200  0.1445
 9469SOL    HW229307   3.123   2.289   6.874  0.1963  1.6094  0.7174
 9470SOL     OW29308   2.955   3.841   4.709 -0.2666 -0.5071  0.3216
 9470SOL    HW129309   2.991   3.767   4.765  1.1546  1.3923  2.0710
 9470SOL    HW229310   2.870   3.876   4.749  0.4131  0.4303  1.0035
 9471SOL     OW29311   0.561   5.294   1.766  0.4052  0.0323  0.2651
 9471SOL    HW129312   0.612   5.243   1.836 -0.4169  0.8793  1.5419
 9471SOL    HW229313   0.466   5.262   1.765  0.1287  0.8332  0.3767
 9472SOL     OW29314   0.074   6.918   4.625 -0.0748  0.0911 -0.1977
 9472SOL    HW129315   0.080   6.848   4.697 -2.2265  1.6608  1.6725
 9472SOL    HW229316  -0.011   6.905   4.574 -1.0042  1.8345  0.8295
 9473SOL     OW29317   6.496   4.355   4.116 -0.2840 -0.7796  0.3083
 9473SOL    HW129318   6.474   4.438   4.065 -0.5594 -0.9263  0.1833
 9473SOL    HW229319   6.419   4.330   4.174 -0.2882 -1.0690  0.1809
 9474SOL     OW29320   2.511   2.053   3.149  0.3367 -0.8660 -1.0127
 9474SOL    HW129321   2.610   2.066   3.143  0.1210  1.0675 -1.0669
 9474SOL    HW229322   2.475   2.107   3.225 -0.9335  0.3264 -2.3967
 9475SOL     OW29323   1.894   2.646   6.314 -0.2791 -0.4000 -0.2790
 9475SOL    HW129324   1.817   2.669   6.254  1.0254 -0.2157 -1.9752
 9475SOL    HW229325   1.882   2.691   6.402 -2.2800 -0.6759 -0.3735
 9476SOL     OW29326   0.871   4.938   4.510 -0.6869  0.6419 -0.0063
 9476SOL    HW129327   0.899   5.034   4.504 -0.8485  0.7581  0.8752
 9476SOL    HW229328   0.834   4.908   4.423 -1.1880  1.5603 -0.1191
 9477SOL     OW29329   1.535   6.218   5.837 -0.7723 -0.2310  0.4200
 9477SOL    HW129330   1.491   6.243   5.923 -0.0016 -0.6613  0.9502
 9477SOL    HW229331   1.520   6.290   5.770 -1.3829  0.1103  0.9111
 9478SOL     OW29332   3.923   5.083   6.886 -0.2793 -0.3793 -0.5164
 9478SOL    HW129333   3.994   5.078   6.956 -1.7878 -0.5680  1.0706
 9478SOL    HW229334   3.843   5.131   6.923 -0.4802  1.1348 -2.7283
 9479SOL     OW29335   6.520   3.345   5.600 -0.8807  0.5035 -0.0247
 9479SOL    HW129336   6.456   3.365   5.674 -1.8916 -2.2414 -0.0537
 9479SOL    HW229337   6.471   3.344   5.513 -0.0584  1.8639 -0.5353
 9480SOL     OW29338   5.769   0.536   2.736  0.0458  0.2307 -0.1793
 9480SOL    HW129339   5.840   0.473   2.705  0.4381  1.0476 -0.9968
 9480SOL    HW229340   5.684   0.518   2.687  0.2324  0.5009 -0.6112
 9481SOL     OW29341   5.455   0.727   6.354  0.1535 -0.3289  0.3284
 9481SOL    HW129342   5.433   0.662   6.281 -1.8410  0.4971  0.1423
 9481SOL    HW229343   5.528   0.788   6.324  0.9580 -1.4634 -0.0816
 9482SOL     OW29344   1.041   1.189   1.057  0.5482 -0.3718  0.5837
 9482SOL    HW129345   0.952   1.233   1.073  1.0501  0.4512  1.2194
 9482SOL    HW229346   1.085   1.171   1.145  1.0304 -0.7502  0.2698
 9483SOL     OW29347   2.269   0.915   2.863 -0.2473 -0.4242 -0.3849
 9483SOL    HW129348   2.202   0.985   2.836  0.9277  0.5614 -0.8630
 9483SOL    HW229349   2.247   0.829   2.817  0.3647  0.6110 -2.8285
 9484SOL     OW29350   3.156   6.537   0.325 -0.2953 -0.4834 -0.5590
 9484SOL    HW129351   3.094   6.531   0.248  0.0652 -3.0110 -0.7528
 9484SOL    HW229352   3.236   6.592   0.300 -1.4387  1.0333 -1.0029
 9485SOL     OW29353   3.099   2.093   2.375 -0.0100 -0.5185  0.3658
 9485SOL    HW129354   3.078   2.152   2.453  1.9386  0.9832 -0.1665
 9485SOL    HW229355   3.030   2.021   2.368 -1.1876  0.3292  2.4199
 9486SOL     OW29356   3.266   0.055   4.133 -0.0813 -0.1859  0.1049
 9486SOL    HW129357   3.356   0.012   4.142  1.3817  2.3332 -1.3449
 9486SOL    HW229358   3.250   0.079   4.038 -2.3226 -0.5047  0.3451
 9487SOL     OW29359   6.806   5.323   0.038  0.5960  0.1143  0.5689
 9487SOL    HW129360   6.727   5.296  -0.017  2.0482  0.1661 -1.6752
 9487SOL    HW229361   6.827   5.251   0.105 -1.2435  0.0715  1.1532
 9488SOL     OW29362   3.386   3.404   1.278  0.3273  0.2783 -1.2358
 9488SOL    HW129363   3.295   3.411   1.318  0.3119  1.1370 -1.4062
 9488SOL    HW229364   3.380   3.421   1.179  0.6001 -0.1845 -1.3349
 9489SOL     OW29365   5.080   5.264   6.977 -0.0236 -0.4019 -0.2607
 9489SOL    HW129366   5.084   5.219   7.066 -0.8730  0.2912  0.1465
 9489SOL    HW229367   5.163   5.244   6.926  0.6080 -0.5702  0.8040
 9490SOL     OW29368   2.879   6.936   3.037  0.5787 -0.1591  0.2458
 9490SOL    HW129369   2.797   6.916   2.984 -0.0764  0.0926  1.1460
 9490SOL    HW229370   2.864   7.018   3.092  1.6690  0.2588 -0.0606
 9491SOL     OW29371   2.957   4.062   1.269 -0.0186  0.3797  0.1580
 9491SOL    HW129372   2.971   3.988   1.334  0.4261  0.0438 -0.3135
 9491SOL    HW229373   2.863   4.095   1.276  0.0468  0.4121  1.0297
 9492SOL     OW29374   5.633   1.891   4.300 -0.0178 -0.6264 -1.0901
 9492SOL    HW129375   5.672   1.819   4.357 -1.2253 -0.7936 -0.4541
 9492SOL    HW229376   5.573   1.949   4.355 -1.1139 -0.7108 -2.1560
 9493SOL     OW29377   2.473   0.651   5.587 -0.5054  0.0492  0.2524
 9493SOL    HW129378   2.414   0.717   5.634  1.4336  0.2717  2.5303
 9493SOL    HW229379   2.546   0.700   5.540  0.4521 -0.4063  1.2364
 9494SOL     OW29380   6.833   4.952   7.010  0.2352 -0.4142  0.2814
 9494SOL    HW129381   6.871   5.002   7.087  1.0455  2.3034 -1.7359
 9494SOL    HW229382   6.733   4.950   7.017  0.3200 -0.6359  1.6025
 9495SOL     OW29383   4.865   3.919   3.905 -0.7516 -0.0891 -0.0792
 9495SOL    HW129384   4.853   3.947   4.000 -1.7063  0.2151 -0.2692
 9495SOL    HW229385   4.925   3.984   3.859  0.1091 -0.5087  0.4240
 9496SOL     OW29386   3.881   0.621   0.335 -0.0865  0.4319 -0.5770
 9496SOL    HW129387   3.943   0.689   0.375 -0.5038  2.2836 -2.8657
 9496SOL    HW229388   3.893   0.620   0.236 -0.6705 -2.3521 -0.6994
 9497SOL     OW29389   6.483   5.203   6.529  0.4260 -0.0719  0.2449
 9497SOL    HW129390   6.467   5.107   6.505 -0.5132  0.2353 -0.4077
 9497SOL    HW229391   6.416   5.232   6.598 -0.0402  0.4302 -0.4100
 9498SOL     OW29392   2.493   6.593   5.123 -0.0187  0.0965 -0.7054
 9498SOL    HW129393   2.408   6.640   5.143 -0.7602 -1.6589  0.5628
 9498SOL    HW229394   2.569   6.658   5.122 -0.2398  1.0308  5.3059
 9499SOL     OW29395   0.274   1.636   5.539  0.2377 -0.4481  0.5599
 9499SOL    HW129396   0.303   1.606   5.629 -2.0080 -2.5917  0.6608
 9499SOL    HW229397   0.184   1.680   5.545 -0.0484 -0.8265 -0.6286
 9500SOL     OW29398   6.603   3.035   6.107  0.3631 -0.2175 -0.0597
 9500SOL    HW129399   6.547   3.022   6.189 -0.1452 -1.3722 -0.5776
 9500SOL    HW229400   6.613   2.948   6.058  0.9940  0.3692 -1.0164
 9501SOL     OW29401   1.874   0.738   3.213  0.1050  0.8646 -0.7224
 9501SOL    HW129402   1.827   0.701   3.293 -0.6736 -1.5009 -2.1628
 9501SOL    HW229403   1.851   0.834   3.202  0.1719  1.2465  1.7887
 9502SOL     OW29404   2.557   4.383   0.683 -0.1267 -0.7854  0.1271
 9502SOL    HW129405   2.649   4.365   0.648  0.1737 -0.7915  0.8956
 9502SOL    HW229406   2.506   4.297   0.689  0.0531 -0.8812  0.3286
 9503SOL     OW29407   6.177   6.440   5.479  0.2954 -0.5694  0.3118
 9503SOL    HW129408   6.113   6.505   5.520 -0.3475 -0.1783 -1.2406
 9503SOL    HW229409   6.196   6.367   5.545 -0.1991  0.3468  1.5155
 9504SOL     OW29410   3.424   4.156   1.405  0.4439 -0.0122  0.4525
 9504SOL    HW129411   3.443   4.254   1.396  1.1281 -0.2721 -1.5489
 9504SOL    HW229412   3.386   4.122   1.319  2.8977 -2.0496  0.0331
 9505SOL     OW29413   0.866   2.121   4.435 -0.8465  0.6801 -0.4997
 9505SOL    HW129414   0.773   2.129   4.399 -0.6148 -0.5030 -1.4136
 9505SOL    HW229415   0.924   2.191   4.394 -1.1257  0.8454 -0.6162
 9506SOL     OW29416   0.295   1.886   4.515  0.3606  0.1602 -0.5211
 9506SOL    HW129417   0.346   1.947   4.455  0.1153  0.2053 -0.6873
 9506SOL    HW229418   0.355   1.813   4.548  1.1145  1.4625  1.0802
 9507SOL     OW29419   5.077   3.395   6.743 -0.5321  0.1592 -0.1529
 9507SOL    HW129420   5.038   3.342   6.819 -0.9513 -0.4668 -0.7900
 9507SOL    HW229421   5.062   3.346   6.657 -1.7340  1.7348 -0.8873
 9508SOL     OW29422   1.661   1.552   2.919 -0.4772  0.3038  0.2213
 9508SOL    HW129423   1.637   1.607   2.838 -1.6619  1.4094  1.2782
 9508SOL    HW229424   1.708   1.610   2.985 -1.7712  0.0994  1.3672
 9509SOL     OW29425   3.377   2.159   4.499  0.0890 -0.8771 -0.2629
 9509SOL    HW129426   3.475   2.142   4.486 -0.2301 -0.9717 -3.1624
 9509SOL    HW229427   3.365   2.238   4.559  2.0787  0.9157 -2.0628
 9510SOL     OW29428   4.089   5.920   2.955 -0.7576 -0.3800 -0.0121
 9510SOL    HW129429   4.047   5.886   3.039  1.0059  0.9954  1.5195
 9510SOL    HW229430   4.132   6.009   2.973 -1.2555  0.4834 -2.6686
 9511SOL     OW29431   2.520   4.088   0.356 -0.3443  0.1081 -0.0153
 9511SOL    HW129432   2.562   4.127   0.274 -1.2418  0.4449 -0.3259
 9511SOL    HW229433   2.421   4.080   0.342 -0.1895 -2.7365 -0.1634
 9512SOL     OW29434   0.257   5.578   5.057  0.8187 -0.7552  0.0726
 9512SOL    HW129435   0.347   5.579   5.102  1.1502  0.9212 -0.5613
 9512SOL    HW229436   0.238   5.486   5.024  1.9906 -1.2971  0.8287
 9513SOL     OW29437   1.366   4.530   0.207  0.4673 -0.5998  0.5262
 9513SOL    HW129438   1.323   4.445   0.238  0.8512 -0.3757  1.7004
 9513SOL    HW229439   1.306   4.607   0.226  0.5282 -0.5017  0.3255
 9514SOL     OW29440   0.505   6.327   6.582  0.1913  0.1934 -0.1240
 9514SOL    HW129441   0.576   6.266   6.546 -0.1757 -0.8310  0.8400
 9514SOL    HW229442   0.524   6.347   6.679 -0.2682  0.7757 -0.1446
 9515SOL     OW29443   6.870   3.044   2.972  0.0085 -0.0733 -0.2150
 9515SOL    HW129444   6.843   3.108   2.901  0.6006 -0.9790 -1.2900
 9515SOL    HW229445   6.873   3.091   3.060  2.1748  1.8732 -1.2154
 9516SOL     OW29446   5.272   5.009   4.667 -1.1084 -0.0680 -0.0584
 9516SOL    HW129447   5.281   4.917   4.706 -0.6402  0.1892  0.4487
 9516SOL    HW229448   5.175   5.030   4.655 -1.3849  0.3948  2.3490
 9517SOL     OW29449   0.534   2.871   2.481 -0.5650  0.0220 -0.0641
 9517SOL    HW129450   0.569   2.789   2.526 -2.7371  1.2177  4.3483
 9517SOL    HW229451   0.599   2.946   2.494  0.6943 -0.4926 -2.7457
 9518SOL     OW29452   0.472   6.983   2.113  0.0442 -0.8113 -0.3545
 9518SOL    HW129453   0.483   6.920   2.037 -0.3726 -2.0653  0.5838
 9518SOL    HW229454   0.392   7.041   2.097  0.6615 -0.2301 -1.4078
 9519SOL     OW29455   0.954   5.591   3.135  0.5275  0.5820 -0.2988
 9519SOL    HW129456   0.997   5.581   3.046 -0.0236  2.0145 -0.7668
 9519SOL    HW229457   1.000   5.534   3.202  1.6524  0.3255 -1.2700
 9520SOL     OW29458   0.298   6.105   6.969  0.5878  0.1856 -0.1027
 9520SOL    HW129459   0.259   6.013   6.963 -1.5469  0.4927  4.3065
 9520SOL    HW229460   0.397   6.099   6.982  0.5074 -1.4990 -0.0497
 9521SOL     OW29461   2.256   4.263   3.562 -0.4155  0.0777  0.0191
 9521SOL    HW129462   2.200   4.321   3.622 -2.0701 -1.2017 -0.2025
 9521SOL    HW229463   2.244   4.168   3.589 -0.5233 -0.4521 -1.7999
 9522SOL     OW29464   5.796   6.604   0.830  0.0874  0.3092 -0.0128
 9522SOL    HW129465   5.786   6.674   0.760  1.1457  0.4177 -0.0675
 9522SOL    HW229466   5.763   6.640   0.918 -1.5458  0.0578 -0.4927
 9523SOL     OW29467   1.047   0.132   0.915 -0.1107  0.3486  0.3111
 9523SOL    HW129468   0.947   0.131   0.926 -0.1541 -0.1532 -0.1008
 9523SOL    HW229469   1.090   0.128   1.005 -0.4609 -2.8383  0.4629
 9524SOL     OW29470   1.690   4.775   2.060  0.2512 -0.2631 -0.1825
 9524SOL    HW129471   1.754   4.819   2.122  0.3863 -1.0457  0.2457
 9524SOL    HW229472   1.604   4.756   2.109 -0.0236  0.0665 -0.5315
 9525SOL     OW29473   6.278   4.090   4.623 -1.0716  0.4864  0.0216
 9525SOL    HW129474   6.211   4.020   4.647 -1.2283  0.4479 -0.5211
 9525SOL    HW229475   6.355   4.085   4.687 -0.9711 -0.3349 -0.1454
 9526SOL     OW29476   2.188   4.807   6.345  0.0571  0.5461  0.0098
 9526SOL    HW129477   2.232   4.717   6.336  0.9941  1.1456 -2.0281
 9526SOL    HW229478   2.251   4.878   6.315 -1.3315  1.7078 -0.2827
 9527SOL     OW29479   4.563   4.776   6.241 -0.0606  0.3947  0.0376
 9527SOL    HW129480   4.490   4.828   6.286  0.4867  0.9913  0.2524
 9527SOL    HW229481   4.601   4.710   6.306 -0.3798  0.1080 -0.0636
 9528SOL     OW29482   3.682   0.049   6.645  0.2098 -0.1048  0.4448
 9528SOL    HW129483   3.740   0.113   6.695 -1.8085  1.0183  1.4723
 9528SOL    HW229484   3.591   0.048   6.685 -1.3568  0.3555 -2.7591
 9529SOL     OW29485   6.286   5.903   3.933  0.0389 -0.3670  0.3623
 9529SOL    HW129486   6.293   5.804   3.917  2.3079 -0.2035 -0.0128
 9529SOL    HW229487   6.308   5.924   4.028  1.1344 -0.1209  0.0706
 9530SOL     OW29488   3.153   1.464   3.451  0.0133  0.0808  0.2527
 9530SOL    HW129489   3.122   1.421   3.366  0.0933  1.7905 -0.6704
 9530SOL    HW229490   3.248   1.493   3.440  0.2503 -0.3043  1.1879
 9531SOL     OW29491   3.048   5.821   0.646 -0.2345  0.3044  0.3949
 9531SOL    HW129492   3.081   5.846   0.737 -1.0539 -1.6172  1.2954
 9531SOL    HW229493   3.119   5.769   0.598  0.2379  1.4097 -0.1429
 9532SOL     OW29494   6.284   4.523   1.645 -0.1783 -0.2678 -0.7949
 9532SOL    HW129495   6.264   4.505   1.549  0.9424  0.3716 -1.1573
 9532SOL    HW229496   6.379   4.499   1.665 -0.2459  0.1095  0.0248
 9533SOL     OW29497   1.351   2.344   5.184 -0.4587 -0.5343 -0.0981
 9533SOL    HW129498   1.272   2.377   5.236 -0.7704 -0.4273 -0.6337
 9533SOL    HW229499   1.418   2.418   5.176  0.2784 -1.0036  1.4520
 9534SOL     OW29500   5.362   0.228   5.774  0.3213 -0.0359 -0.2957
 9534SOL    HW129501   5.423   0.294   5.817  1.3870 -0.2066 -1.5138
 9534SOL    HW229502   5.362   0.143   5.828  1.3356 -0.1137 -0.3987
 9535SOL     OW29503   4.785   0.115   1.652  0.1491  0.4399  0.0414
 9535SOL    HW129504   4.708   0.059   1.622 -0.9120  1.9434 -0.1404
 9535SOL    HW229505   4.847   0.059   1.708 -2.5547 -0.1348  2.7089
 9536SOL     OW29506   6.666   1.319   3.676  0.5697 -0.0430  0.0487
 9536SOL    HW129507   6.739   1.257   3.706 -0.1531 -0.2316  1.5406
 9536SOL    HW229508   6.598   1.328   3.750  0.0543  1.6061 -0.5875
 9537SOL     OW29509   2.208   3.649   7.014  0.1808 -0.7659  0.4635
 9537SOL    HW129510   2.258   3.726   7.054 -0.7642 -1.3921  3.0512
 9537SOL    HW229511   2.271   3.594   6.959  1.6290  0.0742  1.2185
 9538SOL     OW29512   1.439   0.936   3.458 -0.3779  0.1755 -0.3501
 9538SOL    HW129513   1.393   1.025   3.457 -0.2278  0.2869  0.7579
 9538SOL    HW229514   1.538   0.949   3.461 -0.3089 -0.0512 -1.4273
 9539SOL     OW29515   3.975   4.772   0.643 -0.0443 -0.3149  0.1580
 9539SOL    HW129516   3.901   4.838   0.650 -0.5358 -0.9805  1.8495
 9539SOL    HW229517   4.041   4.788   0.717  1.1278 -0.1980 -0.8757
 9540SOL     OW29518   0.135   6.708   3.996 -0.3103 -0.5417 -0.1963
 9540SOL    HW129519   0.060   6.643   3.982 -0.9354  0.3942 -1.4261
 9540SOL    HW229520   0.104   6.783   4.055 -0.3306 -0.2231 -0.5991
 9541SOL     OW29521   1.369   5.654   1.951  0.4229 -0.2947 -0.6636
 9541SOL    HW129522   1.354   5.670   1.854  1.8336  1.9502 -0.5850
 9541SOL    HW229523   1.284   5.669   2.001  0.0050 -0.1432 -1.4121
 9542SOL     OW29524   1.992   6.927   0.346 -0.4519 -0.1463 -0.0048
 9542SOL    HW129525   2.046   6.843   0.349  1.4142  0.9696 -0.4646
 9542SOL    HW229526   2.005   6.978   0.431 -0.3269  0.3977 -0.3462
 9543SOL     OW29527   2.458   0.163   4.860 -0.9927 -0.1843  0.6712
 9543SOL    HW129528   2.523   0.134   4.790 -0.9522 -0.2377  0.7310
 9543SOL    HW229529   2.508   0.196   4.940 -1.0355  0.5347  0.4092
 9544SOL     OW29530   0.806   5.174   6.254 -0.4329  0.3753 -0.2291
 9544SOL    HW129531   0.807   5.234   6.174 -1.2023  0.5091 -0.1409
 9544SOL    HW229532   0.826   5.080   6.226 -0.7238  0.4156 -0.5789
 9545SOL     OW29533   2.838   1.106   1.178  0.4791 -0.0416  0.3401
 9545SOL    HW129534   2.763   1.074   1.237  1.4211 -2.3382  0.3974
 9545SOL    HW229535   2.923   1.108   1.231  0.3601  3.8429  0.6564
 9546SOL     OW29536   1.326   5.866   6.038 -0.5950  0.7606  0.6561
 9546SOL    HW129537   1.336   5.936   6.108  1.5149  2.6883 -1.3941
 9546SOL    HW229538   1.303   5.909   5.951  1.8370 -0.8746 -0.9366
 9547SOL     OW29539   4.563   0.521   2.509  0.0918 -0.2477 -0.4345
 9547SOL    HW129540   4.502   0.564   2.576 -1.3925 -1.2452 -1.0877
 9547SOL    HW229541   4.510   0.493   2.429  1.2729 -1.8379 -0.7115
 9548SOL     OW29542   5.942   3.663   6.143  0.7406 -0.0018 -0.4843
 9548SOL    HW129543   5.857   3.630   6.185  1.4390 -0.0931  0.9031
 9548SOL    HW229544   5.923   3.692   6.049 -1.4087  2.3864  0.5536
 9549SOL     OW29545   3.122   3.609   6.671 -0.4672 -0.1039  0.1201
 9549SOL    HW129546   3.135   3.646   6.763  2.7023 -1.2581  0.2650
 9549SOL    HW229547   3.060   3.530   6.674  2.0947 -2.2122  1.9780
 9550SOL     OW29548   0.576   4.276   0.783 -0.3175  0.0088  0.0887
 9550SOL    HW129549   0.612   4.315   0.868 -0.6435 -1.1437  0.7825
 9550SOL    HW229550   0.557   4.179   0.797 -1.2105  0.0045 -1.0534
 9551SOL     OW29551   2.273   4.997   2.646 -0.2520 -0.1457 -0.2136
 9551SOL    HW129552   2.185   5.022   2.605 -0.0624 -0.1396 -0.6263
 9551SOL    HW229553   2.337   4.971   2.574 -0.2040 -1.0761  0.1510
 9552SOL     OW29554   1.083   2.839   0.877 -0.1428  0.3333  0.1095
 9552SOL    HW129555   1.167   2.892   0.890 -0.3706  1.2470 -1.7916
 9552SOL    HW229556   1.066   2.826   0.779 -1.3554 -1.2762  0.4835
 9553SOL     OW29557   6.175   4.897   3.435  0.4547 -0.1737 -0.1434
 9553SOL    HW129558   6.136   4.940   3.516 -1.5411 -0.8527 -0.6941
 9553SOL    HW229559   6.209   4.806   3.459 -0.6543 -0.6054 -0.1631
 9554SOL     OW29560   2.128   0.947   2.592 -0.3284  0.3979 -0.4492
 9554SOL    HW129561   2.035   0.981   2.586 -0.0581  0.9275 -4.9092
 9554SOL    HW229562   2.191   1.024   2.599 -0.1212  0.3918 -1.8313
 9555SOL     OW29563   2.736   6.607   2.084 -0.5751  0.3136  0.1894
 9555SOL    HW129564   2.716   6.603   2.181  0.1093  0.7212  0.3573
 9555SOL    HW229565   2.657   6.641   2.034  0.0316  3.1558  0.9614
 9556SOL     OW29566   0.834   4.206   0.012  0.4815 -0.2823 -0.2775
 9556SOL    HW129567   0.904   4.213  -0.059  0.0197 -2.8848 -1.0981
 9556SOL    HW229568   0.877   4.181   0.098  0.7766  0.3377 -0.2384
 9557SOL     OW29569   6.547   5.576   3.174  0.0402 -0.1615 -0.1304
 9557SOL    HW129570   6.493   5.507   3.222 -0.7271  1.4002  1.3829
 9557SOL    HW229571   6.643   5.568   3.201 -0.2986  0.3571  1.3677
 9558SOL     OW29572   6.814   6.349   0.906  0.6161 -0.3168  0.2202
 9558SOL    HW129573   6.738   6.405   0.871 -0.4461 -1.6500  0.3202
 9558SOL    HW229574   6.855   6.394   0.985  1.5001  1.5715 -1.2178
 9559SOL     OW29575   0.078   0.612   3.326 -0.2517  0.5871 -0.3022
 9559SOL    HW129576   0.130   0.557   3.392  2.1490  0.6808 -2.0023
 9559SOL    HW229577   0.008   0.555   3.283  0.2134 -0.3112  0.1007
 9560SOL     OW29578   3.435   1.490   6.831 -0.7002 -0.2482 -0.2069
 9560SOL    HW129579   3.340   1.520   6.845 -0.1466  1.8728 -0.8417
 9560SOL    HW229580   3.461   1.502   6.736 -0.4065 -2.8479 -0.5451
 9561SOL     OW29581   2.632   4.383   6.145  0.0881 -0.2952  0.1854
 9561SOL    HW129582   2.729   4.390   6.124  0.3114 -1.1461  0.9024
 9561SOL    HW229583   2.581   4.364   6.060  0.5506  0.0431 -0.1729
 9562SOL     OW29584   0.576   0.516   5.188  0.1407 -0.2043  0.0024
 9562SOL    HW129585   0.503   0.454   5.218  0.1571 -0.2643 -0.0806
 9562SOL    HW229586   0.544   0.571   5.111 -0.2843  0.7571  0.8439
 9563SOL     OW29587   4.940   2.859   0.221  0.0897 -0.1249  0.3821
 9563SOL    HW129588   5.024   2.818   0.185  1.1658  0.3102  2.2467
 9563SOL    HW229589   4.905   2.926   0.156  0.9393 -0.6180 -0.6196
 9564SOL     OW29590   2.594   2.150   4.181 -0.4509 -0.5605 -0.7816
 9564SOL    HW129591   2.688   2.179   4.163 -0.4170 -0.6884 -0.8070
 9564SOL    HW229592   2.544   2.225   4.226  0.3100 -1.2926  1.3911
 9565SOL     OW29593   4.542   4.400   2.534  0.1223  0.9740 -0.0849
 9565SOL    HW129594   4.581   4.353   2.613 -0.4317 -0.1520 -0.4661
 9565SOL    HW229595   4.612   4.412   2.464 -0.4969 -2.7066 -1.5465
 9566SOL     OW29596   5.658   0.920   4.062 -0.2129 -0.2272  0.3685
 9566SOL    HW129597   5.729   0.976   4.106 -0.2226 -0.1768  0.3204
 9566SOL    HW229598   5.644   0.952   3.969  2.1996 -2.4423 -0.8873
 9567SOL     OW29599   2.825   6.133   5.356 -0.2056 -0.1065 -0.2284
 9567SOL    HW129600   2.827   6.089   5.446 -1.0504  1.2768  0.5042
 9567SOL    HW229601   2.918   6.143   5.322  0.0843 -1.1866  0.2128
 9568SOL     OW29602   0.530   2.273   4.704  0.0944  0.0239 -0.3921
 9568SOL    HW129603   0.475   2.327   4.640 -0.9241  0.3226  0.7096
 9568SOL    HW229604   0.545   2.325   4.788 -1.5093 -1.6277  0.9809
 9569SOL     OW29605   6.295   5.543   4.899  0.3553  0.8541  0.5260
 9569SOL    HW129606   6.302   5.541   4.998 -1.9908  0.2542  0.7210
 9569SOL    HW229607   6.205   5.511   4.870  0.7743  1.5296 -1.7827
 9570SOL     OW29608   4.191   0.907   4.640 -0.5504  0.3782  0.3106
 9570SOL    HW129609   4.136   0.824   4.644 -2.8548  1.8435  0.3790
 9570SOL    HW229610   4.288   0.882   4.645 -1.1917 -2.1819  1.8244
 9571SOL     OW29611   4.276   3.959   5.309 -0.1422 -0.4340 -0.3816
 9571SOL    HW129612   4.315   3.867   5.311  0.0818 -0.3310  0.5865
 9571SOL    HW229613   4.199   3.962   5.246 -0.3858 -1.3750 -0.1376
 9572SOL     OW29614   1.057   4.676   4.007 -0.3107  0.0958  0.5363
 9572SOL    HW129615   1.137   4.641   3.959  0.6433  1.7139  0.8483
 9572SOL    HW229616   1.014   4.603   4.059 -0.5152 -1.3625 -1.5971
 9573SOL     OW29617   7.017   1.434   1.428  0.8617 -0.1247  0.4485
 9573SOL    HW129618   6.952   1.436   1.353  0.4405 -1.3823  0.7423
 9573SOL    HW229619   6.968   1.423   1.515  1.3579  0.9876  0.8815
 9574SOL     OW29620   5.064   3.236   6.449  0.4199 -0.4245 -0.2305
 9574SOL    HW129621   4.980   3.253   6.500  0.5127 -1.0093  0.1287
 9574SOL    HW229622   5.120   3.168   6.498  1.3472  0.3402 -0.1925
 9575SOL     OW29623   0.146   5.109   2.700  0.3234 -0.1671  0.0251
 9575SOL    HW129624   0.170   5.207   2.703 -0.0611 -0.0816  0.4991
 9575SOL    HW229625   0.117   5.084   2.608 -0.2809  0.3398  0.0716
 9576SOL     OW29626   4.110   5.646   4.531 -0.5020 -0.2526  0.2454
 9576SOL    HW129627   4.048   5.656   4.609  0.2501  1.8833  0.6181
 9576SOL    HW229628   4.201   5.620   4.563 -0.2807  0.2741  0.0601
 9577SOL     OW29629   5.474   3.721   2.197 -0.4103 -0.2836  0.0483
 9577SOL    HW129630   5.527   3.802   2.171 -1.2875  0.6057  0.9685
 9577SOL    HW229631   5.378   3.735   2.176 -0.4710 -1.4182 -0.5121
 9578SOL     OW29632   5.312   5.202   3.424  0.2658 -0.2435 -0.2495
 9578SOL    HW129633   5.321   5.131   3.494  2.5389  0.1672 -0.0340
 9578SOL    HW229634   5.280   5.161   3.339  2.1549 -1.7403 -0.3226
 9579SOL     OW29635   4.348   2.008   2.825 -0.0108  0.1182  0.2724
 9579SOL    HW129636   4.343   1.952   2.743 -0.2557  1.6087 -0.7686
 9579SOL    HW229637   4.256   2.023   2.861 -0.0598  0.7276 -0.0874
 9580SOL     OW29638   6.939   0.692   2.053  0.9517 -0.1959  0.0663
 9580SOL    HW129639   6.845   0.659   2.056  0.1285  2.0327  0.3993
 9580SOL    HW229640   6.968   0.702   1.958 -0.1787  1.7557 -0.1140
 9581SOL     OW29641   1.616   3.301   0.387 -0.2846  0.6997 -0.3739
 9581SOL    HW129642   1.643   3.286   0.292 -0.7217  0.2130 -0.4252
 9581SOL    HW229643   1.608   3.399   0.404 -0.5694  0.7819 -0.9470
 9582SOL     OW29644   1.762   5.151   0.300  0.1810 -0.5788 -0.1276
 9582SOL    HW129645   1.728   5.060   0.323  0.9254 -0.8496 -0.0460
 9582SOL    HW229646   1.815   5.146   0.215  0.2386 -0.2274 -0.1127
 9583SOL     OW29647   4.709   0.176   1.925 -0.2055  0.5091 -0.2942
 9583SOL    HW129648   4.721   0.118   1.844  2.4094  0.5401 -0.0228
 9583SOL    HW229649   4.647   0.251   1.903 -0.3427 -0.0463 -1.9738
 9584SOL     OW29650   1.590   3.993   6.822  0.9209  0.2308  0.1608
 9584SOL    HW129651   1.553   3.918   6.877  1.1314 -0.0749 -0.1138
 9584SOL    HW229652   1.616   3.960   6.732  2.1356  0.3596  0.4357
 9585SOL     OW29653   5.091   3.298   5.187  0.2594  0.0566 -0.4512
 9585SOL    HW129654   5.148   3.380   5.196 -0.7134  1.0221 -2.6014
 9585SOL    HW229655   5.060   3.270   5.278  0.6497  2.0401  0.3517
 9586SOL     OW29656   4.973   3.219   4.665  0.3028  0.0865  0.4842
 9586SOL    HW129657   4.958   3.310   4.704  0.3472 -0.3925  1.6638
 9586SOL    HW229658   5.070   3.197   4.666  0.5124  0.6997 -1.4301
 9587SOL     OW29659   5.491   1.581   5.503  0.3857 -0.3488  0.2324
 9587SOL    HW129660   5.557   1.536   5.443 -0.0204 -0.1702 -0.3603
 9587SOL    HW229661   5.534   1.661   5.545  1.1122 -1.2768  1.3021
 9588SOL     OW29662   3.947   4.931   6.220  0.1005 -0.0183  0.6009
 9588SOL    HW129663   4.024   4.973   6.171 -1.1010  1.4937 -0.1065
 9588SOL    HW229664   3.894   4.876   6.156  0.1079 -0.3474  0.8798
 9589SOL     OW29665   3.669   6.503   1.680 -0.5585  0.7226  0.8466
 9589SOL    HW129666   3.737   6.522   1.609 -1.3630  0.3822 -0.0333
 9589SOL    HW229667   3.714   6.498   1.769  0.7794 -0.8005  0.1284
 9590SOL     OW29668   6.612   1.434   3.430  0.0380  0.3622 -0.3707
 9590SOL    HW129669   6.614   1.388   3.518 -0.4609  0.5602 -0.2548
 9590SOL    HW229670   6.635   1.531   3.443  3.3624 -0.2256 -0.8809
 9591SOL     OW29671   5.025   4.323   5.574  0.4926 -0.5625  0.2016
 9591SOL    HW129672   4.930   4.308   5.547  0.9029 -0.4248 -1.4314
 9591SOL    HW229673   5.086   4.279   5.507  1.5998  1.3041 -0.0902
 9592SOL     OW29674   3.481   0.902   2.090 -0.1336  0.3521 -0.0414
 9592SOL    HW129675   3.437   0.860   2.012  2.5867 -0.3772 -1.3171
 9592SOL    HW229676   3.516   0.831   2.151  0.3854  0.8531  0.2575
 9593SOL     OW29677   6.499   3.500   2.410 -0.3768  0.0120  0.2644
 9593SOL    HW129678   6.535   3.424   2.355 -0.5967  0.1825 -0.1190
 9593SOL    HW229679   6.429   3.465   2.473  0.4396 -0.3170  1.0043
 9594SOL     OW29680   2.575   4.597   2.303  1.0754  0.7379 -0.1987
 9594SOL    HW129681   2.560   4.634   2.211  0.1999  0.2219 -0.2811
 9594SOL    HW229682   2.654   4.535   2.301  1.1911  0.8930 -0.5572
 9595SOL     OW29683   0.777   3.093   2.299  0.8231 -0.0945 -0.7517
 9595SOL    HW129684   0.826   3.133   2.221  0.3474  2.5665  0.2042
 9595SOL    HW229685   0.688   3.059   2.269  0.8239  0.5075 -1.4668
 9596SOL     OW29686   6.088   4.842   0.837 -0.2055 -0.1581 -0.0095
 9596SOL    HW129687   6.076   4.743   0.830  0.4791 -0.3008  0.7875
 9596SOL    HW229688   6.050   4.874   0.924  1.6435 -0.0736  0.8067
 9597SOL     OW29689   1.736   6.563   2.732  0.1251 -0.4798 -0.5417
 9597SOL    HW129690   1.720   6.544   2.635 -0.8716 -0.1350 -0.4622
 9597SOL    HW229691   1.824   6.610   2.743 -0.3747  0.7424 -1.4513
 9598SOL     OW29692   3.408   2.666   0.227  1.1212  0.3195  0.5713
 9598SOL    HW129693   3.394   2.593   0.161  1.1856 -0.5560  1.5106
 9598SOL    HW229694   3.504   2.667   0.256  1.0281  0.5084  0.8743
 9599SOL     OW29695   0.703   4.637   1.674  0.4660 -0.5157 -0.1767
 9599SOL    HW129696   0.622   4.638   1.734  0.3600 -1.5687 -0.2820
 9599SOL    HW229697   0.678   4.596   1.586  1.2933 -1.6270  0.0782
 9600SOL     OW29698   0.730   1.837   4.983 -0.4234  0.4339 -0.7541
 9600SOL    HW129699   0.727   1.769   4.910 -1.2977  0.4531 -0.7519
 9600SOL    HW229700   0.805   1.900   4.967  0.4736 -0.5994 -0.6936
 9601SOL     OW29701   5.473   3.822   5.369 -0.1883  0.2436 -0.0891
 9601SOL    HW129702   5.398   3.840   5.433  0.1670  1.0419  0.1187
 9601SOL    HW229703   5.561   3.839   5.414  0.1123 -0.3206 -0.4430
 9602SOL     OW29704   5.431   3.377   6.036 -0.2434 -0.0579  0.2556
 9602SOL    HW129705   5.531   3.381   6.035 -0.2717  1.3710  0.4493
 9602SOL    HW229706   5.397   3.407   6.125 -0.8541  1.1127 -0.3330
 9603SOL     OW29707   3.088   6.456   4.214  0.0616  0.0675  0.4420
 9603SOL    HW129708   3.005   6.428   4.262 -1.2268  2.0893 -0.4544
 9603SOL    HW229709   3.083   6.429   4.118  0.1646  0.6588  0.2596
 9604SOL     OW29710   0.265   3.789   3.505  0.4284  1.0300 -0.1059
 9604SOL    HW129711   0.197   3.725   3.470  0.5261  0.8009  0.1175
 9604SOL    HW229712   0.355   3.746   3.504  0.3177  0.7491  1.1245
 9605SOL     OW29713   0.744   4.573   6.069  0.3263  0.0443  0.1944
 9605SOL    HW129714   0.764   4.610   5.978  0.9732  0.5351  0.5282
 9605SOL    HW229715   0.688   4.490   6.060 -0.4268  0.6158 -0.6082
 9606SOL     OW29716   1.465   6.353   2.740 -0.9891  0.2971  0.3607
 9606SOL    HW129717   1.407   6.432   2.718 -0.1953  0.1620 -2.8080
 9606SOL    HW229718   1.409   6.270   2.744 -1.2553  0.3719 -1.2301
 9607SOL     OW29719   1.635   2.905   1.989  0.3944  0.6085  0.0312
 9607SOL    HW129720   1.581   2.917   2.073 -0.5970 -1.0047 -0.3256
 9607SOL    HW229721   1.629   2.809   1.960  3.5860  0.3104  0.0373
 9608SOL     OW29722   6.423   2.096   2.586 -0.0757 -0.3989 -0.4342
 9608SOL    HW129723   6.412   2.045   2.500 -4.3144 -1.2884  0.4098
 9608SOL    HW229724   6.396   2.191   2.571 -0.1467 -0.3885 -0.2390
 9609SOL     OW29725   4.238   0.312   3.933  0.4303 -0.3353 -0.1605
 9609SOL    HW129726   4.175   0.254   3.984 -0.8019  0.5720 -0.6020
 9609SOL    HW229727   4.187   0.376   3.877  1.7590  0.0628 -0.9789
 9610SOL     OW29728   2.897   0.580   5.283 -0.2248  0.2931 -0.0868
 9610SOL    HW129729   2.844   0.503   5.318 -0.5419  0.2292 -0.6915
 9610SOL    HW229730   2.864   0.605   5.192  1.9296 -0.9555 -1.3169
 9611SOL     OW29731   4.395   1.491   6.730 -0.5017  0.0948 -0.0724
 9611SOL    HW129732   4.466   1.559   6.709 -0.2875 -0.4902 -1.3424
 9611SOL    HW229733   4.337   1.525   6.804  0.5923  0.9499  0.4191
 9612SOL     OW29734   6.412   3.058   1.651  0.4789  0.5616 -0.9531
 9612SOL    HW129735   6.506   3.022   1.644 -0.0546 -0.9403 -0.7061
 9612SOL    HW229736   6.416   3.157   1.665  2.0267  0.5405 -1.0014
 9613SOL     OW29737   2.266   2.891   2.764 -0.3278  0.4793  0.0783
 9613SOL    HW129738   2.318   2.977   2.771 -0.5045  0.5498  0.6051
 9613SOL    HW229739   2.280   2.838   2.847  0.8165 -0.6070 -0.7718
 9614SOL     OW29740   3.457   3.329   4.013 -0.3447 -0.2310  0.1340
 9614SOL    HW129741   3.376   3.382   4.036 -1.0894 -1.4857  0.5280
 9614SOL    HW229742   3.520   3.329   4.090  1.2879  2.8599 -1.0402
 9615SOL     OW29743   2.763   0.573   1.923  0.2722 -0.1355 -0.5009
 9615SOL    HW129744   2.757   0.478   1.954 -1.6099  0.3226  0.6593
 9615SOL    HW229745   2.816   0.626   1.989  1.2194 -0.3171 -1.0878
 9616SOL     OW29746   2.724   5.206   4.948 -0.1967  0.0816 -0.5592
 9616SOL    HW129747   2.648   5.207   4.883 -0.6138 -0.2657 -0.0824
 9616SOL    HW229748   2.810   5.222   4.899 -0.4344 -0.7951 -1.2958
 9617SOL     OW29749   3.514   6.301   5.836 -0.1419  0.2206  0.8782
 9617SOL    HW129750   3.491   6.204   5.827 -1.6714  0.5032  1.5180
 9617SOL    HW229751   3.509   6.345   5.746 -2.8958  0.3972  1.0382
 9618SOL     OW29752   5.101   1.133   1.419  0.4358  0.5449  0.4538
 9618SOL    HW129753   5.109   1.199   1.345  1.7652  0.1144  0.1798
 9618SOL    HW229754   5.049   1.053   1.387 -0.3102  1.0129  0.4781
 9619SOL     OW29755   5.301   2.404   6.216 -0.2518 -0.0181 -0.8692
 9619SOL    HW129756   5.349   2.339   6.157 -1.0112 -2.8415  1.3300
 9619SOL    HW229757   5.202   2.388   6.208 -0.4394  0.6739 -0.0477
 9620SOL     OW29758   2.106   6.973   2.795  0.4427  0.3677 -0.4501
 9620SOL    HW129759   2.100   6.968   2.695 -2.1549 -4.2034 -0.3234
 9620SOL    HW229760   2.185   6.922   2.827  0.2517  0.2498 -0.1590
 9621SOL     OW29761   4.146   5.208   0.635 -0.5216  0.3349  0.5152
 9621SOL    HW129762   4.107   5.247   0.718 -0.6713 -0.4364  0.8182
 9621SOL    HW229763   4.126   5.110   0.631 -0.7449  0.4095 -0.5679
 9622SOL     OW29764   4.442   0.626   4.409  0.3655 -0.6412  0.5050
 9622SOL    HW129765   4.509   0.628   4.484  2.1465 -0.6411 -1.0159
 9622SOL    HW229766   4.490   0.614   4.322 -1.6291 -0.4016 -0.6835
 9623SOL     OW29767   5.947   2.672   2.292  0.1293  0.6125  0.3206
 9623SOL    HW129768   6.027   2.623   2.259  0.5809  1.7975 -0.4338
 9623SOL    HW229769   5.889   2.610   2.344  0.1060 -1.0044 -1.5114
 9624SOL     OW29770   2.832   6.469   6.827 -0.5085  0.6371  0.4459
 9624SOL    HW129771   2.751   6.430   6.781 -0.3751  0.4653  0.3562
 9624SOL    HW229772   2.880   6.529   6.763  0.5034 -0.7340 -0.1477
 9625SOL     OW29773   3.849   1.178   1.764  0.0650 -0.1488  0.4335
 9625SOL    HW129774   3.802   1.150   1.847  0.7654  1.6114  1.4871
 9625SOL    HW229775   3.941   1.210   1.787  0.3977  0.0438 -1.0657
 9626SOL     OW29776   1.368   4.052   6.202 -0.7238  0.8835 -0.0095
 9626SOL    HW129777   1.310   4.122   6.161 -0.6716  1.0299  0.1624
 9626SOL    HW229778   1.349   4.047   6.300 -1.1148  0.2791 -0.1152
 9627SOL     OW29779   0.331   0.125   5.932  0.6404 -0.3536 -0.2251
 9627SOL    HW129780   0.396   0.183   5.982 -1.7327 -0.2680  3.1170
 9627SOL    HW229781   0.340   0.030   5.964 -0.2767 -0.4883 -0.3416
 9628SOL     OW29782   2.656   4.957   5.085 -0.1716  0.6857 -0.1307
 9628SOL    HW129783   2.568   4.925   5.052  0.2193 -0.5299 -0.0515
 9628SOL    HW229784   2.678   5.044   5.042 -0.4005 -0.0759 -1.8769
 9629SOL     OW29785   4.257   0.493   0.959  0.1020  0.2390 -0.1461
 9629SOL    HW129786   4.239   0.579   1.006  2.6570 -0.1380  1.7613
 9629SOL    HW229787   4.253   0.418   1.025  4.4541 -0.2509 -0.1343
 9630SOL     OW29788   0.604   0.653   1.776 -0.5731 -0.5405 -0.1239
 9630SOL    HW129789   0.629   0.718   1.847 -0.7853  1.2390 -1.5904
 9630SOL    HW229790   0.686   0.627   1.724 -0.8346  0.7445 -1.2502
 9631SOL     OW29791   4.600   2.829   6.153 -0.2219  0.0618  0.0945
 9631SOL    HW129792   4.580   2.757   6.220  2.4063 -0.1883  0.7212
 9631SOL    HW229793   4.520   2.887   6.142 -2.2400 -2.5702  0.0132
 9632SOL     OW29794   6.697   1.936   4.071  0.0687 -0.1240  0.5649
 9632SOL    HW129795   6.644   1.851   4.075  1.0883 -0.7964  0.2223
 9632SOL    HW229796   6.643   2.011   4.108 -0.8386 -0.9299  0.9061
 9633SOL     OW29797   1.454   4.303   5.361 -0.5533  0.1237  0.4502
 9633SOL    HW129798   1.443   4.209   5.330 -1.2632  0.6951 -1.1316
 9633SOL    HW229799   1.425   4.366   5.289  1.0512  1.5887  1.0109
 9634SOL     OW29800   1.769   3.810   5.793 -0.8949  0.3138  0.2210
 9634SOL    HW129801   1.708   3.889   5.797  0.0427  1.1742 -1.4160
 9634SOL    HW229802   1.721   3.732   5.753 -0.7612  1.2130 -1.8051
 9635SOL     OW29803   2.909   0.990   5.821  0.2755 -0.5564  0.5737
 9635SOL    HW129804   2.860   1.068   5.859  0.2674  0.4467 -1.3761
 9635SOL    HW229805   2.958   1.018   5.739 -0.3877 -2.7572 -0.6657
 9636SOL     OW29806   1.860   1.005   2.886 -0.3325 -0.6355 -0.2916
 9636SOL    HW129807   1.836   1.100   2.866  0.2872 -0.3152  0.4493
 9636SOL    HW229808   1.784   0.945   2.859 -1.4064  0.2099  0.7349
 9637SOL     OW29809   1.979   2.162   4.776 -0.1182  0.1411 -0.2479
 9637SOL    HW129810   1.953   2.226   4.704  0.8288 -0.1483 -0.8561
 9637SOL    HW229811   1.951   2.070   4.750 -1.5607  0.2920  0.6660
 9638SOL     OW29812   1.111   2.881   2.628 -0.7420  0.3758 -0.3386
 9638SOL    HW129813   1.134   2.948   2.558  0.6147  0.6676  0.3571
 9638SOL    HW229814   1.181   2.809   2.629 -1.3017 -0.1694  0.0208
 9639SOL     OW29815   4.254   0.870   0.906  0.2484  0.2890 -0.1392
 9639SOL    HW129816   4.207   0.812   0.972  0.4336 -0.3619 -0.5726
 9639SOL    HW229817   4.192   0.894   0.832 -0.2614  1.8294  0.7358
 9640SOL     OW29818   6.697   2.176   5.578  0.7102  0.0465 -0.3038
 9640SOL    HW129819   6.733   2.213   5.664 -0.1732 -1.5215  0.8090
 9640SOL    HW229820   6.597   2.168   5.586  0.7828 -1.5984 -0.8610
 9641SOL     OW29821   2.446   2.229   2.912 -0.2001  0.3976 -0.5856
 9641SOL    HW129822   2.462   2.164   2.986 -2.3654  1.1064  0.5964
 9641SOL    HW229823   2.533   2.265   2.880  0.8370  0.2150  1.7838
 9642SOL     OW29824   1.969   4.009   3.482 -0.0501  0.7101  0.7600
 9642SOL    HW129825   1.900   3.954   3.529  0.1141  0.1388  0.3420
 9642SOL    HW229826   1.927   4.056   3.404 -0.2812  1.5143  1.3524
 9643SOL     OW29827   2.054   3.720   4.947  0.0753 -0.1887 -0.2311
 9643SOL    HW129828   2.069   3.690   5.042  0.6114 -0.3851 -0.3733
 9643SOL    HW229829   2.121   3.791   4.924 -2.2589  2.4953  0.6749
 9644SOL     OW29830   5.700   4.007   1.317 -0.2627  0.2674  0.3705
 9644SOL    HW129831   5.738   4.085   1.267 -0.2615 -0.0548 -0.1323
 9644SOL    HW229832   5.610   4.032   1.354 -0.1120  0.6179  0.5057
 9645SOL     OW29833   3.598   4.169   2.160  0.2511 -0.0209  0.2246
 9645SOL    HW129834   3.621   4.184   2.064  1.5425 -0.8492  0.3784
 9645SOL    HW229835   3.672   4.118   2.205 -2.8626 -5.3881  0.1486
 9646SOL     OW29836   3.180   6.589   3.160 -0.7734  0.4311  0.3396
 9646SOL    HW129837   3.235   6.615   3.080 -1.0010  0.4934  0.2034
 9646SOL    HW229838   3.093   6.550   3.129 -0.4494 -0.4720  0.5372
 9647SOL     OW29839   2.987   6.133   1.437 -0.0093  0.5261  0.3454
 9647SOL    HW129840   3.040   6.054   1.406  0.5450  1.2780 -0.6791
 9647SOL    HW229841   2.899   6.134   1.390 -0.5740 -0.2034  1.3523
 9648SOL     OW29842   6.360   0.883   0.960  0.4311 -0.5665 -0.1280
 9648SOL    HW129843   6.353   0.801   0.903  0.6101 -1.3836  0.9906
 9648SOL    HW229844   6.454   0.917   0.958  0.5386 -0.8496  0.0137
 9649SOL     OW29845   5.324   5.450   0.402 -0.5910  0.3624  0.2844
 9649SOL    HW129846   5.410   5.488   0.435 -1.6800  1.7701  1.6896
 9649SOL    HW229847   5.305   5.483   0.310  0.4094 -0.0391 -0.0690
 9650SOL     OW29848   6.670   4.378   5.252 -0.1045  0.1741 -0.0000
 9650SOL    HW129849   6.592   4.317   5.238  0.2089  0.1092 -1.7434
 9650SOL    HW229850   6.735   4.337   5.315  0.1768 -1.4008 -1.2571
 9651SOL     OW29851   6.844   2.644   0.984 -0.1902 -0.3324  0.2903
 9651SOL    HW129852   6.917   2.594   0.938 -1.0613 -0.6947 -0.7230
 9651SOL    HW229853   6.870   2.659   1.080  0.6636 -1.5672  0.2822
 9652SOL     OW29854   3.858   3.068   4.001  0.1180  0.1417  0.0436
 9652SOL    HW129855   3.788   3.136   3.980  0.5090  1.1405  1.7656
 9652SOL    HW229856   3.837   3.024   4.089  2.2797  1.4360  1.3072
 9653SOL     OW29857   6.181   0.815   3.943  0.6047  0.5280 -0.5022
 9653SOL    HW129858   6.223   0.845   3.857  0.7711 -0.5779 -0.8225
 9653SOL    HW229859   6.251   0.773   4.000  0.0229 -1.1543 -0.9546
 9654SOL     OW29860   3.312   2.901   3.080 -0.4916 -0.6127  0.5273
 9654SOL    HW129861   3.244   2.828   3.083 -0.8036 -0.3140  0.7935
 9654SOL    HW229862   3.279   2.980   3.132  1.3596 -1.5970  3.4923
 9655SOL     OW29863   3.075   5.063   3.610  0.7862 -0.5701 -0.1768
 9655SOL    HW129864   2.982   5.058   3.644  0.7061 -0.7770 -0.4243
 9655SOL    HW229865   3.120   5.143   3.648 -0.0103  0.4562 -1.3136
 9656SOL     OW29866   0.722   1.962   5.459  0.6628 -0.7841 -0.6968
 9656SOL    HW129867   0.730   1.926   5.366  2.0176 -1.0541 -0.4993
 9656SOL    HW229868   0.744   2.060   5.458  0.4907 -0.7448 -0.6840
 9657SOL     OW29869   2.235   4.111   4.384  0.4296  0.1579  0.6502
 9657SOL    HW129870   2.304   4.042   4.407  0.0427 -1.2250 -1.9296
 9657SOL    HW229871   2.144   4.076   4.405  0.2249 -0.2365 -0.7606
 9658SOL     OW29872   5.598   5.172   6.045 -0.1487 -0.1788  0.6297
 9658SOL    HW129873   5.618   5.261   6.003  1.1360 -0.0823  1.3980
 9658SOL    HW229874   5.648   5.163   6.131  0.2785 -1.9119  0.2507
 9659SOL     OW29875   0.606   5.404   0.238  0.0861 -0.0775 -0.2718
 9659SOL    HW129876   0.616   5.322   0.183 -0.8874 -1.3912  1.4059
 9659SOL    HW229877   0.584   5.482   0.179  0.3852 -1.1311 -1.8227
 9660SOL     OW29878   3.859   2.000   5.069  0.0453  0.4776 -0.1603
 9660SOL    HW129879   3.880   1.922   5.010  2.4939  0.5677  0.4818
 9660SOL    HW229880   3.908   2.081   5.035  0.3926  0.8490  1.1745
 9661SOL     OW29881   2.978   4.828   3.978 -0.2018 -0.9321  0.5382
 9661SOL    HW129882   2.936   4.831   4.069  0.3636 -0.2734  0.7818
 9661SOL    HW229883   3.077   4.836   3.986 -0.1889 -0.2911 -0.1752
 9662SOL     OW29884   0.942   3.259   6.970 -0.4005  0.0879 -0.4517
 9662SOL    HW129885   0.885   3.258   6.887  0.6220 -0.6488 -1.1732
 9662SOL    HW229886   1.021   3.318   6.955 -0.2587  0.0270  0.0417
 9663SOL     OW29887   5.547   6.018   1.539 -0.0625 -0.0841 -0.5896
 9663SOL    HW129888   5.485   5.988   1.466  2.0980 -0.1252 -2.5187
 9663SOL    HW229889   5.640   6.028   1.502  0.7630  1.7586  1.7419
 9664SOL     OW29890   0.982   6.409   5.061  0.0158  0.2900 -0.2058
 9664SOL    HW129891   0.971   6.367   4.972 -0.1759 -2.6624  1.0898
 9664SOL    HW229892   1.073   6.450   5.068  0.0373  0.5246 -1.7294
 9665SOL     OW29893   2.491   6.790   0.245 -0.3522 -0.3309  0.1352
 9665SOL    HW129894   2.583   6.828   0.254 -0.4429  0.5373 -1.9119
 9665SOL    HW229895   2.426   6.865   0.234 -1.2053 -0.9681  0.8052
 9666SOL     OW29896   5.906   2.270   6.772  0.3857 -0.2252 -0.7507
 9666SOL    HW129897   6.001   2.241   6.784  1.1298  2.2336 -0.0336
 9666SOL    HW229898   5.887   2.348   6.832 -1.8546 -0.1215 -1.4855
 9667SOL     OW29899   6.537   4.635   0.145  0.1309 -0.1155 -0.0270
 9667SOL    HW129900   6.625   4.625   0.191 -0.8903  1.4306  2.5308
 9667SOL    HW229901   6.472   4.569   0.183 -0.2606 -0.1158 -0.6836
 9668SOL     OW29902   4.595   4.712   5.488 -0.4424 -0.1018 -0.2418
 9668SOL    HW129903   4.635   4.631   5.531 -0.2852 -0.6469 -1.3672
 9668SOL    HW229904   4.496   4.697   5.476 -0.2600 -0.5565 -1.3226
 9669SOL     OW29905   3.460   6.828   6.688  0.8223 -0.3309  0.0786
 9669SOL    HW129906   3.437   6.901   6.752 -1.3323 -2.2560  1.6665
 9669SOL    HW229907   3.558   6.808   6.695  1.4062  2.1347 -0.2019
 9670SOL     OW29908   1.376   2.104   1.823  0.2993 -0.0870 -0.1765
 9670SOL    HW129909   1.375   2.119   1.922  0.1409  0.0118 -0.1917
 9670SOL    HW229910   1.338   2.014   1.802  1.7761 -0.7610 -0.0456
 9671SOL     OW29911   0.214   2.672   0.831 -0.2213 -0.2686 -0.2728
 9671SOL    HW129912   0.287   2.690   0.765 -0.4916 -2.9969 -1.4418
 9671SOL    HW229913   0.251   2.627   0.912 -0.2317  0.9837  0.4521
 9672SOL     OW29914   3.739   6.512   5.681 -0.6953 -0.2045 -0.1610
 9672SOL    HW129915   3.653   6.519   5.630 -0.7275  0.3583 -0.0411
 9672SOL    HW229916   3.809   6.566   5.635 -0.9008  0.8734  0.7370
 9673SOL     OW29917   0.859   2.449   1.296  0.0353 -0.2496 -0.1620
 9673SOL    HW129918   0.864   2.398   1.382 -1.4450  0.1327  0.1744
 9673SOL    HW229919   0.886   2.544   1.312 -1.9726  0.2772  0.3074
 9674SOL     OW29920   6.474   6.597   0.497 -0.0658 -0.1891 -0.4984
 9674SOL    HW129921   6.485   6.586   0.399  1.6932 -1.2827 -0.2263
 9674SOL    HW229922   6.485   6.693   0.522  0.1028 -0.0006 -1.2887
 9675SOL     OW29923   5.834   6.477   0.066 -0.2435  0.0430 -0.3686
 9675SOL    HW129924   5.922   6.431   0.060  0.4285  1.0942  1.0629
 9675SOL    HW229925   5.763   6.410   0.091  0.9036 -0.1232  2.8624
 9676SOL     OW29926   2.065   4.124   1.224 -0.3422  0.6431 -0.1485
 9676SOL    HW129927   2.041   4.062   1.150  0.5490  0.3858 -0.2407
 9676SOL    HW229928   2.162   4.112   1.247 -0.7908  0.1375  1.6067
 9677SOL     OW29929   4.565   5.946   3.530  0.0934  0.3711  0.2467
 9677SOL    HW129930   4.503   5.907   3.462  1.0116 -0.9647  0.1380
 9677SOL    HW229931   4.586   5.877   3.600  2.2622  0.4098 -0.2893
 9678SOL     OW29932   1.263   5.407   6.838 -0.1616  0.1404  0.8248
 9678SOL    HW129933   1.216   5.320   6.847 -0.5886  0.3936  1.0777
 9678SOL    HW229934   1.355   5.392   6.802 -0.1097 -0.4460  1.1921
 9679SOL     OW29935   1.368   3.857   2.450  0.3805  0.5960 -0.2652
 9679SOL    HW129936   1.293   3.879   2.511  0.3511  2.5434 -0.9256
 9679SOL    HW229937   1.373   3.926   2.378  1.5344 -0.6352 -1.4184
 9680SOL     OW29938   0.194   1.862   0.393  0.1629  0.6322 -0.3539
 9680SOL    HW129939   0.237   1.944   0.356 -2.2366  1.8605 -0.6583
 9680SOL    HW229940   0.156   1.882   0.483  0.1311 -0.3627 -0.1303
 9681SOL     OW29941   2.459   5.265   3.907 -0.3330 -0.0251  0.2480
 9681SOL    HW129942   2.491   5.181   3.864  0.9744 -0.2046  1.5112
 9681SOL    HW229943   2.536   5.314   3.946 -1.2362  1.1582  0.5966
 9682SOL     OW29944   1.401   1.724   5.585  0.0612 -0.6370 -0.1608
 9682SOL    HW129945   1.358   1.697   5.671  1.0799  0.1952  0.6225
 9682SOL    HW229946   1.484   1.776   5.603 -1.4955  2.5972 -1.5768
 9683SOL     OW29947   0.901   2.244   0.550 -0.0440  0.0275 -0.0257
 9683SOL    HW129948   0.896   2.281   0.457  5.1944  0.2188 -0.5279
 9683SOL    HW229949   0.925   2.316   0.614 -1.6325 -0.4844  1.2290
 9684SOL     OW29950   2.197   1.751   3.807  0.1678 -0.3128  0.3309
 9684SOL    HW129951   2.170   1.799   3.723  2.8703  1.2550  0.2590
 9684SOL    HW229952   2.115   1.733   3.862 -1.4131  0.7082 -1.5441
 9685SOL     OW29953   0.520   3.000   2.249  0.5400  0.6407 -0.0399
 9685SOL    HW129954   0.502   2.945   2.331  0.2866  0.4526 -0.2187
 9685SOL    HW229955   0.447   3.067   2.237  0.1843  0.1729 -0.5222
 9686SOL     OW29956   5.408   6.560   3.081  0.4838  0.5322  0.1877
 9686SOL    HW129957   5.452   6.588   3.166  0.3046  0.9511  0.1418
 9686SOL    HW229958   5.389   6.640   3.024  3.8111  0.0320 -1.8706
 9687SOL     OW29959   1.665   6.853   4.823  0.4265 -0.7153 -0.2895
 9687SOL    HW129960   1.691   6.943   4.787  1.2124 -0.7044  0.2848
 9687SOL    HW229961   1.711   6.837   4.910 -0.3275 -1.3524  0.0063
 9688SOL     OW29962   1.855   2.628   6.875 -0.3780  0.4280  0.4476
 9688SOL    HW129963   1.928   2.564   6.898  1.6305  2.9409  1.4717
 9688SOL    HW229964   1.810   2.659   6.959 -0.0184  1.7907  0.1598
 9689SOL     OW29965   1.139   2.783   6.561 -0.0718 -0.6349 -0.3361
 9689SOL    HW129966   1.159   2.880   6.577  0.2532 -0.7838  0.1685
 9689SOL    HW229967   1.076   2.775   6.484 -0.8272  0.0333  0.1889
 9690SOL     OW29968   6.499   3.559   1.571 -0.2020 -0.1309 -0.1909
 9690SOL    HW129969   6.504   3.633   1.637 -0.7939  0.0628 -0.3524
 9690SOL    HW229970   6.590   3.518   1.558 -0.1768 -0.5064  1.1072
 9691SOL     OW29971   2.823   0.036   6.875 -0.0181  0.2165  0.4403
 9691SOL    HW129972   2.801   0.134   6.872 -1.2909  0.0161  1.7792
 9691SOL    HW229973   2.757  -0.011   6.935  0.0789 -1.5927 -0.7749
 9692SOL     OW29974   4.659   1.010   3.678  0.0227  0.1928  0.0107
 9692SOL    HW129975   4.716   0.978   3.602 -0.5133  2.1482 -1.2833
 9692SOL    HW229976   4.713   1.010   3.762  0.9757 -0.9442 -0.5785
 9693SOL     OW29977   3.112   6.021   6.705  0.1553 -0.5692 -0.2291
 9693SOL    HW129978   3.103   5.922   6.713 -2.0547 -0.5178 -1.3556
 9693SOL    HW229979   3.061   6.065   6.780  0.3509 -0.2860 -0.2626
 9694SOL     OW29980   3.739   6.844   2.773 -0.6299  0.2862  0.8913
 9694SOL    HW129981   3.799   6.919   2.802  0.0405  0.4891 -0.8687
 9694SOL    HW229982   3.712   6.790   2.853 -0.7358  2.1014  2.1419
 9695SOL     OW29983   4.900   0.805   0.938  0.2970 -0.0346 -0.3204
 9695SOL    HW129984   4.842   0.744   0.884  0.3536 -0.8919  0.5487
 9695SOL    HW229985   4.867   0.808   1.032  0.7797  0.6502 -0.1658
 9696SOL     OW29986   2.177   2.386   5.113  0.4862  0.5433 -0.6224
 9696SOL    HW129987   2.118   2.306   5.105  0.1704  0.7710 -0.5911
 9696SOL    HW229988   2.125   2.469   5.092  0.7304  0.7676 -0.3649
 9697SOL     OW29989   4.902   0.473   3.203  0.0364  0.4043 -0.7185
 9697SOL    HW129990   4.810   0.489   3.169  0.8184  1.4753 -2.4804
 9697SOL    HW229991   4.952   0.560   3.208  0.9902 -0.1604  0.1332
 9698SOL     OW29992   3.701   2.646   0.249  0.2034  0.1109  0.4069
 9698SOL    HW129993   3.784   2.697   0.226  0.0820 -0.5513 -1.6617
 9698SOL    HW229994   3.726   2.567   0.306  1.2551 -0.8327 -1.2551
 9699SOL     OW29995   0.825   4.567   2.503 -0.1656  0.0355  0.3557
 9699SOL    HW129996   0.747   4.629   2.520  0.0594  0.6118 -0.6546
 9699SOL    HW229997   0.898   4.588   2.568 -0.0788  0.8755  0.0069
 9700SOL     OW29998   3.723   0.315   5.143 -0.1193  0.1241  0.0586
 9700SOL    HW129999   3.761   0.388   5.199 -3.1060  1.9300 -0.0619
 9700SOL    HW230000   3.727   0.341   5.047 -2.0229  0.6484  0.0758
 9701SOL     OW30001   5.286   2.376   0.886 -0.0914 -0.0647  0.3892
 9701SOL    HW130002   5.258   2.397   0.792 -0.6957 -2.9086 -0.1431
 9701SOL    HW230003   5.214   2.407   0.949  0.1849  1.5962 -0.0662
 9702SOL     OW30004   1.561   1.886   6.042 -0.9063 -0.3155  0.1383
 9702SOL    HW130005   1.513   1.966   6.007 -1.1462 -0.0658  1.0172
 9702SOL    HW230006   1.586   1.901   6.137 -1.3713 -1.4678  0.4556
 9703SOL     OW30007   2.177   2.683   4.403 -0.1592 -0.2643 -0.2825
 9703SOL    HW130008   2.113   2.606   4.407 -2.4367  1.5677  1.1598
 9703SOL    HW230009   2.201   2.702   4.308 -2.8259 -0.2673 -1.0312
 9704SOL     OW30010   1.207   4.035   4.909  0.2920  0.1183  0.6541
 9704SOL    HW130011   1.306   4.049   4.902  0.1239  0.2797 -2.1211
 9704SOL    HW230012   1.161   4.123   4.905 -0.0436 -0.0527  0.7406
 9705SOL     OW30013   0.428   6.289   2.808  0.2000 -0.2913 -0.3500
 9705SOL    HW130014   0.492   6.260   2.737  0.8082 -2.2491  0.9218
 9705SOL    HW230015   0.445   6.385   2.831 -0.5254  0.6434 -3.3140
 9706SOL     OW30016   2.285   2.962   6.658 -0.4544  0.3041  0.2442
 9706SOL    HW130017   2.252   2.867   6.661  0.7011 -0.1436 -0.4473
 9706SOL    HW230018   2.383   2.962   6.639 -0.8678  1.6875 -2.3130
 9707SOL     OW30019   2.850   2.096   1.678  0.2755 -0.2657  0.3849
 9707SOL    HW130020   2.916   2.043   1.623 -0.7066 -0.8011 -0.3087
 9707SOL    HW230021   2.757   2.071   1.651 -0.2155  1.0838  0.7786
 9708SOL     OW30022   0.258   5.603   3.059 -0.0065 -0.1856 -0.2096
 9708SOL    HW130023   0.174   5.636   3.102  0.0446  0.9039 -0.9186
 9708SOL    HW230024   0.240   5.582   2.963  0.5627  0.2164 -0.4093
 9709SOL     OW30025   3.296   6.025   5.345  0.2058 -0.6242  0.3106
 9709SOL    HW130026   3.299   6.065   5.437  1.1525 -1.2223  0.5547
 9709SOL    HW230027   3.330   6.091   5.279 -0.1937 -0.2989  0.4236
 9710SOL     OW30028   0.892   2.949   5.103 -0.5902 -0.5672  0.6585
 9710SOL    HW130029   0.927   2.961   5.196  0.1470 -0.6264  0.3913
 9710SOL    HW230030   0.968   2.946   5.039 -0.9509 -2.5026  0.2528
 9711SOL     OW30031   2.495   5.582   1.581 -0.5438  0.2169  0.1207
 9711SOL    HW130032   2.513   5.500   1.527 -0.9092 -0.5013  1.0728
 9711SOL    HW230033   2.580   5.613   1.625 -0.4840  0.1298  0.0653
 9712SOL     OW30034   2.134   5.532   3.467 -0.2853 -0.1080 -0.6852
 9712SOL    HW130035   2.132   5.433   3.453  0.8456 -0.1841 -0.4038
 9712SOL    HW230036   2.064   5.575   3.410 -2.4620 -1.2432  0.9583
 9713SOL     OW30037   6.985   4.078   6.169 -0.3344 -0.5338 -0.5161
 9713SOL    HW130038   6.900   4.049   6.124 -0.6559 -0.5010  0.0474
 9713SOL    HW230039   7.014   4.167   6.133 -0.9009 -0.2387 -0.2684
 9714SOL     OW30040   2.206   1.420   2.840  0.2854  0.1987 -0.1621
 9714SOL    HW130041   2.267   1.385   2.769 -0.3602  1.7250 -1.5469
 9714SOL    HW230042   2.255   1.487   2.895  0.0638  1.0044 -0.9149
 9715SOL     OW30043   3.362   4.274   6.756  0.2702 -0.1755  0.0953
 9715SOL    HW130044   3.266   4.248   6.753  0.5546 -1.2191 -0.2453
 9715SOL    HW230045   3.415   4.203   6.802  1.3695 -1.2820 -2.6397
 9716SOL     OW30046   2.714   5.055   3.051  0.4724 -0.1466 -1.0814
 9716SOL    HW130047   2.696   5.062   2.953  0.7130 -0.9219 -1.1828
 9716SOL    HW230048   2.737   4.961   3.074  0.2132 -0.0104 -0.2434
 9717SOL     OW30049   0.948   6.434   2.326 -0.4852  0.4211 -0.5279
 9717SOL    HW130050   0.874   6.413   2.389 -1.4147  1.3540 -1.2774
 9717SOL    HW230051   1.010   6.355   2.319 -1.9998 -0.7934 -0.7007
 9718SOL     OW30052   6.167   0.043   5.693 -0.0228 -0.0453 -0.4278
 9718SOL    HW130053   6.103  -0.013   5.640 -2.0842  1.4289  0.3703
 9718SOL    HW230054   6.256   0.045   5.646 -0.4137 -2.3629 -1.4513
 9719SOL     OW30055   4.379   4.073   1.229 -0.3059  0.2506  0.0878
 9719SOL    HW130056   4.310   4.043   1.163  0.2726 -4.9034  1.4004
 9719SOL    HW230057   4.344   4.058   1.322  1.1010  1.5683  0.8599
 9720SOL     OW30058   5.833   0.196   3.537 -0.0412  0.4637  0.2929
 9720SOL    HW130059   5.871   0.137   3.609 -0.8957  1.4691  1.6197
 9720SOL    HW230060   5.858   0.291   3.556  0.7913  0.6236 -1.4744
 9721SOL     OW30061   6.226   0.945   4.731 -0.1106  0.0704  0.4052
 9721SOL    HW130062   6.181   0.935   4.643  0.1540 -1.9559  0.4481
 9721SOL    HW230063   6.307   1.003   4.720  1.3306 -2.1072 -1.2833
 9722SOL     OW30064   4.991   4.268   4.161 -0.2326  0.7735  0.0756
 9722SOL    HW130065   4.929   4.340   4.130 -0.1564  0.3724 -1.0412
 9722SOL    HW230066   4.940   4.182   4.172 -0.0506  0.6616  0.0444
 9723SOL     OW30067   1.564   6.815   5.756  0.6505  0.1926 -0.7129
 9723SOL    HW130068   1.467   6.817   5.779  0.4499  1.4465 -1.5671
 9723SOL    HW230069   1.611   6.749   5.815 -0.8603 -1.1108 -0.8874
 9724SOL     OW30070   5.625   0.723   2.199  0.1589 -0.3580 -0.1692
 9724SOL    HW130071   5.562   0.646   2.201  0.9475 -1.0285 -0.5768
 9724SOL    HW230072   5.653   0.746   2.292 -0.6536 -0.0685  0.0130
 9725SOL     OW30073   1.001   4.752   1.651 -0.3810  0.5665 -0.7106
 9725SOL    HW130074   1.042   4.814   1.718  0.1066 -0.1941 -0.2994
 9725SOL    HW230075   0.920   4.709   1.691  1.5662 -2.1692  0.5479
 9726SOL     OW30076   3.439   6.551   5.401 -0.2338  0.0219 -0.5327
 9726SOL    HW130077   3.391   6.620   5.454  0.2423 -1.2653  1.7033
 9726SOL    HW230078   3.469   6.477   5.461  1.5574 -0.8847 -2.3932
 9727SOL     OW30079   6.856   0.901   3.709 -0.3466  0.4319 -0.1816
 9727SOL    HW130080   6.864   0.871   3.804  0.1881  0.6301 -0.1592
 9727SOL    HW230081   6.932   0.865   3.656 -1.4702 -0.9905 -0.9076
 9728SOL     OW30082   4.338   5.438   2.680 -0.4365  0.0396  0.5251
 9728SOL    HW130083   4.290   5.435   2.593 -0.0030 -0.2504  0.2940
 9728SOL    HW230084   4.369   5.346   2.705  2.8448  0.5923 -0.9349
 9729SOL     OW30085   3.640   0.222   4.334 -0.0950 -0.3781  0.4181
 9729SOL    HW130086   3.574   0.259   4.400  0.5142 -0.9643  1.3662
 9729SOL    HW230087   3.731   0.260   4.352 -0.1516  0.4589 -0.9094
 9730SOL     OW30088   0.273   6.259   5.637  0.3970  0.2562 -0.0587
 9730SOL    HW130089   0.217   6.341   5.627  1.0931  0.6863 -0.5045
 9730SOL    HW230090   0.229   6.182   5.591  0.2876  0.6505 -0.6186
 9731SOL     OW30091   4.669   0.023   6.320  0.2803 -0.1904  0.7926
 9731SOL    HW130092   4.632   0.109   6.285  2.7570  0.0620 -1.4980
 9731SOL    HW230093   4.622  -0.054   6.277  0.1624  0.0751  0.4413
 9732SOL     OW30094   2.079   4.205   5.408 -0.2759 -0.2891 -0.0515
 9732SOL    HW130095   2.122   4.197   5.498 -0.7594 -0.0603  0.2036
 9732SOL    HW230096   1.981   4.224   5.420 -0.0105  1.6185 -0.6181
 9733SOL     OW30097   3.847   5.779   4.098 -0.4426 -0.3657  0.2385
 9733SOL    HW130098   3.942   5.806   4.115 -0.7531  0.1606  1.2295
 9733SOL    HW230099   3.845   5.687   4.059  0.5672  0.3868 -1.7500
 9734SOL     OW30100   3.672   5.966   5.928 -0.0562  0.5409  0.3119
 9734SOL    HW130101   3.772   5.957   5.922 -0.1690 -2.1920  1.0436
 9734SOL    HW230102   3.649   6.049   5.979  1.8145  1.3494 -0.0683
 9735SOL     OW30103   3.840   3.700   1.480 -0.1388  0.0292  0.1047
 9735SOL    HW130104   3.764   3.661   1.427  0.6480 -0.4762 -0.6702
 9735SOL    HW230105   3.918   3.639   1.477  1.0099  1.4543 -0.8545
 9736SOL     OW30106   0.655   6.425   0.229 -0.4234  0.2681 -0.3374
 9736SOL    HW130107   0.716   6.357   0.188  0.0163  0.7009 -0.4111
 9736SOL    HW230108   0.691   6.451   0.319 -0.0963  1.0542 -0.6821
 9737SOL     OW30109   3.112   4.810   1.923  0.3970  0.4378  0.1869
 9737SOL    HW130110   3.189   4.864   1.956  0.7448 -0.2187  0.4667
 9737SOL    HW230111   3.034   4.821   1.985  0.3782  0.8282  0.0947
 9738SOL     OW30112   5.043   6.574   3.816 -0.2313  0.2644 -0.2869
 9738SOL    HW130113   5.102   6.525   3.880 -0.0321  0.3642 -0.3924
 9738SOL    HW230114   5.099   6.618   3.746 -0.5135 -0.6870 -1.1261
 9739SOL     OW30115   5.071   5.534   6.948 -0.0474  0.3502  0.6932
 9739SOL    HW130116   5.074   5.434   6.947  0.8463  0.3726  0.5395
 9739SOL    HW230117   5.119   5.569   6.868  2.4663  0.9329  2.3301
 9740SOL     OW30118   1.413   4.285   6.735 -0.7697  0.2341 -0.6195
 9740SOL    HW130119   1.504   4.250   6.759 -0.0937  1.5307 -1.1156
 9740SOL    HW230120   1.381   4.346   6.807 -1.1838 -0.0979 -0.5206
 9741SOL     OW30121   2.230   2.840   5.786 -0.1279  0.0243 -0.4312
 9741SOL    HW130122   2.209   2.898   5.865  1.4751 -0.1248  0.1538
 9741SOL    HW230123   2.324   2.807   5.794 -0.6285 -1.7250 -1.3412
 9742SOL     OW30124   2.248   4.540   6.984  0.2694 -0.4573  0.0512
 9742SOL    HW130125   2.173   4.569   7.043  1.6858 -1.8540  2.7367
 9742SOL    HW230126   2.316   4.614   6.978  1.1256 -1.0065  2.0728
 9743SOL     OW30127   3.025   1.882   4.017  0.2826  0.3779 -0.3837
 9743SOL    HW130128   2.961   1.928   3.955  0.0808  0.1238 -0.3674
 9743SOL    HW230129   3.098   1.945   4.042  0.3487  0.4928 -0.8558
 9744SOL     OW30130   6.537   2.906   4.012 -0.2158  0.4351 -0.2443
 9744SOL    HW130131   6.471   2.920   3.937  0.4576 -0.3201 -0.9988
 9744SOL    HW230132   6.629   2.897   3.973  0.2358  0.7026  0.7429
 9745SOL     OW30133   6.531   0.455   4.006  0.1414 -0.5760 -0.0524
 9745SOL    HW130134   6.560   0.405   4.088 -1.9396 -2.3827 -0.2985
 9745SOL    HW230135   6.562   0.406   3.925  1.1896  0.5635 -0.3574
 9746SOL     OW30136   6.657   6.012   2.076  0.3046 -0.7667 -0.0506
 9746SOL    HW130137   6.645   6.106   2.109  1.0858 -1.3086  1.9860
 9746SOL    HW230138   6.706   6.013   1.990  0.3466  0.6982 -0.0364
 9747SOL     OW30139   2.186   0.824   5.294 -0.2859 -0.4201 -1.0233
 9747SOL    HW130140   2.151   0.887   5.363  1.6995  1.3274 -1.5284
 9747SOL    HW230141   2.112   0.762   5.266 -1.7985  0.4207  0.8393
 9748SOL     OW30142   6.269   2.148   2.151 -0.2938  0.4853 -0.0334
 9748SOL    HW130143   6.349   2.207   2.143 -0.7352  1.2423  0.8857
 9748SOL    HW230144   6.265   2.110   2.243 -0.5843 -0.1415 -0.3028
 9749SOL     OW30145   1.404   0.983   6.419  0.1614 -0.1553 -0.7367
 9749SOL    HW130146   1.336   0.992   6.346  1.0673  0.2155 -1.5611
 9749SOL    HW230147   1.358   0.971   6.506 -0.9718  0.8309 -1.1706
 9750SOL     OW30148   0.637   2.995   4.726  0.2153  0.4389 -0.0303
 9750SOL    HW130149   0.551   3.042   4.708  0.2530  1.0918  1.3353
 9750SOL    HW230150   0.635   2.904   4.685 -0.1454  1.3318 -2.0970
 9751SOL     OW30151   1.247   2.220   0.424 -0.3250 -0.2575  0.4757
 9751SOL    HW130152   1.224   2.171   0.508 -1.5924  1.0156  0.8916
 9751SOL    HW230153   1.346   2.237   0.423 -0.0788 -1.4812  1.0268
 9752SOL     OW30154   0.554   2.405   1.548 -0.7634 -0.1231  0.9151
 9752SOL    HW130155   0.572   2.314   1.511 -1.6617 -0.9512  2.3884
 9752SOL    HW230156   0.537   2.469   1.473  1.1217 -0.8566 -0.2018
 9753SOL     OW30157   0.076   3.296   6.947  0.3443  0.4961 -0.2866
 9753SOL    HW130158   0.110   3.388   6.929  0.3602  0.6151  0.3541
 9753SOL    HW230159   0.081   3.242   6.862 -0.3519  1.2944 -0.8531
 9754SOL     OW30160   1.344   5.617   2.369 -0.9752 -0.2267 -0.3924
 9754SOL    HW130161   1.434   5.613   2.326 -0.2259  0.7333  1.0188
 9754SOL    HW230162   1.326   5.532   2.419 -0.8689 -0.4310 -0.7018
 9755SOL     OW30163   4.627   6.309   3.953 -0.1711 -0.2863 -0.3368
 9755SOL    HW130164   4.539   6.348   3.926  0.5550  1.9917  0.3501
 9755SOL    HW230165   4.696   6.332   3.885 -0.2061 -2.8083 -1.3192
 9756SOL     OW30166   2.156   1.281   1.980 -0.1403  0.6222 -0.1589
 9756SOL    HW130167   2.194   1.325   1.899 -0.7466 -0.5372 -1.1105
 9756SOL    HW230168   2.143   1.349   2.052 -0.5667  1.9045 -1.3967
 9757SOL     OW30169   1.841   6.666   3.077  0.4168  0.6073  0.6429
 9757SOL    HW130170   1.908   6.740   3.073  0.8673  0.2496  1.3071
 9757SOL    HW230171   1.749   6.705   3.086  0.7221  1.0991  1.9372
 9758SOL     OW30172   6.677   6.718   5.222 -0.4505 -0.4002  0.4910
 9758SOL    HW130173   6.740   6.695   5.296 -0.1095 -0.8838  0.0612
 9758SOL    HW230174   6.640   6.634   5.182  0.7369 -0.2372 -1.0387
 9759SOL     OW30175   2.672   2.976   0.246  0.2912  0.0796 -0.2023
 9759SOL    HW130176   2.734   3.053   0.230 -1.3888  1.0740 -2.6687
 9759SOL    HW230177   2.694   2.932   0.332  3.2313  1.4741 -0.1321
 9760SOL     OW30178   1.457   3.042   6.014 -0.8028 -0.0827  0.2438
 9760SOL    HW130179   1.384   2.998   6.065 -1.4766  1.5208  0.7311
 9760SOL    HW230180   1.438   3.140   6.005  1.3289  0.4143  0.4876
 9761SOL     OW30181   4.769   0.784   1.177  0.5878  0.1204  0.5048
 9761SOL    HW130182   4.793   0.771   1.273  0.4972 -2.5878  0.2459
 9761SOL    HW230183   4.680   0.743   1.158  1.6792 -1.6318 -1.1882
 9762SOL     OW30184   1.962   2.571   5.086  0.0660 -0.3119 -0.5861
 9762SOL    HW130185   1.952   2.606   5.179 -1.3271  2.0555 -1.5427
 9762SOL    HW230186   1.875   2.530   5.058 -0.5021  1.5804 -1.7714
 9763SOL     OW30187   2.681   5.865   2.487  0.5532  0.9416 -0.1304
 9763SOL    HW130188   2.739   5.933   2.442 -0.5488  0.3422 -2.6453
 9763SOL    HW230189   2.721   5.774   2.476  0.8640  0.8928  1.2189
 9764SOL     OW30190   5.283   4.113   3.462 -0.1880 -0.0457  0.8526
 9764SOL    HW130191   5.319   4.185   3.403 -0.6964 -0.6608 -0.2464
 9764SOL    HW230192   5.309   4.130   3.557  0.8390  0.8465  0.4209
 9765SOL     OW30193   5.647   2.986   1.758 -0.7269  0.5293  0.0785
 9765SOL    HW130194   5.664   2.954   1.851 -1.0931  2.0866  0.7191
 9765SOL    HW230195   5.652   3.086   1.756  3.6925  0.5217 -2.4706
 9766SOL     OW30196   3.924   6.427   2.767  0.1018 -0.1601 -0.0524
 9766SOL    HW130197   3.841   6.463   2.724  0.0220 -0.8009 -0.4468
 9766SOL    HW230198   3.997   6.420   2.698  0.0540 -0.9333 -0.0373
 9767SOL     OW30199   6.440   6.823   6.199 -0.3579  0.3344 -0.3605
 9767SOL    HW130200   6.444   6.918   6.168 -1.6408  0.4612 -0.1721
 9767SOL    HW230201   6.500   6.767   6.142 -0.9359  0.9526 -1.6116
 9768SOL     OW30202   0.433   3.970   0.070 -0.2112 -0.0994 -0.2539
 9768SOL    HW130203   0.519   3.944   0.114 -0.3983  1.8120  1.4214
 9768SOL    HW230204   0.361   3.906   0.097  0.5598 -1.4329 -1.2830
 9769SOL     OW30205   2.113   4.820   1.719 -0.1676 -0.0808  0.3006
 9769SOL    HW130206   2.098   4.810   1.818  2.7211 -0.8196  0.7731
 9769SOL    HW230207   2.182   4.754   1.689  2.6219  3.1423 -1.1705
 9770SOL     OW30208   6.684   6.516   4.736 -0.7843  0.0597 -0.6750
 9770SOL    HW130209   6.709   6.543   4.643  0.3831  0.7104 -0.1853
 9770SOL    HW230210   6.647   6.595   4.785 -0.9881 -0.1776 -0.4426
 9771SOL     OW30211   1.121   0.980   4.548  0.1867  0.5043  0.6191
 9771SOL    HW130212   1.143   1.035   4.468  2.5613 -2.7990 -1.2366
 9771SOL    HW230213   1.175   1.011   4.627  0.7218  1.4040 -0.0899
 9772SOL     OW30214   6.278   3.684   0.395  0.0611  1.0469 -0.6911
 9772SOL    HW130215   6.269   3.754   0.465 -0.4459  0.6286 -0.3271
 9772SOL    HW230216   6.327   3.605   0.431 -2.0475 -0.0718 -0.0760
 9773SOL     OW30217   6.939   4.154   4.648  0.6144 -0.3675 -0.2313
 9773SOL    HW130218   6.870   4.184   4.714  2.0155  0.5840  0.8862
 9773SOL    HW230219   6.954   4.226   4.581  1.7410  0.2081  0.5906
 9774SOL     OW30220   5.623   0.392   3.854 -0.0686  0.1611 -0.1505
 9774SOL    HW130221   5.628   0.325   3.779  1.0219  1.2182 -1.0750
 9774SOL    HW230222   5.658   0.351   3.938 -0.8721 -0.9049 -0.3208
 9775SOL     OW30223   0.055   1.294   4.337 -0.0096 -0.1400  0.5579
 9775SOL    HW130224  -0.042   1.270   4.332 -0.0532  0.1416 -0.1038
 9775SOL    HW230225   0.071   1.350   4.418 -0.8098  1.5442 -0.3950
 9776SOL     OW30226   1.089   6.729   6.775 -0.1286  0.5363  0.7404
 9776SOL    HW130227   0.993   6.709   6.757  0.0068 -0.6401  1.2234
 9776SOL    HW230228   1.112   6.819   6.738 -0.9058  0.0065 -1.1892
 9777SOL     OW30229   4.167   1.625   4.349  0.1950  0.2075 -0.7503
 9777SOL    HW130230   4.165   1.722   4.327  1.4689  0.0950 -1.5151
 9777SOL    HW230231   4.084   1.581   4.314 -0.4279  1.0143 -0.3255
 9778SOL     OW30232   3.334   4.699   1.763 -0.6694 -0.0661 -0.5429
 9778SOL    HW130233   3.263   4.681   1.831  0.3185  0.9179  0.8030
 9778SOL    HW230234   3.423   4.672   1.800 -0.1377  0.1401 -1.6130
 9779SOL     OW30235   3.121   3.621   0.172 -0.6285 -0.7117  0.1375
 9779SOL    HW130236   3.069   3.553   0.225 -1.3196  0.5728  1.1438
 9779SOL    HW230237   3.165   3.685   0.234  0.7919 -0.7561 -0.7794
 9780SOL     OW30238   5.094   1.965   5.721 -0.0329  0.4577 -0.3074
 9780SOL    HW130239   5.147   1.979   5.637  0.7268 -0.5421 -0.0070
 9780SOL    HW230240   5.156   1.961   5.800 -0.5308 -0.7099  0.0480
 9781SOL     OW30241   0.044   6.425   3.425 -0.2038  0.6920  0.4964
 9781SOL    HW130242   0.035   6.517   3.389  0.1091  0.8326  0.7715
 9781SOL    HW230243   0.138   6.409   3.455 -0.2245  0.2426  0.3393
 9782SOL     OW30244   6.993   1.294   2.888  0.7580  0.2249  0.3277
 9782SOL    HW130245   6.971   1.385   2.924 -2.3346 -0.2634 -0.0849
 9782SOL    HW230246   6.958   1.286   2.795  2.7994 -0.7735 -0.4217
 9783SOL     OW30247   1.896   0.593   3.707 -0.1324  0.2006 -0.5046
 9783SOL    HW130248   1.859   0.505   3.737  0.6722 -0.2462 -0.7914
 9783SOL    HW230249   1.904   0.593   3.607  2.2961 -0.4221 -0.3686
 9784SOL     OW30250   0.752   1.427   2.629 -0.3726 -0.3587 -0.2242
 9784SOL    HW130251   0.759   1.373   2.546  0.5884 -0.9080  0.1948
 9784SOL    HW230252   0.765   1.524   2.608  1.7425 -0.6428 -0.5179
 9785SOL     OW30253   5.457   2.171   3.157  0.3435 -0.0078 -0.4757
 9785SOL    HW130254   5.553   2.193   3.138  0.9451  0.8315  2.8262
 9785SOL    HW230255   5.423   2.232   3.228 -2.2856 -1.1107 -0.6865
 9786SOL     OW30256   3.052   2.829   0.807 -0.5474  0.6257  0.1713
 9786SOL    HW130257   3.109   2.783   0.740 -1.4429 -0.4322  0.1127
 9786SOL    HW230258   2.956   2.814   0.785 -0.9145  2.9571 -0.1537
 9787SOL     OW30259   6.703   1.911   5.866  0.3345  0.1289  0.3291
 9787SOL    HW130260   6.620   1.919   5.812 -0.5308  0.0973  1.6235
 9787SOL    HW230261   6.745   1.822   5.850  0.1379  0.1526 -0.3445
 9788SOL     OW30262   6.659   2.976   1.643 -0.1253 -0.2187  0.1258
 9788SOL    HW130263   6.692   2.942   1.555 -0.3590  0.5557 -0.2679
 9788SOL    HW230264   6.729   2.960   1.713 -0.2365 -1.5345 -0.0248
 9789SOL     OW30265   0.208   5.853   6.928  0.3572  0.5487  0.4248
 9789SOL    HW130266   0.183   5.784   6.861 -0.2075 -0.9182  2.0838
 9789SOL    HW230267   0.126   5.882   6.978  1.0925 -0.2289  2.1501
 9790SOL     OW30268   3.800   2.935   4.235 -0.2896  0.0953  0.6592
 9790SOL    HW130269   3.705   2.917   4.260 -0.8161  0.7947 -0.7112
 9790SOL    HW230270   3.857   2.857   4.262 -1.3114 -0.4935  1.1752
 9791SOL     OW30271   0.817   1.821   5.242 -0.0923  0.0875  0.3126
 9791SOL    HW130272   0.772   1.835   5.153  0.5817 -0.7911 -0.1815
 9791SOL    HW230273   0.787   1.734   5.281 -0.9445  0.8060  1.3063
 9792SOL     OW30274   1.670   0.156   6.063  0.1464  0.0452 -0.2164
 9792SOL    HW130275   1.577   0.138   6.095  0.1659 -0.1086 -0.2451
 9792SOL    HW230276   1.735   0.120   6.130  0.2432 -3.2546 -1.9145
 9793SOL     OW30277   6.138   2.294   3.523  0.1193  0.5324  0.4271
 9793SOL    HW130278   6.137   2.203   3.564  0.1913  0.5387  0.4427
 9793SOL    HW230279   6.057   2.305   3.465  0.5084  0.1731 -0.1923
 9794SOL     OW30280   2.432   4.060   6.982 -0.0174  0.7632 -0.0941
 9794SOL    HW130281   2.490   4.007   6.920 -0.3434 -1.8116  1.6213
 9794SOL    HW230282   2.489   4.104   7.051  0.0549  0.0980  0.2731
 9795SOL     OW30283   5.986   1.174   4.510  0.1039 -0.1771 -0.4322
 9795SOL    HW130284   5.916   1.152   4.442  0.6131  1.2605 -1.4754
 9795SOL    HW230285   6.048   1.096   4.520 -0.9764 -1.0531 -0.3155
 9796SOL     OW30286   6.744   5.632   1.860 -0.3236 -0.1056 -0.0232
 9796SOL    HW130287   6.793   5.675   1.936  0.4809  0.1223 -0.6530
 9796SOL    HW230288   6.805   5.625   1.781 -1.8457  1.9307 -1.4731
 9797SOL     OW30289   5.014   4.181   0.073  0.2368  0.1155 -0.2851
 9797SOL    HW130290   5.084   4.111   0.068  1.4582  1.2405  0.5162
 9797SOL    HW230291   4.984   4.204  -0.020 -1.0229 -2.2123 -0.5267
 9798SOL     OW30292   4.307   3.052   1.225  0.1026 -0.0123  0.5815
 9798SOL    HW130293   4.405   3.034   1.230  0.3864  0.8343 -1.3533
 9798SOL    HW230294   4.291   3.149   1.204 -1.1391 -0.2669  0.2615
 9799SOL     OW30295   3.892   3.643   1.910  0.0889  0.1871 -0.1773
 9799SOL    HW130296   3.978   3.670   1.951  0.3865  1.5873 -1.6093
 9799SOL    HW230297   3.831   3.722   1.904 -1.4886 -0.8627  1.1873
 9800SOL     OW30298   4.893   1.925   2.731 -0.1154 -0.0698 -0.3683
 9800SOL    HW130299   4.880   1.909   2.633 -0.0725  0.6299 -0.4925
 9800SOL    HW230300   4.977   1.880   2.762  0.9658  1.3872 -1.0916
 9801SOL     OW30301   2.383   5.458   6.544 -0.0011 -0.3745 -0.1998
 9801SOL    HW130302   2.374   5.465   6.444  0.3181  0.0510 -0.1995
 9801SOL    HW230303   2.356   5.544   6.586 -1.8552 -1.1091  0.2169
 9802SOL     OW30304   5.783   5.475   1.579  0.0168 -0.1706  0.2594
 9802SOL    HW130305   5.758   5.572   1.578  1.1146  0.1346 -1.0095
 9802SOL    HW230306   5.773   5.438   1.671  1.0564  1.5534  1.1042
 9803SOL     OW30307   2.692   2.329   4.782 -0.1563  0.5766 -0.4543
 9803SOL    HW130308   2.693   2.310   4.684 -1.5899 -0.0155 -0.3783
 9803SOL    HW230309   2.639   2.413   4.799  0.2396  0.7777 -0.1973
 9804SOL     OW30310   0.841   1.347   1.150  0.1723  0.1548  0.5041
 9804SOL    HW130311   0.888   1.434   1.165 -1.8934  1.3659  0.3844
 9804SOL    HW230312   0.756   1.364   1.100 -1.6519 -1.5662  2.8271
 9805SOL     OW30313   5.331   4.513   0.032 -0.0530  0.5073 -0.4293
 9805SOL    HW130314   5.275   4.579  -0.019 -0.3144  1.2512  0.7802
 9805SOL    HW230315   5.271   4.448   0.079  0.1970 -0.4348 -1.3861
 9806SOL     OW30316   6.502   2.192   1.130  0.3965 -0.3463  0.5405
 9806SOL    HW130317   6.549   2.119   1.179  0.0662 -1.2407 -0.4542
 9806SOL    HW230318   6.433   2.233   1.190  0.0268 -1.3918  0.8401
 9807SOL     OW30319   1.077   0.276   6.161  0.6752 -0.1148 -0.2488
 9807SOL    HW130320   1.111   0.218   6.234  0.9559  1.3114  0.7930
 9807SOL    HW230321   1.100   0.234   6.072 -0.0890 -2.0959  0.4294
 9808SOL     OW30322   2.729   5.829   5.414  0.4074 -0.0102  0.5086
 9808SOL    HW130323   2.728   5.871   5.324 -1.4570  0.1324  0.5609
 9808SOL    HW230324   2.781   5.887   5.477 -1.2842  1.8134  0.3540
 9809SOL     OW30325   6.447   4.154   5.761  0.4366  0.3319 -0.2878
 9809SOL    HW130326   6.364   4.209   5.746  1.1734  1.0799 -1.8985
 9809SOL    HW230327   6.472   4.158   5.857 -0.9165  0.8024  0.0759
 9810SOL     OW30328   4.417   0.048   3.754 -0.1257 -0.2882  0.3022
 9810SOL    HW130329   4.443   0.118   3.820 -0.5258 -1.4571  1.7625
 9810SOL    HW230330   4.330   0.006   3.782  0.2743 -1.5897 -0.3221
 9811SOL     OW30331   1.957   4.642   6.020  0.0519  0.2726  0.3749
 9811SOL    HW130332   1.885   4.711   6.028 -1.1173 -0.7979 -0.5301
 9811SOL    HW230333   1.973   4.601   6.110 -1.5358 -0.4852  0.3519
 9812SOL     OW30334   4.290   5.076   6.775  0.3156  1.0343  0.0299
 9812SOL    HW130335   4.242   4.998   6.817  0.0819  1.3083  0.2729
 9812SOL    HW230336   4.388   5.069   6.796  0.1644  1.3349  0.9074
 9813SOL     OW30337   6.384   3.873   3.795  0.5485  0.1591 -0.3768
 9813SOL    HW130338   6.385   3.796   3.860  1.9943 -0.1969 -0.7932
 9813SOL    HW230339   6.402   3.958   3.844  0.3039  0.0661 -0.1178
 9814SOL     OW30340   2.396   6.431   5.380  0.3016  0.2447 -0.3445
 9814SOL    HW130341   2.473   6.369   5.396  1.3281  1.4109 -0.6416
 9814SOL    HW230342   2.413   6.483   5.296 -1.2429 -0.1073 -0.9095
 9815SOL     OW30343   4.836   1.491   6.395  0.4994 -0.0791  0.3155
 9815SOL    HW130344   4.850   1.483   6.494  1.7230 -1.2147  0.0882
 9815SOL    HW230345   4.739   1.499   6.376  0.2526  0.2635  1.6223
 9816SOL     OW30346   5.978   1.626   3.783 -0.0210 -0.4511  0.5984
 9816SOL    HW130347   6.021   1.581   3.861  0.7007 -1.5026 -0.3694
 9816SOL    HW230348   5.879   1.626   3.795  0.0548 -0.9782  1.3053
 9817SOL     OW30349   3.508   1.980   2.909  0.0447 -0.4438  0.3932
 9817SOL    HW130350   3.562   2.059   2.880  0.5924 -0.6242  0.8940
 9817SOL    HW230351   3.511   1.909   2.839  0.9109 -0.6624  0.6296
 9818SOL     OW30352   0.566   5.236   3.247 -0.1065  0.3733 -0.2598
 9818SOL    HW130353   0.651   5.235   3.300  0.2327  1.7518 -0.7169
 9818SOL    HW230354   0.538   5.143   3.227  1.6785 -0.1218 -0.6816
 9819SOL     OW30355   2.234   2.660   0.911 -0.4576 -0.0215 -0.0976
 9819SOL    HW130356   2.249   2.649   1.009  1.1130 -1.2765 -0.4234
 9819SOL    HW230357   2.161   2.597   0.881 -1.4704  0.9045  0.3510
 9820SOL     OW30358   2.683   1.829   4.770 -0.2204  0.3495 -0.5125
 9820SOL    HW130359   2.779   1.825   4.797 -0.0341  0.3339 -1.1629
 9820SOL    HW230360   2.625   1.829   4.852  0.3169 -0.0297 -0.1303
 9821SOL     OW30361   2.562   2.034   2.604 -0.1023 -0.5624  0.2520
 9821SOL    HW130362   2.581   2.001   2.696 -2.3754 -0.2992  0.8756
 9821SOL    HW230363   2.489   1.978   2.563  1.2074 -0.9965 -1.6115
 9822SOL     OW30364   3.127   5.167   0.595 -0.0116 -0.8739  0.3240
 9822SOL    HW130365   3.207   5.145   0.540 -1.2469 -1.4548 -1.3031
 9822SOL    HW230366   3.121   5.102   0.671  0.0397 -2.0246 -0.6270
 9823SOL     OW30367   2.617   2.372   4.004 -0.1942  0.6444 -0.0802
 9823SOL    HW130368   2.715   2.361   4.021 -0.1631  0.6485 -0.2621
 9823SOL    HW230369   2.596   2.349   3.910 -0.8306 -2.1684  0.6683
 9824SOL     OW30370   2.886   2.288   4.126 -0.1129 -0.3870  0.2599
 9824SOL    HW130371   2.956   2.234   4.080 -0.3550  0.5650 -1.3089
 9824SOL    HW230372   2.919   2.315   4.217  1.4708 -0.1425 -0.3540
 9825SOL     OW30373   1.523   2.303   5.999 -0.0645  0.1200 -0.0650
 9825SOL    HW130374   1.490   2.346   6.083 -1.0056  0.1870 -0.4553
 9825SOL    HW230375   1.470   2.221   5.981  0.1350  0.1043 -0.5987
 9826SOL     OW30376   1.995   0.229   2.757  0.0597 -0.4106 -0.3092
 9826SOL    HW130377   2.017   0.135   2.783 -0.8014 -0.7426 -0.7443
 9826SOL    HW230378   2.068   0.290   2.789  0.5882 -1.2072  0.0499
 9827SOL     OW30379   4.053   6.329   4.465 -0.2631  0.3155  0.6625
 9827SOL    HW130380   4.143   6.287   4.479 -0.6549 -0.2142  1.7230
 9827SOL    HW230381   3.996   6.310   4.545 -0.9158  1.6897  0.5400
 9828SOL     OW30382   5.234   4.954   2.031  0.1849 -0.0485 -0.2961
 9828SOL    HW130383   5.259   4.967   2.127 -0.3914 -0.6456 -0.0568
 9828SOL    HW230384   5.265   4.864   2.001 -0.1010 -0.0750 -0.5169
 9829SOL     OW30385   0.936   1.794   5.546 -0.0873  0.4119 -1.0573
 9829SOL    HW130386   0.876   1.859   5.499 -0.4006 -0.0653 -1.3228
 9829SOL    HW230387   0.882   1.717   5.578  0.2139  0.4883 -0.3576
 9830SOL     OW30388   6.230   3.158   2.306 -0.0140 -0.0687 -0.7343
 9830SOL    HW130389   6.171   3.216   2.362 -1.3745 -0.3926 -1.7684
 9830SOL    HW230390   6.220   3.183   2.210 -1.5031 -2.6195 -1.3535
 9831SOL     OW30391   0.190   5.392   2.555  0.1413  0.1647  0.6383
 9831SOL    HW130392   0.105   5.411   2.604 -0.3853 -1.5655  0.4671
 9831SOL    HW230393   0.179   5.411   2.458  0.2597  0.8325  0.7528
 9832SOL     OW30394   1.947   6.948   2.055  0.5804 -0.0350  0.2902
 9832SOL    HW130395   1.963   6.948   1.956  1.8305 -1.6657  0.4527
 9832SOL    HW230396   1.930   7.042   2.086 -2.0207  0.2727 -1.7692
 9833SOL     OW30397   6.814   1.644   1.449  0.5590 -0.2403  0.2896
 9833SOL    HW130398   6.742   1.626   1.383  0.2021  0.2313  0.5489
 9833SOL    HW230399   6.899   1.665   1.402  0.9292 -2.2388 -0.0500
 9834SOL     OW30400   4.934   2.891   0.811 -0.3065  0.7903 -0.2848
 9834SOL    HW130401   4.834   2.880   0.807 -0.2694  0.5879 -0.6473
 9834SOL    HW230402   4.960   2.973   0.760 -0.2223  0.4667 -0.7626
 9835SOL     OW30403   4.448   1.337   0.070  0.4029  0.0476 -0.3847
 9835SOL    HW130404   4.452   1.252   0.017  0.1534 -0.4118  0.3044
 9835SOL    HW230405   4.426   1.315   0.165  0.9756  0.8373 -0.0576
 9836SOL     OW30406   5.868   2.043   1.719  0.0848  0.2821  0.2236
 9836SOL    HW130407   5.924   2.121   1.690  0.6850 -0.7740 -1.6749
 9836SOL    HW230408   5.771   2.069   1.716  0.3571  1.9851  3.0947
 9837SOL     OW30409   6.449   0.736   5.495 -0.0337 -0.0513  0.1593
 9837SOL    HW130410   6.536   0.691   5.473  1.5914  2.7155  0.4862
 9837SOL    HW230411   6.426   0.719   5.591  1.0263  0.4945  0.5267
 9838SOL     OW30412   1.634   5.778   4.496  0.1442 -0.5953 -0.1109
 9838SOL    HW130413   1.673   5.723   4.569  0.7561 -0.1229 -0.0736
 9838SOL    HW230414   1.546   5.815   4.524  0.3677 -0.4342  0.3835
 9839SOL     OW30415   1.119   3.049   1.668  0.5123  0.4027 -0.1137
 9839SOL    HW130416   1.188   3.100   1.720  1.2279 -0.0655 -0.5725
 9839SOL    HW230417   1.064   2.995   1.731  0.9998  0.2695  0.2088
 9840SOL     OW30418   1.280   5.840   3.896  0.4556  0.4088  0.3048
 9840SOL    HW130419   1.225   5.917   3.863  0.0390  0.2475  0.6253
 9840SOL    HW230420   1.228   5.788   3.964  1.3302  0.8056  1.3140
 9841SOL     OW30421   1.498   3.259   0.623  0.0876 -0.1893  0.0961
 9841SOL    HW130422   1.427   3.330   0.617  0.7467  0.4309 -0.5188
 9841SOL    HW230423   1.548   3.254   0.536  0.0817 -1.3865  0.1419
 9842SOL     OW30424   1.672   2.007   5.276 -0.2757  0.2813  0.6686
 9842SOL    HW130425   1.573   2.019   5.286 -0.7270  0.7923 -2.8541
 9842SOL    HW230426   1.691   1.911   5.254 -0.2954  0.5504 -0.6252
 9843SOL     OW30427   1.124   4.336   0.649  0.1483 -0.0968  0.0013
 9843SOL    HW130428   1.100   4.273   0.575  0.9143 -0.5920  0.1539
 9843SOL    HW230429   1.222   4.329   0.667 -0.1160 -0.4401  1.4688
 9844SOL     OW30430   4.987   6.117   3.613  0.5280  0.1920 -0.1287
 9844SOL    HW130431   5.012   6.030   3.571 -0.7771  0.1783 -0.9184
 9844SOL    HW230432   5.027   6.192   3.561 -0.6270  0.1520 -1.1161
 9845SOL     OW30433   4.660   5.720   2.222 -0.5560  0.3696  0.0935
 9845SOL    HW130434   4.633   5.626   2.204 -1.6887  0.8017 -0.6624
 9845SOL    HW230435   4.731   5.723   2.292  0.5121 -1.1225 -0.8662
 9846SOL     OW30436   5.957   6.476   4.830 -0.1524 -0.0416 -0.2112
 9846SOL    HW130437   6.018   6.503   4.755 -1.0276 -1.0197 -1.3220
 9846SOL    HW230438   6.007   6.417   4.894  0.9916  1.9067  0.7739
 9847SOL     OW30439   5.646   5.161   4.135  0.1565 -0.1760 -0.4080
 9847SOL    HW130440   5.706   5.236   4.163 -0.8023  1.1795 -1.8247
 9847SOL    HW230441   5.633   5.098   4.212  0.5526  1.3948  0.9989
 9848SOL     OW30442   4.002   4.403   0.590  0.0621 -0.0398  0.3082
 9848SOL    HW130443   4.056   4.467   0.536 -0.2577 -0.2202 -0.2283
 9848SOL    HW230444   3.955   4.452   0.663  0.0424  0.2908  0.0746
 9849SOL     OW30445   6.151   1.717   4.152  0.1803 -1.0294 -0.5571
 9849SOL    HW130446   6.148   1.757   4.243 -0.6197 -0.8600 -0.6491
 9849SOL    HW230447   6.058   1.703   4.118  0.4504 -0.2156 -1.7182
 9850SOL     OW30448   5.201   6.960   3.507  0.7668  0.5417  0.4700
 9850SOL    HW130449   5.159   6.997   3.424  0.3749  0.4828  0.6429
 9850SOL    HW230450   5.139   6.971   3.584 -0.5420 -2.8198  0.0753
 9851SOL     OW30451   2.800   6.571   0.507  0.4719  0.8215 -0.1490
 9851SOL    HW130452   2.711   6.608   0.479 -0.0290 -0.3097 -0.0930
 9851SOL    HW230453   2.787   6.480   0.546  1.6958  0.5413 -0.3669
 9852SOL     OW30454   1.732   1.404   2.461  0.7365 -0.2235 -0.1430
 9852SOL    HW130455   1.661   1.337   2.479  1.2425 -0.6327  0.3726
 9852SOL    HW230456   1.711   1.453   2.377 -1.0574  0.8775  0.8838
 9853SOL     OW30457   6.438   4.386   2.023 -0.5390  0.3330 -0.4083
 9853SOL    HW130458   6.413   4.482   2.038 -1.1018  0.2757 -0.9209
 9853SOL    HW230459   6.355   4.329   2.029  0.1130 -0.4480  2.3256
 9854SOL     OW30460   1.681   0.806   6.614  0.0185  0.3656  0.3047
 9854SOL    HW130461   1.680   0.880   6.682 -1.0709 -0.9172  1.7548
 9854SOL    HW230462   1.625   0.832   6.536 -0.3654  1.0812  0.8055
 9855SOL     OW30463   3.113   0.792   4.181 -0.2544  0.4547  0.4924
 9855SOL    HW130464   3.077   0.767   4.090 -0.0708  0.1647  0.4981
 9855SOL    HW230465   3.098   0.889   4.197 -0.3237  0.4991  0.1652
 9856SOL     OW30466   4.785   5.877   3.278 -0.4212  0.3706 -0.5298
 9856SOL    HW130467   4.704   5.932   3.259 -0.7420  0.2365  0.3835
 9856SOL    HW230468   4.865   5.920   3.236 -1.1745 -0.3340 -2.7808
 9857SOL     OW30469   6.067   1.775   1.325 -0.3412  0.4558  0.1974
 9857SOL    HW130470   5.975   1.755   1.360 -0.7242 -0.2939 -1.1514
 9857SOL    HW230471   6.127   1.797   1.402 -1.7864  1.6305  1.0568
 9858SOL     OW30472   0.463   1.253   6.163  0.0539 -1.0757 -0.2108
 9858SOL    HW130473   0.427   1.179   6.219  1.3656 -1.2459  0.4466
 9858SOL    HW230474   0.488   1.331   6.222 -0.2029 -0.5675 -0.7609
 9859SOL     OW30475   3.281   6.164   5.583  0.0486  0.2542  0.1421
 9859SOL    HW130476   3.216   6.102   5.626 -0.5715  0.4762 -0.4508
 9859SOL    HW230477   3.233   6.247   5.555  1.1064  1.6819  2.2405
 9860SOL     OW30478   1.886   2.026   6.681 -0.3270  0.4657  0.1513
 9860SOL    HW130479   1.843   2.092   6.619 -1.7294  1.0658  1.6975
 9860SOL    HW230480   1.922   1.949   6.628 -1.3109  1.0340 -1.4070
 9861SOL     OW30481   4.524   5.053   1.147  0.6153 -0.0979 -0.0888
 9861SOL    HW130482   4.594   5.098   1.202  1.3444  0.1212 -1.1681
 9861SOL    HW230483   4.474   5.121   1.094 -1.3561 -0.0904  1.6358
 9862SOL     OW30484   4.232   0.617   0.062 -0.1456 -0.5044  0.3198
 9862SOL    HW130485   4.247   0.560   0.143  1.4695 -1.0876 -0.3505
 9862SOL    HW230486   4.150   0.673   0.076 -0.4859 -1.3305  1.9238
 9863SOL     OW30487   3.608   0.553   0.370  0.4536  0.6143 -0.5922
 9863SOL    HW130488   3.561   0.531   0.455  0.1747  0.2849 -0.8300
 9863SOL    HW230489   3.704   0.576   0.389  0.3588  0.6639 -0.1793
 9864SOL     OW30490   2.257   4.534   6.319 -0.4759 -0.0067  0.0484
 9864SOL    HW130491   2.263   4.461   6.251  0.2645 -0.2768  0.3930
 9864SOL    HW230492   2.224   4.497   6.406  0.4020 -0.0573  0.3765
 9865SOL     OW30493   4.405   5.678   6.416 -0.0808  0.5211 -0.5693
 9865SOL    HW130494   4.349   5.643   6.491  1.2368  1.8424  1.0988
 9865SOL    HW230495   4.437   5.602   6.360 -1.8714 -0.4181 -0.4100
 9866SOL     OW30496   6.932   6.082   0.272 -0.0831 -0.1908  0.0302
 9866SOL    HW130497   7.008   6.146   0.259 -0.4948  0.1340 -0.8619
 9866SOL    HW230498   6.966   5.988   0.266  0.5051 -0.0846  1.2234
 9867SOL     OW30499   6.437   0.219   3.074 -0.3531 -0.1545  0.4933
 9867SOL    HW130500   6.494   0.230   3.155 -0.2169 -0.6379  0.4645
 9867SOL    HW230501   6.484   0.259   2.995  0.5510 -1.7205  0.2137
 9868SOL     OW30502   2.494   2.689   6.063 -0.8256 -0.3569  0.1786
 9868SOL    HW130503   2.496   2.593   6.092  0.1984 -0.7180 -1.0075
 9868SOL    HW230504   2.433   2.740   6.123 -1.0403 -1.6534  1.1139
 9869SOL     OW30505   6.575   3.606   6.561  0.4683 -0.0998 -0.4742
 9869SOL    HW130506   6.501   3.577   6.622  1.2777  0.6181  0.9183
 9869SOL    HW230507   6.576   3.706   6.557 -0.5464 -0.1227 -2.9675
 9870SOL     OW30508   0.984   3.118   2.756 -0.5025 -0.5325 -0.0061
 9870SOL    HW130509   1.074   3.159   2.769 -0.7179 -0.4444  1.4110
 9870SOL    HW230510   0.996   3.022   2.729  0.0123 -0.4234 -0.1912
 9871SOL     OW30511   4.894   2.162   3.844  0.3755  0.1005  0.8544
 9871SOL    HW130512   4.816   2.195   3.789  2.3250 -1.1262 -3.0431
 9871SOL    HW230513   4.963   2.234   3.849  1.6380 -0.8454 -1.4745
 9872SOL     OW30514   2.145   6.416   6.116  0.3316  0.2336  0.0354
 9872SOL    HW130515   2.167   6.427   6.213  2.6110  1.4823 -0.5461
 9872SOL    HW230516   2.189   6.334   6.081  0.2929  0.2884 -0.1428
 9873SOL     OW30517   6.044   6.354   6.253  0.2874  0.5771  0.3599
 9873SOL    HW130518   6.104   6.327   6.329  0.0850  0.6032  0.5309
 9873SOL    HW230519   6.020   6.451   6.261 -0.2776  0.4212  0.6438
 9874SOL     OW30520   1.501   3.570   1.310 -0.4227 -0.7368 -0.0051
 9874SOL    HW130521   1.475   3.666   1.325 -0.4928 -0.8143  0.4014
 9874SOL    HW230522   1.419   3.516   1.290 -0.2663 -0.5435 -1.2003
 9875SOL     OW30523   6.333   6.606   4.806  0.5149  0.7789  0.0912
 9875SOL    HW130524   6.348   6.573   4.713 -2.1117 -0.1779 -0.0983
 9875SOL    HW230525   6.251   6.664   4.808  0.3888  0.6148  1.8290
 9876SOL     OW30526   1.574   2.579   2.034 -0.1185 -0.0036  0.8218
 9876SOL    HW130527   1.668   2.612   2.042  0.1393  0.5393 -2.8674
 9876SOL    HW230528   1.573   2.491   1.986 -1.5376  0.7446 -0.6146
 9877SOL     OW30529   1.315   2.019   4.111 -0.2764  0.2550 -0.4189
 9877SOL    HW130530   1.277   2.085   4.046 -0.1229  0.8180  0.0631
 9877SOL    HW230531   1.404   2.051   4.144  0.1378 -0.5412 -0.7256
 9878SOL     OW30532   6.962   6.449   4.796  0.3286  0.0380  0.5937
 9878SOL    HW130533   6.947   6.351   4.784  0.3060  0.0969  0.1410
 9878SOL    HW230534   6.878   6.499   4.777  0.5053  0.1923  0.2028
 9879SOL     OW30535   1.741   5.841   4.246  0.5989 -0.1050  0.1482
 9879SOL    HW130536   1.696   5.808   4.329 -0.6441  0.7955 -0.1345
 9879SOL    HW230537   1.691   5.808   4.166  1.3870 -0.3979 -0.2333
 9880SOL     OW30538   0.810   6.079   4.703  1.1652  0.6526 -0.1059
 9880SOL    HW130539   0.868   6.016   4.652  0.9820  0.1903  0.2503
 9880SOL    HW230540   0.755   6.027   4.769  0.9082  1.1701  0.0877
 9881SOL     OW30541   6.424   1.993   4.808  0.2620 -0.1004 -0.1896
 9881SOL    HW130542   6.514   1.952   4.820  0.6846  0.0919 -2.2711
 9881SOL    HW230543   6.413   2.069   4.873  1.4446 -0.3629  0.3480
 9882SOL     OW30544   4.886   6.414   4.044  0.0582  0.5043 -0.0730
 9882SOL    HW130545   4.893   6.403   3.945  0.4744 -1.1726  0.1056
 9882SOL    HW230546   4.790   6.418   4.071 -0.0582  0.8050 -0.5325
 9883SOL     OW30547   3.989   3.671   0.560  0.4829  0.5282  0.2971
 9883SOL    HW130548   3.987   3.573   0.577 -1.7463  0.7917  1.9898
 9883SOL    HW230549   4.083   3.705   0.570  0.9753 -1.1212  1.7421
 9884SOL     OW30550   6.383   0.389   6.303 -0.2933 -0.4544 -0.2063
 9884SOL    HW130551   6.361   0.415   6.397 -0.9099  2.6563 -1.0814
 9884SOL    HW230552   6.300   0.394   6.247  0.7198  1.6836 -1.6423
 9885SOL     OW30553   4.915   3.429   5.778 -0.6456  0.1627 -0.0814
 9885SOL    HW130554   4.999   3.445   5.725  0.3402 -0.1432  1.3388
 9885SOL    HW230555   4.836   3.452   5.722  0.2232 -2.3124 -2.5449
 9886SOL     OW30556   1.063   2.565   2.427 -0.1534 -0.6991  0.8373
 9886SOL    HW130557   0.974   2.532   2.397  0.4820 -0.4688 -1.5202
 9886SOL    HW230558   1.083   2.653   2.384  0.7214 -0.1195  2.3072
 9887SOL     OW30559   1.654   3.519   4.022  0.0058 -0.3044  0.3630
 9887SOL    HW130560   1.576   3.505   4.084 -0.0202  0.9867  0.6497
 9887SOL    HW230561   1.738   3.489   4.068 -0.2959 -1.6356  0.0790
 9888SOL     OW30562   6.345   4.925   3.164 -0.0618 -0.0966 -0.9033
 9888SOL    HW130563   6.337   4.971   3.076 -1.3449  0.1790 -0.6666
 9888SOL    HW230564   6.350   4.993   3.237  0.9513 -0.3238 -0.7484
 9889SOL     OW30565   6.844   4.354   3.478 -0.4046 -0.2373 -0.0640
 9889SOL    HW130566   6.898   4.407   3.543 -1.5118  1.1766 -0.2420
 9889SOL    HW230567   6.804   4.275   3.524  0.9879 -0.7579  0.2943
 9890SOL     OW30568   0.677   1.446   0.743  0.5091 -0.2197 -0.3894
 9890SOL    HW130569   0.615   1.510   0.698  0.5449 -0.0570 -0.2091
 9890SOL    HW230570   0.702   1.373   0.680  1.5064  0.6397 -1.0147
 9891SOL     OW30571   2.926   0.544   2.888 -0.1134 -0.4706  0.1701
 9891SOL    HW130572   2.904   0.616   2.955 -0.3251 -0.5044  0.1379
 9891SOL    HW230573   2.869   0.556   2.807 -0.3216 -0.8151  0.2613
 9892SOL     OW30574   6.922   2.152   3.354  0.4282  0.1121 -0.1763
 9892SOL    HW130575   6.908   2.064   3.308  1.6573 -0.4475  0.5016
 9892SOL    HW230576   6.885   2.147   3.447 -2.1440  1.2760 -1.0233
 9893SOL     OW30577   3.672   1.877   1.491  0.0017  0.1221 -0.3332
 9893SOL    HW130578   3.691   1.958   1.547  0.6404  0.2145 -0.6715
 9893SOL    HW230579   3.578   1.848   1.505  0.2763 -0.1476  1.1516
 9894SOL     OW30580   7.000   0.641   5.619 -0.2586  0.4351  0.2195
 9894SOL    HW130581   6.970   0.546   5.634  0.1635  0.7316  3.5688
 9894SOL    HW230582   7.098   0.648   5.635  0.0395  1.1904 -1.6775
 9895SOL     OW30583   0.186   2.546   1.454  0.2942 -0.1853  0.4822
 9895SOL    HW130584   0.201   2.481   1.380 -1.1115 -0.4940  0.4362
 9895SOL    HW230585   0.099   2.526   1.499  0.9049  0.2745  1.9311
 9896SOL     OW30586   6.199   0.845   6.744 -0.2401 -0.5344 -0.8218
 9896SOL    HW130587   6.142   0.845   6.661 -0.8684 -1.9243 -0.4240
 9896SOL    HW230588   6.163   0.779   6.809  1.0650 -0.4758  0.0032
 9897SOL     OW30589   4.336   1.371   5.060  0.3293  0.7257 -0.3948
 9897SOL    HW130590   4.350   1.283   5.016  2.8481  0.5291  0.6434
 9897SOL    HW230591   4.240   1.381   5.086 -0.1918 -1.2524 -1.4060
 9898SOL     OW30592   4.854   3.570   5.364 -0.6336 -0.1660 -0.5182
 9898SOL    HW130593   4.800   3.555   5.281  0.0765 -1.3128 -0.7991
 9898SOL    HW230594   4.797   3.552   5.444 -1.1042  0.1777 -0.7704
 9899SOL     OW30595   0.323   3.624   2.298  0.2420 -0.1601 -0.1037
 9899SOL    HW130596   0.237   3.622   2.247  1.0403  1.0953 -1.5966
 9899SOL    HW230597   0.338   3.715   2.336  1.0384 -0.2840 -0.0974
 9900SOL     OW30598   4.106   4.574   0.085 -0.0117 -0.0473  0.2937
 9900SOL    HW130599   4.127   4.561  -0.012  0.1499 -0.7362  0.4148
 9900SOL    HW230600   4.181   4.622   0.130  0.2980 -0.4878  0.2522
 9901SOL     OW30601   1.073   1.114   0.796  0.0736  0.3006 -0.1913
 9901SOL    HW130602   1.068   1.141   0.892  1.7510  2.6022 -0.6504
 9901SOL    HW230603   1.085   1.015   0.789 -0.1891  0.0808  1.9588
 9902SOL     OW30604   4.991   6.560   4.390  0.2152 -0.6430 -0.5790
 9902SOL    HW130605   4.909   6.597   4.346 -1.0003 -1.0669  1.2536
 9902SOL    HW230606   5.056   6.530   4.319 -0.6459  0.8487 -2.0648
 9903SOL     OW30607   6.294   6.484   0.673  0.1650  0.1070 -0.2236
 9903SOL    HW130608   6.355   6.512   0.598  1.0034 -0.6050  0.1814
 9903SOL    HW230609   6.202   6.519   0.655  0.5253  0.6047 -1.1985
 9904SOL     OW30610   3.697   2.392   5.713 -0.1199 -0.6141 -0.3301
 9904SOL    HW130611   3.695   2.295   5.689 -0.9345 -0.7950  0.3884
 9904SOL    HW230612   3.694   2.448   5.630 -1.2806 -1.2058 -0.7087
 9905SOL     OW30613   5.357   3.980   6.408  0.3447  0.0609  0.5692
 9905SOL    HW130614   5.311   3.892   6.420  0.1103  0.1515  0.3470
 9905SOL    HW230615   5.446   3.966   6.364  0.0357 -0.0064 -0.0452
 9906SOL     OW30616   1.252   5.699   1.699  0.2698  0.2914 -0.0622
 9906SOL    HW130617   1.224   5.794   1.712  2.1339  0.9657 -0.6335
 9906SOL    HW230618   1.182   5.638   1.736  0.0401  1.9031  2.3851
 9907SOL     OW30619   3.702   6.407   3.140 -0.3797 -0.1985  0.6313
 9907SOL    HW130620   3.798   6.403   3.166  0.2700  0.4977 -1.4215
 9907SOL    HW230621   3.687   6.484   3.078 -1.9573 -1.0932 -0.1779
 9908SOL     OW30622   3.354   4.709   6.719 -0.3782  0.4579 -0.1183
 9908SOL    HW130623   3.402   4.676   6.801 -0.2691  0.4329 -0.1937
 9908SOL    HW230624   3.255   4.705   6.736 -0.3460  0.8562  0.1673
 9909SOL     OW30625   1.233   4.135   5.480 -0.3459 -0.0584  0.4745
 9909SOL    HW130626   1.314   4.148   5.424  0.5148  1.5107  1.9956
 9909SOL    HW230627   1.173   4.215   5.473  0.4437  0.8162  2.7448
 9910SOL     OW30628   3.777   5.208   1.180 -0.2554  0.6138 -0.3346
 9910SOL    HW130629   3.822   5.119   1.194  0.1158  0.5963 -1.4917
 9910SOL    HW230630   3.843   5.273   1.142 -0.1973  1.7650  1.6319
 9911SOL     OW30631   5.290   2.364   3.297 -0.1400  0.0515  0.3560
 9911SOL    HW130632   5.270   2.445   3.352 -0.0619  0.4432 -0.1807
 9911SOL    HW230633   5.212   2.345   3.237  0.1297  0.1535 -0.0281
 9912SOL     OW30634   0.700   5.763   0.302  0.2933 -0.1652  0.1139
 9912SOL    HW130635   0.617   5.726   0.343 -1.4387  2.2710 -0.9513
 9912SOL    HW230636   0.686   5.860   0.279  3.0541  0.0401 -1.1326
 9913SOL     OW30637   0.424   4.419   2.489 -0.0721  0.6767 -0.2248
 9913SOL    HW130638   0.399   4.516   2.482 -1.5001  0.2519 -1.6486
 9913SOL    HW230639   0.490   4.397   2.417  2.2484  1.0999  1.6511
 9914SOL     OW30640   2.056   5.276   6.232 -0.0915 -0.3168  0.7894
 9914SOL    HW130641   2.027   5.369   6.209  0.8304  0.1098  1.3115
 9914SOL    HW230642   2.014   5.211   6.168  0.0551  0.5479 -0.2058
 9915SOL     OW30643   4.254   4.937   3.716 -0.0619 -0.1735 -0.4075
 9915SOL    HW130644   4.273   4.929   3.618  0.3519  0.2472 -0.3649
 9915SOL    HW230645   4.313   5.008   3.756 -0.0447 -0.5158  0.1914
 9916SOL     OW30646   0.231   4.012   5.014  0.3129 -0.1043 -0.1919
 9916SOL    HW130647   0.239   4.087   4.949 -0.3460 -0.3839 -0.6019
 9916SOL    HW230648   0.249   3.925   4.968 -0.7994 -0.3627 -0.1553
 9917SOL     OW30649   2.322   4.230   0.904  0.5573  0.4967 -0.4750
 9917SOL    HW130650   2.294   4.149   0.956  2.4345 -0.5596 -1.0318
 9917SOL    HW230651   2.389   4.282   0.957 -0.4515  1.5944 -0.2294
 9918SOL     OW30652   1.811   5.365   6.898 -0.1723  0.4898  0.3249
 9918SOL    HW130653   1.831   5.367   6.996  1.1223  0.6256  0.0692
 9918SOL    HW230654   1.893   5.391   6.847 -0.8866  0.5887 -0.7918
 9919SOL     OW30655   5.654   2.297   1.895 -0.2403 -0.7348  0.4635
 9919SOL    HW130656   5.676   2.322   1.801 -1.2445  3.9628  1.2327
 9919SOL    HW230657   5.591   2.220   1.895  1.6289 -2.4688 -2.4840
 9920SOL     OW30658   5.119   5.118   1.846 -0.1126  0.2187 -0.1943
 9920SOL    HW130659   5.164   5.070   1.921  0.1608 -0.2171 -0.6329
 9920SOL    HW230660   5.121   5.061   1.764  0.5863  1.1518 -0.8415
 9921SOL     OW30661   6.304   6.299   1.140  0.3762  0.1644  0.3803
 9921SOL    HW130662   6.294   6.229   1.069  0.4585  1.4139 -0.9162
 9921SOL    HW230663   6.225   6.298   1.200  0.3381 -0.9735  0.3238
 9922SOL     OW30664   0.755   4.095   5.180 -0.0269 -0.3388  0.0021
 9922SOL    HW130665   0.681   4.030   5.159  0.2940 -0.3841 -1.0331
 9922SOL    HW230666   0.737   4.139   5.268 -1.2806 -0.3537 -0.2347
 9923SOL     OW30667   5.203   4.867   4.326 -0.3462  0.0202 -0.4063
 9923SOL    HW130668   5.284   4.851   4.383 -0.5785 -0.0845 -0.1106
 9923SOL    HW230669   5.216   4.953   4.275 -0.5815  0.6479  0.5731
 9924SOL     OW30670   0.292   5.100   1.772 -0.6691 -0.0632  0.0020
 9924SOL    HW130671   0.302   5.106   1.672  0.6566  0.2583  0.1344
 9924SOL    HW230672   0.220   5.162   1.802 -1.7046 -0.8076 -0.8231
 9925SOL     OW30673   0.041   2.441   4.768 -0.2467 -0.1840  0.3635
 9925SOL    HW130674   0.140   2.452   4.773 -0.1745 -0.7626  0.2216
 9925SOL    HW230675   0.018   2.345   4.754 -0.7044  0.2374 -2.4600
 9926SOL     OW30676   5.596   0.317   1.544 -0.0364  0.1700 -0.6374
 9926SOL    HW130677   5.583   0.313   1.644 -0.7849 -0.6284 -0.7469
 9926SOL    HW230678   5.539   0.389   1.506  0.2972  0.5172 -0.4830
 9927SOL     OW30679   6.437   0.939   4.976 -0.1091  0.1458 -0.4897
 9927SOL    HW130680   6.448   1.030   4.935  1.2299  0.3507  0.2824
 9927SOL    HW230681   6.491   0.872   4.926  2.2116  0.5421  1.3074
 9928SOL     OW30682   2.138   6.662   1.007  0.6410 -0.6538 -0.2951
 9928SOL    HW130683   2.195   6.622   0.936 -1.3304 -1.1025 -1.7246
 9928SOL    HW230684   2.044   6.672   0.973  0.3970  2.6346  0.9507
 9929SOL     OW30685   1.683   0.231   4.112 -0.6129  0.4392 -0.5808
 9929SOL    HW130686   1.725   0.292   4.180 -0.7213  0.8676 -0.8928
 9929SOL    HW230687   1.627   0.162   4.159 -1.4960  1.3435 -0.2693
 9930SOL     OW30688   4.221   6.727   3.543 -0.5418 -0.5965 -0.0924
 9930SOL    HW130689   4.146   6.766   3.597 -0.7190  0.0390 -0.7791
 9930SOL    HW230690   4.185   6.657   3.483 -0.9516  0.9959 -1.7871
 9931SOL     OW30691   3.592   2.614   5.960  0.4037 -0.2307  0.0443
 9931SOL    HW130692   3.654   2.615   6.038  0.4402 -0.3963  0.0180
 9931SOL    HW230693   3.560   2.520   5.944  1.8630 -0.5619 -1.2808
 9932SOL     OW30694   4.023   2.301   6.299  0.4443  0.1063 -0.2863
 9932SOL    HW130695   4.044   2.208   6.329 -0.8111  0.1542  0.8167
 9932SOL    HW230696   3.980   2.299   6.209  0.3233 -0.3749 -0.2172
 9933SOL     OW30697   4.199   0.169   6.467 -0.2615  0.1783  0.4607
 9933SOL    HW130698   4.177   0.104   6.394  0.0271 -0.5170  0.9922
 9933SOL    HW230699   4.200   0.262   6.429  3.0696 -0.3869 -1.1815
 9934SOL     OW30700   5.609   5.939   3.702 -0.6696 -0.6824 -0.5353
 9934SOL    HW130701   5.527   5.953   3.647 -0.7969  1.5726  0.1462
 9934SOL    HW230702   5.691   5.954   3.646 -0.6859 -2.0593 -0.9837
 9935SOL     OW30703   3.974   0.471   6.231 -0.3278 -0.0359  0.0994
 9935SOL    HW130704   3.891   0.432   6.272 -0.5587  1.8512  1.5540
 9935SOL    HW230705   3.956   0.565   6.203  1.7102  0.9797  1.9291
 9936SOL     OW30706   3.239   3.076   5.772 -0.1619  0.0403  0.5118
 9936SOL    HW130707   3.271   2.992   5.816 -1.3262 -0.1015  1.1288
 9936SOL    HW230708   3.146   3.062   5.737  0.2607  0.5464 -0.9176
 9937SOL     OW30709   1.717   6.269   1.902 -0.1342 -0.5843  0.3051
 9937SOL    HW130710   1.654   6.309   1.837 -1.2357 -1.3098  0.8955
 9937SOL    HW230711   1.686   6.287   1.995  0.1974 -1.4423  0.6021
 9938SOL     OW30712   6.429   2.972   6.973 -0.3178  0.5546 -0.2397
 9938SOL    HW130713   6.363   3.044   6.994 -0.0620  0.0545  2.7368
 9938SOL    HW230714   6.512   3.012   6.936 -0.8138  1.6097 -0.2449
 9939SOL     OW30715   0.475   0.769   5.318 -0.2972 -0.1613  0.4119
 9939SOL    HW130716   0.564   0.732   5.345  1.0639  1.8057 -1.1047
 9939SOL    HW230717   0.469   0.772   5.218 -2.4537 -1.0464  0.4682
 9940SOL     OW30718   2.409   4.823   4.713  0.0627  0.0440 -0.5412
 9940SOL    HW130719   2.498   4.778   4.722 -0.0915 -0.0639  0.6984
 9940SOL    HW230720   2.368   4.833   4.804 -0.0650  2.3849 -0.7951
 9941SOL     OW30721   2.398   5.215   0.437 -0.6281  0.3872  0.0051
 9941SOL    HW130722   2.373   5.258   0.524 -0.8117 -0.2154  0.2578
 9941SOL    HW230723   2.388   5.116   0.445  1.4539  0.1335 -0.0126
 9942SOL     OW30724   0.571   0.352   0.657 -0.7982 -0.3412 -0.3233
 9942SOL    HW130725   0.650   0.406   0.686 -1.5392  0.8895 -0.5513
 9942SOL    HW230726   0.533   0.304   0.736  0.6400 -1.6047 -0.3469
 9943SOL     OW30727   3.285   2.297   0.867  0.5773 -0.3876  0.3313
 9943SOL    HW130728   3.364   2.237   0.858  1.5705  0.9556 -0.2121
 9943SOL    HW230729   3.272   2.320   0.964 -0.0377 -1.7294  0.5890
 9944SOL     OW30730   1.152   2.600   4.095 -0.1750  0.3615  0.6005
 9944SOL    HW130731   1.215   2.659   4.043 -0.4644 -0.3672 -0.6231
 9944SOL    HW230732   1.188   2.586   4.187  0.3903  1.6409  0.5969
 9945SOL     OW30733   5.734   0.472   6.304 -0.0924  0.6189  0.2455
 9945SOL    HW130734   5.827   0.440   6.321 -0.0124  1.4737  1.5183
 9945SOL    HW230735   5.734   0.533   6.224  0.6197  1.3379  0.7769
 9946SOL     OW30736   6.625   2.732   3.197  0.0868 -0.0279  0.2562
 9946SOL    HW130737   6.533   2.769   3.184 -1.1149 -0.7572  4.7646
 9946SOL    HW230738   6.642   2.660   3.130 -2.3179  0.6124 -1.1502
 9947SOL     OW30739   2.155   6.616   3.781 -0.3741 -0.1474  0.1838
 9947SOL    HW130740   2.091   6.692   3.771 -0.0777  0.1898  0.8255
 9947SOL    HW230741   2.192   6.615   3.874 -0.6409 -1.2919  0.2910
 9948SOL     OW30742   0.220   2.979   2.489 -0.0838  0.7661  0.9169
 9948SOL    HW130743   0.320   2.985   2.487 -0.0866  0.9194  1.2022
 9948SOL    HW230744   0.190   2.944   2.578 -0.3906  2.9119  1.7203
 9949SOL     OW30745   2.567   4.938   2.697 -0.4719 -0.2554 -0.3151
 9949SOL    HW130746   2.598   4.858   2.748  2.2066  0.6671 -0.3559
 9949SOL    HW230747   2.510   4.995   2.756 -1.3626 -1.5310  0.1009
 9950SOL     OW30748   0.503   6.069   2.008 -0.0423  0.3391  0.6716
 9950SOL    HW130749   0.593   6.112   2.023  1.6587 -2.0105 -1.7824
 9950SOL    HW230750   0.468   6.098   1.919 -1.1406  0.2721  1.0766
 9951SOL     OW30751   2.146   2.790   1.408  0.4739 -0.1167  0.1339
 9951SOL    HW130752   2.049   2.809   1.394  0.5566  1.0872  1.0723
 9951SOL    HW230753   2.161   2.760   1.502  0.9273 -1.0360 -0.2108
 9952SOL     OW30754   5.619   6.199   6.301 -0.5554 -0.3274  0.2771
 9952SOL    HW130755   5.695   6.195   6.236  0.1755 -1.3669  1.1743
 9952SOL    HW230756   5.615   6.290   6.343 -1.0026  0.3470 -1.1404
 9953SOL     OW30757   2.397   4.855   5.008  0.6155 -0.0011 -0.4693
 9953SOL    HW130758   2.352   4.937   5.043  4.0730  0.9987  2.1800
 9953SOL    HW230759   2.378   4.778   5.070 -0.5942 -0.6561 -1.5936
 9954SOL     OW30760   4.201   5.267   1.115  0.4491  0.5608  0.0735
 9954SOL    HW130761   4.118   5.319   1.092 -1.1418 -0.6486  2.6240
 9954SOL    HW230762   4.181   5.169   1.112  2.2965  0.1607 -0.8287
 9955SOL     OW30763   1.341   1.054   2.658  0.5961 -0.5032  0.6018
 9955SOL    HW130764   1.258   1.027   2.609  0.9163  0.5421 -0.5735
 9955SOL    HW230765   1.316   1.086   2.750 -0.8542  3.0727 -0.8492
 9956SOL     OW30766   0.539   5.200   5.390 -0.0311 -0.5851 -0.4243
 9956SOL    HW130767   0.515   5.179   5.485  0.9483 -0.7198 -0.1929
 9956SOL    HW230768   0.473   5.265   5.352  1.1604  1.7647  1.2858
 9957SOL     OW30769   3.115   6.663   0.833 -0.2812  0.6900  0.1132
 9957SOL    HW130770   3.041   6.612   0.877  1.5521 -1.8741  0.4359
 9957SOL    HW230771   3.096   6.671   0.735 -0.8288 -0.2807  0.1256
 9958SOL     OW30772   5.311   0.326   2.349  0.0114  0.5206 -0.3804
 9958SOL    HW130773   5.273   0.321   2.442  1.2634  1.1277  0.1830
 9958SOL    HW230774   5.364   0.243   2.331 -2.0863 -0.6744 -1.4415
 9959SOL     OW30775   0.259   1.890   2.043  0.6540 -0.0742 -0.3723
 9959SOL    HW130776   0.240   1.959   2.113 -0.3032 -0.8099  0.1205
 9959SOL    HW230777   0.286   1.935   1.959  2.7046  0.8165  0.6813
 9960SOL     OW30778   6.154   4.525   5.277 -0.1457  0.2433  0.5678
 9960SOL    HW130779   6.233   4.514   5.338 -0.2831  0.2113  0.7423
 9960SOL    HW230780   6.183   4.571   5.193  0.2462 -0.6166  0.2242
 9961SOL     OW30781   0.566   3.818   4.551 -0.1449  0.2555  0.5844
 9961SOL    HW130782   0.561   3.900   4.608 -1.0175 -0.2167  1.2120
 9961SOL    HW230783   0.534   3.740   4.603  1.3682 -0.6418  0.2399
 9962SOL     OW30784   2.021   0.975   1.329 -0.5815 -0.0168  0.4603
 9962SOL    HW130785   2.083   0.934   1.395 -1.1501 -0.5552  0.6663
 9962SOL    HW230786   2.074   1.015   1.254  0.0507  0.3494  1.0905
 9963SOL     OW30787   6.920   3.323   3.134 -0.2339  0.5425 -0.2147
 9963SOL    HW130788   6.999   3.330   3.073  0.6911 -1.5277  0.6415
 9963SOL    HW230789   6.945   3.357   3.225  0.0215 -0.9836  0.3145
 9964SOL     OW30790   0.720   5.143   1.959  0.0300 -0.1437  0.9764
 9964SOL    HW130791   0.714   5.149   2.058  0.8097  0.7123  0.9864
 9964SOL    HW230792   0.722   5.047   1.931  2.9272 -0.4902  2.0181
 9965SOL     OW30793   6.223   6.266   5.701  0.4899 -0.0945 -0.2109
 9965SOL    HW130794   6.223   6.174   5.660  1.6199  0.2796 -1.1143
 9965SOL    HW230795   6.317   6.290   5.726  0.0826  0.4950  0.8045
 9966SOL     OW30796   3.034   6.991   2.000  0.3498  0.3313 -0.0565
 9966SOL    HW130797   2.952   6.944   1.966  1.5499 -0.4809 -2.0386
 9966SOL    HW230798   3.009   7.051   2.075 -1.8711 -0.7213  0.1380
 9967SOL     OW30799   1.600   4.659   0.154 -0.2455  0.5189  0.2623
 9967SOL    HW130800   1.677   4.597   0.141 -0.8461  0.1642 -2.0245
 9967SOL    HW230801   1.516   4.607   0.168 -0.3464  0.8784  1.0668
 9968SOL     OW30802   0.211   6.444   2.894  0.1860 -0.3387  0.4114
 9968SOL    HW130803   0.268   6.399   2.826  2.2949  0.7344  1.3890
 9968SOL    HW230804   0.194   6.538   2.866 -1.8281 -0.8399 -0.2355
 9969SOL     OW30805   0.415   3.248   6.550  0.2039 -0.0985 -0.1138
 9969SOL    HW130806   0.461   3.281   6.468  0.2646 -1.9737 -0.8988
 9969SOL    HW230807   0.316   3.248   6.536  0.2628 -2.8417 -1.3091
 9970SOL     OW30808   2.087   1.116   0.247 -0.4134 -0.1190  0.3583
 9970SOL    HW130809   2.050   1.028   0.216 -0.1401  0.7988 -2.8652
 9970SOL    HW230810   2.011   1.177   0.270 -0.7204 -0.2484 -0.2869
 9971SOL     OW30811   1.022   2.641   1.570 -0.5035 -0.7478 -0.3884
 9971SOL    HW130812   1.088   2.660   1.497  0.5754  0.5851  0.8729
 9971SOL    HW230813   1.061   2.578   1.636  0.2599  1.3504  1.2691
 9972SOL     OW30814   1.971   0.178   5.382 -0.0243  0.3544  0.4414
 9972SOL    HW130815   2.001   0.268   5.411 -0.4647  0.8488 -0.5765
 9972SOL    HW230816   1.950   0.179   5.284  1.9955 -1.3932 -0.0859
 9973SOL     OW30817   5.353   1.628   4.437 -0.4504 -0.2701  0.2707
 9973SOL    HW130818   5.320   1.634   4.531  0.3404 -0.7840  0.5848
 9973SOL    HW230819   5.442   1.583   4.435 -0.4737 -0.2981 -0.7284
 9974SOL     OW30820   0.666   5.675   0.674 -0.2222  0.2055 -0.3818
 9974SOL    HW130821   0.743   5.612   0.674 -1.6786 -1.6626 -0.6032
 9974SOL    HW230822   0.618   5.669   0.761 -0.6580  0.6623 -0.5831
 9975SOL     OW30823   1.513   0.242   3.224  0.1783  0.4797 -0.1174
 9975SOL    HW130824   1.431   0.205   3.268 -0.2684  1.0215 -0.4930
 9975SOL    HW230825   1.582   0.169   3.218 -0.6745 -0.2980 -0.8183
 9976SOL     OW30826   6.331   5.515   5.172  0.3642 -0.5855 -0.4510
 9976SOL    HW130827   6.391   5.561   5.238  0.1127  0.3706 -0.8664
 9976SOL    HW230828   6.266   5.457   5.221 -0.0067  0.3348  0.1847
 9977SOL     OW30829   0.779   0.233   3.339  0.2264 -0.0547  0.7552
 9977SOL    HW130830   0.696   0.281   3.311 -0.8338 -1.3927  1.4638
 9977SOL    HW230831   0.805   0.264   3.431 -0.3082 -0.6250  1.1066
 9978SOL     OW30832   0.551   0.887   1.489 -0.0234  0.3078 -0.3707
 9978SOL    HW130833   0.650   0.882   1.470 -0.0150 -0.0564 -0.2304
 9978SOL    HW230834   0.513   0.795   1.494 -0.5404  0.4556 -1.2906
 9979SOL     OW30835   3.363   3.717   2.288 -0.0242 -0.5816 -0.4678
 9979SOL    HW130836   3.388   3.813   2.280  1.6145 -0.7153  1.9963
 9979SOL    HW230837   3.271   3.709   2.327  0.7504  0.0509  1.5690
 9980SOL     OW30838   0.731   0.040   4.231  0.8043 -0.3630 -0.3685
 9980SOL    HW130839   0.716  -0.059   4.230  2.5680 -0.7085  1.4450
 9980SOL    HW230840   0.672   0.082   4.300  1.4505 -0.4563  0.2581
 9981SOL     OW30841   6.429   1.799   1.227 -1.0137  0.0554 -0.7040
 9981SOL    HW130842   6.413   1.799   1.128  0.2912 -3.6112 -1.0890
 9981SOL    HW230843   6.354   1.846   1.273 -1.4639  2.2580 -3.3737
 9982SOL     OW30844   6.861   1.241   0.761  0.0477 -0.5355  0.1746
 9982SOL    HW130845   6.804   1.198   0.691  2.0449 -0.8402 -1.3505
 9982SOL    HW230846   6.814   1.321   0.798 -2.0013 -1.6649  0.1222
 9983SOL     OW30847   3.606   3.163   4.524  0.6525 -0.0078  0.3156
 9983SOL    HW130848   3.506   3.161   4.523  0.6468  0.2130  0.3869
 9983SOL    HW230849   3.641   3.071   4.545  0.5199 -0.5843 -1.7801
 9984SOL     OW30850   5.316   3.871   4.549 -0.5217  0.2029  0.0184
 9984SOL    HW130851   5.348   3.857   4.643  1.1620 -1.3573 -0.7191
 9984SOL    HW230852   5.349   3.796   4.492  1.5145  2.8491 -2.5381
 9985SOL     OW30853   0.120   2.144   0.836  0.0445 -0.1813 -0.1117
 9985SOL    HW130854   0.203   2.089   0.847 -0.8463 -1.5984 -0.2508
 9985SOL    HW230855   0.054   2.118   0.906 -0.4249  0.6844 -0.2227
 9986SOL     OW30856   0.446   6.512   2.556 -0.0576  0.4028 -0.4705
 9986SOL    HW130857   0.352   6.497   2.587 -0.5053  0.6191 -1.6796
 9986SOL    HW230858   0.481   6.597   2.596 -0.0786 -0.0703  0.6051
 9987SOL     OW30859   6.890   1.167   1.047 -0.1749 -0.5672 -0.0543
 9987SOL    HW130860   6.964   1.211   1.098 -1.2096 -0.4129  1.3740
 9987SOL    HW230861   6.911   1.169   0.949  2.0630 -1.2182  0.3473
 9988SOL     OW30862   0.454   5.211   2.445 -0.4131  1.0706  0.4583
 9988SOL    HW130863   0.451   5.261   2.359 -3.1775 -1.6212 -1.2411
 9988SOL    HW230864   0.365   5.216   2.490 -0.1489 -0.5901  1.2595
 9989SOL     OW30865   6.110   1.623   1.663 -0.1180  0.0440  0.3496
 9989SOL    HW130866   6.185   1.561   1.685 -0.4520 -0.7095 -0.5662
 9989SOL    HW230867   6.107   1.697   1.730  0.8483 -0.4335  0.9401
 9990SOL     OW30868   4.958   5.049   2.542 -0.6084  0.1564  0.2049
 9990SOL    HW130869   5.043   5.098   2.563 -0.4843  0.1222 -0.2256
 9990SOL    HW230870   4.929   4.999   2.624  1.5025 -2.4367 -0.4950
 9991SOL     OW30871   2.756   4.749   5.911  0.1962 -0.0281  0.0632
 9991SOL    HW130872   2.854   4.769   5.906  0.1449  0.3555  0.5604
 9991SOL    HW230873   2.704   4.833   5.898 -0.0224  0.2070  2.1169
 9992SOL     OW30874   0.120   6.590   4.666 -0.4931  0.3683  0.3609
 9992SOL    HW130875   0.060   6.554   4.737 -0.3270 -0.4718  0.0944
 9992SOL    HW230876   0.066   6.617   4.587 -0.4723 -1.3198 -0.2697
 9993SOL     OW30877   5.113   6.679   6.317  0.0730  0.3682 -0.7757
 9993SOL    HW130878   5.021   6.658   6.285  0.0611 -0.9202  0.0330
 9993SOL    HW230879   5.130   6.631   6.403  1.3011  1.0515 -0.6114
 9994SOL     OW30880   0.604   5.797   5.174  0.0974 -0.1600 -0.0175
 9994SOL    HW130881   0.575   5.704   5.197  1.2853 -0.3672  0.7179
 9994SOL    HW230882   0.551   5.862   5.229  1.1313 -0.5491  1.5183
 9995SOL     OW30883   5.445   0.188   1.832 -0.8518 -0.2403 -0.0723
 9995SOL    HW130884   5.410   0.095   1.842  0.9038 -0.9874 -0.5814
 9995SOL    HW230885   5.542   0.190   1.854 -0.9890  1.6298  0.5774
 9996SOL     OW30886   6.624   5.806   5.587 -0.0622  0.0745 -0.4562
 9996SOL    HW130887   6.592   5.846   5.672  2.3891 -1.4751  1.3134
 9996SOL    HW230888   6.720   5.781   5.595 -0.3817 -2.4429 -2.8017
 9997SOL     OW30889   1.434   3.841   7.006  0.1888 -0.1713  0.3487
 9997SOL    HW130890   1.412   3.892   7.089  2.4252 -0.3021  1.1101
 9997SOL    HW230891   1.435   3.743   7.026  1.5022 -0.1677  0.4254
 9998SOL     OW30892   0.636   5.836   3.937 -0.4327  0.2581 -0.1960
 9998SOL    HW130893   0.665   5.800   4.026  0.9140 -1.0460 -1.1336
 9998SOL    HW230894   0.614   5.933   3.947 -0.6305  0.0729  1.6219
 9999SOL     OW30895   1.675   0.690   0.149  0.1110 -0.1471  0.1567
 9999SOL    HW130896   1.675   0.778   0.102  0.4779 -0.4337 -0.3952
 9999SOL    HW230897   1.607   0.630   0.107 -0.9360  0.2337  1.2512
10000SOL     OW30898   5.668   2.378   3.857 -0.0533 -0.1837 -0.1391
10000SOL    HW130899   5.699   2.450   3.918  2.2806 -1.3343  0.1179
10000SOL    HW230900   5.568   2.369   3.864 -0.1725  1.6622  1.2532
10001SOL     OW30901   0.630   0.323   2.047  0.0959  0.0929  0.2785
10001SOL    HW130902   0.730   0.318   2.047  0.0362 -1.9804 -0.4204
10001SOL    HW230903   0.598   0.347   1.955 -0.0903 -2.1301 -0.2839
10002SOL     OW30904   1.413   4.321   1.093  0.4882 -0.0109 -0.0174
10002SOL    HW130905   1.428   4.225   1.071 -2.0347 -0.6731  0.8503
10002SOL    HW230906   1.398   4.373   1.009  3.8310  0.1153 -0.6735
10003SOL     OW30907   1.524   3.869   5.415 -0.0408  0.4353 -0.7669
10003SOL    HW130908   1.523   3.777   5.454  0.3802 -0.0211 -1.8091
10003SOL    HW230909   1.609   3.884   5.366  0.9779  2.2606  1.3733
10004SOL     OW30910   1.302   1.341   1.545  0.7570  0.1050  0.3452
10004SOL    HW130911   1.211   1.371   1.572 -0.2307 -1.8076 -0.6827
10004SOL    HW230912   1.321   1.251   1.584  2.3233  0.5460  0.6995
10005SOL     OW30913   0.508   5.532   5.171 -0.1175  0.2297  0.1268
10005SOL    HW130914   0.562   5.469   5.115  1.1282  1.0647  0.3450
10005SOL    HW230915   0.469   5.482   5.248  0.7267 -0.3101  0.2176
10006SOL     OW30916   2.559   3.980   6.537 -0.2619  0.0654  0.1103
10006SOL    HW130917   2.580   3.982   6.439  2.7391 -0.4656  0.6458
10006SOL    HW230918   2.462   3.961   6.550 -0.8126  0.4760 -2.7372
10007SOL     OW30919   3.889   0.629   4.351 -0.6619 -0.1639 -0.4390
10007SOL    HW130920   3.965   0.566   4.329 -2.2230 -1.8195 -1.3552
10007SOL    HW230921   3.848   0.601   4.437 -1.1879 -0.2433 -0.7140
10008SOL     OW30922   2.401   1.483   6.623 -0.4636 -0.2411 -0.1067
10008SOL    HW130923   2.495   1.510   6.606 -0.1263 -1.6017 -0.5100
10008SOL    HW230924   2.339   1.540   6.569  0.2413 -0.5351 -1.2436
10009SOL     OW30925   3.121   1.426   1.403  0.0138  0.1704  0.4258
10009SOL    HW130926   3.076   1.494   1.461 -0.6230  0.2395 -0.1398
10009SOL    HW230927   3.219   1.445   1.400  0.0094  0.3579  1.2164
10010SOL     OW30928   6.712   1.464   4.973  0.0460  0.7049  0.0445
10010SOL    HW130929   6.735   1.424   5.061 -1.5523 -0.5270 -0.0344
10010SOL    HW230930   6.688   1.560   4.985 -1.6304  0.1878  1.2626
10011SOL     OW30931   3.235   3.054   0.746  0.1841  0.5654  0.0127
10011SOL    HW130932   3.177   2.976   0.773  0.3844  0.5667  0.4459
10011SOL    HW230933   3.331   3.027   0.750  0.4457  1.6402  2.9185
10012SOL     OW30934   5.500   2.426   3.504  0.4088 -0.1297  0.1010
10012SOL    HW130935   5.433   2.402   3.433  0.5373  0.7343 -0.3233
10012SOL    HW230936   5.487   2.367   3.583  0.3889 -1.2573 -0.7065
10013SOL     OW30937   3.699   2.492   5.428  0.2488 -0.3068  0.3365
10013SOL    HW130938   3.614   2.440   5.416  0.4115 -1.0652  2.1501
10013SOL    HW230939   3.777   2.437   5.399  0.2163  0.0098 -0.3763
10014SOL     OW30940   5.463   6.922   3.573 -0.6162 -0.1054 -1.0258
10014SOL    HW130941   5.517   6.905   3.491 -1.1546 -2.2414 -1.0006
10014SOL    HW230942   5.372   6.953   3.547  0.3194  2.8519 -1.0826
10015SOL     OW30943   6.804   1.764   4.354 -0.2866 -0.5435 -0.6226
10015SOL    HW130944   6.901   1.744   4.344 -0.3483 -0.5792 -1.2132
10015SOL    HW230945   6.785   1.854   4.314 -0.1220  0.4325  1.4144
10016SOL     OW30946   1.263   4.749   0.772  1.0318  0.1255  0.4103
10016SOL    HW130947   1.274   4.772   0.869 -0.1809 -1.2629  0.9147
10016SOL    HW230948   1.342   4.697   0.741  1.3250  0.3931  0.6982
10017SOL     OW30949   3.415   0.925   0.519  0.6600  0.5973  0.1601
10017SOL    HW130950   3.321   0.925   0.485 -0.2999 -0.8718  2.5305
10017SOL    HW230951   3.477   0.891   0.448 -0.8168  0.2263 -0.9850
10018SOL     OW30952   6.801   1.352   0.431  0.4136  0.5444 -0.1493
10018SOL    HW130953   6.827   1.449   0.435  0.4095  0.4987  1.4424
10018SOL    HW230954   6.721   1.337   0.489  0.6275 -0.4874 -0.1072
10019SOL     OW30955   0.594   4.650   0.117 -0.1219 -0.4880 -0.0096
10019SOL    HW130956   0.520   4.706   0.079 -0.4278 -1.7174 -1.2967
10019SOL    HW230957   0.556   4.585   0.182  0.3089  1.1115  1.9474
10020SOL     OW30958   5.986   3.830   0.670  0.5306  0.5342 -0.2595
10020SOL    HW130959   5.915   3.897   0.650  0.2391  0.6382  1.0331
10020SOL    HW230960   5.987   3.760   0.599 -2.2470 -0.5858  0.6810
10021SOL     OW30961   5.616   2.789   3.771 -0.1517  0.2618  0.0798
10021SOL    HW130962   5.547   2.855   3.741  0.7141  1.1771  0.0594
10021SOL    HW230963   5.621   2.713   3.706 -1.8203 -0.3380  0.5865
10022SOL     OW30964   4.954   4.050   2.814  0.3135  0.3259  0.1420
10022SOL    HW130965   5.048   4.056   2.848  1.0538 -2.1442 -1.2477
10022SOL    HW230966   4.954   4.059   2.715 -0.8128 -0.4325  0.0623
10023SOL     OW30967   2.885   4.399   1.357  0.1000  0.0352  0.5035
10023SOL    HW130968   2.882   4.390   1.258 -0.2619 -2.0216  0.6548
10023SOL    HW230969   2.945   4.329   1.396 -1.4162 -0.6239  1.8280
10024SOL     OW30970   3.491   3.558   0.396 -0.2487  0.0226 -0.0329
10024SOL    HW130971   3.423   3.506   0.447 -2.3842  2.1133 -0.5299
10024SOL    HW230972   3.470   3.554   0.299 -2.5167  4.1361  0.0608
10025SOL     OW30973   1.893   3.454   4.428 -0.4882 -0.0111  0.5257
10025SOL    HW130974   1.848   3.365   4.428 -0.2367 -0.1522 -0.1881
10025SOL    HW230975   1.992   3.441   4.423 -0.4519  0.3049  0.3825
10026SOL     OW30976   3.620   4.538   0.405  0.5145  0.5243 -0.3681
10026SOL    HW130977   3.578   4.452   0.376  0.2130  0.0818  1.2690
10026SOL    HW230978   3.711   4.547   0.365  0.5948 -0.6267 -0.4575
10027SOL     OW30979   4.446   0.026   6.042  0.2160 -0.0740 -0.2901
10027SOL    HW130980   4.515   0.093   6.066 -1.8164  1.9545  0.2543
10027SOL    HW230981   4.425   0.033   5.944  0.2852 -0.1809 -0.3120
10028SOL     OW30982   6.423   3.190   3.474  0.3018  0.3243 -0.2437
10028SOL    HW130983   6.395   3.283   3.502 -0.6109 -0.4366  1.5616
10028SOL    HW230984   6.517   3.192   3.443  1.1530  1.5053  2.1263
10029SOL     OW30985   4.760   6.523   2.806  0.9535  0.3955  0.3575
10029SOL    HW130986   4.682   6.581   2.781  0.4418  1.1378  3.2328
10029SOL    HW230987   4.726   6.437   2.846  1.6500  0.0551  0.2328
10030SOL     OW30988   1.088   5.434   1.708  0.8873 -0.1163 -0.5005
10030SOL    HW130989   1.107   5.341   1.679  2.0708 -0.3985  1.0474
10030SOL    HW230990   0.990   5.444   1.725  0.5335 -0.6253 -2.0778
10031SOL     OW30991   6.199   3.874   4.761 -0.1394  0.6056 -0.8277
10031SOL    HW130992   6.137   3.806   4.721 -1.0093  0.4461  0.7180
10031SOL    HW230993   6.286   3.831   4.781 -0.7505 -0.1466  0.3206
10032SOL     OW30994   4.549   1.218   2.845 -0.3837 -0.3173 -0.6490
10032SOL    HW130995   4.465   1.212   2.793  0.4382  1.7580 -2.3775
10032SOL    HW230996   4.628   1.215   2.783  0.6672  1.2772  0.5100
10033SOL     OW30997   4.308   6.952   0.420  0.1623 -0.3577  0.1635
10033SOL    HW130998   4.384   7.017   0.411  0.4434 -0.5995  0.7363
10033SOL    HW230999   4.287   6.912   0.330  0.9113 -0.5135  0.0540
10034SOL     OW31000   6.326   2.576   3.376 -0.3196 -0.3429  0.4220
10034SOL    HW131001   6.350   2.667   3.342 -0.6001 -0.2476  0.4786
10034SOL    HW231002   6.275   2.584   3.461 -2.2486 -0.4545 -0.6781
10035SOL     OW31003   5.061   4.654   2.422 -0.3408  0.4846 -0.1749
10035SOL    HW131004   4.971   4.694   2.439  1.1946  2.7916  3.9579
10035SOL    HW231005   5.132   4.717   2.452  2.4836 -3.0510  1.4158
10036SOL     OW31006   1.979   6.407   1.209  0.5119  0.2668  0.3576
10036SOL    HW131007   2.035   6.332   1.244  0.6506 -1.0934 -2.5047
10036SOL    HW231008   1.928   6.376   1.129  0.6533  3.2457 -1.0205
10037SOL     OW31009   3.590   1.629   4.332 -0.5634  0.0486  0.3604
10037SOL    HW131010   3.596   1.701   4.402  1.3011 -0.6608  1.0021
10037SOL    HW231011   3.586   1.540   4.376  0.5541 -0.4076 -0.4126
10038SOL     OW31012   5.654   2.264   2.431 -0.3569  0.1431 -0.5510
10038SOL    HW131013   5.726   2.218   2.484  1.5446  0.5786 -2.6270
10038SOL    HW231014   5.612   2.199   2.369 -0.4916  0.3089 -0.6323
10039SOL     OW31015   2.575   0.558   6.062 -0.2562 -0.6374 -0.4415
10039SOL    HW131016   2.608   0.542   5.969 -2.3272 -2.0187 -1.0179
10039SOL    HW231017   2.488   0.607   6.059 -1.1355 -2.0344  0.6258
10040SOL     OW31018   0.685   3.289   0.904 -0.8537 -0.2001 -0.0139
10040SOL    HW131019   0.676   3.300   0.805 -1.0409  0.0522  0.0304
10040SOL    HW231020   0.677   3.378   0.949 -1.6096 -0.4122  0.2871
10041SOL     OW31021   2.413   1.188   2.310 -0.0504  0.5396 -0.2979
10041SOL    HW131022   2.325   1.213   2.351  0.3664  0.4397  0.7026
10041SOL    HW231023   2.413   1.090   2.289 -0.5459  0.7405 -1.2729
10042SOL     OW31024   4.380   4.267   5.652  0.2997  0.2765 -0.1898
10042SOL    HW131025   4.326   4.261   5.568  1.9419  0.8295 -1.3409
10042SOL    HW231026   4.405   4.175   5.682  2.0822  0.1139 -1.9728
10043SOL     OW31027   5.999   3.091   4.070  0.2193  0.2296 -0.2298
10043SOL    HW131028   6.036   3.028   4.002  2.2907  0.8148  0.2642
10043SOL    HW231029   5.905   3.115   4.047 -0.0134 -1.6131 -1.4071
10044SOL     OW31030   1.313   2.481   1.463  0.4266  0.5144 -0.0214
10044SOL    HW131031   1.257   2.504   1.383  0.7929  1.2661 -0.0740
10044SOL    HW231032   1.254   2.469   1.543  0.2013  1.7179  0.0187
10045SOL     OW31033   5.274   1.574   1.125 -0.1974 -0.3413  0.0997
10045SOL    HW131034   5.200   1.630   1.161 -0.2018 -0.9277  1.0493
10045SOL    HW231035   5.261   1.560   1.027 -0.3035  1.1198 -0.1075
10046SOL     OW31036   6.092   6.835   0.488 -0.2408  0.3521  0.2139
10046SOL    HW131037   6.134   6.745   0.497 -0.6838  0.2313  1.1965
10046SOL    HW231038   6.041   6.839   0.402 -0.7786 -0.5706  0.4747
10047SOL     OW31039   2.393   6.904   5.868 -0.0942 -0.1555 -0.1020
10047SOL    HW131040   2.306   6.900   5.918 -0.4758  0.2150 -0.7196
10047SOL    HW231041   2.414   6.814   5.831 -0.3828 -0.1710 -0.2307
10048SOL     OW31042   5.066   3.679   2.449 -0.1414  0.5318 -0.3930
10048SOL    HW131043   5.081   3.581   2.462 -1.2631  0.2635 -0.9790
10048SOL    HW231044   5.126   3.713   2.376 -0.7013 -0.0274 -1.1363
10049SOL     OW31045   4.634   0.078   4.963  0.4225 -0.1950  0.4101
10049SOL    HW131046   4.579   0.161   4.973 -1.2570 -1.3353  1.1448
10049SOL    HW231047   4.728   0.097   4.992  0.1454  1.4946  0.3263
10050SOL     OW31048   5.234   5.969   4.808 -0.6484 -0.3854  0.2485
10050SOL    HW131049   5.319   6.006   4.847 -0.5732 -0.9453  0.6291
10050SOL    HW231050   5.157   6.026   4.835 -0.6053 -0.7774  1.2772
10051SOL     OW31051   6.859   0.061   0.424  0.3330  0.2113 -0.3215
10051SOL    HW131052   6.866   0.153   0.463  1.6646 -0.0083  0.0050
10051SOL    HW231053   6.890  -0.006   0.491 -1.0532 -0.5388 -0.3948
10052SOL     OW31054   3.123   1.578   2.874 -0.2613 -0.3083  0.2055
10052SOL    HW131055   3.154   1.534   2.959 -1.3538  0.0671  0.8158
10052SOL    HW231056   3.048   1.526   2.835 -0.8652  0.4205  0.3671
10053SOL     OW31057   5.126   2.802   5.444 -0.0372 -0.0509  0.0934
10053SOL    HW131058   5.177   2.773   5.526  0.1427 -0.3034 -0.1075
10053SOL    HW231059   5.113   2.901   5.447  3.2402  0.5475 -1.3797
10054SOL     OW31060   6.715   1.034   2.598  0.1590  0.1416  0.1649
10054SOL    HW131061   6.617   1.047   2.611  0.4497  1.2925  1.5359
10054SOL    HW231062   6.758   1.016   2.687  1.0289 -1.7953 -0.5849
10055SOL     OW31063   1.392   4.450   6.966  0.1303  0.1539  0.0331
10055SOL    HW131064   1.379   4.497   7.054 -1.9444  1.5100 -0.9093
10055SOL    HW231065   1.477   4.482   6.924 -0.2834  1.6801  0.2932
10056SOL     OW31066   1.575   2.751   5.457 -0.2112  0.0366 -0.3221
10056SOL    HW131067   1.556   2.662   5.499  1.5932 -0.2649 -0.0787
10056SOL    HW231068   1.643   2.740   5.385  1.2572  1.4459  0.7986
10057SOL     OW31069   5.225   5.347   1.769 -0.2696  0.2303 -0.0737
10057SOL    HW131070   5.151   5.401   1.729 -0.4769  1.2155  1.5470
10057SOL    HW231071   5.190   5.257   1.795 -0.6753  0.3716 -0.1201
10058SOL     OW31072   0.368   4.428   3.369 -0.8508 -0.1318  0.4521
10058SOL    HW131073   0.386   4.341   3.415 -1.8430 -0.7472 -0.2817
10058SOL    HW231074   0.276   4.427   3.331 -0.8949  1.2721  0.4732
10059SOL     OW31075   4.026   5.580   6.106  0.7107  0.3206 -0.6552
10059SOL    HW131076   4.062   5.645   6.038 -1.9799 -1.1374 -3.7580
10059SOL    HW231077   4.063   5.489   6.089 -0.0005 -0.0747 -0.1552
10060SOL     OW31078   3.459   1.035   1.297  0.3187  0.4722 -0.8100
10060SOL    HW131079   3.493   1.077   1.382 -0.1608  0.1817 -0.4702
10060SOL    HW231080   3.452   1.104   1.226 -1.8989  1.3284  0.1545
10061SOL     OW31081   6.228   2.002   2.763  0.6223 -0.0509  0.2344
10061SOL    HW131082   6.242   2.079   2.701  0.9770  0.0847  0.4819
10061SOL    HW231083   6.276   1.921   2.728 -0.5989 -0.4589 -0.5736
10062SOL     OW31084   4.479   6.431   4.612 -0.1278 -0.7401  0.3057
10062SOL    HW131085   4.470   6.529   4.597 -1.7389 -0.7805  0.7356
10062SOL    HW231086   4.432   6.406   4.696 -2.4173 -2.2563 -1.2916
10063SOL     OW31087   1.530   0.423   1.827 -0.4274 -0.3233 -0.1444
10063SOL    HW131088   1.443   0.455   1.865 -0.0617 -0.0535  0.4969
10063SOL    HW231089   1.528   0.428   1.727 -1.3421 -0.8479 -0.1610
10064SOL     OW31090   0.895   2.383   5.625 -0.6800  0.0761 -0.4798
10064SOL    HW131091   0.992   2.372   5.605 -0.2049  0.7152  1.2753
10064SOL    HW231092   0.877   2.479   5.649 -1.7675 -0.0175 -0.8815
10065SOL     OW31093   4.438   2.049   5.195 -0.4557  0.3639  0.0590
10065SOL    HW131094   4.516   2.059   5.256 -0.5297  0.9019  0.0705
10065SOL    HW231095   4.367   2.115   5.220 -0.9399 -0.1523  0.0833
10066SOL     OW31096   4.134   6.959   6.963  0.5957  0.0322  0.0931
10066SOL    HW131097   4.071   7.034   6.986 -0.2662 -0.3012 -1.1013
10066SOL    HW231098   4.216   6.996   6.919  1.9442  0.6100  2.8637
10067SOL     OW31099   0.186   6.799   6.726  0.3670 -0.2472 -0.0166
10067SOL    HW131100   0.147   6.764   6.811  2.7009 -0.0051  1.2624
10067SOL    HW231101   0.279   6.763   6.715  0.4083  0.3657 -2.0790
10068SOL     OW31102   3.677   6.076   5.233  0.2728  0.0215  0.0234
10068SOL    HW131103   3.770   6.100   5.208  0.4392 -0.9434 -0.3192
10068SOL    HW231104   3.672   5.978   5.255 -0.4423  0.2787  1.0677
10069SOL     OW31105   4.302   0.667   2.941 -0.0745 -0.0969  0.3529
10069SOL    HW131106   4.215   0.716   2.943 -0.9795 -1.6465  1.0294
10069SOL    HW231107   4.321   0.629   3.032 -0.0378 -1.9718 -0.3839
10070SOL     OW31108   3.539   1.483   5.449 -0.4584 -0.6606 -0.6397
10070SOL    HW131109   3.439   1.488   5.453 -0.3846  0.1275  1.5049
10070SOL    HW231110   3.567   1.390   5.426 -1.7288 -2.0704  2.8410
10071SOL     OW31111   6.193   3.344   6.482  0.2444  0.0922  0.2680
10071SOL    HW131112   6.255   3.360   6.405  0.1933  0.7102  0.3458
10071SOL    HW231113   6.165   3.432   6.520  2.7287 -0.1458  3.0012
10072SOL     OW31114   4.726   4.399   2.753 -0.4002 -0.1036  0.4517
10072SOL    HW131115   4.698   4.483   2.798 -2.6730 -0.0873 -0.8859
10072SOL    HW231116   4.826   4.392   2.757 -0.1830  2.3222  1.1130
10073SOL     OW31117   3.755   3.939   1.875  0.3610 -0.3589  0.2453
10073SOL    HW131118   3.657   3.919   1.861 -0.1943  1.7153  0.8462
10073SOL    HW231119   3.774   3.941   1.973  0.8620 -0.0661  0.1400
10074SOL     OW31120   3.519   5.114   2.161 -0.3592 -0.5339  0.2416
10074SOL    HW131121   3.595   5.079   2.215 -0.6254  3.0578  3.3841
10074SOL    HW231122   3.553   5.153   2.076  0.8237 -1.7436  0.1323
10075SOL     OW31123   0.366   4.239   6.154 -1.0716 -0.2572 -0.2781
10075SOL    HW131124   0.300   4.275   6.220  0.6361 -0.5179  1.6657
10075SOL    HW231125   0.455   4.281   6.169 -0.3452 -1.2158 -1.6617
10076SOL     OW31126   6.884   1.284   2.612  0.3073 -0.5358 -0.6606
10076SOL    HW131127   6.799   1.240   2.584  0.2060 -1.0970  0.4796
10076SOL    HW231128   6.949   1.215   2.643  0.7445 -0.0182 -0.3968
10077SOL     OW31129   2.513   5.779   2.178  0.0024  0.5496 -0.2304
10077SOL    HW131130   2.549   5.871   2.165 -0.8218  0.7153 -1.4451
10077SOL    HW231131   2.589   5.714   2.182  0.6402  1.3281  1.3674
10078SOL     OW31132   2.071   3.252   2.658  0.0683  0.1059 -0.1913
10078SOL    HW131133   2.117   3.254   2.569 -1.1013  0.8382 -0.7985
10078SOL    HW231134   2.064   3.345   2.695 -2.2282  0.2493 -0.8351
10079SOL     OW31135   0.075   4.101   5.687  0.5535  0.1736  0.2899
10079SOL    HW131136   0.091   4.178   5.625  0.1842  1.1729  1.3988
10079SOL    HW231137   0.162   4.070   5.725  0.7210 -0.0884 -0.2881
10080SOL     OW31138   5.315   1.037   2.130 -0.0666 -0.1033 -0.3466
10080SOL    HW131139   5.405   1.023   2.091 -0.1992 -2.3689  0.0233
10080SOL    HW231140   5.324   1.079   2.221  0.6330 -0.6114 -0.1758
10081SOL     OW31141   5.585   2.933   4.536 -0.0670 -0.6441  0.0561
10081SOL    HW131142   5.511   2.909   4.473 -1.1730 -0.6866  1.3290
10081SOL    HW231143   5.673   2.910   4.494 -0.5968  1.3193 -2.3687
10082SOL     OW31144   6.805   1.474   2.424  0.2478  0.4108  0.1719
10082SOL    HW131145   6.857   1.438   2.501  0.8319  0.4650 -0.1892
10082SOL    HW231146   6.840   1.565   2.401  0.1035  0.3778 -0.1808
10083SOL     OW31147   5.692   3.221   5.123 -0.3765  0.0937  0.2269
10083SOL    HW131148   5.657   3.128   5.137  2.1996 -1.0142 -0.1396
10083SOL    HW231149   5.651   3.259   5.040 -0.9370 -0.9923 -0.0183
10084SOL     OW31150   6.634   5.798   6.762  0.3017  0.0247  0.0777
10084SOL    HW131151   6.638   5.699   6.748  1.4766 -0.0232  0.6367
10084SOL    HW231152   6.692   5.823   6.839 -0.3277  1.1095  0.2196
10085SOL     OW31153   6.398   0.228   5.127 -0.7958  0.6199 -0.4301
10085SOL    HW131154   6.494   0.205   5.112 -0.8888 -2.1853  2.2098
10085SOL    HW231155   6.349   0.227   5.040  1.0465 -0.6968 -1.5236
10086SOL     OW31156   5.189   4.843   0.807 -0.1319  0.3297 -0.0150
10086SOL    HW131157   5.168   4.864   0.903  0.8150  0.8156  0.0965
10086SOL    HW231158   5.201   4.928   0.756  0.1455  0.0646 -0.3945
10087SOL     OW31159   0.825   5.699   4.532  0.4875  0.1467 -0.1345
10087SOL    HW131160   0.789   5.642   4.459 -1.0941  1.6515 -0.6133
10087SOL    HW231161   0.749   5.739   4.584  1.5567 -1.0160  2.4942
10088SOL     OW31162   6.460   2.244   0.774 -0.0088  0.0209 -0.0215
10088SOL    HW131163   6.526   2.175   0.745  1.7087  1.5805 -0.0380
10088SOL    HW231164   6.389   2.253   0.704  0.1559 -1.1638 -0.3719
10089SOL     OW31165   1.717   2.810   3.649 -0.0455 -0.5582  0.0074
10089SOL    HW131166   1.758   2.730   3.605 -0.8422 -0.5249 -0.8231
10089SOL    HW231167   1.633   2.835   3.602 -0.6416 -0.1719  1.2212
10090SOL     OW31168   5.758   6.848   5.418  0.3381  0.2749 -0.1278
10090SOL    HW131169   5.715   6.893   5.340  1.2292  0.8373 -0.3141
10090SOL    HW231170   5.721   6.887   5.503 -0.8185 -0.5205 -0.2506
10091SOL     OW31171   2.546   4.975   3.562 -0.1903 -0.0359 -0.2912
10091SOL    HW131172   2.533   5.027   3.477  0.1373 -0.2647 -0.4825
10091SOL    HW231173   2.622   4.911   3.550 -0.8297 -0.8260 -0.1816
10092SOL     OW31174   4.081   0.181   2.131  1.4907 -0.4753  0.3414
10092SOL    HW131175   4.162   0.230   2.100  0.6402  1.0832  0.5130
10092SOL    HW231176   4.008   0.246   2.151 -1.0478 -1.9255 -3.1821
10093SOL     OW31177   7.001   4.250   4.145 -0.4048 -0.2949 -0.2758
10093SOL    HW131178   7.094   4.286   4.136  0.1956 -1.7892 -0.3679
10093SOL    HW231179   7.002   4.152   4.127 -1.4677 -0.9632  2.6729
10094SOL     OW31180   0.745   3.146   3.942 -0.0157 -0.2000 -0.5828
10094SOL    HW131181   0.823   3.158   3.880 -0.1197 -0.4369 -0.7631
10094SOL    HW231182   0.769   3.080   4.013  1.0454  2.0022  1.2360
10095SOL     OW31183   2.445   1.196   0.541  0.0748 -0.0227 -0.0786
10095SOL    HW131184   2.450   1.195   0.641  0.4881  2.1112 -0.0287
10095SOL    HW231185   2.403   1.281   0.511 -0.9962 -1.0815 -1.7277
10096SOL     OW31186   4.927   4.281   6.841 -0.2860 -0.4107 -0.5861
10096SOL    HW131187   5.022   4.308   6.861 -0.4469 -0.9951  1.1088
10096SOL    HW231188   4.904   4.308   6.747  0.3024  3.2702  0.1706
10097SOL     OW31189   5.731   0.940   3.360  0.1468 -0.1158 -0.2114
10097SOL    HW131190   5.729   1.025   3.306  0.5462  1.0369  1.5185
10097SOL    HW231191   5.680   0.953   3.445  1.3749 -1.1440  0.7266
10098SOL     OW31192   2.036   1.085   3.816 -0.3762 -0.3497  0.1799
10098SOL    HW131193   2.022   1.015   3.745  1.2453 -0.3980 -0.1301
10098SOL    HW231194   2.109   1.146   3.787 -1.3327  1.1031  0.7489
10099SOL     OW31195   1.711   0.227   0.423 -0.3544 -0.2874 -0.1059
10099SOL    HW131196   1.696   0.216   0.522 -2.0576 -0.5031 -0.3520
10099SOL    HW231197   1.708   0.324   0.400 -2.7700 -0.3376 -0.2786
10100SOL     OW31198   6.883   4.264   0.205 -0.5827  0.8885 -0.2321
10100SOL    HW131199   6.877   4.299   0.112  0.3479  1.1555 -0.1991
10100SOL    HW231200   6.801   4.289   0.256 -2.1571 -1.1481 -1.5892
10101SOL     OW31201   2.235   1.859   3.500 -0.2252  0.6188 -0.1490
10101SOL    HW131202   2.302   1.785   3.496  1.2266  1.7445  1.7249
10101SOL    HW231203   2.143   1.819   3.505  0.5507 -1.1418  1.8132
10102SOL     OW31204   2.461   6.462   1.939  0.1013  0.2391 -0.2034
10102SOL    HW131205   2.471   6.405   2.021  0.3149 -0.3877 -0.6620
10102SOL    HW231206   2.456   6.404   1.858  0.9328  0.8922 -0.7397
10103SOL     OW31207   0.775   3.986   0.542 -0.2086  0.1598  0.1482
10103SOL    HW131208   0.826   4.055   0.594  0.4303  1.5813 -2.1977
10103SOL    HW231209   0.830   3.955   0.465 -1.6399 -0.7633 -0.5417
10104SOL     OW31210   2.402   2.800   3.536  0.3225 -0.2904 -0.6529
10104SOL    HW131211   2.309   2.826   3.563  1.2265  1.8383  0.7396
10104SOL    HW231212   2.442   2.743   3.608 -0.1628 -2.0064 -1.6841
10105SOL     OW31213   5.431   6.686   1.261  0.0112  1.0824 -0.0700
10105SOL    HW131214   5.494   6.609   1.263  1.2488  2.0316 -0.6030
10105SOL    HW231215   5.383   6.693   1.348  0.6172  0.3082  0.3319
10106SOL     OW31216   6.484   6.534   5.567 -0.2979 -0.4746 -0.7156
10106SOL    HW131217   6.466   6.445   5.609  0.8252 -0.1674  0.4502
10106SOL    HW231218   6.552   6.523   5.494 -0.9160 -0.7195 -1.2660
10107SOL     OW31219   1.811   3.316   6.784  0.3629  0.4962  0.9610
10107SOL    HW131220   1.852   3.225   6.787 -0.0474  0.3385  2.3558
10107SOL    HW231221   1.824   3.362   6.872  2.8158  2.8270 -0.4856
10108SOL     OW31222   4.714   1.982   0.007 -0.2909 -0.5455 -0.0545
10108SOL    HW131223   4.723   1.992  -0.092  0.1277  0.3402  0.0655
10108SOL    HW231224   4.618   1.994   0.033 -0.2857  0.0054 -0.2758
10109SOL     OW31225   2.672   6.872   4.158  0.3812  0.8594 -0.7383
10109SOL    HW131226   2.710   6.956   4.195 -0.5545  1.4019 -0.9998
10109SOL    HW231227   2.706   6.794   4.211 -0.0975  1.5319  0.6026
10110SOL     OW31228   5.943   5.990   5.715  0.0960  0.0383 -0.5870
10110SOL    HW131229   6.039   6.000   5.688  0.3405 -1.4139 -0.3122
10110SOL    HW231230   5.885   6.010   5.636  0.6684 -0.4184 -1.1347
10111SOL     OW31231   5.811   2.162   2.119 -0.2069  0.0969 -0.1764
10111SOL    HW131232   5.764   2.188   2.035  1.0716 -0.6587 -1.1776
10111SOL    HW231233   5.746   2.123   2.183 -1.0106 -0.5903 -1.3703
10112SOL     OW31234   1.118   5.170   3.288  0.7460  0.2782  0.4306
10112SOL    HW131235   1.080   5.126   3.369 -1.9014 -1.5409 -1.6257
10112SOL    HW231236   1.208   5.131   3.268  0.5619 -0.6681  1.3895
10113SOL     OW31237   6.740   0.231   5.149 -0.6005 -0.5465 -0.2110
10113SOL    HW131238   6.790   0.146   5.167 -0.8704 -0.9416 -1.2454
10113SOL    HW231239   6.715   0.274   5.235  3.5430  0.9062  0.5111
10114SOL     OW31240   3.679   3.345   6.972  0.9284 -1.0309  0.0162
10114SOL    HW131241   3.728   3.323   6.888  1.1206  0.8949 -0.4245
10114SOL    HW231242   3.720   3.426   7.014  0.3753 -1.5314  1.6014
10115SOL     OW31243   2.464   1.336   0.801 -0.0654  0.0646 -0.3675
10115SOL    HW131244   2.367   1.341   0.776  0.0257  0.6967 -0.6106
10115SOL    HW231245   2.503   1.428   0.802  0.6374 -0.2219 -0.6980
10116SOL     OW31246   1.635   4.150   0.004  0.5036  0.2710 -0.2319
10116SOL    HW131247   1.612   4.093  -0.075  3.5417 -1.7957  0.1995
10116SOL    HW231248   1.666   4.239  -0.028 -0.6767  0.3847 -1.1582
10117SOL     OW31249   5.344   5.466   3.404  0.4676  0.2661 -0.0611
10117SOL    HW131250   5.313   5.379   3.442  0.2705  0.8440  1.1381
10117SOL    HW231251   5.265   5.518   3.371  0.5265  0.2325 -0.2555
10118SOL     OW31252   3.852   1.735   6.983  0.0032  0.6436  0.6040
10118SOL    HW131253   3.842   1.831   7.006 -0.0169  0.9959 -0.7951
10118SOL    HW231254   3.937   1.721   6.931 -0.7035  0.1646 -0.4623
10119SOL     OW31255   5.011   1.092   1.860 -0.2091 -0.5820 -0.5868
10119SOL    HW131256   5.093   1.143   1.833 -0.6839  1.9812  2.1676
10119SOL    HW231257   5.033   1.034   1.939 -0.5792 -1.6944 -1.2798
10120SOL     OW31258   3.278   2.490   0.059 -0.1960  0.5117 -0.3554
10120SOL    HW131259   3.181   2.518   0.060 -0.2550  0.3153  0.5513
10120SOL    HW231260   3.286   2.400   0.017 -0.5414  0.1070  0.4230
10121SOL     OW31261   4.462   6.845   6.730  0.3604 -0.0387 -0.2075
10121SOL    HW131262   4.404   6.766   6.748 -0.8820  1.0302  0.6834
10121SOL    HW231263   4.449   6.876   6.636  0.6802 -0.7495 -0.4875
10122SOL     OW31264   5.041   0.034   5.367 -0.2403  0.0611  0.1507
10122SOL    HW131265   5.113   0.092   5.405  0.7317 -1.2160  0.2962
10122SOL    HW231266   4.954   0.057   5.411 -0.0675  2.0253 -0.4398
10123SOL     OW31267   2.467   5.601   4.614  0.2842  0.6836 -0.6605
10123SOL    HW131268   2.555   5.598   4.567  1.4693 -0.3668  1.4497
10123SOL    HW231269   2.470   5.672   4.685 -1.2214  1.8190 -1.6840
10124SOL     OW31270   1.133   6.799   3.086 -0.3185  0.8608  0.0866
10124SOL    HW131271   1.110   6.856   3.165 -0.1161  0.2687  0.5813
10124SOL    HW231272   1.226   6.763   3.096 -0.7475 -0.2604  0.2262
10125SOL     OW31273   2.220   1.455   0.217  0.4056  0.1094  0.2401
10125SOL    HW131274   2.186   1.537   0.172  2.5224  1.0346  0.2101
10125SOL    HW231275   2.243   1.386   0.147  1.4955  0.6716  0.0201
10126SOL     OW31276   6.091   3.981   0.145  0.2069  0.9522  0.6803
10126SOL    HW131277   6.090   4.064   0.089 -2.2128  1.3876  1.2480
10126SOL    HW231278   5.998   3.961   0.175  1.0640 -0.7678  2.3555
10127SOL     OW31279   5.538   1.649   2.543  0.2117  0.3772  0.1648
10127SOL    HW131280   5.610   1.704   2.501  0.8218 -1.5053 -1.3796
10127SOL    HW231281   5.522   1.567   2.488 -2.6658  0.3850  0.8052
10128SOL     OW31282   0.512   6.727   5.178  0.4725 -0.3452  0.0408
10128SOL    HW131283   0.588   6.777   5.220  0.6630 -0.7288  0.1510
10128SOL    HW231284   0.436   6.722   5.242  0.5312 -0.3839  0.1068
10129SOL     OW31285   1.835   0.821   4.643 -0.0628  0.4854  0.1389
10129SOL    HW131286   1.757   0.867   4.686 -0.1083  0.4719  0.0720
10129SOL    HW231287   1.920   0.864   4.672  0.0097 -0.4864  1.4394
10130SOL     OW31288   4.182   6.246   2.276  0.3766  0.4036 -0.2285
10130SOL    HW131289   4.152   6.156   2.307  0.7593  0.4098  0.1668
10130SOL    HW231290   4.133   6.271   2.192 -0.2220  0.1237  0.0358
10131SOL     OW31291   3.189   1.743   4.703  0.5906 -0.0643  0.0614
10131SOL    HW131292   3.218   1.705   4.615 -0.3148 -2.4241  0.6816
10131SOL    HW231293   3.241   1.826   4.723  2.3937 -0.7026 -1.6640
10132SOL     OW31294   3.796   0.824   6.056  0.1540  0.2297  0.3463
10132SOL    HW131295   3.708   0.816   6.010  0.7319 -1.2807 -0.5691
10132SOL    HW231296   3.785   0.875   6.141 -1.6104 -0.0176  0.2929
10133SOL     OW31297   2.950   3.580   5.158 -0.6306  0.4371  0.6495
10133SOL    HW131298   3.025   3.531   5.203 -0.9119 -0.9302 -0.3268
10133SOL    HW231299   2.865   3.561   5.207 -0.8054 -0.3963  0.0346
10134SOL     OW31300   4.575   4.210   0.072 -0.1238 -0.0909 -0.2364
10134SOL    HW131301   4.660   4.182   0.116 -1.2723  0.6423  2.7397
10134SOL    HW231302   4.538   4.134   0.019  1.6457 -0.8795 -0.3982
10135SOL     OW31303   1.867   0.347   3.037  0.1785 -0.1436  0.7198
10135SOL    HW131304   1.935   0.390   2.978 -1.7307 -0.0304 -1.5612
10135SOL    HW231305   1.816   0.278   2.986 -3.4517  1.8660  1.2592
10136SOL     OW31306   4.613   5.744   0.451 -0.2664 -0.1700  0.0529
10136SOL    HW131307   4.522   5.785   0.442 -0.4297 -0.9591 -3.0263
10136SOL    HW231308   4.645   5.753   0.545 -2.8105  1.6049  0.8414
10137SOL     OW31309   0.099   1.856   6.493  0.6073 -0.1193 -0.2128
10137SOL    HW131310   0.087   1.947   6.454  0.0515 -0.8818 -1.9041
10137SOL    HW231311   0.131   1.793   6.422 -1.1471 -1.7354  0.3372
10138SOL     OW31312   6.143   0.018   0.258 -0.0682 -0.6512 -0.2160
10138SOL    HW131313   6.105  -0.007   0.168  0.6661 -0.5028 -0.5755
10138SOL    HW231314   6.187  -0.062   0.298  0.6194 -0.4245 -0.5128
10139SOL     OW31315   6.838   5.884   0.715 -0.3613  0.2296  0.4243
10139SOL    HW131316   6.761   5.839   0.761  0.1776 -0.3442  0.7891
10139SOL    HW231317   6.823   5.983   0.714 -1.2622  0.0971  0.1856
10140SOL     OW31318   2.769   5.608   3.639  0.3176  0.1068  0.3012
10140SOL    HW131319   2.684   5.561   3.615  0.6629 -0.1836 -0.3748
10140SOL    HW231320   2.836   5.542   3.674  0.4392  0.2530  0.3470
10141SOL     OW31321   3.182   2.901   6.562 -0.2450  0.7771 -0.4501
10141SOL    HW131322   3.275   2.927   6.586 -0.3002  0.7517 -0.2122
10141SOL    HW231323   3.125   2.983   6.551 -0.0329  0.8278 -1.2641
10142SOL     OW31324   1.746   5.376   1.360  0.0865 -0.3646  0.3527
10142SOL    HW131325   1.763   5.473   1.341  0.2466 -0.3603  0.5191
10142SOL    HW231326   1.817   5.321   1.316 -0.0655 -0.4128  0.1687
10143SOL     OW31327   5.977   4.075   2.283 -0.1637  0.0421 -0.0462
10143SOL    HW131328   5.920   4.026   2.349 -0.3522 -0.5013 -0.6008
10143SOL    HW231329   5.926   4.089   2.198  0.5410 -0.5123 -0.5783
10144SOL     OW31330   5.788   6.649   4.386 -0.2832  0.4286 -0.0508
10144SOL    HW131331   5.807   6.670   4.482 -0.3462  1.3339 -0.2286
10144SOL    HW231332   5.783   6.734   4.334 -2.2985  0.0924 -0.4925
10145SOL     OW31333   2.524   1.739   4.973 -0.7125 -0.2917  0.2648
10145SOL    HW131334   2.428   1.719   4.988 -0.5864 -0.9608  0.2162
10145SOL    HW231335   2.576   1.654   4.970 -0.1030  0.0666  0.3980
10146SOL     OW31336   2.352   0.898   6.630  0.2968  0.5059 -1.2357
10146SOL    HW131337   2.341   0.808   6.587  0.1965 -0.0538 -0.0597
10146SOL    HW231338   2.264   0.927   6.669  0.6689  0.4411 -0.3292
10147SOL     OW31339   4.373   4.962   0.557  0.2209  0.2815  0.6367
10147SOL    HW131340   4.378   4.862   0.557  1.5451  0.3337  1.0370
10147SOL    HW231341   4.297   4.991   0.499 -0.0778 -0.9486  0.3775
10148SOL     OW31342   3.628   0.677   5.699 -0.5802  0.4923 -0.1599
10148SOL    HW131343   3.581   0.638   5.620  1.2525 -0.4440 -0.8455
10148SOL    HW231344   3.718   0.711   5.671  1.1846 -2.1132  1.9143
10149SOL     OW31345   6.088   1.271   5.986  0.8619 -0.5524  0.2579
10149SOL    HW131346   6.089   1.202   6.057  0.9584 -1.0648 -0.2350
10149SOL    HW231347   6.033   1.239   5.908 -0.2143  0.4676  0.5569
10150SOL     OW31348   1.561   5.454   6.102 -0.1575 -0.8387 -0.0322
10150SOL    HW131349   1.508   5.527   6.145  0.2051  0.1659 -1.2178
10150SOL    HW231350   1.633   5.424   6.164 -2.8699 -3.2419  2.2076
10151SOL     OW31351   5.734   2.104   1.129  0.0462  0.1626  0.1800
10151SOL    HW131352   5.819   2.094   1.180  0.1821  0.4738  0.0176
10151SOL    HW231353   5.657   2.105   1.193  0.2239  0.6553  0.3919
10152SOL     OW31354   6.318   5.475   6.224  0.2431  0.1409 -0.4249
10152SOL    HW131355   6.335   5.380   6.198  0.4726  0.0432  0.0686
10152SOL    HW231356   6.369   5.535   6.163  1.1124 -0.0993  0.0388
10153SOL     OW31357   5.799   1.157   2.582  0.4329 -0.0359  0.3249
10153SOL    HW131358   5.858   1.080   2.558  0.8756  0.9515 -2.0182
10153SOL    HW231359   5.715   1.124   2.624  1.7709 -1.5878  1.9440
10154SOL     OW31360   4.862   5.891   4.556  0.7051  0.2596 -0.4192
10154SOL    HW131361   4.842   5.972   4.501  1.5205  0.2934 -0.6807
10154SOL    HW231362   4.848   5.809   4.502 -0.1443  0.2179 -0.1468
10155SOL     OW31363   1.727   2.210   4.098 -0.2987 -0.1301  0.7980
10155SOL    HW131364   1.820   2.173   4.096 -0.2178  0.0845  0.3273
10155SOL    HW231365   1.692   2.219   4.005  0.0288  1.8005  0.8029
10156SOL     OW31366   5.804   5.250   4.943  0.7483  0.4507  0.3572
10156SOL    HW131367   5.741   5.284   4.873  0.7923 -1.5967 -0.7599
10156SOL    HW231368   5.758   5.249   5.031 -0.2865  0.4397 -0.1630
10157SOL     OW31369   0.742   5.056   4.952 -0.3847  0.3731 -0.5139
10157SOL    HW131370   0.672   5.020   5.014 -0.5575  1.1017 -0.2870
10157SOL    HW231371   0.784   4.979   4.903  1.5018 -0.5420  2.2648
10158SOL     OW31372   3.536   4.132   1.883  0.0254  0.2404  0.2110
10158SOL    HW131373   3.547   4.091   1.793  0.7658  0.9403 -0.0365
10158SOL    HW231374   3.503   4.226   1.873  0.4580  0.4437  0.6422
10159SOL     OW31375   4.355   2.393   5.710 -0.0177 -0.1063  0.0994
10159SOL    HW131376   4.410   2.475   5.695 -2.0311  1.2787 -0.1342
10159SOL    HW231377   4.400   2.315   5.667  1.8543  0.8783  0.1297
10160SOL     OW31378   6.628   6.603   1.193  0.0173 -0.3412 -1.2833
10160SOL    HW131379   6.604   6.631   1.101  2.0041  0.1483 -1.7036
10160SOL    HW231380   6.592   6.512   1.211 -3.0264  0.7373 -1.3809
10161SOL     OW31381   0.420   1.194   3.214 -0.2601 -0.7433 -0.4123
10161SOL    HW131382   0.426   1.199   3.314 -0.6003 -0.0459 -0.4192
10161SOL    HW231383   0.351   1.259   3.182 -1.2396 -2.0260 -0.9925
10162SOL     OW31384   3.512   3.649   2.891  0.5037  0.7001 -0.4238
10162SOL    HW131385   3.565   3.571   2.925 -1.0664 -0.2468 -0.0399
10162SOL    HW231386   3.559   3.690   2.813  2.7240  1.1074  1.0416
10163SOL     OW31387   6.776   6.026   5.043 -0.0440  0.0195  0.1523
10163SOL    HW131388   6.722   5.955   5.090 -0.7303 -0.1486 -0.8461
10163SOL    HW231389   6.868   5.992   5.026 -0.9195 -1.4656 -2.0732
10164SOL     OW31390   1.736   2.204   6.247  0.0377  0.1997 -0.4149
10164SOL    HW131391   1.806   2.252   6.300  1.6415  0.9125 -2.9779
10164SOL    HW231392   1.654   2.261   6.241  1.1031  1.7058 -1.5195
10165SOL     OW31393   0.444   0.152   0.904 -0.2363 -0.4797 -0.7013
10165SOL    HW131394   0.486   0.068   0.939 -1.6485 -0.8434  0.1944
10165SOL    HW231395   0.367   0.127   0.845 -1.5264  0.1570  0.6499
10166SOL     OW31396   4.067   2.143   2.280  0.1176 -0.5537 -0.3006
10166SOL    HW131397   4.128   2.191   2.217  0.9821 -3.0900 -1.5141
10166SOL    HW231398   3.973   2.147   2.246 -0.3275  2.3008  0.9363
10167SOL     OW31399   4.555   6.775   4.620  0.5049  0.1577  0.3553
10167SOL    HW131400   4.644   6.765   4.574 -0.0684  0.0179 -0.7499
10167SOL    HW231401   4.482   6.748   4.557 -0.4081  1.4333  0.8271
10168SOL     OW31402   6.140   6.876   5.239 -0.6725  0.1199  0.3579
10168SOL    HW131403   6.237   6.863   5.216 -0.8108 -2.2557  0.8110
10168SOL    HW231404   6.083   6.831   5.170 -1.3288 -0.9590  1.5694
10169SOL     OW31405   6.615   0.327   4.241  0.4812  0.4772  0.9160
10169SOL    HW131406   6.612   0.386   4.322  1.3587  0.8931  0.6511
10169SOL    HW231407   6.601   0.232   4.268 -1.2360  0.8090  1.3210
10170SOL     OW31408   6.521   1.733   1.563  0.2923  0.2373 -0.2476
10170SOL    HW131409   6.602   1.787   1.586  0.6815  0.7510 -2.5639
10170SOL    HW231410   6.512   1.658   1.629  0.9453  1.8494  1.7856
10171SOL     OW31411   2.973   5.168   3.051  0.1573 -0.4409 -0.5975
10171SOL    HW131412   2.879   5.145   3.076  0.2665 -1.5241 -1.1021
10171SOL    HW231413   2.985   5.157   2.952  0.8423 -0.4206 -0.5225
10172SOL     OW31414   4.965   2.014   5.348  0.3121 -0.5911  0.0523
10172SOL    HW131415   4.907   2.089   5.315 -0.4697 -1.4450 -0.5488
10172SOL    HW231416   4.981   1.949   5.274  2.1609 -0.3194  0.1732
10173SOL     OW31417   4.755   4.386   6.082  0.2344 -0.1422 -0.4660
10173SOL    HW131418   4.771   4.444   6.002  0.3586  1.0066  0.3683
10173SOL    HW231419   4.719   4.297   6.052  0.9513 -0.0037 -1.8397
10174SOL     OW31420   6.514   0.651   6.526  0.2022 -0.1277 -0.9441
10174SOL    HW131421   6.434   0.591   6.517 -0.6554  0.8813 -0.1785
10174SOL    HW231422   6.557   0.662   6.436  0.0263 -1.3977 -1.2039
10175SOL     OW31423   6.210   0.041   1.109 -0.4162 -0.2130  0.4256
10175SOL    HW131424   6.212   0.134   1.146 -0.3346 -0.1661  0.3021
10175SOL    HW231425   6.130   0.030   1.050  0.0084  0.0182 -0.1921
10176SOL     OW31426   6.621   3.972   0.194  1.2353  0.1329  0.1731
10176SOL    HW131427   6.598   4.042   0.262  2.8619  1.3820 -0.4806
10176SOL    HW231428   6.717   3.946   0.206  0.3404 -3.0619  1.2786
10177SOL     OW31429   0.040   0.657   1.589  0.5570 -0.2514 -0.1943
10177SOL    HW131430   0.050   0.681   1.493 -1.1110  2.0772  0.1466
10177SOL    HW231431   0.051   0.558   1.599  0.6972 -0.5746 -2.7622
10178SOL     OW31432   3.397   5.692   2.047 -0.0819 -0.2280  0.2526
10178SOL    HW131433   3.322   5.646   2.001  0.6344  0.2447 -1.4683
10178SOL    HW231434   3.420   5.776   1.998  3.7040 -1.9694 -1.3481
10179SOL     OW31435   2.905   3.648   6.023 -0.1978 -0.4223  0.4986
10179SOL    HW131436   2.974   3.644   6.095 -0.0094 -1.7231  0.2699
10179SOL    HW231437   2.864   3.557   6.011  0.6939 -0.5602 -1.9359
10180SOL     OW31438   4.073   1.421   6.922 -0.2260 -0.1445 -0.1803
10180SOL    HW131439   4.109   1.337   6.881 -2.3493 -0.2808 -1.9465
10180SOL    HW231440   3.993   1.398   6.978  0.6808  0.4500  1.4210
10181SOL     OW31441   5.916   3.250   6.866 -1.0868  1.0096  0.0320
10181SOL    HW131442   6.002   3.260   6.916  0.6875 -0.1769 -2.5596
10181SOL    HW231443   5.861   3.333   6.876  0.8113  2.2175  0.9584
10182SOL     OW31444   2.757   0.458   3.698 -0.1784 -0.3303  1.0601
10182SOL    HW131445   2.690   0.385   3.689 -2.3896  1.5639  1.0000
10182SOL    HW231446   2.804   0.450   3.786 -1.8732 -0.6881  1.9714
10183SOL     OW31447   1.971   6.837   4.507 -0.9290  0.3393  0.2376
10183SOL    HW131448   1.985   6.917   4.566  0.4799  0.3247 -0.0433
10183SOL    HW231449   1.985   6.863   4.411  0.8990 -0.4976  0.2377
10184SOL     OW31450   1.616   5.236   3.720 -0.0347  0.3630 -0.0434
10184SOL    HW131451   1.703   5.261   3.678  1.0621 -0.9521  1.3316
10184SOL    HW231452   1.582   5.313   3.774  0.4708  0.7566 -0.2697
10185SOL     OW31453   0.721   4.783   0.332 -0.1171  0.0434 -0.4221
10185SOL    HW131454   0.785   4.855   0.306 -1.1759  0.9859 -0.4773
10185SOL    HW231455   0.696   4.730   0.251  0.3369 -0.1234 -0.4558
10186SOL     OW31456   2.559   4.835   1.392 -0.0537 -0.7867  0.3343
10186SOL    HW131457   2.589   4.923   1.354  1.1745 -0.7139  1.4117
10186SOL    HW231458   2.534   4.774   1.317  3.4198 -1.0705 -0.7959
10187SOL     OW31459   0.646   6.036   5.553  0.1199  0.9280  0.0868
10187SOL    HW131460   0.687   6.110   5.607 -0.1924 -0.1475  1.8499
10187SOL    HW231461   0.710   5.960   5.548  0.0515  0.9248 -0.8972
10188SOL     OW31462   6.683   2.874   3.418 -0.0684  0.2389 -0.0571
10188SOL    HW131463   6.659   2.832   3.331  0.7862 -0.1199 -0.1309
10188SOL    HW231464   6.605   2.868   3.481 -1.0779  1.4713 -1.1296
10189SOL     OW31465   6.052   5.221   6.131  0.0679  0.1438 -0.3128
10189SOL    HW131466   6.064   5.126   6.160 -0.0548 -0.5500 -2.3973
10189SOL    HW231467   6.108   5.280   6.190  0.6885 -1.2699  0.5930
10190SOL     OW31468   3.502   4.472   6.895  0.1310  0.1633  0.0416
10190SOL    HW131469   3.459   4.422   6.819 -0.4815 -1.4207  1.3701
10190SOL    HW231470   3.535   4.407   6.963 -2.7280  1.4706  2.9703
10191SOL     OW31471   5.323   3.393   4.015  0.1461  1.4245  0.2134
10191SOL    HW131472   5.238   3.350   3.985  0.2161  0.7091  0.9871
10191SOL    HW231473   5.309   3.434   4.105  0.7859  0.7124  0.6534
10192SOL     OW31474   4.879   4.621   1.035  0.4406 -0.2201 -0.0508
10192SOL    HW131475   4.780   4.610   1.036  0.4283 -0.4654  2.1324
10192SOL    HW231476   4.908   4.665   1.120  2.2473 -0.5535 -0.4548
10193SOL     OW31477   0.216   5.893   1.106  0.0306 -0.3069  0.4739
10193SOL    HW131478   0.190   5.803   1.071  1.2207 -0.5043  0.0402
10193SOL    HW231479   0.153   5.962   1.070  0.3798 -0.6954 -0.9659
10194SOL     OW31480   3.685   3.925   6.612  0.0782 -0.5408  0.6457
10194SOL    HW131481   3.686   4.000   6.546 -2.2371  1.1878  2.3959
10194SOL    HW231482   3.775   3.918   6.656  0.2719  1.4458  0.6380
10195SOL     OW31483   4.208   4.758   0.821 -0.1541 -0.2376 -0.2143
10195SOL    HW131484   4.219   4.659   0.821  2.1383 -0.0738 -1.5794
10195SOL    HW231485   4.286   4.800   0.867 -1.2775  0.9530  0.6777
10196SOL     OW31486   6.422   0.016   5.504 -0.1451  0.1921  0.0313
10196SOL    HW131487   6.353   0.072   5.458  0.0965 -0.8021 -1.6532
10196SOL    HW231488   6.397  -0.080   5.496  0.5647 -0.0696  0.9183
10197SOL     OW31489   2.583   1.756   1.835  0.5345 -0.3382 -0.3287
10197SOL    HW131490   2.552   1.766   1.930 -0.6179 -2.4623 -0.4138
10197SOL    HW231491   2.621   1.664   1.822 -1.0368 -0.7699 -2.3452
10198SOL     OW31492   3.506   0.960   4.898  0.4768 -0.1373 -0.6216
10198SOL    HW131493   3.508   0.934   4.994 -0.6522  2.2075  0.1023
10198SOL    HW231494   3.473   0.882   4.843  0.3810 -1.2486  0.9445
10199SOL     OW31495   0.000   4.668   6.869 -0.0315  0.0825 -0.1508
10199SOL    HW131496  -0.041   4.752   6.833 -2.0771 -0.5041  0.6661
10199SOL    HW231497   0.063   4.691   6.944 -1.0445  0.8631  0.4828
10200SOL     OW31498   4.352   3.767   6.837 -0.1462 -0.0358 -0.5884
10200SOL    HW131499   4.435   3.720   6.867  1.0016  1.2423 -1.6392
10200SOL    HW231500   4.336   3.747   6.740 -1.9248 -1.4312 -0.0647
10201SOL     OW31501   1.597   4.842   3.426 -0.1743 -0.3511 -0.2662
10201SOL    HW131502   1.669   4.907   3.451 -0.5759 -0.6764  1.9209
10201SOL    HW231503   1.511   4.868   3.468  0.0643 -3.2439  2.3634
10202SOL     OW31504   4.600   5.359   6.370  0.4935  0.2841  0.0216
10202SOL    HW131505   4.666   5.350   6.444 -0.4463  2.6670  1.2883
10202SOL    HW231506   4.509   5.378   6.408 -1.3910 -4.1333 -1.5681
10203SOL     OW31507   6.610   1.341   1.589  0.1199 -0.3837 -0.1093
10203SOL    HW131508   6.540   1.353   1.519 -0.5856 -1.6637  0.3528
10203SOL    HW231509   6.671   1.266   1.564  0.7953  0.1356 -0.0689
10204SOL     OW31510   0.552   3.294   2.003 -0.0967 -0.4883 -0.1843
10204SOL    HW131511   0.477   3.244   1.960  1.0049 -1.4169 -1.0724
10204SOL    HW231512   0.637   3.278   1.953  0.8103  0.1592  1.0745
10205SOL     OW31513   0.799   1.159   2.465  0.1066  0.1058 -0.0113
10205SOL    HW131514   0.777   1.152   2.368 -2.8330 -0.8259  0.6050
10205SOL    HW231515   0.804   1.068   2.505 -1.0157  0.5080  1.1134
10206SOL     OW31516   5.094   0.258   4.407 -0.2846 -0.5337  0.2498
10206SOL    HW131517   5.175   0.278   4.463 -2.1627  0.2182  2.8933
10206SOL    HW231518   5.105   0.169   4.363  1.5626 -0.8897  1.3234
10207SOL     OW31519   5.591   0.247   0.241 -0.5056  0.5600 -0.2566
10207SOL    HW131520   5.611   0.331   0.190  1.0486  2.5475  3.2861
10207SOL    HW231521   5.676   0.203   0.267 -1.2050 -0.0499  1.0835
10208SOL     OW31522   6.889   5.013   4.586 -0.3832 -0.0558  0.0883
10208SOL    HW131523   6.872   4.922   4.623 -3.4443 -0.5787 -2.2887
10208SOL    HW231524   6.832   5.080   4.635 -1.2197 -0.0814 -0.8384
10209SOL     OW31525   1.597   0.525   3.976 -0.3839  0.1086  0.1930
10209SOL    HW131526   1.630   0.439   4.013 -0.7822  1.1794  3.3364
10209SOL    HW231527   1.497   0.524   3.971 -0.4005  0.4220  0.3935
10210SOL     OW31528   5.940   3.136   1.405  0.5227  0.0820 -0.3043
10210SOL    HW131529   5.851   3.136   1.358  0.7418 -0.6888 -0.7334
10210SOL    HW231530   5.929   3.174   1.497  0.0430  1.3867 -0.8817
10211SOL     OW31531   5.613   6.875   2.817  0.1441 -0.3239  0.6733
10211SOL    HW131532   5.599   6.972   2.837  1.5456 -0.3185  1.7363
10211SOL    HW231533   5.646   6.828   2.899  1.8340 -1.2194 -0.4624
10212SOL     OW31534   4.725   3.572   0.163  0.4037 -0.1038  0.2853
10212SOL    HW131535   4.685   3.609   0.248  1.2237 -1.6287  1.3792
10212SOL    HW231536   4.767   3.646   0.111 -3.5921  1.6419 -0.9047
10213SOL     OW31537   0.322   4.809   4.452  0.0961 -0.4437 -0.0702
10213SOL    HW131538   0.246   4.784   4.391  0.4247 -1.6070 -0.0159
10213SOL    HW231539   0.373   4.727   4.477  2.6421  0.5314 -1.7372
10214SOL     OW31540   0.738   6.096   2.889  0.1122 -0.7043 -0.1834
10214SOL    HW131541   0.799   6.173   2.910  0.7261 -0.8947 -1.2187
10214SOL    HW231542   0.708   6.053   2.975 -0.7582  1.0667  0.4489
10215SOL     OW31543   5.742   5.287   0.359  0.3495 -0.1156 -0.0364
10215SOL    HW131544   5.766   5.197   0.397  2.0564 -1.0656 -3.0539
10215SOL    HW231545   5.817   5.351   0.376  0.2085  0.0438 -0.0200
10216SOL     OW31546   0.094   3.867   5.523  0.3651  0.1315 -0.1263
10216SOL    HW131547   0.089   3.850   5.622  1.6677 -0.4738 -0.1335
10216SOL    HW231548   0.104   3.965   5.506 -0.2953  0.2768  0.3218
10217SOL     OW31549   3.905   4.869   2.502 -0.0095 -0.2556 -0.6935
10217SOL    HW131550   3.895   4.858   2.600 -0.4302 -0.0110 -0.7077
10217SOL    HW231551   3.994   4.834   2.473  0.1875 -0.1636 -0.2005
10218SOL     OW31552   1.603   1.299   4.040  0.2140  0.5050  0.2307
10218SOL    HW131553   1.562   1.249   3.964 -1.2408 -1.8868  2.4287
10218SOL    HW231554   1.698   1.271   4.052  0.0453 -0.1458  0.0976
10219SOL     OW31555   1.768   1.499   4.235  0.1023  0.0005 -0.3638
10219SOL    HW131556   1.698   1.515   4.166  0.1274 -0.5062 -0.5164
10219SOL    HW231557   1.822   1.582   4.249  0.3322 -0.0003 -1.2222
10220SOL     OW31558   5.521   3.976   0.718 -0.2435  0.7802  0.2869
10220SOL    HW131559   5.538   3.951   0.813  0.6468  1.6592  0.3733
10220SOL    HW231560   5.551   4.070   0.702 -1.4549  1.0431 -0.5800
10221SOL     OW31561   4.653   2.269   3.779  0.4908 -0.1001  0.2373
10221SOL    HW131562   4.595   2.267   3.698  0.5501  0.8425  0.1609
10221SOL    HW231563   4.682   2.363   3.798 -0.5208 -0.0968  2.0507
10222SOL     OW31564   5.020   3.779   5.330 -0.4519 -0.0642  0.0537
10222SOL    HW131565   4.976   3.863   5.300 -2.6423 -0.3474  2.1866
10222SOL    HW231566   4.953   3.705   5.334  0.1624 -0.6033  3.1031
10223SOL     OW31567   4.806   2.274   4.678 -0.4346  0.0268 -0.5022
10223SOL    HW131568   4.860   2.338   4.733 -2.0903  1.8957 -0.9372
10223SOL    HW231569   4.709   2.290   4.695 -0.9622 -0.4354 -2.7780
10224SOL     OW31570   2.393   2.340   4.393 -0.0035  0.3856  0.0071
10224SOL    HW131571   2.434   2.334   4.485  1.4653 -0.4869 -0.6675
10224SOL    HW231572   2.327   2.265   4.381 -0.0535  0.3857  0.2740
10225SOL     OW31573   4.557   2.251   1.410 -0.2875 -0.5123  0.4724
10225SOL    HW131574   4.478   2.196   1.433  0.8873 -2.4959 -0.0182
10225SOL    HW231575   4.622   2.251   1.486  0.7452 -1.7983 -0.3508
10226SOL     OW31576   0.721   1.142   0.906 -0.0709 -0.1016  0.6241
10226SOL    HW131577   0.757   1.149   0.813  0.6293 -2.1055  0.6874
10226SOL    HW231578   0.682   1.230   0.933  0.3932  0.7517 -1.2630
10227SOL     OW31579   5.286   0.756   1.499 -0.2475 -0.2733 -0.1890
10227SOL    HW131580   5.216   0.757   1.428 -1.2557 -2.0656  0.7242
10227SOL    HW231581   5.308   0.661   1.523  2.4201  0.2250 -0.3500
10228SOL     OW31582   4.761   0.069   5.471  0.0579  0.4675 -0.0315
10228SOL    HW131583   4.767   0.030   5.563 -0.9228  0.8474  0.1988
10228SOL    HW231584   4.726   0.162   5.476 -0.6924  0.2474 -0.8438
10229SOL     OW31585   5.805   1.864   6.343  0.2639 -0.3044  0.4918
10229SOL    HW131586   5.789   1.774   6.383 -0.3439  0.2486  1.5539
10229SOL    HW231587   5.720   1.917   6.345  1.0649  1.0146  1.8079
10230SOL     OW31588   2.920   6.207   6.263  0.0593 -0.2788  0.0010
10230SOL    HW131589   2.971   6.180   6.345 -1.6804 -0.6882  0.9935
10230SOL    HW231590   2.833   6.249   6.290 -0.8547 -1.0382 -1.6314
10231SOL     OW31591   6.871   0.371   6.763 -0.0700 -0.0703 -0.2422
10231SOL    HW131592   6.949   0.322   6.800  0.0412 -0.1045 -0.5149
10231SOL    HW231593   6.810   0.307   6.716 -1.1943 -0.3385  1.4951
10232SOL     OW31594   5.275   2.568   1.172  0.0433  0.0455  0.0752
10232SOL    HW131595   5.330   2.485   1.187  1.0739  0.6180 -0.4861
10232SOL    HW231596   5.180   2.542   1.157 -0.0858 -0.9085  2.1685
10233SOL     OW31597   1.568   1.453   5.790  0.0003 -0.1653  0.3915
10233SOL    HW131598   1.650   1.401   5.816  0.9646  0.3851 -1.4346
10233SOL    HW231599   1.557   1.452   5.691 -0.8132  1.8531  0.4105
10234SOL     OW31600   1.927   0.874   0.395 -0.1493 -0.0021 -0.2956
10234SOL    HW131601   2.015   0.897   0.438 -1.7211  2.4711  1.8455
10234SOL    HW231602   1.937   0.879   0.296  1.7177  2.0640 -0.0922
10235SOL     OW31603   5.406   0.540   6.157 -0.2345  0.2781 -0.0027
10235SOL    HW131604   5.448   0.503   6.240  1.1745  1.5144 -0.0986
10235SOL    HW231605   5.316   0.500   6.143  0.1495 -1.1050  1.2690
10236SOL     OW31606   5.851   5.362   2.555 -0.3150  0.4285  0.6351
10236SOL    HW131607   5.909   5.419   2.497 -0.0776  0.5112  0.9489
10236SOL    HW231608   5.765   5.344   2.509  0.6827 -1.2820 -0.7039
10237SOL     OW31609   1.122   5.347   0.132  0.1318  0.5935  0.4242
10237SOL    HW131610   1.026   5.332   0.153  0.1741  1.2769  1.1427
10237SOL    HW231611   1.132   5.432   0.080  0.1034 -0.7189 -1.8644
10238SOL     OW31612   1.258   3.984   6.843  1.0599  0.4842 -0.1038
10238SOL    HW131613   1.280   4.081   6.854  0.4430  0.6325 -0.0823
10238SOL    HW231614   1.313   3.929   6.906  0.0799  0.9966  1.2561
10239SOL     OW31615   6.111   4.015   5.133 -0.3119  0.6127  0.1494
10239SOL    HW131616   6.192   3.971   5.173  0.9039  1.5469 -1.1860
10239SOL    HW231617   6.092   4.100   5.182  0.0026  0.7895 -0.0315
10240SOL     OW31618   1.898   3.708   1.200  0.2571  0.3973  0.2054
10240SOL    HW131619   1.906   3.707   1.100 -0.5404  0.9256  0.1222
10240SOL    HW231620   1.965   3.646   1.240 -0.4842 -1.0770 -0.7463
10241SOL     OW31621   6.251   3.749   2.110 -0.0685  0.1208 -0.5899
10241SOL    HW131622   6.180   3.794   2.056  0.5304  1.1607 -0.5273
10241SOL    HW231623   6.335   3.803   2.107  0.3450 -0.4384  0.3804
10242SOL     OW31624   6.357   5.254   6.068 -0.0460  0.2918 -0.2629
10242SOL    HW131625   6.358   5.302   5.981 -1.0276 -0.0819 -0.4876
10242SOL    HW231626   6.358   5.156   6.052 -2.8087  0.1453  0.0345
10243SOL     OW31627   0.921   1.977   3.256 -0.1389 -0.2395  0.1636
10243SOL    HW131628   1.021   1.975   3.244 -0.0900  0.5576  0.4146
10243SOL    HW231629   0.885   1.885   3.244  0.6473 -0.5658  0.2224
10244SOL     OW31630   3.802   2.493   6.509  0.6740  0.0018  0.0889
10244SOL    HW131631   3.893   2.524   6.535  1.7444 -1.3419 -1.8137
10244SOL    HW231632   3.789   2.398   6.540  0.3485 -0.1682 -0.5422
10245SOL     OW31633   3.117   2.176   4.043  0.0205 -0.3665 -0.2880
10245SOL    HW131634   3.192   2.167   3.977 -0.5691  0.3953 -1.0836
10245SOL    HW231635   3.154   2.172   4.136  1.2067  1.0409 -0.6668
10246SOL     OW31636   1.566   2.312   3.876 -0.5705  0.0536  0.0691
10246SOL    HW131637   1.570   2.412   3.869 -0.5781  0.1478  1.1728
10246SOL    HW231638   1.508   2.287   3.954  1.0209 -0.7510  1.0469
10247SOL     OW31639   5.902   1.639   4.068  0.1972  0.3266 -0.2190
10247SOL    HW131640   5.814   1.685   4.080  0.0023 -0.3251  1.1373
10247SOL    HW231641   5.887   1.544   4.040  0.5649  0.7894 -2.1027
10248SOL     OW31642   2.404   1.963   4.125 -0.2413 -0.4287 -0.0189
10248SOL    HW131643   2.480   2.028   4.127 -0.0074 -0.6109 -1.6161
10248SOL    HW231644   2.440   1.870   4.136 -0.6095 -0.3253  2.6184
10249SOL     OW31645   2.686   4.164   1.529  0.1106 -0.0387  0.4505
10249SOL    HW131646   2.676   4.067   1.550  0.5718  0.0956  1.3217
10249SOL    HW231647   2.755   4.205   1.589  0.8041  0.5707 -0.7341
10250SOL     OW31648   1.601   4.135   4.610  0.4514  0.6885  0.6668
10250SOL    HW131649   1.667   4.067   4.644  0.5647  0.8239  0.7194
10250SOL    HW231650   1.650   4.205   4.559  0.2405  0.2887 -0.0970
10251SOL     OW31651   6.566   4.878   0.013 -0.2025  0.6617 -0.2718
10251SOL    HW131652   6.551   4.798   0.070  1.7266 -0.2656 -0.9567
10251SOL    HW231653   6.480   4.927  -0.000 -1.2942 -0.9007  0.7346
10252SOL     OW31654   6.660   6.146   5.437 -0.2087  0.2337 -0.0799
10252SOL    HW131655   6.588   6.208   5.468 -1.6259 -0.6419 -1.4657
10252SOL    HW231656   6.724   6.196   5.378 -0.9541  0.5353 -0.6367
10253SOL     OW31657   1.106   4.567   6.726  0.0893  0.2092 -0.5678
10253SOL    HW131658   1.094   4.626   6.806  1.9565  0.7058 -0.6167
10253SOL    HW231659   1.200   4.573   6.693 -0.1710 -1.3612 -1.7427
10254SOL     OW31660   1.502   0.704   3.646 -0.4537  0.3830 -0.3324
10254SOL    HW131661   1.572   0.716   3.716  0.7693  0.2220 -1.4951
10254SOL    HW231662   1.465   0.794   3.621 -0.9016  0.4404  0.5093
10255SOL     OW31663   0.750   6.679   2.896  0.0625 -0.2323  0.2070
10255SOL    HW131664   0.787   6.750   2.956 -0.5366  1.0037 -0.8368
10255SOL    HW231665   0.667   6.641   2.937  1.8929 -2.4113  2.1414
10256SOL     OW31666   6.358   6.521   3.181 -0.3964 -0.2320  0.1108
10256SOL    HW131667   6.420   6.493   3.254 -1.7978 -1.6080  0.8347
10256SOL    HW231668   6.269   6.545   3.220 -0.6780  0.6092 -1.0014
10257SOL     OW31669   4.013   1.808   0.449 -0.4509  0.2023 -0.4012
10257SOL    HW131670   3.975   1.725   0.408 -0.4075  0.0197 -0.0720
10257SOL    HW231671   3.980   1.817   0.543 -1.2544  1.0766 -0.7427
10258SOL     OW31672   4.691   6.186   0.575 -0.3441 -0.2716 -0.2296
10258SOL    HW131673   4.727   6.129   0.648 -1.8818 -0.8543  0.1240
10258SOL    HW231674   4.754   6.261   0.557 -0.6070  0.8035  2.7648
10259SOL     OW31675   6.897   3.652   6.775  0.1313 -0.5942 -0.4598
10259SOL    HW131676   6.865   3.598   6.697 -1.6791 -0.2186 -0.0265
10259SOL    HW231677   6.889   3.749   6.754 -0.4405 -0.4904  0.1971
10260SOL     OW31678   1.993   1.351   4.123 -0.4406  0.0450 -0.4493
10260SOL    HW131679   1.912   1.392   4.166 -1.1443 -1.3453 -0.3909
10260SOL    HW231680   1.974   1.255   4.101  1.3988 -0.4823  0.1064
10261SOL     OW31681   2.220   1.861   0.433  0.2752 -0.1056  0.4533
10261SOL    HW131682   2.252   1.916   0.356  1.0674 -0.6842  0.3545
10261SOL    HW231683   2.131   1.895   0.464 -0.1234  0.0400 -0.8108
10262SOL     OW31684   3.315   6.017   4.496  0.2772 -0.5980  0.2494
10262SOL    HW131685   3.360   6.106   4.483 -0.0337 -0.5837 -0.8265
10262SOL    HW231686   3.270   6.016   4.585 -1.4205  1.1116 -0.5186
10263SOL     OW31687   3.044   4.608   1.430 -0.0862  0.6249 -0.7384
10263SOL    HW131688   2.981   4.534   1.405 -0.1098  0.6867 -0.8665
10263SOL    HW231689   3.046   4.619   1.529 -0.9855  1.2407 -0.7801
10264SOL     OW31690   3.085   1.145   2.681  0.2480  0.2633  0.0173
10264SOL    HW131691   3.040   1.218   2.733 -0.8570 -0.3156 -0.1155
10264SOL    HW231692   3.111   1.071   2.743  1.7120  0.8992  0.2152
10265SOL     OW31693   0.254   1.862   3.372 -0.5969 -0.3904  0.3287
10265SOL    HW131694   0.230   1.959   3.380 -0.3416 -0.3953  1.2198
10265SOL    HW231695   0.295   1.846   3.283  1.1728  0.7184  0.8987
10266SOL     OW31696   1.773   1.972   3.859  0.0823 -0.3896 -0.1224
10266SOL    HW131697   1.748   1.936   3.949  1.4201 -0.6972  0.1382
10266SOL    HW231698   1.732   1.914   3.788  0.2093 -0.9964  0.2922
10267SOL     OW31699   1.096   4.319   5.285 -0.3477 -0.2944 -0.6219
10267SOL    HW131700   1.066   4.241   5.230  1.4096  0.2575 -2.4923
10267SOL    HW231701   1.176   4.361   5.242  0.2015  1.1125  1.6069
10268SOL     OW31702   0.696   6.947   5.233 -0.2367  0.0974 -0.2898
10268SOL    HW131703   0.748   6.894   5.167 -1.8316 -1.9645 -0.0082
10268SOL    HW231704   0.756   6.977   5.307  0.6491 -1.9023 -0.1413
10269SOL     OW31705   4.051   1.585   6.238 -0.3335 -0.3784  1.0345
10269SOL    HW131706   4.003   1.664   6.199  1.7257  0.2304 -0.4522
10269SOL    HW231707   4.135   1.615   6.283  1.2701 -1.7606 -0.8482
10270SOL     OW31708   4.742   0.475   6.181 -0.0942 -0.4592 -0.0661
10270SOL    HW131709   4.742   0.566   6.139  1.8333 -1.0389 -1.5047
10270SOL    HW231710   4.783   0.480   6.273  1.4263 -0.0449 -0.7286
10271SOL     OW31711   6.398   3.525   3.479 -0.0051  0.1150  0.7733
10271SOL    HW131712   6.360   3.510   3.388 -0.4748 -0.4148  1.0429
10271SOL    HW231713   6.356   3.606   3.520  2.4674  2.2801 -0.6540
10272SOL     OW31714   6.580   0.064   6.509 -0.0804  0.2256  0.1609
10272SOL    HW131715   6.618   0.149   6.473 -0.6505 -0.2419 -1.6162
10272SOL    HW231716   6.621  -0.014   6.462 -1.7128 -0.3549 -0.3657
10273SOL     OW31717   0.226   3.491   3.590 -0.0679 -0.1087  0.1636
10273SOL    HW131718   0.255   3.398   3.564 -0.8372 -0.1040 -0.7641
10273SOL    HW231719   0.160   3.525   3.523  1.1960  1.6336 -0.2726
10274SOL     OW31720   0.246   1.860   4.022  0.2160  0.7530 -0.0768
10274SOL    HW131721   0.342   1.840   4.002  0.2698  1.4531 -0.5222
10274SOL    HW231722   0.188   1.815   3.955  0.1433 -0.8182  0.9887
10275SOL     OW31723   3.456   2.435   6.692  0.3787 -0.1579  0.4214
10275SOL    HW131724   3.488   2.448   6.785  1.4505  1.4148 -0.1279
10275SOL    HW231725   3.485   2.512   6.635 -1.2016 -0.5198 -0.9746
10276SOL     OW31726   1.704   1.563   2.208 -0.3907  0.0752  0.1565
10276SOL    HW131727   1.723   1.637   2.144 -1.2175  0.6816  0.5871
10276SOL    HW231728   1.699   1.476   2.159 -0.0988  0.4023 -0.4578
10277SOL     OW31729   5.396   1.966   0.924  0.3949 -0.1918  0.2084
10277SOL    HW131730   5.301   1.965   0.892  0.6700 -1.8384 -0.6703
10277SOL    HW231731   5.428   2.060   0.932 -1.3148  0.3912  0.5675
10278SOL     OW31732   0.904   0.170   4.695 -0.5090  0.8179 -0.2376
10278SOL    HW131733   0.944   0.241   4.637 -2.2716  1.6664 -0.4626
10278SOL    HW231734   0.884   0.089   4.640  2.1140 -0.2043  0.1391
10279SOL     OW31735   4.346   1.938   3.215  0.0090  0.0834  0.2477
10279SOL    HW131736   4.391   1.849   3.221  1.0959  0.5791 -0.2360
10279SOL    HW231737   4.407   2.003   3.170 -1.4919  0.5962 -1.1466
10280SOL     OW31738   3.510   4.927   4.651  0.3816 -0.2038  0.1062
10280SOL    HW131739   3.524   4.839   4.697 -1.1573  0.0167  1.0719
10280SOL    HW231740   3.459   4.913   4.566 -2.1377 -0.0840  1.4904
10281SOL     OW31741   4.871   1.417   1.820  0.4680 -0.2253  0.2972
10281SOL    HW131742   4.948   1.479   1.837  1.2315 -1.2632  0.7109
10281SOL    HW231743   4.897   1.350   1.752  0.6794 -1.8519  1.9080
10282SOL     OW31744   5.681   0.651   1.657  0.4694 -0.2455  0.1585
10282SOL    HW131745   5.743   0.709   1.710  0.2065  0.2944 -0.1101
10282SOL    HW231746   5.599   0.633   1.711  0.2543  0.2043 -0.0108
10283SOL     OW31747   2.024   4.026   5.108 -0.1666  0.1167 -0.4033
10283SOL    HW131748   2.108   3.977   5.127 -0.4908 -0.2595  0.0760
10283SOL    HW231749   2.045   4.121   5.082  0.4379 -0.1593 -0.9583
10284SOL     OW31750   5.315   5.789   0.213  0.6857  0.2697  0.0077
10284SOL    HW131751   5.306   5.690   0.198  0.6785  0.0138  1.5370
10284SOL    HW231752   5.358   5.831   0.133 -1.7186 -0.5342 -1.8293
10285SOL     OW31753   1.436   5.904   1.370 -0.0167 -0.1926  0.3502
10285SOL    HW131754   1.373   5.888   1.293  1.6462 -1.7633 -0.7411
10285SOL    HW231755   1.430   5.828   1.435  0.4339 -0.1317  0.4653
10286SOL     OW31756   3.973   2.662   5.937  0.3673  0.3582  0.3154
10286SOL    HW131757   3.991   2.741   5.878 -0.8101  0.4367  0.0374
10286SOL    HW231758   3.932   2.693   6.023 -0.2048  0.0456  0.1599
10287SOL     OW31759   5.047   4.246   3.526 -0.0169  0.0292  0.1641
10287SOL    HW131760   5.113   4.178   3.496 -0.8425 -0.7351  0.0260
10287SOL    HW231761   5.024   4.306   3.450 -1.1557 -1.1144 -0.4230
10288SOL     OW31762   5.100   1.154   5.668 -0.3630  0.4920  0.1361
10288SOL    HW131763   5.063   1.200   5.749 -0.0997 -0.8797  1.0691
10288SOL    HW231764   5.027   1.106   5.620 -0.2468 -0.1244  0.5568
10289SOL     OW31765   1.737   3.245   6.141  0.0692  0.1966 -0.1039
10289SOL    HW131766   1.649   3.244   6.094 -0.2710 -2.7953  0.4069
10289SOL    HW231767   1.740   3.322   6.204 -1.6799  1.0401 -0.9791
10290SOL     OW31768   1.092   4.106   1.252  0.0288  0.4488  0.1050
10290SOL    HW131769   1.029   4.173   1.291 -0.8762  0.8856 -1.9977
10290SOL    HW231770   1.167   4.090   1.317 -1.7186  0.6055  2.2690
10291SOL     OW31771   0.236   3.819   2.880  0.4860 -0.4708  0.0407
10291SOL    HW131772   0.331   3.811   2.847  0.1568 -0.1087 -1.0201
10291SOL    HW231773   0.237   3.824   2.980  1.5733 -0.6609  0.0619
10292SOL     OW31774   3.026   4.862   5.835  0.5740  0.3409  0.5827
10292SOL    HW131775   3.112   4.816   5.854 -0.1876 -1.3896  0.0540
10292SOL    HW231776   3.008   4.862   5.737 -0.4201 -0.0911  0.7469
10293SOL     OW31777   2.912   0.423   1.436  0.3350 -0.6567  0.0608
10293SOL    HW131778   2.936   0.503   1.381 -1.4239  0.4856  0.8510
10293SOL    HW231779   2.941   0.340   1.389 -0.7268  0.2788 -2.4396
10294SOL     OW31780   1.547   3.468   3.569  0.7432 -0.2937 -0.0883
10294SOL    HW131781   1.518   3.556   3.533  0.8156  0.2611  1.1456
10294SOL    HW231782   1.645   3.455   3.552  0.9758  0.3716  0.6747
10295SOL     OW31783   6.647   1.929   6.488 -0.0760 -0.0840  0.2832
10295SOL    HW131784   6.556   1.912   6.449 -0.2994 -1.9262  1.4903
10295SOL    HW231785   6.717   1.908   6.420 -0.5026 -0.6858  0.0224
10296SOL     OW31786   0.794   0.316   6.262 -0.4477 -0.3637  0.8035
10296SOL    HW131787   0.776   0.269   6.349  0.0990 -2.3513 -0.0988
10296SOL    HW231788   0.888   0.300   6.234 -0.0060  1.9322  0.7616
10297SOL     OW31789   2.180   6.696   0.328 -0.3086  0.1888  0.0670
10297SOL    HW131790   2.121   6.616   0.341  0.6444 -0.1555  2.9089
10297SOL    HW231791   2.244   6.679   0.253 -0.9360 -1.1924 -0.1789
10298SOL     OW31792   5.232   2.372   5.302  0.0744 -0.3450 -0.1786
10298SOL    HW131793   5.247   2.470   5.295  0.8515 -0.4812 -0.5810
10298SOL    HW231794   5.263   2.339   5.392 -2.0659  0.0774  0.7687
10299SOL     OW31795   2.592   4.988   5.591 -0.8483  0.0644  0.3210
10299SOL    HW131796   2.629   5.073   5.628 -1.6837  0.5367  0.0906
10299SOL    HW231797   2.542   4.939   5.662 -0.0919 -0.4045  0.5408
10300SOL     OW31798   3.949   5.456   2.025 -0.2111  0.2688  0.4040
10300SOL    HW131799   3.961   5.361   1.998 -1.1487  0.5315 -1.0424
10300SOL    HW231800   3.858   5.488   1.999 -0.6980  0.9986  2.7121
10301SOL     OW31801   4.439   6.256   2.321  0.0660 -1.1889  0.1535
10301SOL    HW131802   4.340   6.267   2.308  0.2563 -0.2347 -0.6311
10301SOL    HW231803   4.470   6.174   2.273 -0.4847 -2.0129  1.1808
10302SOL     OW31804   5.217   4.489   1.168 -0.4316  0.2603  0.0342
10302SOL    HW131805   5.172   4.537   1.243  1.6158  0.6311  1.0962
10302SOL    HW231806   5.192   4.532   1.081 -2.2622  0.2861  0.5254
10303SOL     OW31807   2.624   3.651   6.766  0.2846  0.2067 -0.4328
10303SOL    HW131808   2.684   3.658   6.686 -0.8255 -1.3433 -1.4409
10303SOL    HW231809   2.546   3.593   6.745 -2.0248  2.7184  0.6182
10304SOL     OW31810   6.578   3.892   5.104 -0.2790 -0.1175  0.5449
10304SOL    HW131811   6.494   3.919   5.150 -1.5938 -1.3552 -0.9896
10304SOL    HW231812   6.563   3.806   5.054  1.4011  0.4789 -1.1301
10305SOL     OW31813   3.162   3.063   3.417  0.1906 -0.0028  0.5487
10305SOL    HW131814   3.156   3.140   3.480  0.4476  3.7453 -3.5180
10305SOL    HW231815   3.258   3.040   3.400  0.1278 -0.8248  1.2190
10306SOL     OW31816   5.566   4.386   1.356 -0.2602 -0.6438 -0.4675
10306SOL    HW131817   5.501   4.316   1.387 -0.4215 -0.2437  0.1104
10306SOL    HW231818   5.622   4.416   1.433 -1.5427  1.3116 -0.2179
10307SOL     OW31819   4.441   1.164   6.114 -0.1422 -0.0084  0.3998
10307SOL    HW131820   4.424   1.259   6.141 -1.3136  0.3845 -1.5848
10307SOL    HW231821   4.396   1.103   6.179 -0.0964  0.7909  1.2135
10308SOL     OW31822   6.347   3.653   3.933 -0.0212 -0.4679  0.0983
10308SOL    HW131823   6.288   3.578   3.904 -0.7793 -0.2342  0.9799
10308SOL    HW231824   6.427   3.616   3.980 -1.0254 -0.7277  1.6911
10309SOL     OW31825   1.037   0.421   5.736 -0.5882 -0.6227 -0.4561
10309SOL    HW131826   1.094   0.344   5.709  0.4943 -0.8905  2.2447
10309SOL    HW231827   0.970   0.390   5.803 -1.0538  0.5268 -0.3786
10310SOL     OW31828   4.310   5.270   2.301 -0.2455  0.6903  0.4026
10310SOL    HW131829   4.279   5.178   2.322  1.1655  0.0430 -0.2787
10310SOL    HW231830   4.395   5.289   2.349  0.6162  0.8315 -1.1270
10311SOL     OW31831   4.256   3.818   5.999 -1.1104  0.3648  0.0275
10311SOL    HW131832   4.353   3.799   6.011 -1.4136 -0.2907  1.7177
10311SOL    HW231833   4.233   3.815   5.902  0.5908  0.7892 -0.4196
10312SOL     OW31834   5.100   1.848   2.412  0.5675 -0.1636  0.3413
10312SOL    HW131835   5.160   1.925   2.392  0.6525 -0.0229  1.0845
10312SOL    HW231836   5.146   1.762   2.391  0.0571 -0.0079 -1.5856
10313SOL     OW31837   0.622   0.639   2.549 -0.1690  0.7132 -0.0211
10313SOL    HW131838   0.665   0.606   2.465 -1.0861 -2.7152  0.7083
10313SOL    HW231839   0.683   0.626   2.626  0.0092  2.2316  0.1199
10314SOL     OW31840   3.980   1.694   5.798  0.4908 -0.1552 -0.1549
10314SOL    HW131841   4.077   1.685   5.821  0.8395  1.4616 -0.8591
10314SOL    HW231842   3.927   1.628   5.852  1.7287  0.4073  1.8635
10315SOL     OW31843   2.280   4.504   3.004  0.2393  0.2203  0.8944
10315SOL    HW131844   2.186   4.536   3.017  0.1856  0.1990  0.5668
10315SOL    HW231845   2.281   4.404   3.001  0.3622  0.1974  1.5752
10316SOL     OW31846   1.436   5.398   1.100  0.1329  0.0733  0.1396
10316SOL    HW131847   1.404   5.305   1.116  5.2936 -1.7111  2.1861
10316SOL    HW231848   1.474   5.404   1.007  1.4926 -0.5396  0.6334
10317SOL     OW31849   5.521   1.463   0.224  0.5353 -0.9144 -0.3697
10317SOL    HW131850   5.455   1.528   0.262  2.9425  1.9963 -0.8251
10317SOL    HW231851   5.492   1.438   0.131 -0.6512 -0.8328 -0.0423
10318SOL     OW31852   1.965   6.063   4.673 -0.0179 -0.0077  0.4508
10318SOL    HW131853   1.912   6.074   4.589 -2.3575 -0.7399  1.7641
10318SOL    HW231854   2.007   6.150   4.698 -1.6515  0.9408  0.0217
10319SOL     OW31855   0.927   2.069   3.909 -0.2361 -0.0397 -0.3888
10319SOL    HW131856   0.879   2.094   3.824  0.4955  0.1501 -0.7589
10319SOL    HW231857   0.996   2.139   3.930 -0.3410 -0.1401  0.3103
10320SOL     OW31858   4.862   0.111   0.538 -0.1099  0.2046 -0.0353
10320SOL    HW131859   4.814   0.188   0.581 -0.2204 -0.7532  1.6573
10320SOL    HW231860   4.958   0.135   0.525 -0.3126  0.9167 -0.2719
10321SOL     OW31861   3.408   2.888   5.137  0.4478 -0.0204  0.3671
10321SOL    HW131862   3.311   2.889   5.113  0.7524 -0.2929 -0.9461
10321SOL    HW231863   3.428   2.807   5.192 -0.0428  0.0099  0.5984
10322SOL     OW31864   5.436   1.119   2.374 -0.5014  0.0340  0.0485
10322SOL    HW131865   5.520   1.074   2.346 -0.1404  0.6166  0.1792
10322SOL    HW231866   5.423   1.107   2.473 -0.5738 -0.0614  0.0272
10323SOL     OW31867   3.881   2.851   0.206  0.0183 -0.3774 -0.0354
10323SOL    HW131868   3.865   2.867   0.109  0.8514  0.0715 -0.1053
10323SOL    HW231869   3.904   2.937   0.251  2.2897 -0.9485  0.0266
10324SOL     OW31870   6.856   3.909   0.007  0.6746  0.0067  0.6237
10324SOL    HW131871   6.771   3.958   0.025  0.7642  0.2738  0.3415
10324SOL    HW231872   6.882   3.923  -0.089  0.2292 -1.3216  0.2829
10325SOL     OW31873   0.283   4.155   5.882 -0.2720 -0.0168  0.4224
10325SOL    HW131874   0.319   4.062   5.882 -1.0111 -0.3232  1.3264
10325SOL    HW231875   0.310   4.202   5.966  0.8651  0.9171 -0.4292
10326SOL     OW31876   2.972   5.402   3.314  0.5595  0.4197 -0.1742
10326SOL    HW131877   3.026   5.432   3.393 -0.0599  1.0024  0.0352
10326SOL    HW231878   2.879   5.437   3.322  0.2790 -0.1705 -0.7787
10327SOL     OW31879   3.548   4.036   3.993  0.0928 -0.3773 -0.3059
10327SOL    HW131880   3.553   3.942   4.026  0.5135 -0.3948 -0.4109
10327SOL    HW231881   3.611   4.047   3.915 -0.9555 -0.3663 -1.1814
10328SOL     OW31882   5.577   4.159   2.292 -0.0293  0.1507 -0.1133
10328SOL    HW131883   5.650   4.109   2.339  0.9047 -0.9992 -2.6014
10328SOL    HW231884   5.494   4.157   2.348  1.0749 -0.8115  1.6062
10329SOL     OW31885   3.398   5.796   0.233  0.0590  0.4273  0.5881
10329SOL    HW131886   3.300   5.813   0.222  0.0224 -0.3493 -0.5218
10329SOL    HW231887   3.449   5.854   0.169  0.2338 -0.0087  0.3239
10330SOL     OW31888   6.937   6.177   4.768  0.0703 -0.0227 -0.0057
10330SOL    HW131889   6.918   6.140   4.859 -0.4063 -0.2289 -0.1830
10330SOL    HW231890   6.882   6.128   4.700 -2.1096  2.2674 -0.0372
10331SOL     OW31891   0.222   0.805   6.420 -0.4917 -0.4354 -0.2121
10331SOL    HW131892   0.185   0.764   6.503 -1.0002  0.1452 -0.1496
10331SOL    HW231893   0.303   0.754   6.392 -0.4259 -0.7551  0.5288
10332SOL     OW31894   3.271   0.391   0.141 -0.8034 -0.5706 -0.3357
10332SOL    HW131895   3.218   0.308   0.123 -0.7400 -0.7841  0.4048
10332SOL    HW231896   3.259   0.456   0.066 -0.7685 -1.2924 -0.9735
10333SOL     OW31897   5.865   1.792   6.771  0.2448  0.0322 -0.5974
10333SOL    HW131898   5.811   1.875   6.787 -0.9204 -0.7377 -0.4056
10333SOL    HW231899   5.956   1.803   6.811 -0.6458  0.3783  1.4511
10334SOL     OW31900   0.265   1.734   3.069 -0.0240  0.1389 -0.2306
10334SOL    HW131901   0.221   1.824   3.079 -1.1194 -0.4296  0.2214
10334SOL    HW231902   0.297   1.723   2.975  0.7256  1.2581 -0.1347
10335SOL     OW31903   6.218   4.503   4.748 -0.1071 -0.2789  1.0043
10335SOL    HW131904   6.290   4.537   4.809  0.3276 -2.6353  1.9348
10335SOL    HW231905   6.146   4.461   4.802 -1.1320  0.1039 -0.0299
10336SOL     OW31906   0.983   1.500   2.235 -0.4903  0.1822  0.4664
10336SOL    HW131907   0.975   1.491   2.136  1.7428 -0.1220  0.2800
10336SOL    HW231908   1.048   1.433   2.270 -0.2969  1.1061  1.9810
10337SOL     OW31909   6.533   4.173   6.154 -0.4777  0.0761  0.7487
10337SOL    HW131910   6.473   4.213   6.084  0.1268 -1.4150 -0.6788
10337SOL    HW231911   6.483   4.102   6.203 -0.3166 -0.1874  0.5306
10338SOL     OW31912   4.424   0.178   6.891  0.8618  0.2646  0.0481
10338SOL    HW131913   4.337   0.175   6.843  0.2899 -1.9620  1.0830
10338SOL    HW231914   4.499   0.172   6.825  0.1167 -2.0046 -0.6907
10339SOL     OW31915   2.813   3.480   6.350  0.1581 -1.0534 -0.1239
10339SOL    HW131916   2.875   3.416   6.305 -0.4175 -0.1786 -2.3024
10339SOL    HW231917   2.750   3.429   6.409  2.2083 -2.0515  1.3338
10340SOL     OW31918   3.798   2.105   3.063 -0.2955 -0.2592 -0.1265
10340SOL    HW131919   3.705   2.134   3.039 -0.2962  1.5511  1.7586
10340SOL    HW231920   3.855   2.103   2.981 -1.4294  0.9515 -0.9865
10341SOL     OW31921   2.269   1.322   5.857 -0.0002  0.0568  0.5980
10341SOL    HW131922   2.276   1.409   5.904 -0.4283  0.0117  0.7444
10341SOL    HW231923   2.188   1.272   5.888 -0.6711  0.3161 -0.6551
10342SOL     OW31924   6.244   0.090   4.331 -0.6228  0.0587 -1.1291
10342SOL    HW131925   6.220   0.047   4.418 -0.2890  0.7993 -0.6544
10342SOL    HW231926   6.174   0.071   4.263 -1.1540 -0.0891 -0.5454
10343SOL     OW31927   6.442   0.864   0.568 -0.1169  0.5303  0.2959
10343SOL    HW131928   6.426   0.788   0.631 -2.5190 -1.2287 -2.1913
10343SOL    HW231929   6.519   0.844   0.509 -0.6256  0.0812 -0.2259
10344SOL     OW31930   1.257   2.396   0.170 -0.1376  0.2195 -0.2389
10344SOL    HW131931   1.209   2.480   0.193 -0.8588 -0.6417  1.5395
10344SOL    HW231932   1.254   2.333   0.247  0.6639 -1.3296 -1.4120
10345SOL     OW31933   5.315   4.913   5.387 -0.1515  0.2165  0.5238
10345SOL    HW131934   5.231   4.957   5.355 -0.3677 -1.2654 -1.0783
10345SOL    HW231935   5.366   4.879   5.308  2.0315  1.1504  1.4450
10346SOL     OW31936   2.015   2.561   5.845 -0.8011  0.0618  0.4274
10346SOL    HW131937   2.010   2.529   5.939 -0.5516  2.0457  1.1697
10346SOL    HW231938   2.104   2.604   5.829 -0.6215 -0.7426 -0.9108
10347SOL     OW31939   5.691   1.447   5.362  0.2963 -0.1562 -0.3667
10347SOL    HW131940   5.714   1.354   5.391  0.1488  0.2426  1.1296
10347SOL    HW231941   5.685   1.450   5.262  1.5094 -1.4610 -0.5164
10348SOL     OW31942   2.740   5.117   0.678 -0.2981 -0.0983 -0.4367
10348SOL    HW131943   2.746   5.017   0.687 -1.0152 -0.2400 -1.3648
10348SOL    HW231944   2.671   5.153   0.740  0.1669 -0.1388  0.1106
10349SOL     OW31945   4.466   0.915   3.123  0.1788 -0.4530  0.5479
10349SOL    HW131946   4.367   0.930   3.129  0.0659  1.5420 -3.2814
10349SOL    HW231947   4.514   0.999   3.148  0.6262 -0.1012 -1.3264
10350SOL     OW31948   5.879   0.014   3.320 -0.6302 -0.4514  0.3976
10350SOL    HW131949   5.970  -0.013   3.350 -0.3405 -1.9616 -1.6498
10350SOL    HW231950   5.842   0.083   3.383  1.9003  0.2050  1.2773
10351SOL     OW31951   0.843   5.444   5.204 -0.1366 -0.4565 -0.1649
10351SOL    HW131952   0.868   5.459   5.108  0.0811 -0.9060 -0.1850
10351SOL    HW231953   0.813   5.349   5.215  1.1349 -0.7989  0.4778
10352SOL     OW31954   0.522   3.468   5.160  0.3895 -0.1934  0.4185
10352SOL    HW131955   0.449   3.400   5.149  1.0071 -0.9962  1.1778
10352SOL    HW231956   0.563   3.458   5.250 -0.7477  2.4395  1.3150
10353SOL     OW31957   5.789   3.203   2.373  0.8703 -0.1575  0.0382
10353SOL    HW131958   5.820   3.113   2.404 -0.1077 -1.1164 -1.6406
10353SOL    HW231959   5.804   3.211   2.275  1.9422  1.9689  0.3329
10354SOL     OW31960   6.507   6.802   6.942 -0.4841 -0.7581  0.0164
10354SOL    HW131961   6.600   6.781   6.973  0.3930  1.8910 -0.5401
10354SOL    HW231962   6.470   6.876   6.997 -1.2442 -0.0436 -1.3993
10355SOL     OW31963   2.311   5.546   5.741 -0.2289 -0.4520 -0.3100
10355SOL    HW131964   2.331   5.456   5.779  0.7373  0.5875  1.7455
10355SOL    HW231965   2.395   5.587   5.706  0.0917  1.0586  2.0147
10356SOL     OW31966   1.839   5.258   2.103 -0.6854  0.2196 -0.2445
10356SOL    HW131967   1.816   5.337   2.047 -0.9527  1.2714  1.3042
10356SOL    HW231968   1.843   5.284   2.199  0.2462 -1.4329  0.2153
10357SOL     OW31969   6.960   3.375   0.700 -0.2384 -0.1466  0.1084
10357SOL    HW131970   7.014   3.415   0.625 -0.3873 -0.6218 -0.2543
10357SOL    HW231971   6.874   3.338   0.663  0.0420 -1.0924  0.3827
10358SOL     OW31972   3.049   1.744   1.083  0.2467  0.7145 -0.4313
10358SOL    HW131973   3.144   1.744   1.051  0.3609  1.7130 -0.1197
10358SOL    HW231974   3.022   1.837   1.106 -0.1133  0.1565  1.5589
10359SOL     OW31975   3.049   6.930   5.568  0.0302  0.1014 -0.2431
10359SOL    HW131976   3.025   6.995   5.640  1.5974 -0.7025  1.0750
10359SOL    HW231977   3.027   6.838   5.597  2.0926 -0.3956 -0.0794
10360SOL     OW31978   3.092   6.169   1.150  0.0670  0.1131 -0.0003
10360SOL    HW131979   3.158   6.096   1.167 -1.9762 -2.2688 -1.6919
10360SOL    HW231980   3.022   6.168   1.222  0.1171  0.5055  0.0549
10361SOL     OW31981   1.189   1.487   6.315 -0.4771 -0.3228  0.2417
10361SOL    HW131982   1.224   1.557   6.377 -1.7935 -1.0448  1.8916
10361SOL    HW231983   1.094   1.465   6.339 -0.8114 -1.1564 -1.6013
10362SOL     OW31984   1.272   1.822   1.003 -0.2457  0.5413 -0.1044
10362SOL    HW131985   1.178   1.829   1.036  0.1322  1.8265  0.7831
10362SOL    HW231986   1.314   1.737   1.036 -0.1288  1.4229  2.1363
10363SOL     OW31987   2.565   4.503   3.110  0.0829  0.5656 -0.8696
10363SOL    HW131988   2.467   4.510   3.095  0.1717 -0.5864 -2.1509
10363SOL    HW231989   2.609   4.463   3.029  1.9004  3.0230 -1.1968
10364SOL     OW31990   5.423   6.910   3.145 -0.1094  0.2951 -0.2675
10364SOL    HW131991   5.340   6.863   3.116  1.0354 -1.3478 -1.1273
10364SOL    HW231992   5.422   7.004   3.111 -1.7959  0.4478  0.1410
10365SOL     OW31993   3.738   6.261   3.738 -0.3368  0.5094 -1.0642
10365SOL    HW131994   3.785   6.337   3.693 -2.5487  1.8958 -1.1637
10365SOL    HW231995   3.658   6.235   3.684 -0.5606 -0.7704 -0.1504
10366SOL     OW31996   3.075   1.039   3.310  0.2886 -0.1424  0.3555
10366SOL    HW131997   2.976   1.032   3.324  0.2901 -1.1209 -0.0405
10366SOL    HW231998   3.122   1.029   3.398  0.0735 -0.7886  0.4054
10367SOL     OW31999   1.018   0.958   4.135 -0.0395  0.3603 -0.5795
10367SOL    HW132000   0.943   0.896   4.113  1.6524 -1.1724 -2.4024
10367SOL    HW232001   0.998   1.049   4.097  0.4239 -0.8748 -4.0831
10368SOL     OW32002   1.441   5.391   1.389  0.0510  0.0746  0.2567
10368SOL    HW132003   1.352   5.403   1.345  1.1413  0.8317 -1.8778
10368SOL    HW232004   1.508   5.363   1.321  1.1748 -2.0492  2.0897
10369SOL     OW32005   3.185   1.456   4.030 -0.3259 -0.2062  0.2026
10369SOL    HW132006   3.254   1.509   4.078 -1.2551  0.4906  0.7978
10369SOL    HW232007   3.142   1.512   3.959 -0.9169 -0.3307  0.4539
10370SOL     OW32008   5.249   5.780   1.399 -0.2243 -0.2937  0.2033
10370SOL    HW132009   5.210   5.802   1.488  0.9883 -0.1472  0.7048
10370SOL    HW232010   5.258   5.864   1.345 -0.1010 -0.2568  0.2836
10371SOL     OW32011   1.223   6.430   0.082 -0.1358  0.0637 -0.4651
10371SOL    HW132012   1.234   6.448  -0.015  0.3507  2.5207 -0.0154
10371SOL    HW232013   1.139   6.474   0.115 -0.3223 -0.7785  0.2204
10372SOL     OW32014   3.760   4.222   1.277  0.0984 -0.2594  0.1618
10372SOL    HW132015   3.750   4.137   1.329  0.0775  0.2299  0.9829
10372SOL    HW232016   3.854   4.229   1.243 -0.4588 -1.6452 -1.8023
10373SOL     OW32017   1.008   3.043   4.392  0.1977 -0.0551 -0.1459
10373SOL    HW132018   1.090   3.067   4.445  2.4469  2.7336 -4.2899
10373SOL    HW232019   1.022   2.955   4.348 -0.3081 -0.8514  1.2058
10374SOL     OW32020   0.401   2.583   5.443  0.2397 -0.2514 -0.8202
10374SOL    HW132021   0.370   2.632   5.361  0.1580 -0.0054 -0.6445
10374SOL    HW232022   0.325   2.532   5.482  0.4267 -0.8527 -1.2375
10375SOL     OW32023   2.525   6.563   0.101 -0.3250  0.2426  0.0448
10375SOL    HW132024   2.503   6.649   0.147 -0.2628 -0.3939  1.3310
10375SOL    HW232025   2.608   6.525   0.141  0.3041  0.1376 -1.3051
10376SOL     OW32026   3.026   3.746   6.452 -0.7882  0.8243 -0.6892
10376SOL    HW132027   3.038   3.692   6.536 -1.8485  3.2959  1.1703
10376SOL    HW232028   3.055   3.692   6.373 -0.1518 -1.7699  1.2001
10377SOL     OW32029   3.689   1.962   2.340 -0.2593 -0.1208 -0.1636
10377SOL    HW132030   3.731   2.037   2.290  1.9267 -0.7903  0.5542
10377SOL    HW232031   3.593   1.984   2.359  0.2531  2.3972 -0.1512
10378SOL     OW32032   1.877   0.208   3.386  0.3881 -0.1564 -0.2326
10378SOL    HW132033   1.847   0.135   3.447  1.2751  0.3268  0.8161
10378SOL    HW232034   1.814   0.285   3.395  0.7081  0.0470  0.3621
10379SOL     OW32035   1.379   2.878   1.288  0.2391  0.1145  0.0107
10379SOL    HW132036   1.329   2.965   1.285  0.2735  0.1429  0.2662
10379SOL    HW232037   1.443   2.874   1.211  0.3699  0.3961  0.1011
10380SOL     OW32038   6.897   5.370   5.604  0.4533 -0.0568  0.1936
10380SOL    HW132039   6.872   5.431   5.679  0.9907 -0.0923  0.4088
10380SOL    HW232040   6.817   5.353   5.546 -0.3088 -1.0852  1.4975
10381SOL     OW32041   5.636   6.072   1.142  0.0025  0.1043 -0.0063
10381SOL    HW132042   5.600   6.157   1.102  2.4608  1.1975 -0.0704
10381SOL    HW232043   5.568   6.033   1.204 -1.5719  1.5904 -0.7192
10382SOL     OW32044   6.060   5.939   4.419 -0.2135  0.1503  0.1689
10382SOL    HW132045   6.107   5.887   4.490 -0.1812  0.3518  0.2952
10382SOL    HW232046   6.030   6.027   4.456  0.5435  0.6121 -0.2872
10383SOL     OW32047   0.320   6.458   4.878 -0.3976 -0.0300  0.1505
10383SOL    HW132048   0.247   6.524   4.857 -0.6572 -0.4538 -0.3087
10383SOL    HW232049   0.329   6.395   4.801  2.2724  1.6239 -1.0385
10384SOL     OW32050   6.649   5.602   4.675 -0.4033  0.3771  0.1068
10384SOL    HW132051   6.604   5.541   4.609 -1.0101  1.2557 -0.3020
10384SOL    HW232052   6.684   5.547   4.752  1.7981 -0.9163 -1.6770
10385SOL     OW32053   1.916   0.582   0.055 -0.0947 -0.4595 -0.2065
10385SOL    HW132054   1.836   0.598   0.113 -0.3807 -1.2840 -0.3584
10385SOL    HW232055   1.918   0.485   0.027 -0.4993  0.0925 -2.3507
10386SOL     OW32056   5.537   0.742   0.581 -0.1738  0.2965  0.8321
10386SOL    HW132057   5.439   0.725   0.586 -0.7599  2.7978 -0.4841
10386SOL    HW232058   5.554   0.840   0.588  2.3326 -0.1248  1.7461
10387SOL     OW32059   0.838   5.150   0.462  0.1660  0.4399 -0.3501
10387SOL    HW132060   0.748   5.114   0.440  0.5212 -0.9876  0.4240
10387SOL    HW232061   0.849   5.153   0.562  0.8312  0.9591 -0.4344
10388SOL     OW32062   0.033   3.055   1.462  0.3933  0.2253 -0.8061
10388SOL    HW132063   0.072   2.991   1.395  1.2353 -1.5521  1.2682
10388SOL    HW232064  -0.060   3.027   1.485 -0.3397  1.5175 -1.9972
10389SOL     OW32065   1.715   3.267   2.993  0.3762  0.2274  0.6992
10389SOL    HW132066   1.677   3.268   2.900  2.2420 -1.3759 -0.1417
10389SOL    HW232067   1.661   3.207   3.051  0.3408 -0.3171  0.1085
10390SOL     OW32068   3.056   4.635   1.724 -0.0731  0.3598  0.0508
10390SOL    HW132069   3.089   4.700   1.793 -2.3374  1.6563 -0.0168
10390SOL    HW232070   2.985   4.577   1.764 -0.7299  0.4752 -0.9178
10391SOL     OW32071   3.363   6.575   5.775 -0.1266  0.0424  0.3521
10391SOL    HW132072   3.318   6.512   5.838  2.1026 -2.9125 -0.7224
10391SOL    HW232073   3.430   6.630   5.824 -0.8009  0.2338  1.0597
10392SOL     OW32074   1.722   1.875   4.371  0.1709 -0.3414 -0.2822
10392SOL    HW132075   1.666   1.943   4.323  1.0909 -0.3631 -1.4133
10392SOL    HW232076   1.695   1.872   4.467 -0.1498  1.3418 -0.2929
10393SOL     OW32077   1.580   0.774   0.971 -0.8899 -0.1878 -1.2542
10393SOL    HW132078   1.668   0.820   0.978 -0.6534 -0.3701 -2.6497
10393SOL    HW232079   1.557   0.732   1.058 -0.3336  1.1643 -0.4355
10394SOL     OW32080   0.048   5.274   4.257 -0.2348  0.3992 -0.3216
10394SOL    HW132081   0.142   5.245   4.269 -0.8012 -1.3049  0.2645
10394SOL    HW232082   0.017   5.250   4.165  0.0418  1.4129 -0.6888
10395SOL     OW32083   5.971   1.343   1.475  0.1699  0.5110 -0.3985
10395SOL    HW132084   5.917   1.398   1.411 -1.0759  0.5199  0.6141
10395SOL    HW232085   5.986   1.394   1.559  0.1061 -0.2149  0.0622
10396SOL     OW32086   6.002   5.127   3.462 -0.4169 -0.1384 -0.1009
10396SOL    HW132087   6.048   5.084   3.384 -0.7287 -0.7372  0.0357
10396SOL    HW232088   5.943   5.059   3.507  1.0551 -0.2996  1.6879
10397SOL     OW32089   4.069   0.701   3.917  0.3222  0.4018 -0.3671
10397SOL    HW132090   4.028   0.618   3.879 -1.2287  2.0452 -2.5182
10397SOL    HW232091   4.078   0.691   4.016 -0.6951 -1.9396 -0.4383
10398SOL     OW32092   1.986   6.153   6.997  0.1008 -0.0949 -0.3039
10398SOL    HW132093   1.996   6.056   7.022 -2.3438 -0.4592 -0.5088
10398SOL    HW232094   1.930   6.199   7.066 -0.6412  0.6186 -1.3637
10399SOL     OW32095   1.160   0.938   5.328 -0.1364 -0.4047  0.0460
10399SOL    HW132096   1.070   0.901   5.350 -0.7264  0.7581 -0.3678
10399SOL    HW232097   1.186   1.007   5.396  1.2401 -1.9492  1.1814
10400SOL     OW32098   0.834   2.331   1.584  0.0176  0.2949  0.2511
10400SOL    HW132099   0.873   2.389   1.656 -2.2569 -0.1678  1.9567
10400SOL    HW232100   0.737   2.350   1.576  0.1018 -0.1005 -2.3590
10401SOL     OW32101   3.103   2.884   1.083  0.5357  0.8104  0.4298
10401SOL    HW132102   3.107   2.888   0.983  0.4063 -1.3377  0.2869
10401SOL    HW232103   3.171   2.947   1.122  0.6126  1.6474 -0.9926
10402SOL     OW32104   6.944   6.715   2.237 -0.4797 -0.2842  0.3291
10402SOL    HW132105   6.853   6.698   2.199 -0.7875 -1.4032  1.5005
10402SOL    HW232106   6.937   6.782   2.311 -0.1701  0.4744 -0.3207
10403SOL     OW32107   3.433   6.789   5.034 -0.3601  0.5871  0.0928
10403SOL    HW132108   3.483   6.779   5.120  0.0607 -0.6360 -0.2661
10403SOL    HW232109   3.389   6.879   5.031 -0.0628  0.8021  1.4072
10404SOL     OW32110   4.849   4.352   4.968  0.5054 -0.3339  0.1931
10404SOL    HW132111   4.755   4.373   4.941  0.0255 -1.1748  1.1390
10404SOL    HW232112   4.849   4.309   5.058  1.4243 -3.5560 -1.1880
10405SOL     OW32113   1.001   0.581   4.415 -0.2290  0.5650 -0.1780
10405SOL    HW132114   1.072   0.624   4.358  1.8395 -1.1763  0.9600
10405SOL    HW232115   0.977   0.642   4.490  1.6229  0.3855  0.6038
10406SOL     OW32116   4.142   6.627   0.459  0.5135  0.1266  0.1166
10406SOL    HW132117   4.042   6.621   0.459  0.5002  0.1081  1.3382
10406SOL    HW232118   4.170   6.718   0.430  0.0970  0.4988  0.8445
10407SOL     OW32119   0.108   3.738   2.567 -0.0518  0.0863  0.1390
10407SOL    HW132120   0.105   3.646   2.526  1.9933 -0.5573  1.3015
10407SOL    HW232121   0.176   3.793   2.520 -0.5493  0.6882  0.1111
10408SOL     OW32122   1.219   0.637   4.246 -0.3867 -0.1515  0.9756
10408SOL    HW132123   1.233   0.552   4.194 -3.0736 -0.8819  1.2602
10408SOL    HW232124   1.273   0.711   4.205  0.6329 -1.5789 -0.3916
10409SOL     OW32125   6.901   2.503   6.549 -0.3884 -0.1532  0.1017
10409SOL    HW132126   6.967   2.547   6.609 -0.4657 -0.6946  0.5955
10409SOL    HW232127   6.829   2.568   6.523  0.0382  0.2839  0.0045
10410SOL     OW32128   3.905   2.183   1.821 -0.8907  0.8173  0.0074
10410SOL    HW132129   3.975   2.137   1.876 -1.9210 -1.8619 -0.7640
10410SOL    HW232130   3.823   2.196   1.876 -2.0111 -2.0958 -0.8253
10411SOL     OW32131   6.730   4.705   1.826  0.4301 -0.2303 -0.4650
10411SOL    HW132132   6.668   4.781   1.843  0.4508 -0.1760 -0.6310
10411SOL    HW232133   6.677   4.626   1.794  0.3677 -0.3953  0.0456
10412SOL     OW32134   0.346   2.065   6.241  0.4035 -0.1904 -0.5744
10412SOL    HW132135   0.353   2.079   6.339  0.6789 -1.4044 -0.4054
10412SOL    HW232136   0.388   2.142   6.193  1.8393 -0.4106  0.2773
10413SOL     OW32137   4.965   1.320   2.490 -0.1856 -0.0230  0.2521
10413SOL    HW132138   5.037   1.270   2.538 -0.6869 -1.0631 -0.0450
10413SOL    HW232139   4.948   1.407   2.536 -1.4754 -1.4600  2.7164
10414SOL     OW32140   4.812   0.641   3.818  0.2444 -0.1705  0.0717
10414SOL    HW132141   4.817   0.542   3.809 -0.5837 -0.4629  2.2475
10414SOL    HW232142   4.852   0.669   3.905  0.8226  1.4708 -0.6676
10415SOL     OW32143   0.223   5.824   0.503 -0.0191 -0.2755  0.3319
10415SOL    HW132144   0.289   5.749   0.502 -0.0482 -0.3653  1.8129
10415SOL    HW232145   0.263   5.904   0.458 -0.1828 -1.2892 -1.7255
10416SOL     OW32146   5.953   5.640   6.326 -0.3265  0.2241 -0.5400
10416SOL    HW132147   5.992   5.548   6.320 -0.3026  0.1731  0.2834
10416SOL    HW232148   5.893   5.646   6.406  2.1253  1.8009  1.3593
10417SOL     OW32149   5.222   3.201   5.935 -0.5563 -1.0409 -0.1692
10417SOL    HW132150   5.276   3.279   5.967 -1.6801  0.2033 -1.1811
10417SOL    HW232151   5.157   3.173   6.006 -2.9369  1.6041 -1.0997
10418SOL     OW32152   2.114   2.816   5.329 -0.1097 -0.2419 -0.2543
10418SOL    HW132153   2.125   2.867   5.414  0.9430 -3.5175  1.7540
10418SOL    HW232154   2.203   2.797   5.288 -0.4891 -0.2603 -1.1129
10419SOL     OW32155   3.451   4.836   0.269 -0.0506 -0.2866  0.4025
10419SOL    HW132156   3.488   4.780   0.195  1.3401  1.1097 -0.0143
10419SOL    HW232157   3.360   4.869   0.243  0.8611  1.0814 -1.2113
10420SOL     OW32158   5.906   1.982   4.177 -0.4149  0.4353  1.0197
10420SOL    HW132159   5.983   1.946   4.230 -0.9893 -2.8977 -0.1647
10420SOL    HW232160   5.821   1.944   4.213 -0.9427 -0.6761 -1.2307
10421SOL     OW32161   1.215   3.282   6.169 -0.0543  0.2212  0.0355
10421SOL    HW132162   1.166   3.296   6.255  0.0454 -1.4257  0.4129
10421SOL    HW232163   1.158   3.227   6.107  0.8643 -0.8401  0.0920
10422SOL     OW32164   5.242   5.522   1.493  0.3649  0.6756 -0.0069
10422SOL    HW132165   5.266   5.611   1.453  0.0413  0.7984  0.0685
10422SOL    HW232166   5.164   5.483   1.443  2.6440 -1.2245 -2.3834
10423SOL     OW32167   0.172   2.733   5.656 -0.3503 -0.2202  0.1065
10423SOL    HW132168   0.139   2.709   5.564  1.0255  0.7971 -0.6920
10423SOL    HW232169   0.237   2.663   5.687 -1.5921 -1.1075  0.7715
10424SOL     OW32170   5.067   3.471   6.108  0.1594 -0.2415 -0.0203
10424SOL    HW132171   4.970   3.456   6.090  0.2557  0.1312 -0.8877
10424SOL    HW232172   5.113   3.383   6.122 -0.7702 -0.3417  3.0919
10425SOL     OW32173   3.223   3.485   3.820  0.2671  0.3780 -0.2440
10425SOL    HW132174   3.252   3.580   3.832  0.5553  0.1428  1.0368
10425SOL    HW232175   3.288   3.438   3.760  1.2437  0.4773  0.7077
10426SOL     OW32176   5.470   6.226   3.642 -0.2883 -0.1893 -0.1470
10426SOL    HW132177   5.422   6.174   3.712 -2.7935  1.1333 -0.7417
10426SOL    HW232178   5.499   6.165   3.568  2.1456 -1.5538  1.7988
10427SOL     OW32179   5.095   3.262   3.873  0.3626 -0.4961  0.2695
10427SOL    HW132180   5.110   3.274   3.775 -1.8470 -1.0688 -0.1837
10427SOL    HW232181   5.107   3.166   3.897 -2.1659 -0.9473 -0.0841
10428SOL     OW32182   3.135   0.515   3.898  0.0622  0.2597  0.5650
10428SOL    HW132183   3.169   0.468   3.817 -0.6748  0.8620 -0.1119
10428SOL    HW232184   3.045   0.479   3.923 -1.1436  2.1585 -0.7763
10429SOL     OW32185   2.770   1.144   4.480 -0.0298  0.2089 -0.1452
10429SOL    HW132186   2.694   1.138   4.415  0.0296  2.1619 -0.4464
10429SOL    HW232187   2.751   1.215   4.547  1.4785  0.6581 -0.1574
10430SOL     OW32188   6.482   0.452   1.602 -0.0604 -0.1286 -0.4401
10430SOL    HW132189   6.558   0.495   1.554 -0.2399  2.3728  1.3473
10430SOL    HW232190   6.517   0.398   1.678 -0.0309  0.5127  0.0050
10431SOL     OW32191   6.891   0.518   3.184  0.1088  0.5547 -0.4993
10431SOL    HW132192   6.890   0.572   3.099  1.4451 -0.4479 -1.2047
10431SOL    HW232193   6.857   0.426   3.165  1.2753  0.0330 -0.1999
10432SOL     OW32194   1.145   4.955   6.408 -0.2510 -0.7995 -0.1759
10432SOL    HW132195   1.109   4.873   6.452  0.7424 -1.6255 -0.8388
10432SOL    HW232196   1.236   4.935   6.371 -0.5552  0.2089 -1.5339
10433SOL     OW32197   4.877   1.794   5.970  0.3711 -0.2218 -0.2111
10433SOL    HW132198   4.951   1.779   5.904  0.2055  0.0593 -0.4658
10433SOL    HW232199   4.815   1.864   5.934  0.2273 -0.1366  0.2024
10434SOL     OW32200   3.037   0.979   1.518 -0.0571  0.3226  0.7637
10434SOL    HW132201   2.938   0.968   1.513  0.0993 -1.1463  0.3985
10434SOL    HW232202   3.067   1.047   1.451 -0.6111 -0.8772 -0.7540
10435SOL     OW32203   0.684   3.292   1.732 -0.4387 -0.8053  0.0906
10435SOL    HW132204   0.688   3.192   1.731  1.6607 -0.7899  1.1543
10435SOL    HW232205   0.774   3.328   1.757 -0.9984  1.3797 -0.8524
10436SOL     OW32206   5.351   0.993   0.089 -0.0368  0.6985  0.1036
10436SOL    HW132207   5.332   0.900   0.119  0.5842  0.7583  0.7147
10436SOL    HW232208   5.365   0.995  -0.010 -0.7407  0.2662 -0.0128
10437SOL     OW32209   0.897   3.802   4.706 -0.1919  0.5283  0.3074
10437SOL    HW132210   0.903   3.816   4.805 -0.6198  0.3557  0.3625
10437SOL    HW232211   0.803   3.821   4.676 -0.1588  0.2141 -0.0028
10438SOL     OW32212   0.903   6.099   0.337 -0.2304 -0.1077  0.6612
10438SOL    HW132213   0.897   6.161   0.259  1.5874 -2.0897 -1.2071
10438SOL    HW232214   0.999   6.091   0.366 -0.0403 -3.3749 -0.4637
10439SOL     OW32215   5.169   6.918   0.397 -0.5614 -0.3812 -0.6582
10439SOL    HW132216   5.172   6.909   0.497 -1.6591 -0.4828 -0.6162
10439SOL    HW232217   5.161   7.015   0.373 -1.0737 -0.4088 -0.6105
10440SOL     OW32218   1.498   1.997   0.626 -0.1041  0.4424 -1.0169
10440SOL    HW132219   1.465   2.091   0.630  2.3967  1.3542  1.5418
10440SOL    HW232220   1.437   1.937   0.678 -0.7825  0.9753 -1.1988
10441SOL     OW32221   5.537   5.524   0.708  0.0794  0.3814 -0.0919
10441SOL    HW132222   5.519   5.430   0.679 -1.8260  0.3973  0.9564
10441SOL    HW232223   5.522   5.586   0.630  1.6578 -0.1571 -0.8787
10442SOL     OW32224   5.417   4.719   6.599 -0.6138 -0.0386 -0.8424
10442SOL    HW132225   5.407   4.720   6.499 -1.9822  0.8635 -0.7260
10442SOL    HW232226   5.473   4.796   6.628  0.3412 -0.6787 -0.9436
10443SOL     OW32227   2.476   4.577   4.436  0.0094  0.2659  0.2993
10443SOL    HW132228   2.550   4.533   4.486 -0.0778 -1.3670 -0.9055
10443SOL    HW232229   2.389   4.563   4.484 -0.2441 -2.2326 -0.7615
10444SOL     OW32230   6.593   3.397   3.221 -0.4509 -0.1748 -0.2205
10444SOL    HW132231   6.643   3.481   3.200  0.7102 -0.0972  2.4527
10444SOL    HW232232   6.564   3.353   3.136  2.8346  0.5874 -1.8707
10445SOL     OW32233   5.054   3.997   6.255 -0.6987  0.5568 -0.4718
10445SOL    HW132234   5.100   3.941   6.187  0.3208  1.0636 -0.2206
10445SOL    HW232235   5.093   4.089   6.255 -2.2672  1.2517 -0.7958
10446SOL     OW32236   5.621   4.583   6.287 -0.0451  0.3093  0.2768
10446SOL    HW132237   5.661   4.514   6.227  1.3986  0.1812  1.3453
10446SOL    HW232238   5.670   4.669   6.275 -1.0591  0.8458 -0.1657
10447SOL     OW32239   4.065   0.050   0.514  0.1491  0.0392 -1.2016
10447SOL    HW132240   4.060   0.078   0.610 -0.6216  1.1360 -1.5416
10447SOL    HW232241   4.160   0.025   0.492  0.0623 -1.7853  0.2278
10448SOL     OW32242   4.875   5.719   4.350 -0.6505 -1.1426 -0.4291
10448SOL    HW132243   4.876   5.638   4.408  1.0278 -0.8035  0.0694
10448SOL    HW232244   4.933   5.704   4.270  1.1338  0.1398  0.5583
10449SOL     OW32245   4.104   4.690   5.708 -0.2879  0.1539  0.7568
10449SOL    HW132246   4.051   4.758   5.759  0.1584  0.5994  0.6387
10449SOL    HW232247   4.180   4.736   5.661 -1.6174  0.0501 -1.6781
10450SOL     OW32248   4.579   0.257   6.130 -0.4421 -0.7218 -0.0757
10450SOL    HW132249   4.632   0.338   6.155  0.0342 -1.0176 -0.1080
10450SOL    HW232250   4.486   0.283   6.106  0.2598  0.0746 -2.0995
10451SOL     OW32251   0.376   1.963   1.566 -0.1446  0.3628  0.1557
10451SOL    HW132252   0.406   1.880   1.520  0.5809  1.6033 -1.7606
10451SOL    HW232253   0.393   1.955   1.665  0.1463 -1.6160 -0.0168
10452SOL     OW32254   1.780   3.280   5.389 -0.4506  0.1170 -0.4908
10452SOL    HW132255   1.696   3.315   5.430 -0.0133  0.5954  0.0088
10452SOL    HW232256   1.832   3.228   5.457  1.0633  2.2507  0.0894
10453SOL     OW32257   5.268   5.285   4.965  0.1720  0.2106 -0.3393
10453SOL    HW132258   5.345   5.294   4.901 -0.7512  0.8711 -1.4050
10453SOL    HW232259   5.302   5.292   5.059  1.6162 -1.1777 -0.7110
10454SOL     OW32260   4.832   3.117   3.763  0.3060 -0.3076 -0.3583
10454SOL    HW132261   4.830   3.169   3.678 -0.5306 -0.5095 -0.4743
10454SOL    HW232262   4.835   3.181   3.841  0.9958 -0.1227 -0.5328
10455SOL     OW32263   3.885   3.893   5.899  0.4330  0.4428  0.7261
10455SOL    HW132264   3.923   3.819   5.954  1.1614  0.6582  0.5192
10455SOL    HW232265   3.822   3.855   5.831  0.1063  0.1057  1.2165
10456SOL     OW32266   3.597   2.898   3.140 -0.2231  0.4918  0.2494
10456SOL    HW132267   3.499   2.874   3.139 -1.2379  3.9412  1.6186
10456SOL    HW232268   3.616   2.961   3.066  1.3110 -0.9418 -0.6489
10457SOL     OW32269   6.507   2.696   1.223  0.2570 -0.3170  0.0888
10457SOL    HW132270   6.576   2.625   1.215  0.0550 -0.6608  1.2633
10457SOL    HW232271   6.417   2.654   1.235 -0.2313  0.1147 -1.7619
10458SOL     OW32272   0.490   0.632   0.868  0.5077 -0.2930  0.0002
10458SOL    HW132273   0.437   0.716   0.861  2.1210  0.7326 -0.4122
10458SOL    HW232274   0.571   0.648   0.925  0.6649 -1.6592  0.1945
10459SOL     OW32275   5.133   5.843   3.417  0.3190  0.0353  0.1605
10459SOL    HW132276   5.054   5.805   3.466  0.5580 -1.5896 -0.6490
10459SOL    HW232277   5.101   5.903   3.344 -0.1905 -0.5709 -0.1286
10460SOL     OW32278   4.918   1.926   2.121 -0.0775 -0.0477 -0.2738
10460SOL    HW132279   4.878   1.896   2.034 -0.4673 -0.2874 -0.0143
10460SOL    HW232280   5.000   1.873   2.140  0.2085  0.2497 -0.6706
10461SOL     OW32281   3.053   5.952   5.199 -0.2221 -0.3100 -0.0526
10461SOL    HW132282   3.147   5.958   5.232 -0.5898  2.2767  0.7596
10461SOL    HW232283   3.017   6.044   5.184 -2.2744 -1.2668 -1.4460
10462SOL     OW32284   1.536   6.215   4.206 -0.3270 -0.0875  0.0105
10462SOL    HW132285   1.502   6.141   4.147  1.3670 -0.4941 -0.4936
10462SOL    HW232286   1.634   6.204   4.221 -0.0234  2.0783 -0.0895
10463SOL     OW32287   0.802   5.299   3.363 -0.3395 -0.1804  0.1413
10463SOL    HW132288   0.884   5.344   3.327 -0.8367  1.0449  0.4686
10463SOL    HW232289   0.758   5.359   3.430 -2.3071 -0.1380 -1.0826
10464SOL     OW32290   3.304   4.945   4.467  0.1216  0.3621 -0.2854
10464SOL    HW132291   3.299   4.845   4.460 -1.2374  0.4285 -0.5747
10464SOL    HW232292   3.291   4.985   4.376 -0.5463  0.8251  0.0072
10465SOL     OW32293   1.668   1.973   1.436 -0.4053  0.2899  0.1192
10465SOL    HW132294   1.607   1.931   1.503 -0.4854  1.1012  0.5706
10465SOL    HW232295   1.643   2.070   1.424  1.8480  1.1298  1.6233
10466SOL     OW32296   0.579   4.098   3.001  0.5542  0.0544  0.4625
10466SOL    HW132297   0.499   4.121   2.946  1.6037  0.7235 -0.8298
10466SOL    HW232298   0.594   4.169   3.070  1.6065  1.4156 -1.0946
10467SOL     OW32299   3.787   2.205   5.333  0.0891 -0.4119 -0.0461
10467SOL    HW132300   3.867   2.265   5.330  0.7580 -1.0984  2.0250
10467SOL    HW232301   3.816   2.112   5.353 -1.2065 -0.7023  0.6118
10468SOL     OW32302   4.472   1.799   1.230  0.4606 -0.2134 -0.0934
10468SOL    HW132303   4.376   1.798   1.261  0.2823 -0.0924 -0.6272
10468SOL    HW232304   4.485   1.873   1.165  1.1327  0.3008  0.6124
10469SOL     OW32305   5.863   6.612   5.607 -0.1608  0.3196 -0.2885
10469SOL    HW132306   5.785   6.574   5.657  0.7726 -1.2231  0.0745
10469SOL    HW232307   5.831   6.684   5.545 -1.8984 -0.4658 -0.3713
10470SOL     OW32308   0.284   2.712   6.315 -0.0294  0.4995  0.4754
10470SOL    HW132309   0.220   2.679   6.247 -0.1798  0.4514  0.6386
10470SOL    HW232310   0.313   2.806   6.293  1.3668 -0.1687 -0.6827
10471SOL     OW32311   0.810   3.109   6.514 -0.6835  0.1068 -0.6650
10471SOL    HW132312   0.839   3.157   6.597  2.6281 -0.9025 -1.0866
10471SOL    HW232313   0.741   3.041   6.537 -1.2103  1.1244  0.9219
10472SOL     OW32314   6.060   0.601   2.866 -0.2098 -0.8753  0.1373
10472SOL    HW132315   6.105   0.675   2.816 -0.5106  0.5197  1.8524
10472SOL    HW232316   6.024   0.534   2.800  0.9397 -0.0337 -1.4125
10473SOL     OW32317   2.476   6.070   3.740  0.4554 -0.0477 -0.1127
10473SOL    HW132318   2.446   6.166   3.745  2.3736  0.5293  3.4310
10473SOL    HW232319   2.522   6.055   3.653 -0.8702  1.9110 -1.2367
10474SOL     OW32320   5.975   3.553   2.112 -0.0552  0.7520 -0.0099
10474SOL    HW132321   5.991   3.646   2.078 -1.3019  0.7095 -0.7913
10474SOL    HW232322   5.992   3.550   2.211  0.5716  1.6654 -0.0806
10475SOL     OW32323   5.804   6.958   2.282  0.1645 -0.2861  0.3330
10475SOL    HW132324   5.885   6.991   2.331  1.7950 -0.5667 -1.9776
10475SOL    HW232325   5.801   6.858   2.284 -0.4716 -0.2639  0.8905
10476SOL     OW32326   5.904   1.137   0.046  0.3163  0.0617 -0.1962
10476SOL    HW132327   5.960   1.065   0.087 -0.9740  0.5591  2.6949
10476SOL    HW232328   5.822   1.096   0.006 -0.3322 -0.1621  1.2918
10477SOL     OW32329   3.207   2.357   1.103  0.0831  0.9587 -0.5833
10477SOL    HW132330   3.184   2.282   1.164  1.4673  1.4741  0.6184
10477SOL    HW232331   3.266   2.422   1.150  0.4682  1.8357 -2.1955
10478SOL     OW32332   4.764   0.433   2.700  0.1503 -0.0736 -0.2848
10478SOL    HW132333   4.680   0.442   2.646  0.3158 -2.1287 -0.9915
10478SOL    HW232334   4.812   0.349   2.673  3.2223  1.7255 -0.9499
10479SOL     OW32335   3.963   6.422   1.276 -0.1799 -0.0764 -0.2380
10479SOL    HW132336   3.954   6.331   1.316 -0.3245 -0.5429 -1.2940
10479SOL    HW232337   4.034   6.421   1.205  0.5354  0.8930  0.4223
10480SOL     OW32338   2.157   5.571   4.243 -0.1406 -0.0513 -0.1241
10480SOL    HW132339   2.118   5.662   4.233 -1.3601 -0.6253 -0.7572
10480SOL    HW232340   2.213   5.549   4.164 -4.4405 -1.9963 -3.0156
10481SOL     OW32341   5.042   5.899   5.387 -0.6985  0.3207  0.2489
10481SOL    HW132342   4.980   5.822   5.369 -1.9517  0.9813  1.5883
10481SOL    HW232343   5.078   5.891   5.480  0.3274  0.5805 -0.1179
10482SOL     OW32344   0.333   2.573   4.719  0.1327 -0.2701  0.2434
10482SOL    HW132345   0.417   2.548   4.769 -0.2991 -0.7675  0.7355
10482SOL    HW232346   0.351   2.567   4.621  0.7673 -0.0655  0.3386
10483SOL     OW32347   4.146   4.757   5.196 -0.0851  0.5166 -0.2166
10483SOL    HW132348   4.091   4.814   5.136  0.9388 -0.6345 -2.3637
10483SOL    HW232349   4.087   4.715   5.266 -1.1825  2.4375  0.0664
10484SOL     OW32350   3.595   4.148   0.911 -0.2263 -0.7057 -0.3448
10484SOL    HW132351   3.694   4.160   0.918 -0.3975  1.0823 -0.5866
10484SOL    HW232352   3.549   4.199   0.983 -0.9737 -2.1533  0.2522
10485SOL     OW32353   1.810   0.776   6.114 -0.2613 -0.0611 -0.2902
10485SOL    HW132354   1.762   0.813   6.194  1.2145  0.9891  0.1553
10485SOL    HW232355   1.770   0.688   6.089  0.3250 -1.2885  2.6885
10486SOL     OW32356   0.947   0.260   4.950  0.4167 -0.1911 -0.0606
10486SOL    HW132357   1.041   0.232   4.973  0.3669  0.2971  0.7753
10486SOL    HW232358   0.918   0.214   4.866  1.4427 -0.2765 -0.3854
10487SOL     OW32359   1.839   0.424   4.548  0.4100 -0.2828 -0.2508
10487SOL    HW132360   1.761   0.482   4.572  0.5368 -1.1046  2.3829
10487SOL    HW232361   1.836   0.405   4.450  0.2274  3.8959 -1.2583
10488SOL     OW32362   3.230   4.951   6.612  0.3087  0.4683 -0.7150
10488SOL    HW132363   3.161   4.922   6.677 -0.2075 -0.0165 -1.4602
10488SOL    HW232364   3.298   4.878   6.600  0.5229  0.6413 -0.5512
10489SOL     OW32365   6.263   5.517   2.145 -0.7256 -0.0791 -0.0286
10489SOL    HW132366   6.283   5.575   2.065 -0.1134  0.2105  0.3256
10489SOL    HW232367   6.302   5.558   2.227 -2.2865  0.1727  0.6137
10490SOL     OW32368   2.416   0.480   4.155 -0.6048  0.3884  0.3816
10490SOL    HW132369   2.330   0.431   4.154 -0.3378 -0.2008 -2.2732
10490SOL    HW232370   2.491   0.416   4.172 -0.3878  0.0434 -1.5960
10491SOL     OW32371   0.047   3.099   5.296 -0.0339 -0.2649  1.0543
10491SOL    HW132372   0.027   3.193   5.268 -0.9516 -0.2370  1.7606
10491SOL    HW232373   0.099   3.053   5.224  1.5018  1.1404  1.2259
10492SOL     OW32374   6.777   3.084   3.622 -0.5671  0.6628 -0.0083
10492SOL    HW132375   6.705   3.109   3.687 -1.6229  2.0058 -1.5969
10492SOL    HW232376   6.735   3.052   3.537  0.6747  1.5692 -1.0075
10493SOL     OW32377   4.791   1.505   3.367 -0.0543  0.2488 -0.0335
10493SOL    HW132378   4.771   1.466   3.277  0.5935  0.3674 -0.2393
10493SOL    HW232379   4.769   1.602   3.367  0.5790  0.3987 -0.2867
10494SOL     OW32380   2.538   4.004   5.872  0.1435  0.0556 -0.1325
10494SOL    HW132381   2.439   4.014   5.861  0.1955  0.3316 -0.3644
10494SOL    HW232382   2.577   3.969   5.787  0.7331  3.5260 -1.4691
10495SOL     OW32383   4.126   1.631   1.824 -0.3927  0.2323 -0.2978
10495SOL    HW132384   4.152   1.625   1.728 -1.0179 -0.4723 -0.4316
10495SOL    HW232385   4.088   1.543   1.854  1.3699 -0.1304  1.0701
10496SOL     OW32386   2.080   0.056   1.320  0.5157  0.5522  0.0528
10496SOL    HW132387   1.990   0.032   1.357 -0.0705  0.8472 -1.1281
10496SOL    HW232388   2.149  -0.007   1.355  0.1242  1.2399  2.1686
10497SOL     OW32389   5.821   3.347   5.334 -0.4598 -0.0784 -0.5610
10497SOL    HW132390   5.795   3.441   5.315  0.0711 -0.2894 -2.6038
10497SOL    HW232391   5.783   3.287   5.263  2.4053 -0.8701 -1.5605
10498SOL     OW32392   4.426   2.379   0.590  0.7260  0.2358 -0.2744
10498SOL    HW132393   4.391   2.470   0.570 -0.5752 -0.4194 -1.1876
10498SOL    HW232394   4.441   2.369   0.688  1.6592  1.6760 -0.2505
10499SOL     OW32395   5.763   2.978   2.751  0.2347  0.4132  0.5938
10499SOL    HW132396   5.701   2.979   2.672 -0.9604  0.3040  1.5035
10499SOL    HW232397   5.855   2.956   2.720 -0.3910 -0.6494 -0.6546
10500SOL     OW32398   0.607   5.597   2.309  0.3491 -0.3321  0.0773
10500SOL    HW132399   0.588   5.517   2.253 -1.3627 -0.1470  0.3230
10500SOL    HW232400   0.551   5.674   2.278  1.3379  0.5400  0.3769
10501SOL     OW32401   7.015   0.162   3.251 -0.0514 -0.3576  0.5757
10501SOL    HW132402   6.951   0.193   3.322  0.3044  0.3281  0.6050
10501SOL    HW232403   6.971   0.169   3.162  0.3228  1.1314  0.4848
10502SOL     OW32404   4.137   2.287   5.884 -0.9790  0.4463 -0.8891
10502SOL    HW132405   4.058   2.321   5.834 -0.0224  1.1133 -1.9878
10502SOL    HW232406   4.220   2.302   5.830 -0.2632 -1.7297 -0.4922
10503SOL     OW32407   5.932   4.674   4.803 -0.1657  0.1878  0.9244
10503SOL    HW132408   5.932   4.626   4.891  0.8006 -0.9152  0.3445
10503SOL    HW232409   6.025   4.703   4.780 -0.0314 -1.3698 -0.6820
10504SOL     OW32410   2.885   2.718   1.698  0.0520  0.1146 -0.7141
10504SOL    HW132411   2.790   2.737   1.724  0.3402  1.2226 -0.3938
10504SOL    HW232412   2.916   2.635   1.743 -0.2051  0.7301  0.6617
10505SOL     OW32413   3.933   3.992   3.758 -0.4828 -0.4052 -0.1113
10505SOL    HW132414   3.981   3.975   3.844 -1.9845 -1.2251  0.5958
10505SOL    HW232415   3.857   4.055   3.774  0.3911  1.0267 -1.2502
10506SOL     OW32416   5.676   4.044   5.907  0.0627 -0.3428 -0.0455
10506SOL    HW132417   5.751   4.066   5.970 -0.1430 -0.5689  0.2850
10506SOL    HW232418   5.592   4.084   5.942  0.0524  0.0158 -0.4831
10507SOL     OW32419   1.259   0.204   2.011  0.7367  0.1265 -0.5487
10507SOL    HW132420   1.202   0.266   2.065 -1.0531 -0.9123 -1.1584
10507SOL    HW232421   1.344   0.185   2.061 -0.5748 -0.3411  1.6703
10508SOL     OW32422   4.782   2.819   3.179  0.2876  0.0752 -0.3709
10508SOL    HW132423   4.702   2.767   3.150  0.7811  0.3928 -2.5071
10508SOL    HW232424   4.864   2.778   3.140  1.0724  0.3383  0.9629
10509SOL     OW32425   5.667   5.672   3.678  0.3590  0.3307 -0.2501
10509SOL    HW132426   5.632   5.650   3.587 -1.2456  0.6258  0.2544
10509SOL    HW232427   5.649   5.768   3.699 -0.1894  0.0347  0.7313
10510SOL     OW32428   0.032   5.551   3.678 -0.4108  0.5336  0.7951
10510SOL    HW132429   0.062   5.594   3.593  2.7944 -0.3904  1.3233
10510SOL    HW232430  -0.065   5.571   3.693 -0.6135  2.2842 -2.0695
10511SOL     OW32431   1.876   3.411   3.407  0.0136 -0.4788  0.5015
10511SOL    HW132432   1.810   3.477   3.371  0.2646 -0.2155  0.5193
10511SOL    HW232433   1.911   3.354   3.332  0.3100 -0.1318  0.3724
10512SOL     OW32434   2.441   2.540   3.658  0.3054  0.1176 -0.0585
10512SOL    HW132435   2.497   2.465   3.693 -0.7275 -0.7833 -0.3020
10512SOL    HW232436   2.415   2.521   3.564  0.8697  1.2807 -0.4676
10513SOL     OW32437   4.017   4.100   1.695  0.0080 -0.0217  0.2342
10513SOL    HW132438   4.086   4.171   1.711  1.3963 -1.2538  0.0101
10513SOL    HW232439   4.058   4.010   1.711 -1.3874 -0.8264 -0.5243
10514SOL     OW32440   5.088   5.802   5.656 -0.0640 -0.1681  0.5764
10514SOL    HW132441   5.118   5.708   5.642 -0.9988 -0.8635  2.7727
10514SOL    HW232442   5.166   5.859   5.682  0.7824  0.0811 -2.1909
10515SOL     OW32443   1.899   3.497   5.934 -0.2194 -0.0099 -0.4188
10515SOL    HW132444   1.817   3.443   5.917 -0.9051  0.5790  0.8626
10515SOL    HW232445   1.878   3.569   6.000  1.5728 -0.4693  0.7154
10516SOL     OW32446   2.339   6.332   3.798 -0.2188  0.1432 -0.9680
10516SOL    HW132447   2.268   6.370   3.856 -0.4466 -1.8245  0.1348
10516SOL    HW232448   2.414   6.398   3.789 -0.7625  1.0006  0.4936
10517SOL     OW32449   5.751   5.789   2.080  0.6750  0.1688 -0.1704
10517SOL    HW132450   5.728   5.885   2.099  0.2837 -0.1106  0.8648
10517SOL    HW232451   5.676   5.746   2.030  1.4268  0.7370 -1.8654
10518SOL     OW32452   4.952   2.421   4.849  0.0671 -0.4324 -0.4212
10518SOL    HW132453   4.958   2.346   4.914 -0.7687 -0.2355 -0.1039
10518SOL    HW232454   5.044   2.453   4.827  0.3649  0.2435  1.5492
10519SOL     OW32455   2.475   6.386   2.320  0.9874  0.9279 -0.4162
10519SOL    HW132456   2.516   6.476   2.333 -1.1962  1.9416 -0.1461
10519SOL    HW232457   2.525   6.318   2.373  1.6935  2.2629  0.6712
10520SOL     OW32458   4.838   0.899   0.283  0.3460  0.1449  0.5311
10520SOL    HW132459   4.906   0.966   0.253  1.1651 -1.8114 -2.4476
10520SOL    HW232460   4.881   0.833   0.344  1.3597 -1.2586 -1.5740
10521SOL     OW32461   1.213   3.342   0.437  0.3128 -0.3961  0.2621
10521SOL    HW132462   1.176   3.410   0.374  1.8798 -0.9755 -1.3893
10521SOL    HW232463   1.170   3.253   0.420  0.2734 -0.4108  0.4428
10522SOL     OW32464   5.171   4.894   0.373 -0.1716 -0.3403  0.0270
10522SOL    HW132465   5.085   4.883   0.422  0.5452  0.3589  1.5146
10522SOL    HW232466   5.230   4.815   0.388 -0.1267 -0.3320 -0.0973
10523SOL     OW32467   5.787   3.728   3.663 -0.4341  0.3864  0.7256
10523SOL    HW132468   5.727   3.716   3.584  0.1629  1.9065 -0.0032
10523SOL    HW232469   5.740   3.698   3.746 -1.6148  0.1293 -0.0191
10524SOL     OW32470   3.326   5.073   3.376  0.0091  0.0571  0.4019
10524SOL    HW132471   3.279   4.993   3.413  0.2497  0.6057  1.9845
10524SOL    HW232472   3.259   5.133   3.331 -0.3755 -0.4297  0.3172
10525SOL     OW32473   3.982   1.812   6.110  0.0571  0.5738 -0.1485
10525SOL    HW132474   3.911   1.879   6.134  0.0919  0.5869 -0.0829
10525SOL    HW232475   4.014   1.829   6.017 -1.5716 -0.7612 -0.9986
10526SOL     OW32476   6.099   5.327   4.069 -0.0198  0.0970  0.0328
10526SOL    HW132477   6.176   5.273   4.102  0.5291  0.0690 -1.2568
10526SOL    HW232478   6.047   5.274   4.002 -0.6576  0.4292  0.2582
10527SOL     OW32479   3.981   4.451   1.527 -0.4553  0.1527 -0.0057
10527SOL    HW132480   3.921   4.520   1.567 -1.3016 -0.6695  0.1506
10527SOL    HW232481   4.043   4.416   1.597 -0.4102  0.3359  0.0467
10528SOL     OW32482   1.439   2.215   1.109  0.7813  0.2822  0.4332
10528SOL    HW132483   1.356   2.231   1.162  0.1943  3.0648 -1.1101
10528SOL    HW232484   1.416   2.195   1.014  1.8570 -3.1829  0.7750
10529SOL     OW32485   1.138   6.600   1.239 -0.1345  0.1838 -0.1176
10529SOL    HW132486   1.106   6.691   1.263  1.1601  0.0140  2.6736
10529SOL    HW232487   1.069   6.532   1.265  0.4236  0.1498  1.3562
10530SOL     OW32488   2.685   3.616   5.673  0.2097 -0.3036 -0.1987
10530SOL    HW132489   2.770   3.656   5.707 -0.0323 -1.8742  2.5028
10530SOL    HW232490   2.699   3.519   5.654 -0.9931 -0.6017  0.3417
10531SOL     OW32491   2.700   0.658   2.352 -0.0610 -0.2342  0.6381
10531SOL    HW132492   2.734   0.724   2.419  1.7118 -0.6702  0.2130
10531SOL    HW232493   2.696   0.701   2.262  1.9920 -0.9084  0.1790
10532SOL     OW32494   5.256   5.077   3.674  0.4965 -0.1517 -0.7193
10532SOL    HW132495   5.224   4.996   3.723  1.5963 -1.4536 -2.0367
10532SOL    HW232496   5.336   5.115   3.720  0.3048 -0.1481 -0.3906
10533SOL     OW32497   1.336   6.487   2.435  0.5305  0.1775  0.3547
10533SOL    HW132498   1.278   6.513   2.358  2.0511 -1.1799 -1.3107
10533SOL    HW232499   1.409   6.554   2.447 -0.5062  1.1402  1.5669
10534SOL     OW32500   5.101   5.581   3.293  0.2055 -0.2678 -0.4789
10534SOL    HW132501   5.078   5.561   3.198  0.8382 -0.3473 -0.6211
10534SOL    HW232502   5.111   5.679   3.305  0.8880 -0.3035 -0.6844
10535SOL     OW32503   0.579   0.350   1.777  0.5309  0.0358  0.0373
10535SOL    HW132504   0.527   0.269   1.751  1.2159  0.3554 -2.6316
10535SOL    HW232505   0.528   0.432   1.751  1.0754  0.3977  0.0863
10536SOL     OW32506   1.606   4.950   5.114 -0.0560  1.0077  0.0909
10536SOL    HW132507   1.535   4.982   5.176 -0.7328  0.8766 -0.6009
10536SOL    HW232508   1.657   5.028   5.078 -0.1239  1.1340  0.2700
10537SOL     OW32509   5.849   5.363   4.184  0.5442  0.1039 -1.1596
10537SOL    HW132510   5.938   5.326   4.159  0.4804  0.5151 -2.0481
10537SOL    HW232511   5.836   5.451   4.138  1.6304  2.4217  2.5330
10538SOL     OW32512   2.754   1.193   4.851 -0.2313  0.5900 -0.5400
10538SOL    HW132513   2.829   1.241   4.897  1.2456 -0.0880 -2.1341
10538SOL    HW232514   2.730   1.242   4.767 -0.3046 -0.2001 -0.9836
10539SOL     OW32515   0.623   5.951   6.759  0.3846 -0.3215 -0.5129
10539SOL    HW132516   0.678   5.957   6.675 -0.3893  0.8580 -0.9567
10539SOL    HW232517   0.533   5.912   6.737  0.3242 -0.3885 -0.1562
10540SOL     OW32518   4.988   2.877   2.573  0.0705  0.0903  0.3455
10540SOL    HW132519   4.945   2.916   2.654 -0.4935 -0.8942  0.5403
10540SOL    HW232520   4.935   2.902   2.492  0.2861  0.5620  0.3478
10541SOL     OW32521   0.605   4.566   3.305  0.4862  0.1687 -0.6734
10541SOL    HW132522   0.690   4.513   3.312  1.0374  1.1023 -0.0236
10541SOL    HW232523   0.527   4.505   3.309  1.0975 -0.5611  0.5296
10542SOL     OW32524   5.420   5.250   5.211 -0.1739 -0.8348 -0.0845
10542SOL    HW132525   5.398   5.253   5.309  0.0788  2.0856 -0.0435
10542SOL    HW232526   5.518   5.233   5.200 -0.1323 -0.7852  0.1919
10543SOL     OW32527   3.580   3.741   4.045  0.1436  0.2422 -0.1047
10543SOL    HW132528   3.511   3.694   4.100 -0.0896  0.3828 -0.2793
10543SOL    HW232529   3.669   3.696   4.058 -0.0142 -0.0438 -0.0187
10544SOL     OW32530   1.841   6.509   0.828  0.5352 -0.2628 -0.3057
10544SOL    HW132531   1.914   6.522   0.761  2.0905  1.7199  1.6664
10544SOL    HW232532   1.780   6.588   0.828  0.6965 -0.1257  0.7941
10545SOL     OW32533   1.220   3.726   3.598 -0.2399 -0.4168  0.1874
10545SOL    HW132534   1.311   3.759   3.574 -0.2198 -0.5312  0.1060
10545SOL    HW232535   1.226   3.633   3.633 -0.5490 -1.2034 -1.7348
10546SOL     OW32536   5.475   5.917   1.309  0.1272 -0.4933  0.6029
10546SOL    HW132537   5.512   5.827   1.287 -1.2286 -1.0528  0.5127
10546SOL    HW232538   5.402   5.940   1.246  0.6981  0.8628  0.3867
10547SOL     OW32539   5.370   5.499   6.363  0.0716 -0.0133 -0.2832
10547SOL    HW132540   5.328   5.410   6.345 -0.0676 -0.1927  0.8647
10547SOL    HW232541   5.337   5.565   6.296 -1.2814 -0.3946 -0.0257
10548SOL     OW32542   6.775   0.401   1.237  0.1800 -0.1055  0.0658
10548SOL    HW132543   6.726   0.457   1.303  0.6518  1.2714 -0.7123
10548SOL    HW232544   6.846   0.456   1.193 -1.4154 -0.3278 -3.0638
10549SOL     OW32545   6.013   2.302   2.295  0.2592 -0.4442 -0.3869
10549SOL    HW132546   6.079   2.371   2.265  1.5967 -1.6755 -0.4022
10549SOL    HW232547   5.969   2.261   2.216  0.3318 -0.4329 -0.4330
10550SOL     OW32548   6.258   6.390   5.008  0.7628  0.2114  0.4242
10550SOL    HW132549   6.253   6.464   4.942 -2.1019 -0.3481 -0.1005
10550SOL    HW232550   6.174   6.387   5.063  1.2994 -1.8751  1.2542
10551SOL     OW32551   5.924   1.547   0.960 -0.1240 -0.0240  0.1480
10551SOL    HW132552   5.860   1.617   0.928  1.0295  0.2117 -1.8203
10551SOL    HW232553   5.993   1.590   1.019  1.3397  0.8793 -2.0664
10552SOL     OW32554   3.254   1.409   0.974  0.3570  0.8123  0.3801
10552SOL    HW132555   3.224   1.353   0.896 -0.2813  1.5236  0.1024
10552SOL    HW232556   3.175   1.432   1.031  0.6078  1.4471  0.4786
10553SOL     OW32557   0.809   0.884   0.928 -0.0646  0.5455 -0.4186
10553SOL    HW132558   0.751   0.835   0.994 -0.5853  1.5141 -0.1326
10553SOL    HW232559   0.769   0.974   0.910 -0.5205 -0.0669 -2.8597
10554SOL     OW32560   1.018   5.784   0.598  0.2586  0.1514  0.4504
10554SOL    HW132561   0.977   5.700   0.634  1.0332 -0.0308  0.9391
10554SOL    HW232562   1.111   5.793   0.633  0.8256  0.2940 -1.0176
10555SOL     OW32563   4.233   5.661   4.891 -0.0582 -0.2366 -0.7762
10555SOL    HW132564   4.303   5.727   4.921  0.4268 -1.4844  0.9857
10555SOL    HW232565   4.144   5.706   4.890  0.3149  0.5606  0.0111
10556SOL     OW32566   5.011   2.188   1.284 -0.3520 -0.5216  0.2373
10556SOL    HW132567   4.918   2.159   1.263 -1.9928  3.0991  1.6319
10556SOL    HW232568   5.047   2.243   1.208  1.1339 -2.6467 -0.6987
10557SOL     OW32569   3.297   5.583   6.218 -0.1824 -0.1670  0.4762
10557SOL    HW132570   3.216   5.626   6.177 -0.9415  0.2709  2.3248
10557SOL    HW232571   3.360   5.654   6.248 -0.2375 -0.4189  1.2014
10558SOL     OW32572   0.071   3.282   0.910 -0.5472  0.1930 -0.3676
10558SOL    HW132573   0.158   3.330   0.908 -0.9575  0.9371 -1.6707
10558SOL    HW232574   0.014   3.312   0.833 -1.3501 -1.4020 -0.4411
10559SOL     OW32575   1.511   6.108   1.203  0.4930  0.1877 -0.6321
10559SOL    HW132576   1.496   6.058   1.288  0.7726  1.2920  0.0949
10559SOL    HW232577   1.595   6.076   1.160  0.3378 -0.3997 -0.5034
10560SOL     OW32578   3.132   0.095   3.874  0.3791  0.5250  0.3511
10560SOL    HW132579   3.134   0.000   3.841  1.2552  0.4472  0.6026
10560SOL    HW232580   3.166   0.156   3.803 -2.0503  0.9363 -0.5848
10561SOL     OW32581   2.162   2.115   2.373 -0.6637  0.3276  0.5839
10561SOL    HW132582   2.113   2.048   2.429  1.6701 -1.0860  1.0505
10561SOL    HW232583   2.186   2.194   2.429 -2.5214  1.1537  0.2892
10562SOL     OW32584   6.904   4.726   4.750  0.3908  0.3464  0.3008
10562SOL    HW132585   6.916   4.674   4.666  1.0699  0.4080  0.3526
10562SOL    HW232586   6.950   4.679   4.825  0.5634  0.7539  0.4524
10563SOL     OW32587   3.562   1.940   6.435 -0.4294  0.2710 -0.4306
10563SOL    HW132588   3.509   2.000   6.496  0.4285  0.5577  0.0421
10563SOL    HW232589   3.653   1.978   6.421  0.1808 -0.9991 -0.0167
10564SOL     OW32590   5.465   3.422   2.236  0.2236 -0.3390 -0.2444
10564SOL    HW132591   5.378   3.375   2.223 -0.2682  1.0756 -2.6527
10564SOL    HW232592   5.449   3.520   2.240  1.6495 -0.1101  0.2842
10565SOL     OW32593   1.671   1.493   5.513 -0.4024 -0.4476 -0.2310
10565SOL    HW132594   1.757   1.441   5.516  0.0779  0.1300 -2.4710
10565SOL    HW232595   1.691   1.591   5.508 -1.2737 -0.1367  1.6080
10566SOL     OW32596   1.713   6.089   6.772  0.5400 -0.4127 -0.2751
10566SOL    HW132597   1.709   6.173   6.826  2.9984 -1.1806  1.2728
10566SOL    HW232598   1.627   6.038   6.783 -0.8284  1.6464 -0.9329
10567SOL     OW32599   1.682   2.728   5.072 -0.0689 -0.0933  0.4930
10567SOL    HW132600   1.640   2.806   5.026 -0.3837 -1.0170 -0.8819
10567SOL    HW232601   1.781   2.736   5.068  0.0081 -1.0729 -2.2401
10568SOL     OW32602   1.623   0.905   2.771 -0.3760 -0.2934  0.0998
10568SOL    HW132603   1.591   0.890   2.865 -0.4878 -2.3756 -0.2387
10568SOL    HW232604   1.546   0.932   2.714 -0.5496 -0.2983  0.3294
10569SOL     OW32605   3.331   4.020   5.671 -0.0578  0.1871  0.0730
10569SOL    HW132606   3.340   4.095   5.737 -0.3293  0.4089 -0.1381
10569SOL    HW232607   3.234   4.006   5.651  0.0767  2.6323 -3.1114
10570SOL     OW32608   2.200   0.815   0.397  0.0647  0.5312 -0.7060
10570SOL    HW132609   2.275   0.793   0.460  1.0165  0.4113 -1.8382
10570SOL    HW232610   2.175   0.733   0.345 -0.7281  0.6176 -0.4675
10571SOL     OW32611   6.478   1.552   4.074 -0.4164  0.2570 -0.5220
10571SOL    HW132612   6.473   1.652   4.076  0.0990  0.2740 -0.0383
10571SOL    HW232613   6.466   1.516   4.166  2.3345  0.0231 -0.1730
10572SOL     OW32614   3.338   2.032   1.327 -0.0166 -0.2641  1.1939
10572SOL    HW132615   3.408   2.024   1.256 -0.9561  1.5989 -0.0372
10572SOL    HW232616   3.372   2.091   1.400 -0.9972  2.5946 -0.5073
10573SOL     OW32617   1.716   6.462   4.023  0.1082 -0.5408 -0.0617
10573SOL    HW132618   1.710   6.370   3.985  0.3811 -0.0543 -1.3617
10573SOL    HW232619   1.804   6.473   4.070  0.5049 -0.6519 -0.7608
10574SOL     OW32620   3.713   1.421   4.183 -0.2296  0.4622  0.1762
10574SOL    HW132621   3.657   1.487   4.233 -0.0223  1.0463 -0.3468
10574SOL    HW232622   3.760   1.361   4.248  0.5312  1.6123  0.7364
10575SOL     OW32623   1.751   4.264   5.397  0.0848 -0.2583 -0.3805
10575SOL    HW132624   1.801   4.319   5.330 -1.1314 -1.0786 -2.0371
10575SOL    HW232625   1.659   4.245   5.363 -0.5764 -0.7317  1.5465
10576SOL     OW32626   1.567   1.441   4.507 -0.5968  0.1851 -0.9110
10576SOL    HW132627   1.645   1.392   4.547 -3.0089 -0.4859  3.6350
10576SOL    HW232628   1.523   1.383   4.438 -0.6331 -2.2374  1.0057
10577SOL     OW32629   6.795   5.498   3.262 -0.5024 -0.2871  0.0025
10577SOL    HW132630   6.874   5.495   3.201 -0.3632  0.8124  0.1121
10577SOL    HW232631   6.768   5.405   3.286 -0.5334 -0.7431 -1.6764
10578SOL     OW32632   4.981   2.200   6.672  0.4585 -0.2546  0.1968
10578SOL    HW132633   5.000   2.288   6.715  0.1679  0.0970 -0.3925
10578SOL    HW232634   5.038   2.189   6.591  0.0691 -0.3460 -0.0698
10579SOL     OW32635   5.163   1.885   3.954  0.2097  0.2097 -0.2730
10579SOL    HW132636   5.200   1.801   3.993 -1.7075 -0.9481 -0.8228
10579SOL    HW232637   5.156   1.954   4.025  0.3714 -0.5994  0.5486
10580SOL     OW32638   6.797   3.689   3.672 -0.4052 -0.6183 -0.0104
10580SOL    HW132639   6.892   3.666   3.652 -0.1658 -0.0234  0.4240
10580SOL    HW232640   6.785   3.700   3.771 -0.7810 -0.0769 -0.1101
10581SOL     OW32641   4.110   5.661   4.187 -1.1443  0.4105  0.5280
10581SOL    HW132642   4.129   5.749   4.231 -0.9453 -0.6813  2.7085
10581SOL    HW232643   4.113   5.588   4.254  1.8746 -1.7687 -1.6969
10582SOL     OW32644   3.635   1.882   5.822 -0.4596 -0.6220 -0.1017
10582SOL    HW132645   3.588   1.818   5.884 -0.6503 -0.8280 -0.4524
10582SOL    HW232646   3.630   1.847   5.729  0.2745 -0.5684 -0.1642
10583SOL     OW32647   2.725   1.993   2.081 -0.5381 -0.1637  0.2186
10583SOL    HW132648   2.712   1.974   2.178 -0.3227  0.6836  0.4219
10583SOL    HW232649   2.821   2.018   2.065 -0.7600  0.5043 -0.0724
10584SOL     OW32650   2.924   3.746   5.724  0.0804  0.1044  0.0364
10584SOL    HW132651   2.984   3.826   5.714 -3.6282  3.1690  0.1045
10584SOL    HW232652   2.903   3.734   5.821 -1.3231  0.7176 -0.1679
10585SOL     OW32653   0.185   5.980   5.906 -0.0855  0.1147  0.0389
10585SOL    HW132654   0.115   6.038   5.947 -0.4359 -0.2053 -0.1020
10585SOL    HW232655   0.252   6.037   5.858 -0.6243  0.3796 -0.4031
10586SOL     OW32656   3.783   4.511   1.296 -0.1847  0.5598  0.5397
10586SOL    HW132657   3.719   4.434   1.290 -0.0302  0.3597  1.3610
10586SOL    HW232658   3.860   4.485   1.354  0.7390  0.7389 -0.5855
10587SOL     OW32659   5.216   4.361   0.744  0.3328 -0.1802  0.0110
10587SOL    HW132660   5.144   4.428   0.761 -0.2136  0.1136 -2.8904
10587SOL    HW232661   5.238   4.313   0.829 -2.4050  0.5731  1.2600
10588SOL     OW32662   1.623   6.125   4.962 -0.2567  0.1325  0.4232
10588SOL    HW132663   1.572   6.211   4.959 -1.5923 -0.6584 -2.1132
10588SOL    HW232664   1.573   6.058   5.016  1.3569  1.1491  3.4446
10589SOL     OW32665   4.881   6.295   6.294  0.1438 -0.4949  0.3297
10589SOL    HW132666   4.899   6.340   6.207 -1.6169 -0.4979 -0.0708
10589SOL    HW232667   4.811   6.225   6.282 -0.1488 -0.4880  1.7560
10590SOL     OW32668   6.363   1.977   6.798 -0.1108  0.6267 -0.0940
10590SOL    HW132669   6.442   1.991   6.738 -0.3404 -1.5377 -0.9780
10590SOL    HW232670   6.392   1.926   6.879 -0.5110  0.1974 -0.2174
10591SOL     OW32671   4.535   5.943   5.546 -0.0109 -0.4657  0.0932
10591SOL    HW132672   4.472   5.997   5.603 -1.2452 -1.2016 -0.5444
10591SOL    HW232673   4.625   5.942   5.589  0.3788  2.9353 -0.3604
10592SOL     OW32674   6.046   1.441   5.273 -0.5621 -0.9737 -0.0026
10592SOL    HW132675   6.066   1.423   5.176 -1.4626  2.9650 -1.1181
10592SOL    HW232676   5.975   1.378   5.305 -2.6504 -0.3426 -2.9773
10593SOL     OW32677   4.137   3.493   4.359 -0.2793 -0.0844  0.1664
10593SOL    HW132678   4.095   3.408   4.325  0.0155  1.3998 -4.6611
10593SOL    HW232679   4.236   3.479   4.369 -0.5202 -0.8705  1.7672
10594SOL     OW32680   2.837   2.033   4.665 -0.5412  0.1050 -0.5943
10594SOL    HW132681   2.908   1.986   4.613 -1.2379 -0.2118 -1.2639
10594SOL    HW232682   2.765   1.969   4.689 -0.7742  0.5036 -0.2115
10595SOL     OW32683   0.996   5.176   4.968 -0.1635 -0.2862  0.1997
10595SOL    HW132684   0.985   5.275   4.974  0.6033 -0.2013  0.3138
10595SOL    HW232685   0.906   5.132   4.974 -0.4418  0.3613  0.8911
10596SOL     OW32686   3.188   0.534   2.741  0.2309  0.1506 -0.1596
10596SOL    HW132687   3.120   0.533   2.814 -0.3842  0.7237 -0.7098
10596SOL    HW232688   3.242   0.450   2.745 -0.0858 -0.0255  0.6766
10597SOL     OW32689   5.636   4.992   2.580  0.1834  0.0030  0.2842
10597SOL    HW132690   5.618   4.968   2.484  1.3569  1.2738 -0.2788
10597SOL    HW232691   5.719   4.946   2.610  0.3143  0.3214  0.4103
10598SOL     OW32692   4.168   0.999   3.083  0.1082  0.4396 -0.0414
10598SOL    HW132693   4.097   1.062   3.115 -0.1788  0.4861 -0.7716
10598SOL    HW232694   4.127   0.911   3.059  0.4824  0.0166  0.7907
10599SOL     OW32695   7.009   5.240   3.714  0.3820  0.7375  0.0464
10599SOL    HW132696   7.075   5.175   3.677 -0.2591 -0.1431  0.4109
10599SOL    HW232697   7.028   5.332   3.679  1.0385  0.2811 -0.8097
10600SOL     OW32698   3.113   3.557   4.615 -0.0049 -0.2488 -0.9472
10600SOL    HW132699   3.080   3.592   4.703 -2.4009 -0.6978 -1.6067
10600SOL    HW232700   3.186   3.490   4.632 -1.5054 -1.5390  0.8272
10601SOL     OW32701   4.421   0.808   4.745  0.4987  0.5461  0.5036
10601SOL    HW132702   4.496   0.852   4.794  0.1768  2.3475 -0.5095
10601SOL    HW232703   4.457   0.757   4.667  0.7088  1.2461  0.1354
10602SOL     OW32704   5.263   0.632   0.533  0.2435 -0.5997 -0.2685
10602SOL    HW132705   5.311   0.557   0.488  0.2728 -2.4723  2.6323
10602SOL    HW232706   5.201   0.596   0.603  0.2279  2.0689  1.2460
10603SOL     OW32707   5.227   5.650   4.036  0.5477 -0.3679 -0.0985
10603SOL    HW132708   5.306   5.601   3.999  0.2876 -1.1543  0.3599
10603SOL    HW232709   5.231   5.746   4.009  2.1509 -0.1803  0.7101
10604SOL     OW32710   0.110   5.846   3.689  0.0651 -0.5314  0.4275
10604SOL    HW132711   0.113   5.928   3.633  0.5369  0.4082  1.7740
10604SOL    HW232712   0.126   5.766   3.632 -2.2060  0.0916 -1.2497
10605SOL     OW32713   4.531   4.967   0.066  0.3079  0.1853 -0.0376
10605SOL    HW132714   4.541   4.916   0.152  2.2293  0.0622 -0.3044
10605SOL    HW232715   4.475   5.048   0.082  0.9886  0.3957  1.4433
10606SOL     OW32716   3.922   6.881   0.685  0.6474 -0.1597  0.3232
10606SOL    HW132717   3.951   6.939   0.609 -2.1865 -0.2610 -0.9561
10606SOL    HW232718   3.867   6.935   0.749 -0.0560 -0.8951  0.3504
10607SOL     OW32719   2.012   5.469   2.510  0.5639 -0.4449 -0.3384
10607SOL    HW132720   2.033   5.567   2.504  2.9862 -0.9267 -1.2263
10607SOL    HW232721   2.094   5.417   2.485 -0.6388 -2.7127  0.2276
10608SOL     OW32722   2.491   3.456   5.322 -0.6048  0.3868  0.3440
10608SOL    HW132723   2.409   3.429   5.271  0.6357  0.0968 -1.6012
10608SOL    HW232724   2.529   3.377   5.369 -1.7526  0.6516  1.7811
10609SOL     OW32725   2.620   2.394   3.211  0.2810 -0.1069  0.4256
10609SOL    HW132726   2.681   2.324   3.173 -1.9521 -1.4450 -0.9445
10609SOL    HW232727   2.579   2.446   3.137 -0.9533  0.1092  1.2371
10610SOL     OW32728   2.065   3.488   3.924 -0.4097 -0.4422 -0.1867
10610SOL    HW132729   2.038   3.440   3.840  1.3807  0.7566 -1.5078
10610SOL    HW232730   2.126   3.429   3.978  1.3993  0.0975 -1.5676
10611SOL     OW32731   6.504   0.364   6.894  0.6197  0.5030 -0.1578
10611SOL    HW132732   6.579   0.298   6.902  0.2597 -0.2518 -2.2481
10611SOL    HW232733   6.458   0.375   6.982  1.0431 -1.6194  0.3687
10612SOL     OW32734   0.318   1.432   2.191 -0.4596 -0.4156  0.2593
10612SOL    HW132735   0.337   1.526   2.219 -1.6426 -0.2656  0.6320
10612SOL    HW232736   0.404   1.383   2.177  0.1707  0.6774  0.1981
10613SOL     OW32737   5.146   3.330   4.923 -0.2218 -0.0635  0.4228
10613SOL    HW132738   5.065   3.386   4.903  0.8180  1.5466  0.4651
10613SOL    HW232739   5.145   3.303   5.019 -1.3582 -1.2260  0.1168
10614SOL     OW32740   4.219   4.307   1.661 -0.4386 -0.0621  0.4171
10614SOL    HW132741   4.283   4.290   1.735 -1.4411  0.7062  1.4982
10614SOL    HW232742   4.269   4.330   1.578  0.8126 -3.2057  0.1625
10615SOL     OW32743   0.733   1.920   4.074 -0.7505 -0.3048 -0.1878
10615SOL    HW132744   0.712   1.987   4.145 -1.1052  1.4892 -1.9195
10615SOL    HW232745   0.808   1.954   4.017 -1.0752 -1.2897 -1.2353
10616SOL     OW32746   3.030   2.235   0.838  0.8423  0.1088 -0.1862
10616SOL    HW132747   3.128   2.255   0.840  0.9366 -0.3859  0.2177
10616SOL    HW232748   2.979   2.320   0.851  1.2274  0.2234  0.6516
10617SOL     OW32749   2.327   2.071   3.587 -0.1194  0.3280 -0.1843
10617SOL    HW132750   2.292   1.983   3.554 -0.1830  0.7011 -1.1135
10617SOL    HW232751   2.251   2.135   3.597 -0.2855 -0.0909  1.7872
10618SOL     OW32752   6.381   5.598   2.912  0.1498 -0.0232  0.2599
10618SOL    HW132753   6.355   5.516   2.861  0.1847 -1.5057  2.4856
10618SOL    HW232754   6.427   5.571   2.996  2.8592  2.3853 -0.2976
10619SOL     OW32755   0.363   4.886   1.959  0.0191  0.1528  0.7152
10619SOL    HW132756   0.290   4.818   1.966  0.6842 -0.6779 -0.1279
10619SOL    HW232757   0.333   4.960   1.900  0.3196 -0.8660 -0.7738
10620SOL     OW32758   5.071   0.286   1.498  0.7677  0.5749  0.6922
10620SOL    HW132759   4.985   0.323   1.534 -0.0398  0.2593 -0.8291
10620SOL    HW232760   5.067   0.186   1.498  2.4504  0.3881  3.6143
10621SOL     OW32761   3.829   6.586   1.470  0.3772  0.2993  0.3865
10621SOL    HW132762   3.879   6.529   1.405  0.6285 -0.2066  1.0058
10621SOL    HW232763   3.781   6.659   1.421  1.1779  0.3908 -0.2849
10622SOL     OW32764   1.605   0.968   4.729 -0.6807 -0.0724  0.2999
10622SOL    HW132765   1.582   0.916   4.811 -1.1232  1.4971  1.2084
10622SOL    HW232766   1.538   1.042   4.717  0.4896  0.9027 -0.3931
10623SOL     OW32767   2.911   6.868   4.900  0.0428 -0.1657 -0.5829
10623SOL    HW132768   2.960   6.895   4.817 -0.8482  2.3226 -0.3968
10623SOL    HW232769   2.964   6.894   4.981  0.7206 -2.2058 -0.3308
10624SOL     OW32770   3.815   0.874   0.664 -0.1659  0.6211 -0.3350
10624SOL    HW132771   3.804   0.779   0.692  0.2809  0.5672 -0.3448
10624SOL    HW232772   3.736   0.927   0.697  0.0054  0.4210  0.4168
10625SOL     OW32773   2.826   4.552   6.503  0.4571  0.2466 -0.3185
10625SOL    HW132774   2.776   4.597   6.576  1.1124  1.0191 -0.3232
10625SOL    HW232775   2.800   4.456   6.498 -1.0313  0.6229 -0.3517
10626SOL     OW32776   1.273   5.085   4.852 -0.2669 -0.0299  0.5466
10626SOL    HW132777   1.344   5.095   4.782 -1.0922 -2.8192 -0.8145
10626SOL    HW232778   1.197   5.147   4.831 -0.7790 -1.2628 -1.4724
10627SOL     OW32779   0.543   3.123   5.897  0.3279  0.7546 -0.4718
10627SOL    HW132780   0.460   3.073   5.921  0.3466  0.8595 -0.1914
10627SOL    HW232781   0.590   3.075   5.823 -0.6914  1.4031 -1.5980
10628SOL     OW32782   5.451   4.724   5.898  0.3104 -0.5100 -0.2398
10628SOL    HW132783   5.521   4.751   5.832  0.7970 -2.5015 -0.6176
10628SOL    HW232784   5.440   4.796   5.967  0.2565  1.3333 -2.0939
10629SOL     OW32785   2.322   2.203   6.078  0.3498  0.7277  0.5216
10629SOL    HW132786   2.340   2.157   5.991  1.3962 -0.2099  1.2204
10629SOL    HW232787   2.294   2.297   6.059 -0.2485  0.3028 -0.8595
10630SOL     OW32788   6.157   2.533   2.193 -0.1521  0.5856 -0.1351
10630SOL    HW132789   6.254   2.554   2.182  0.0168  0.0032  0.1586
10630SOL    HW232790   6.111   2.539   2.104  0.8296 -2.3317 -0.9541
10631SOL     OW32791   5.526   0.939   5.641 -0.5147 -0.5842 -0.0896
10631SOL    HW132792   5.431   0.921   5.667 -0.0661  0.8803  3.0128
10631SOL    HW232793   5.585   0.931   5.721  1.3086  2.7036 -0.8987
10632SOL     OW32794   1.883   2.439   5.427 -0.3229 -0.5866  0.5515
10632SOL    HW132795   1.890   2.406   5.521 -1.6561 -0.7099  0.6210
10632SOL    HW232796   1.809   2.391   5.380 -0.0806 -0.0797 -0.3730
10633SOL     OW32797   5.031   4.493   3.804 -0.2463  0.0141 -0.2305
10633SOL    HW132798   5.118   4.464   3.844  1.4785  1.8752 -2.3647
10633SOL    HW232799   5.034   4.591   3.786 -2.1057 -0.1852 -2.0069
10634SOL     OW32800   4.592   5.512   6.157 -0.2476  0.1433 -0.3475
10634SOL    HW132801   4.673   5.499   6.099  0.9844  1.0210  1.0904
10634SOL    HW232802   4.584   5.436   6.221  1.9276  1.9080  2.2599
10635SOL     OW32803   6.052   6.770   0.928 -0.3219  0.0109  0.2226
10635SOL    HW132804   6.096   6.681   0.935  0.7050  0.5649  1.2014
10635SOL    HW232805   5.982   6.779   1.000  0.2185  0.3297  0.7155
10636SOL     OW32806   3.060   3.112   1.392 -0.2778  0.0106 -0.5709
10636SOL    HW132807   3.012   3.034   1.352 -1.0614  0.1071  0.1495
10636SOL    HW232808   3.157   3.088   1.405 -0.2376 -0.3873 -1.5040
10637SOL     OW32809   2.077   1.019   2.012 -0.7750  0.4420 -0.1844
10637SOL    HW132810   2.125   1.107   2.007  0.7614 -0.3398  0.1427
10637SOL    HW232811   2.063   0.994   2.107 -0.6517  0.0396 -0.2720
10638SOL     OW32812   5.647   4.744   3.292 -0.2865  0.3386  0.2564
10638SOL    HW132813   5.594   4.816   3.246  1.0310  1.9015  1.0801
10638SOL    HW232814   5.741   4.774   3.303 -0.1263 -0.7427  2.3194
10639SOL     OW32815   6.322   2.796   3.212 -0.2367 -0.3224 -0.0710
10639SOL    HW132816   6.227   2.774   3.188 -1.1199  0.8899  2.0514
10639SOL    HW232817   6.334   2.895   3.211  1.1648 -0.4766 -0.7629
10640SOL     OW32818   5.100   5.251   5.514  0.1395 -0.4589  0.0328
10640SOL    HW132819   5.106   5.249   5.415  2.1937 -1.7505  0.1330
10640SOL    HW232820   5.037   5.179   5.545  1.6413 -1.9515 -0.2635
10641SOL     OW32821   4.801   0.153   4.215  0.1646 -0.4324 -0.4326
10641SOL    HW132822   4.728   0.095   4.181  0.9593 -0.9060 -1.3704
10641SOL    HW232823   4.763   0.219   4.280 -0.9392 -1.2252 -0.2427
10642SOL     OW32824   5.547   1.372   3.582  0.0215 -0.3612 -0.0936
10642SOL    HW132825   5.495   1.383   3.497  2.9840 -0.3545 -2.0265
10642SOL    HW232826   5.596   1.285   3.580 -0.1461 -0.5494  1.8473
10643SOL     OW32827   6.620   4.508   3.806  0.0677 -0.5101  0.4185
10643SOL    HW132828   6.696   4.461   3.853  1.3167 -0.6245 -1.6124
10643SOL    HW232829   6.613   4.601   3.842  0.7207 -0.7112  1.1171
10644SOL     OW32830   0.789   1.608   4.812  0.0319  0.1144 -0.3759
10644SOL    HW132831   0.862   1.588   4.746  0.1049  0.5117 -0.4130
10644SOL    HW232832   0.761   1.523   4.856 -0.2439 -0.2183 -1.1585
10645SOL     OW32833   0.533   2.044   2.196 -0.2668 -0.0118  0.0680
10645SOL    HW132834   0.556   2.050   2.099  0.1286 -2.6551 -0.0758
10645SOL    HW232835   0.435   2.057   2.209 -0.3169  0.3792 -0.6636
10646SOL     OW32836   3.439   0.277   5.376  0.1445  0.2254  0.1298
10646SOL    HW132837   3.369   0.302   5.444 -0.9553  2.5561 -1.7238
10646SOL    HW232838   3.486   0.194   5.407 -2.6814 -0.8572  2.0079
10647SOL     OW32839   3.213   1.030   5.828  0.4629  0.1061 -0.0324
10647SOL    HW132840   3.134   1.042   5.768 -1.9984 -1.3590  2.6561
10647SOL    HW232841   3.276   0.963   5.787 -0.9523 -0.6178 -1.1213
10648SOL     OW32842   6.631   1.954   2.614 -0.5223  0.8297 -0.5055
10648SOL    HW132843   6.549   2.011   2.621 -1.2428  0.0043 -1.7945
10648SOL    HW232844   6.665   1.956   2.521  0.0207 -0.0497 -0.3354
10649SOL     OW32845   1.468   3.035   2.858 -0.3116  0.3537  0.1974
10649SOL    HW132846   1.530   3.075   2.790 -1.1604 -0.0512 -0.8468
10649SOL    HW232847   1.521   2.990   2.929  0.6217  1.6087  0.3301
10650SOL     OW32848   4.486   6.552   4.156  0.3883  0.0289 -0.4205
10650SOL    HW132849   4.450   6.477   4.210 -0.4238 -0.7633 -1.9887
10650SOL    HW232850   4.461   6.539   4.060  1.0774  1.7947 -0.8825
10651SOL     OW32851   6.912   0.369   4.504 -0.3419 -0.4200  0.1045
10651SOL    HW132852   6.902   0.325   4.593  1.4698 -2.1144 -0.4418
10651SOL    HW232853   6.980   0.443   4.512 -1.0400  0.2046  0.3538
10652SOL     OW32854   6.760   5.179   3.793 -0.7037  0.0828 -0.4421
10652SOL    HW132855   6.739   5.082   3.779 -1.3021 -0.1062  1.4263
10652SOL    HW232856   6.859   5.193   3.784 -0.0415 -1.4937  2.8521
10653SOL     OW32857   0.902   5.062   3.435 -0.0243  0.2476 -0.2502
10653SOL    HW132858   0.858   5.151   3.450  1.9922  1.5044 -1.3924
10653SOL    HW232859   0.870   5.023   3.349 -2.5721 -1.2910  1.2454
10654SOL     OW32860   1.842   1.130   3.989  0.0792 -0.1496  0.1632
10654SOL    HW132861   1.774   1.060   3.966  0.0964 -0.0867 -0.0803
10654SOL    HW232862   1.918   1.126   3.924  0.8673 -0.9740  1.0837
10655SOL     OW32863   4.116   1.512   2.190  0.2385 -0.0455  0.4762
10655SOL    HW132864   4.068   1.506   2.277 -1.9200  1.8190 -0.5124
10655SOL    HW232865   4.190   1.579   2.197  1.4323 -1.4040  1.4039
10656SOL     OW32866   5.107   5.853   6.696  0.1266  0.8345 -0.4037
10656SOL    HW132867   5.081   5.922   6.628 -2.9861 -0.3495 -0.5432
10656SOL    HW232868   5.067   5.878   6.785 -0.1296 -0.2206 -0.2145
10657SOL     OW32869   5.426   6.545   5.025  0.3566 -1.1078  0.1523
10657SOL    HW132870   5.402   6.565   4.930  1.7288 -1.6135 -0.3310
10657SOL    HW232871   5.362   6.592   5.087 -0.7031 -0.9758 -1.0116
10658SOL     OW32872   6.007   6.937   5.487  0.1984  0.4682 -0.5482
10658SOL    HW132873   6.067   6.928   5.408 -0.0653  0.7132 -0.7782
10658SOL    HW232874   5.913   6.921   5.459  0.4325 -4.4960  0.5762
10659SOL     OW32875   0.787   4.685   5.795  0.0476  0.1067 -0.5482
10659SOL    HW132876   0.771   4.773   5.838  2.8835  0.1628  0.5695
10659SOL    HW232877   0.824   4.698   5.703  0.0701  0.0744 -0.5443
10660SOL     OW32878   3.705   1.182   3.709 -0.6318 -0.3286  0.6348
10660SOL    HW132879   3.777   1.225   3.654 -1.8860  0.4620 -0.4418
10660SOL    HW232880   3.686   1.239   3.789 -0.9181  0.1093  0.2597
10661SOL     OW32881   2.947   5.179   5.803  0.2151  0.0791  0.5369
10661SOL    HW132882   3.032   5.172   5.751 -0.9582 -2.3893 -1.2897
10661SOL    HW232883   2.960   5.138   5.894  0.9057 -0.6390  0.1337
10662SOL     OW32884   1.315   4.022   0.641 -0.2838  0.2785  0.7623
10662SOL    HW132885   1.400   4.033   0.589  0.0745  1.0359  1.4928
10662SOL    HW232886   1.239   4.055   0.585 -0.1473 -0.7077 -0.0216
10663SOL     OW32887   0.560   3.614   4.752 -0.4455  0.4287 -0.2836
10663SOL    HW132888   0.645   3.571   4.721  0.5945  2.5245 -0.5030
10663SOL    HW232889   0.572   3.649   4.845 -1.3977 -0.0823  0.0404
10664SOL     OW32890   5.309   3.608   0.023 -0.1764 -0.1154  0.0914
10664SOL    HW132891   5.292   3.511   0.042 -0.9607  0.0919  0.5167
10664SOL    HW232892   5.378   3.643   0.086 -1.4473  0.1170  1.4150
10665SOL     OW32893   1.160   5.829   3.511  0.7412 -0.1704  0.4705
10665SOL    HW132894   1.237   5.892   3.512  0.2289  0.5599 -1.5575
10665SOL    HW232895   1.081   5.872   3.555  0.5063  0.4719 -0.5541
10666SOL     OW32896   1.470   1.134   6.932  0.2879  0.1280  0.1591
10666SOL    HW132897   1.533   1.210   6.952 -0.6387  1.3721 -1.4091
10666SOL    HW232898   1.396   1.134   7.000  0.3424  0.5980  0.2248
10667SOL     OW32899   4.939   1.916   3.752  0.1301  0.4549 -0.2584
10667SOL    HW132900   4.932   2.014   3.772  0.9729  0.2466  1.1448
10667SOL    HW232901   4.984   1.869   3.828  0.1665 -0.9595 -1.1188
10668SOL     OW32902   1.151   2.471   1.710  0.1421  0.4193 -0.6297
10668SOL    HW132903   1.086   2.478   1.785  1.9777  1.8820  0.9151
10668SOL    HW232904   1.236   2.428   1.742  0.4041 -0.3780 -2.2797
10669SOL     OW32905   2.553   1.486   1.408  0.1066 -0.5044  0.5070
10669SOL    HW132906   2.470   1.431   1.416  0.4618 -0.9906  0.9464
10669SOL    HW232907   2.599   1.465   1.322  0.2367 -0.9037  0.6685
10670SOL     OW32908   3.958   5.825   1.473  0.0670 -0.3062 -0.3161
10670SOL    HW132909   3.970   5.739   1.424  2.3259 -0.5467  0.5045
10670SOL    HW232910   3.970   5.901   1.410 -0.1898 -0.5938 -0.7144
10671SOL     OW32911   4.600   0.614   4.639 -0.1512  0.2471 -0.2291
10671SOL    HW132912   4.698   0.623   4.660 -0.4583  2.7382  0.4252
10671SOL    HW232913   4.566   0.528   4.678  1.7080 -0.5990 -0.3170
10672SOL     OW32914   0.551   2.482   4.916  0.2209  0.8075  0.1080
10672SOL    HW132915   0.530   2.432   4.999  0.8375  0.0570 -0.1783
10672SOL    HW232916   0.621   2.551   4.935  0.5403  0.4711  0.1655
10673SOL     OW32917   4.087   2.739   1.614 -0.1272 -0.0391  0.0749
10673SOL    HW132918   4.118   2.812   1.552  1.7244  0.2551  1.2993
10673SOL    HW232919   4.054   2.780   1.699  1.2129 -0.6346  0.8907
10674SOL     OW32920   1.821   3.089   3.692  0.4530  0.0326  0.0264
10674SOL    HW132921   1.747   3.124   3.749  2.1289 -0.6468  2.7874
10674SOL    HW232922   1.803   2.994   3.668  0.0504  0.1200 -0.0239
10675SOL     OW32923   5.579   2.665   2.293 -0.5966 -0.2479  0.2036
10675SOL    HW132924   5.615   2.758   2.299  0.0902 -0.5805  1.7920
10675SOL    HW232925   5.581   2.634   2.198  1.0301  0.6363 -0.0767
10676SOL     OW32926   2.050   3.784   4.282  0.3824 -0.2295 -0.3919
10676SOL    HW132927   2.089   3.781   4.190 -0.0020  1.1773 -0.6293
10676SOL    HW232928   1.964   3.836   4.280  1.0943  1.0825  0.9882
10677SOL     OW32929   0.485   3.738   1.098 -0.1094  0.1562 -0.0707
10677SOL    HW132930   0.386   3.743   1.084 -0.3784  1.0755  1.8598
10677SOL    HW232931   0.526   3.828   1.081  0.3772 -0.1441 -0.5550
10678SOL     OW32932   2.196   4.962   6.691 -0.2574  0.0848  0.5671
10678SOL    HW132933   2.272   4.901   6.672 -0.7602 -0.6402  0.8672
10678SOL    HW232934   2.185   5.026   6.615  0.1097 -0.3553  0.1380
10679SOL     OW32935   5.650   1.043   2.029  0.5900 -0.1141  0.3102
10679SOL    HW132936   5.688   1.004   2.113 -0.6465 -0.8812  0.5256
10679SOL    HW232937   5.604   0.972   1.976 -0.6878  0.8116  0.1384
10680SOL     OW32938   1.267   3.111   5.181 -0.4927 -0.3684 -0.1645
10680SOL    HW132939   1.198   3.048   5.216  0.0794 -1.3690 -0.7483
10680SOL    HW232940   1.224   3.179   5.122 -0.8004 -2.3866 -2.4632
10681SOL     OW32941   2.158   5.677   3.825  0.5400 -0.2448  0.1352
10681SOL    HW132942   2.244   5.724   3.845  0.7439  0.0239 -1.2676
10681SOL    HW232943   2.177   5.594   3.772 -0.1689  1.1952 -2.5783
10682SOL     OW32944   6.787   2.074   0.241  0.1748  0.7948  0.4208
10682SOL    HW132945   6.722   2.041   0.309 -2.0058  1.7459 -1.0951
10682SOL    HW232946   6.837   1.997   0.202 -0.2911 -0.0061  1.3665
10683SOL     OW32947   1.991   6.444   4.169  0.3902  0.5716  0.8132
10683SOL    HW132948   2.066   6.496   4.126  0.1483  2.0551  2.1058
10683SOL    HW232949   1.964   6.489   4.254 -0.6970 -1.0211  1.3492
10684SOL     OW32950   4.902   5.056   5.559 -0.1531 -0.7802 -0.4908
10684SOL    HW132951   4.938   4.968   5.590  1.6090  0.2399  0.5401
10684SOL    HW232952   4.849   5.098   5.632 -1.0532 -1.0066 -1.0053
10685SOL     OW32953   1.478   0.538   5.152  0.0506  0.3291  0.2988
10685SOL    HW132954   1.513   0.515   5.243  0.4965 -0.3702 -0.0428
10685SOL    HW232955   1.380   0.520   5.149  0.3080 -1.1686  0.1720
10686SOL     OW32956   6.900   0.293   6.093  0.0270  0.3058  0.1294
10686SOL    HW132957   6.999   0.291   6.105  0.2021  0.9393 -1.0543
10686SOL    HW232958   6.877   0.257   6.003 -0.8709 -0.2928  0.5778
10687SOL     OW32959   3.061   3.464   5.559  0.0118 -0.3111  0.3857
10687SOL    HW132960   3.142   3.508   5.597 -0.9956 -0.5582  3.0269
10687SOL    HW232961   3.011   3.530   5.502  1.6703  0.0344 -0.7396
10688SOL     OW32962   0.710   0.053   0.494 -0.0786  0.1247  0.7772
10688SOL    HW132963   0.726   0.065   0.592 -0.3972  1.9558  0.6589
10688SOL    HW232964   0.619   0.089   0.472 -0.0607 -0.3965 -0.1635
10689SOL     OW32965   1.676   6.457   1.631 -0.2522  0.4430  0.1886
10689SOL    HW132966   1.692   6.507   1.546 -0.1234 -0.4613 -0.3212
10689SOL    HW232967   1.755   6.400   1.652 -0.6083  0.0591  0.5001
10690SOL     OW32968   0.735   3.770   5.561 -0.5611 -0.6162 -0.1668
10690SOL    HW132969   0.691   3.766   5.472 -0.3484  1.6477 -0.4451
10690SOL    HW232970   0.811   3.706   5.565 -0.5755 -0.7419 -1.6116
10691SOL     OW32971   1.557   5.629   0.236 -0.1936  0.1755 -0.2970
10691SOL    HW132972   1.546   5.637   0.335  0.6126 -0.8331 -0.1114
10691SOL    HW232973   1.615   5.550   0.215 -0.5277  0.2517 -1.5859
10692SOL     OW32974   1.130   1.608   1.837  0.9927 -0.2594 -0.2595
10692SOL    HW132975   1.196   1.650   1.776  2.1325 -0.5002  0.7688
10692SOL    HW232976   1.119   1.665   1.919  1.1812 -1.0498  0.3237
10693SOL     OW32977   3.189   5.770   4.335  0.7833 -0.5201 -0.7345
10693SOL    HW132978   3.235   5.832   4.400 -0.0317  1.1004 -1.6347
10693SOL    HW232979   3.134   5.704   4.386 -0.7011  1.3860  0.2857
10694SOL     OW32980   1.569   5.139   4.712  0.0561 -0.4522 -0.5901
10694SOL    HW132981   1.622   5.064   4.750 -0.8210  0.0919  1.8611
10694SOL    HW232982   1.596   5.225   4.756 -0.5780  0.3285 -1.6676
10695SOL     OW32983   5.413   3.423   6.327 -0.2511 -0.5654 -0.2132
10695SOL    HW132984   5.396   3.389   6.420  0.0355 -1.7919 -0.5847
10695SOL    HW232985   5.505   3.396   6.299 -0.2600 -0.0113 -0.7819
10696SOL     OW32986   4.470   2.191   6.374  0.9093 -0.1834 -0.1714
10696SOL    HW132987   4.470   2.232   6.282 -0.3045 -0.7484 -0.4462
10696SOL    HW232988   4.563   2.192   6.411  1.0404  2.3029 -0.3720
10697SOL     OW32989   1.080   4.831   0.421 -0.4231 -0.5465 -0.2047
10697SOL    HW132990   1.095   4.892   0.499  1.6290 -0.0925 -0.8985
10697SOL    HW232991   1.078   4.736   0.453  0.2915 -0.3582  0.4363
10698SOL     OW32992   0.177   6.899   0.029 -0.2938  0.8912 -0.2098
10698SOL    HW132993   0.157   6.802   0.041 -1.2567  1.1544  0.4410
10698SOL    HW232994   0.109   6.953   0.078  1.5651  1.8827  1.4265
10699SOL     OW32995   1.951   6.368   5.171 -0.3546 -0.0353  0.2888
10699SOL    HW132996   1.905   6.281   5.152  0.3718 -0.2965 -0.3450
10699SOL    HW232997   2.025   6.381   5.106  3.0025 -1.4597  3.4774
10700SOL     OW32998   0.951   3.581   5.590  0.0785 -0.3849 -0.6367
10700SOL    HW132999   0.941   3.613   5.684 -2.1190 -0.2734 -0.8641
10700SOL    HW233000   1.019   3.637   5.543  0.0741  0.5505  0.4311
10701SOL     OW33001   5.653   0.100   6.464 -0.1686 -0.1637  0.6806
10701SOL    HW133002   5.751   0.120   6.470 -0.1786  0.6971 -1.1974
10701SOL    HW233003   5.638   0.028   6.396 -0.9898  1.5633 -1.0531
10702SOL     OW33004   1.430   1.749   3.772 -0.0667 -0.9864  0.1511
10702SOL    HW133005   1.474   1.662   3.789 -1.4634 -1.5279  1.2305
10702SOL    HW233006   1.355   1.762   3.838 -0.4878  0.5908 -0.5870
10703SOL     OW33007   0.238   6.021   2.090  0.3483  0.4186 -0.4969
10703SOL    HW133008   0.336   6.025   2.073  0.3509  1.8463 -0.2770
10703SOL    HW233009   0.209   5.926   2.098  2.0576 -0.0158  1.3547
10704SOL     OW33010   5.701   1.804   2.404 -0.6870  1.3047 -0.3727
10704SOL    HW133011   5.770   1.776   2.338 -0.8672  0.7968 -0.3469
10704SOL    HW233012   5.614   1.821   2.357 -1.0899 -0.0358 -0.1533
10705SOL     OW33013   2.994   2.293   6.751  0.1448 -0.2230 -0.0045
10705SOL    HW133014   3.061   2.353   6.707  0.0501 -0.6733 -0.7700
10705SOL    HW233015   2.963   2.223   6.686 -0.6693 -0.3505  0.5071
10706SOL     OW33016   1.932   5.193   1.232 -0.2424  0.6092  0.7871
10706SOL    HW133017   2.024   5.229   1.247 -1.4954  4.0766  1.0052
10706SOL    HW233018   1.907   5.204   1.136 -0.9456  1.1037  1.0175
10707SOL     OW33019   1.829   6.177   5.514 -0.8268  0.3310 -0.1815
10707SOL    HW133020   1.904   6.114   5.491 -1.7486 -0.7466 -0.3398
10707SOL    HW233021   1.866   6.261   5.553  0.4295 -0.5091  0.4985
10708SOL     OW33022   6.471   1.757   3.784  0.4561 -0.0825 -0.0718
10708SOL    HW133023   6.417   1.702   3.848 -1.9548  0.3395 -1.6101
10708SOL    HW233024   6.474   1.851   3.816  1.0841 -0.2764  0.4685
10709SOL     OW33025   3.457   0.492   2.487  0.1154  0.7203 -0.0466
10709SOL    HW133026   3.448   0.582   2.529 -0.0622  0.5370  0.3141
10709SOL    HW233027   3.401   0.488   2.404  0.3890  1.0507 -0.2520
10710SOL     OW33028   1.037   0.171   2.442  0.2966 -0.0403  0.2696
10710SOL    HW133029   1.073   0.078   2.442  0.6599  0.0788 -1.2386
10710SOL    HW233030   1.091   0.228   2.379 -0.3982  0.9997  0.5865
10711SOL     OW33031   1.739   6.173   2.300 -0.2015 -0.5341 -0.1738
10711SOL    HW133032   1.802   6.150   2.226 -1.2759 -0.8379 -1.0102
10711SOL    HW233033   1.705   6.090   2.343  0.0344 -0.3691  0.3458
10712SOL     OW33034   4.760   2.678   0.103  0.1043  0.1115  0.1346
10712SOL    HW133035   4.788   2.598   0.050 -2.1716 -1.9053  1.7549
10712SOL    HW233036   4.837   2.709   0.159  0.2060 -3.1881  2.0633
10713SOL     OW33037   0.391   0.920   0.843  0.0321 -0.3565  0.4238
10713SOL    HW133038   0.292   0.930   0.837  0.0039 -0.4693  0.6674
10713SOL    HW233039   0.423   0.961   0.928  0.1664 -0.5174  0.4511
10714SOL     OW33040   4.633   5.034   6.462 -0.3443 -0.1434 -0.0093
10714SOL    HW133041   4.573   4.956   6.482 -0.3349  0.1812  1.3555
10714SOL    HW233042   4.578   5.110   6.429 -0.6402 -0.0057  0.7801
10715SOL     OW33043   1.288   4.891   5.385  0.5757 -0.0120  1.0032
10715SOL    HW133044   1.307   4.909   5.481  0.6127 -0.2153  1.0351
10715SOL    HW233045   1.284   4.977   5.334  0.2354  0.1160  1.2460
10716SOL     OW33046   2.904   4.225   1.710 -0.0920 -0.0821 -0.3880
10716SOL    HW133047   2.979   4.236   1.645 -1.0441  1.3874 -1.3130
10716SOL    HW233048   2.892   4.310   1.762  0.4786 -1.1557  1.5475
10717SOL     OW33049   6.994   6.001   1.408 -0.0690 -0.0044  0.2415
10717SOL    HW133050   6.966   5.941   1.333  1.5284 -0.8764  0.3144
10717SOL    HW233051   6.928   5.993   1.483 -1.4034  0.4876 -0.8151
10718SOL     OW33052   0.007   5.674   5.030 -0.5886 -0.2998 -0.1246
10718SOL    HW133053  -0.042   5.605   5.084  0.3440 -1.8006 -1.1284
10718SOL    HW233054   0.105   5.658   5.037 -0.1361  2.5838  1.7405
10719SOL     OW33055   2.034   6.592   2.694  0.0562 -0.3379 -0.4760
10719SOL    HW133056   2.064   6.546   2.777  0.4739  0.1445 -0.3477
10719SOL    HW233057   2.112   6.601   2.631 -0.4095 -1.2973 -1.2093
10720SOL     OW33058   7.001   3.929   3.674 -0.1070 -0.2562  0.0361
10720SOL    HW133059   6.936   3.990   3.720  1.0261  0.3639  0.8579
10720SOL    HW233060   7.031   3.858   3.737 -0.0521 -0.5958 -0.3670
10721SOL     OW33061   6.436   6.513   6.554  0.2997 -0.5143 -0.3618
10721SOL    HW133062   6.354   6.514   6.610  1.5419  1.8917  1.6062
10721SOL    HW233063   6.509   6.465   6.604  1.6715  2.4002  0.6442
10722SOL     OW33064   4.714   5.896   0.217 -0.1030 -0.1551  0.7489
10722SOL    HW133065   4.724   5.853   0.307 -0.7436 -0.2597  0.7710
10722SOL    HW233066   4.704   5.825   0.147  1.1438 -0.0966  0.4930
10723SOL     OW33067   0.745   4.845   4.254 -0.2096 -0.5460  0.2492
10723SOL    HW133068   0.684   4.777   4.212  0.5157 -0.4701 -0.9571
10723SOL    HW233069   0.829   4.852   4.201 -0.0219  0.8710  0.7016
10724SOL     OW33070   0.803   2.634   2.122  0.1983 -0.7530  0.0901
10724SOL    HW133071   0.742   2.621   2.200  0.7185 -0.2871  0.5853
10724SOL    HW233072   0.885   2.682   2.152  1.7547 -3.1052 -0.1182
10725SOL     OW33073   4.279   0.420   0.255 -0.0382  0.2814  0.3731
10725SOL    HW133074   4.344   0.377   0.192  0.2808  2.4713 -0.9105
10725SOL    HW233075   4.188   0.379   0.243  0.2176  0.0446 -0.9082
10726SOL     OW33076   3.023   6.174   2.155  0.1773  0.4342 -0.4070
10726SOL    HW133077   3.080   6.135   2.083  2.5468  2.4011  0.2643
10726SOL    HW233078   2.969   6.249   2.118  0.8869  1.0062 -0.3039
10727SOL     OW33079   0.051   6.266   4.152 -0.5210  0.3000  0.5444
10727SOL    HW133080   0.126   6.236   4.094 -0.9756  2.1283 -1.1050
10727SOL    HW233081  -0.029   6.208   4.136 -0.3662  0.2383 -0.0107
10728SOL     OW33082   2.412   0.590   0.513  0.1950  0.6392  0.2825
10728SOL    HW133083   2.379   0.499   0.487  0.3456  0.7951 -0.4664
10728SOL    HW233084   2.407   0.599   0.613 -3.0252  1.0386  0.2004
10729SOL     OW33085   1.327   2.479   2.411 -0.0726  0.2756  0.5368
10729SOL    HW133086   1.330   2.436   2.502 -2.3104  0.7171  0.8737
10729SOL    HW233087   1.233   2.503   2.388  0.7374  2.4928 -0.8411
10730SOL     OW33088   0.049   2.014   4.284 -0.3330 -1.0105  0.1800
10730SOL    HW133089   0.138   2.059   4.282 -0.7854  0.1990  2.7299
10730SOL    HW233090   0.061   1.916   4.275  1.2368 -0.8470  0.2222
10731SOL     OW33091   6.727   6.273   5.126 -0.4394 -0.1089 -0.5234
10731SOL    HW133092   6.747   6.176   5.119 -0.5954 -0.1974  0.1638
10731SOL    HW233093   6.672   6.302   5.048 -2.1149 -1.0121  0.2597
10732SOL     OW33094   5.896   0.887   1.384  0.0471 -0.4462 -0.4454
10732SOL    HW133095   5.868   0.968   1.332  0.2954 -0.2229 -0.2326
10732SOL    HW233096   5.948   0.826   1.324  0.5680 -0.0612 -0.3928
10733SOL     OW33097   4.498   1.767   6.651  0.1179  0.6115  0.4978
10733SOL    HW133098   4.427   1.838   6.648  1.1611  1.6844  0.3118
10733SOL    HW233099   4.586   1.808   6.629  0.7880 -0.7211  0.6199
10734SOL     OW33100   5.886   4.652   3.510 -0.4237 -0.1080  0.0219
10734SOL    HW133101   5.982   4.648   3.539 -0.0146 -1.2533 -1.3487
10734SOL    HW233102   5.876   4.603   3.423 -2.0413  0.9882 -0.4618
10735SOL     OW33103   0.244   2.293   3.124  0.1262 -0.4549 -0.3199
10735SOL    HW133104   0.187   2.374   3.135 -1.3528 -1.5627  0.4345
10735SOL    HW233105   0.226   2.229   3.198  0.3273 -2.0232 -1.5699
10736SOL     OW33106   0.786   4.521   5.032 -0.0599 -0.0334  0.3965
10736SOL    HW133107   0.736   4.547   4.949  1.6989 -1.0042 -1.0624
10736SOL    HW233108   0.812   4.603   5.082 -2.0724  0.5290  0.5922
10737SOL     OW33109   2.477   6.830   4.838  0.4242 -0.5752 -0.1564
10737SOL    HW133110   2.396   6.809   4.894  2.0329 -0.1423  2.4689
10737SOL    HW233111   2.501   6.926   4.848  0.0708 -0.1676 -2.6509
10738SOL     OW33112   0.087   5.053   0.966  0.3058 -0.1029 -0.5553
10738SOL    HW133113   0.040   5.124   1.020 -1.8289 -0.6076 -1.6545
10738SOL    HW233114   0.186   5.066   0.974  0.0588  0.9317  1.9940
10739SOL     OW33115   4.932   3.961   0.401  0.5885  0.6167 -0.1304
10739SOL    HW133116   4.918   4.056   0.372  0.9846  0.1471 -2.0301
10739SOL    HW233117   4.967   3.959   0.494 -1.4435  2.2398  0.7580
10740SOL     OW33118   0.968   3.917   4.145 -0.3597  0.8183  0.4749
10740SOL    HW133119   1.062   3.895   4.120 -0.5663  0.9565 -0.4847
10740SOL    HW233120   0.953   3.898   4.242 -0.3857 -2.9067 -0.1130
10741SOL     OW33121   4.121   3.624   3.180 -0.1902  0.3495 -0.3824
10741SOL    HW133122   4.067   3.704   3.154  0.1846  0.2617 -1.4788
10741SOL    HW233123   4.121   3.614   3.280 -0.1100  1.8056 -0.2194
10742SOL     OW33124   5.962   2.061   5.972 -0.1506  0.0150 -0.0591
10742SOL    HW133125   5.907   1.981   5.997 -1.2971  0.5250 -0.8279
10742SOL    HW233126   6.028   2.080   6.044 -0.9118 -0.6963  0.8514
10743SOL     OW33127   6.980   3.026   6.182  0.8708  0.4735 -0.3300
10743SOL    HW133128   6.944   2.968   6.109 -0.4747  0.8980 -0.0276
10743SOL    HW233129   6.934   3.115   6.181  0.5746  0.3780  1.2209
10744SOL     OW33130   4.634   0.936   4.934  0.0148  0.2209  0.1751
10744SOL    HW133131   4.568   0.925   5.008 -2.0782  2.7860 -1.1625
10744SOL    HW233132   4.717   0.980   4.969 -0.3955  0.1733  1.2285
10745SOL     OW33133   4.991   5.916   3.820  0.0401  0.9136  0.0196
10745SOL    HW133134   5.027   5.828   3.787  0.1122  0.5628  1.0136
10745SOL    HW233135   4.940   5.960   3.746  1.1518  0.6825 -0.9137
10746SOL     OW33136   1.812   0.465   5.201  0.5675 -0.0687  0.3711
10746SOL    HW133137   1.850   0.373   5.191  1.9288  0.4887  0.2436
10746SOL    HW233138   1.772   0.495   5.114  0.6418 -0.3029  0.2567
10747SOL     OW33139   2.059   2.050   5.863 -0.2568 -0.0736 -0.3616
10747SOL    HW133140   2.093   2.121   5.803  0.4089  0.3527  0.5013
10747SOL    HW233141   2.020   2.091   5.945 -2.1751 -0.5897 -0.9678
10748SOL     OW33142   3.686   6.293   4.030 -0.1074  0.2003  0.0078
10748SOL    HW133143   3.713   6.266   3.937  2.2854  0.7207  0.5041
10748SOL    HW233144   3.595   6.255   4.049 -0.0957 -1.0625 -2.0428
10749SOL     OW33145   6.385   0.368   0.773  0.1275  0.4622 -0.0234
10749SOL    HW133146   6.436   0.283   0.761 -2.0843 -1.0452  0.5826
10749SOL    HW233147   6.318   0.377   0.700 -0.8698  0.7347  0.8958
10750SOL     OW33148   3.465   5.522   0.983 -0.2648  0.1038  0.2453
10750SOL    HW133149   3.442   5.438   1.033 -0.8679 -0.4029 -0.8422
10750SOL    HW233150   3.382   5.561   0.943 -0.3843  2.4559  2.5134
10751SOL     OW33151   5.619   5.007   4.578  0.4170  0.4492 -0.1088
10751SOL    HW133152   5.649   5.102   4.586  1.2630  0.1502  0.3135
10751SOL    HW233153   5.635   4.959   4.664  2.4063 -0.7462 -1.0670
10752SOL     OW33154   2.856   1.070   0.539  0.5599 -0.2755 -0.3404
10752SOL    HW133155   2.801   0.989   0.557  0.7813 -0.7229 -1.5848
10752SOL    HW233156   2.857   1.129   0.620 -1.6151 -0.3234 -0.2297
10753SOL     OW33157   2.514   2.517   2.811  0.7420  0.1503 -0.1663
10753SOL    HW133158   2.452   2.566   2.751 -0.4001 -0.5651  0.3803
10753SOL    HW233159   2.499   2.547   2.906  0.8193 -0.4364  0.0368
10754SOL     OW33160   1.769   6.976   2.439 -0.0728 -0.4026  0.1071
10754SOL    HW133161   1.723   7.013   2.520  1.2994 -1.6141  1.4975
10754SOL    HW233162   1.811   7.050   2.388 -1.1623  0.4064  0.3392
10755SOL     OW33163   4.624   6.997   4.069 -0.1851 -0.0415 -0.0849
10755SOL    HW133164   4.551   6.945   4.024 -0.7945  2.0789 -1.6905
10755SOL    HW233165   4.679   7.044   4.001  1.0746  0.5036  1.2488
10756SOL     OW33166   3.263   0.398   0.391  0.0969 -0.4584 -0.3850
10756SOL    HW133167   3.285   0.396   0.294  0.4283  2.7329 -0.5020
10756SOL    HW233168   3.340   0.437   0.441 -0.7839 -0.2601  0.8678
10757SOL     OW33169   6.724   6.205   2.999 -0.1567  0.1065  0.5799
10757SOL    HW133170   6.655   6.217   2.927  0.1070  0.6419  0.4172
10757SOL    HW233171   6.801   6.153   2.962  0.3418  1.0690  0.2346
10758SOL     OW33172   3.456   3.837   3.091 -0.0076  0.2385 -0.0755
10758SOL    HW133173   3.479   3.776   3.015  0.8759 -0.1237  0.4673
10758SOL    HW233174   3.360   3.825   3.116  0.1115 -0.8220 -0.0822
10759SOL     OW33175   0.101   6.438   1.465 -0.4231 -0.4129  0.4520
10759SOL    HW133176   0.110   6.388   1.551  0.7609  0.7337  1.0382
10759SOL    HW233177   0.051   6.523   1.482  0.6262  0.2733  0.2427
10760SOL     OW33178   3.256   5.359   2.810 -0.1093 -0.1207  0.2597
10760SOL    HW133179   3.246   5.276   2.756  2.5559  0.6418 -1.5888
10760SOL    HW233180   3.351   5.370   2.837 -0.0570  3.0195 -0.8107
10761SOL     OW33181   1.792   0.341   1.269  0.0158  0.3028  0.0831
10761SOL    HW133182   1.803   0.356   1.367  0.1263  1.6208 -0.1089
10761SOL    HW233183   1.875   0.299   1.232  0.0948  0.0883  0.5024
10762SOL     OW33184   4.182   0.654   4.160  0.0894 -0.3241 -0.4946
10762SOL    HW133185   4.228   0.740   4.181  1.0515 -0.8447 -0.4225
10762SOL    HW233186   4.186   0.594   4.240 -1.4230 -0.0905 -0.2087
10763SOL     OW33187   5.768   2.744   2.085  0.1722 -0.3095 -0.6710
10763SOL    HW133188   5.758   2.664   2.026  1.4762  0.1922 -1.6089
10763SOL    HW233189   5.832   2.724   2.159  0.0690 -0.3075 -0.5810
10764SOL     OW33190   1.311   3.551   6.804 -0.0913 -0.2126 -0.2168
10764SOL    HW133191   1.398   3.580   6.764 -0.1363 -0.4200 -0.4649
10764SOL    HW233192   1.238   3.610   6.770  0.2064  1.2913  1.5322
10765SOL     OW33193   6.561   3.080   5.676 -0.6307  0.0267  0.7273
10765SOL    HW133194   6.505   3.094   5.758  1.4373  1.2059  2.0217
10765SOL    HW233195   6.560   3.164   5.620 -0.5497 -0.1194  0.5064
10766SOL     OW33196   6.282   3.849   2.606  0.3525 -0.1790 -0.6176
10766SOL    HW133197   6.278   3.812   2.513 -0.5247  2.7908 -1.9233
10766SOL    HW233198   6.375   3.881   2.626  0.1607  0.8457 -1.2686
10767SOL     OW33199   0.322   3.217   2.644  0.2349  0.6522  0.3739
10767SOL    HW133200   0.418   3.199   2.668  0.5381 -0.0714 -1.2505
10767SOL    HW233201   0.318   3.265   2.556 -0.9305 -0.8472 -0.4321
10768SOL     OW33202   3.990   2.172   0.588 -0.5771 -0.7730 -0.1416
10768SOL    HW133203   3.912   2.217   0.545  1.7075  2.4017 -1.3268
10768SOL    HW233204   3.981   2.073   0.579 -4.0436 -0.5124 -0.8365
10769SOL     OW33205   4.577   0.554   5.920 -0.3885 -0.5395 -0.2206
10769SOL    HW133206   4.667   0.575   5.959 -0.8239 -0.4258  0.7495
10769SOL    HW233207   4.540   0.635   5.875 -1.6002  0.6243  2.6013
10770SOL     OW33208   4.138   0.271   3.171 -0.3966  0.0934  0.0375
10770SOL    HW133209   4.193   0.325   3.107 -0.6010  0.1479 -0.0936
10770SOL    HW233210   4.078   0.332   3.222 -0.6900 -0.0184 -0.1717
10771SOL     OW33211   4.644   6.330   1.313 -0.0708  0.5337  0.1130
10771SOL    HW133212   4.614   6.236   1.324 -0.7395  0.6639 -0.5452
10771SOL    HW233213   4.572   6.392   1.346  0.4197  0.8197  0.6751
10772SOL     OW33214   4.692   0.329   0.597 -0.5497  0.4382  0.0375
10772SOL    HW133215   4.606   0.370   0.625 -0.8384  0.2820 -0.6071
10772SOL    HW233216   4.725   0.373   0.513  0.1665  0.7221  0.4582
10773SOL     OW33217   0.721   5.032   3.928  0.2482 -0.5052 -0.1569
10773SOL    HW133218   0.649   5.035   3.858  0.2329  2.2239 -0.1103
10773SOL    HW233219   0.700   5.095   4.001  1.3298 -1.7761  1.3225
10774SOL     OW33220   4.073   4.398   5.668 -0.2645  0.1835  0.1697
10774SOL    HW133221   4.088   4.361   5.759 -0.3035 -0.6707 -0.1677
10774SOL    HW233222   4.064   4.498   5.674 -0.3923  0.1217  1.1075
10775SOL     OW33223   4.627   1.477   1.962 -0.3851 -0.3281 -0.2160
10775SOL    HW133224   4.708   1.446   1.913 -0.2899  2.3456 -1.9798
10775SOL    HW233225   4.653   1.506   2.055  0.4329 -0.7145 -0.3205
10776SOL     OW33226   1.980   5.091   6.045  0.5795 -0.0895  0.3319
10776SOL    HW133227   1.888   5.076   6.082  0.3261  0.8340  0.1052
10776SOL    HW233228   2.023   5.003   6.027 -0.6402 -0.5479 -0.4932
10777SOL     OW33229   5.544   3.034   6.263  0.0325  0.6616 -0.2204
10777SOL    HW133230   5.637   3.000   6.247 -0.5096 -1.1125  0.1548
10777SOL    HW233231   5.501   3.056   6.175 -0.2407 -1.5564 -0.7087
10778SOL     OW33232   0.148   5.094   4.623 -0.3752  0.4944  0.0354
10778SOL    HW133233   0.056   5.063   4.597 -0.5598  0.9236  0.1808
10778SOL    HW233234   0.200   5.118   4.541 -0.0447 -0.6921 -0.1298
10779SOL     OW33235   0.572   4.171   5.646  0.2048 -0.9845  0.1271
10779SOL    HW133236   0.563   4.265   5.678  0.9823 -0.5145 -0.9642
10779SOL    HW233237   0.659   4.133   5.679  0.6055 -0.7922 -0.7009
10780SOL     OW33238   4.181   2.951   6.745 -0.2326  0.3822  0.0146
10780SOL    HW133239   4.280   2.963   6.761 -0.1581 -0.6810  0.4181
10780SOL    HW233240   4.162   2.958   6.647  0.6200 -1.7339 -0.3673
10781SOL     OW33241   2.388   4.214   6.592  0.1366 -0.9329 -0.3223
10781SOL    HW133242   2.421   4.263   6.511  1.2030 -0.3468  0.4354
10781SOL    HW233243   2.441   4.130   6.604 -1.5858 -2.2400 -1.5318
10782SOL     OW33244   2.616   2.196   5.956 -0.5813 -0.3751  0.0751
10782SOL    HW133245   2.704   2.244   5.961 -1.2698  1.0323 -0.6287
10782SOL    HW233246   2.632   2.097   5.952  0.8989 -0.2232  1.3129
10783SOL     OW33247   6.424   3.728   4.799  0.2085  0.0327 -0.4961
10783SOL    HW133248   6.475   3.712   4.715  0.7105 -0.8162 -0.0431
10783SOL    HW233249   6.480   3.701   4.878 -1.4155 -2.2902 -0.0385
10784SOL     OW33250   3.538   3.211   1.407  0.5220  0.0489  0.2353
10784SOL    HW133251   3.634   3.205   1.382  0.2829 -1.2875 -0.4412
10784SOL    HW233252   3.489   3.267   1.340  0.7963  0.6636  0.5367
10785SOL     OW33253   3.741   1.473   4.720 -0.3864  0.2548  0.1875
10785SOL    HW133254   3.770   1.405   4.787 -1.6691 -1.1323 -0.5791
10785SOL    HW233255   3.667   1.528   4.758  0.2826  0.8580  0.6200
10786SOL     OW33256   5.605   6.542   1.621 -0.2643 -0.2407  0.6766
10786SOL    HW133257   5.643   6.524   1.712  0.2127  0.2355  0.5788
10786SOL    HW233258   5.642   6.475   1.556  0.8315  0.5353  0.4805
10787SOL     OW33259   5.585   0.617   3.697  0.8509 -0.5083 -0.3288
10787SOL    HW133260   5.509   0.639   3.635  0.6923  0.3132  0.1376
10787SOL    HW233261   5.563   0.535   3.749 -0.2141  0.3265  0.5890
10788SOL     OW33262   0.444   6.075   5.812 -0.3472  0.6334  0.0284
10788SOL    HW133263   0.528   6.025   5.829 -0.6494  0.4391  0.9900
10788SOL    HW233264   0.453   6.128   5.727  0.1374 -0.6900 -0.7673
10789SOL     OW33265   4.789   6.132   2.398 -0.2073 -0.0450 -0.2144
10789SOL    HW133266   4.863   6.083   2.352  1.1061  0.9459  0.7885
10789SOL    HW233267   4.772   6.090   2.488 -0.6711 -0.0892 -0.3199
10790SOL     OW33268   3.085   0.788   6.793  0.8957 -0.6141 -0.4711
10790SOL    HW133269   3.047   0.747   6.875 -0.9258 -0.3913 -1.1523
10790SOL    HW233270   3.127   0.876   6.815 -2.8056  1.2750 -0.1986
10791SOL     OW33271   5.555   5.645   3.443 -0.0845 -0.9243  0.0041
10791SOL    HW133272   5.484   5.576   3.435 -0.9279  0.1091 -2.0387
10791SOL    HW233273   5.591   5.668   3.353  0.9970  0.4641  0.7350
10792SOL     OW33274   3.250   0.894   0.751  0.2347  0.0202  0.2326
10792SOL    HW133275   3.328   0.831   0.757  0.3601  0.1998  0.5418
10792SOL    HW233276   3.233   0.917   0.655 -0.5319 -1.3725  0.0019
10793SOL     OW33277   3.103   6.791   1.835 -1.1512  0.2025 -0.0589
10793SOL    HW133278   3.076   6.706   1.881 -2.9996  1.1174  0.6658
10793SOL    HW233279   3.108   6.865   1.902 -1.0525  0.9772 -0.9098
10794SOL     OW33280   6.548   2.983   6.358  0.1287  0.2443  0.3060
10794SOL    HW133281   6.611   3.055   6.387 -0.3015  0.4539  0.7342
10794SOL    HW233282   6.562   2.902   6.416  1.7313 -0.6257 -1.1856
10795SOL     OW33283   4.662   2.145   0.596 -0.2082  0.0797 -0.9011
10795SOL    HW133284   4.610   2.170   0.514 -0.1952  2.0576 -0.3567
10795SOL    HW233285   4.600   2.145   0.675  0.3510  1.3949 -0.4230
10796SOL     OW33286   5.007   3.748   6.664  0.6676  0.0388  0.6592
10796SOL    HW133287   5.040   3.691   6.739  0.8840 -0.5970  0.0859
10796SOL    HW233288   5.078   3.755   6.594  0.0675 -0.2626  0.0165
10797SOL     OW33289   5.439   3.517   3.784 -0.5018 -0.4691 -0.4043
10797SOL    HW133290   5.447   3.469   3.696  0.7906  0.6542 -0.9451
10797SOL    HW233291   5.420   3.451   3.857  1.1126 -1.8015 -1.1203
10798SOL     OW33292   3.837   5.397   5.778 -0.1662  0.5129 -0.1730
10798SOL    HW133293   3.799   5.488   5.766 -1.3668 -0.0504 -0.8783
10798SOL    HW233294   3.781   5.331   5.727  0.2793 -0.7022  0.8594
10799SOL     OW33295   1.693   2.268   2.549 -0.3237  0.6019 -0.3210
10799SOL    HW133296   1.677   2.177   2.508 -0.5414  0.7959 -0.6765
10799SOL    HW233297   1.781   2.268   2.596  0.0592  0.4472 -1.0140
10800SOL     OW33298   3.961   4.933   0.145 -0.5410 -0.5158  0.1329
10800SOL    HW133299   4.007   5.011   0.104 -2.8348 -0.2376 -2.1842
10800SOL    HW233300   3.954   4.859   0.079 -0.2289 -1.9416  1.6174
10801SOL     OW33301   1.582   4.029   5.753  0.2601 -0.5259 -0.7696
10801SOL    HW133302   1.655   4.050   5.688  2.1341  0.4514  1.5249
10801SOL    HW233303   1.513   4.102   5.751  0.8084 -0.0092 -0.9501
10802SOL     OW33304   6.977   2.469   3.541 -1.0132  0.6079 -0.1942
10802SOL    HW133305   7.038   2.458   3.620  0.6572  0.7174 -1.4082
10802SOL    HW233306   6.952   2.379   3.506 -0.7776  0.5625 -0.2495
10803SOL     OW33307   2.597   6.480   1.381  0.2676  0.5288 -0.0277
10803SOL    HW133308   2.518   6.532   1.349 -0.0473 -0.4098 -0.8274
10803SOL    HW233309   2.681   6.519   1.342  0.0851  0.7334 -0.2163
10804SOL     OW33310   6.418   1.118   0.645 -0.0927 -0.1120  0.4028
10804SOL    HW133311   6.338   1.129   0.703  1.8380 -0.9508  3.4760
10804SOL    HW233312   6.418   1.026   0.605 -2.0863  0.8977 -2.1677
10805SOL     OW33313   1.500   1.764   1.878  0.1561  0.7517  0.5932
10805SOL    HW133314   1.444   1.804   1.950 -0.1731 -1.3029  1.5586
10805SOL    HW233315   1.572   1.708   1.919  1.3946  1.3769 -0.6697
10806SOL     OW33316   6.770   5.790   5.284 -0.2576 -0.3982  0.2534
10806SOL    HW133317   6.870   5.788   5.289 -0.0434  2.8415 -0.2729
10806SOL    HW233318   6.732   5.774   5.375  0.8167 -0.1718  0.7596
10807SOL     OW33319   5.906   4.823   6.005  0.8807 -0.6023  0.4955
10807SOL    HW133320   5.899   4.725   5.988  1.3516 -0.7106  0.9063
10807SOL    HW233321   5.860   4.873   5.932 -0.1677 -1.1550  0.7554
10808SOL     OW33322   4.504   2.767   1.008  0.4167  0.1222  0.7067
10808SOL    HW133323   4.517   2.854   0.961  1.2430  0.1024  0.9010
10808SOL    HW233324   4.406   2.746   1.012  0.3186 -1.4247 -3.8839
10809SOL     OW33325   6.592   1.560   1.269  0.1340  0.1120  0.1922
10809SOL    HW133326   6.535   1.492   1.315  1.1640  0.7926  2.6438
10809SOL    HW233327   6.540   1.645   1.257 -1.0267 -0.8650 -2.5305
10810SOL     OW33328   2.258   3.708   1.457  0.1906  0.8075 -0.1282
10810SOL    HW133329   2.289   3.794   1.497 -0.7487  1.0760  0.0450
10810SOL    HW233330   2.322   3.635   1.482  1.6465  1.6306 -1.2304
10811SOL     OW33331   6.773   4.127   3.043  0.5945 -0.3493 -0.2422
10811SOL    HW133332   6.775   4.208   3.101 -0.3213 -1.3485  1.2481
10811SOL    HW233333   6.792   4.154   2.948 -2.3592  2.0453 -0.3149
10812SOL     OW33334   1.194   1.291   3.962  0.1833  0.0850 -0.4744
10812SOL    HW133335   1.208   1.361   4.032 -0.3968  1.0577 -1.3015
10812SOL    HW233336   1.246   1.316   3.880  0.5972 -0.8676 -0.5133
10813SOL     OW33337   5.274   5.526   2.429 -0.2697 -0.3595 -0.3584
10813SOL    HW133338   5.221   5.606   2.404  2.0254  0.9515 -1.3171
10813SOL    HW233339   5.241   5.447   2.377 -3.0828 -0.3329  1.1766
10814SOL     OW33340   1.872   4.937   5.625 -0.0459 -0.3181  0.5185
10814SOL    HW133341   1.831   5.004   5.687 -1.5188 -1.5775  0.9636
10814SOL    HW233342   1.815   4.927   5.543  1.8100  1.2356 -1.0685
10815SOL     OW33343   2.415   5.411   4.989 -0.6327 -0.7985  0.2240
10815SOL    HW133344   2.498   5.382   5.035  1.1547  0.3311 -2.0771
10815SOL    HW233345   2.375   5.490   5.037  0.5216 -0.3676  0.4990
10816SOL     OW33346   6.498   3.863   2.103  0.2448  0.0074  0.3474
10816SOL    HW133347   6.563   3.796   2.066  0.3585  0.0040  0.5526
10816SOL    HW233348   6.532   3.955   2.086  1.2222  0.0032  2.0555
10817SOL     OW33349   1.838   5.679   2.171 -1.2067  0.0111  0.4054
10817SOL    HW133350   1.930   5.651   2.198 -1.0123 -1.0385 -1.1792
10817SOL    HW233351   1.778   5.682   2.251  0.3135  1.2764  1.5598
10818SOL     OW33352   5.646   5.885   5.250  0.0820  0.4333  0.3639
10818SOL    HW133353   5.620   5.901   5.154  3.7154  1.2126 -0.6651
10818SOL    HW233354   5.672   5.789   5.261  4.1498  1.1791 -0.9101
10819SOL     OW33355   6.885   6.694   1.184  0.8707 -0.0592  0.5038
10819SOL    HW133356   6.801   6.642   1.204  1.8010 -1.5980  0.5459
10819SOL    HW233357   6.871   6.790   1.209 -1.7094  0.2781 -1.6652
10820SOL     OW33358   4.472   5.464   4.002 -0.3866 -0.1439 -0.5841
10820SOL    HW133359   4.402   5.410   3.955  0.5604 -0.2316 -1.9418
10820SOL    HW233360   4.464   5.449   4.101  0.8226 -4.1315 -0.9162
10821SOL     OW33361   4.085   6.070   1.959  0.1693 -0.0837  0.2901
10821SOL    HW133362   4.031   6.056   2.041  0.0074 -0.7373  0.0738
10821SOL    HW233363   4.040   6.026   1.881  0.3876  0.4150 -0.1266
10822SOL     OW33364   6.886   5.945   2.362  0.1385 -0.5367  0.1060
10822SOL    HW133365   6.909   5.904   2.274 -0.3507 -1.6290  0.4797
10822SOL    HW233366   6.927   5.892   2.436 -0.4310 -0.3101  0.5907
10823SOL     OW33367   5.320   2.156   4.700  0.1712  0.2424 -0.0924
10823SOL    HW133368   5.419   2.163   4.697  0.2920 -1.3588 -0.8141
10823SOL    HW233369   5.283   2.165   4.607 -0.1796 -1.0347 -0.1028
10824SOL     OW33370   0.179   5.927   5.200 -0.3766 -0.4823 -0.5561
10824SOL    HW133371   0.260   5.942   5.257 -0.6446 -1.4594  0.1022
10824SOL    HW233372   0.204   5.935   5.103  0.4112 -0.3495 -0.3464
10825SOL     OW33373   2.136   4.380   3.832  0.3361 -0.6852  0.6470
10825SOL    HW133374   2.056   4.342   3.879  0.9742  0.1580  2.4736
10825SOL    HW233375   2.139   4.479   3.845  1.6787 -0.7000  0.5807
10826SOL     OW33376   4.183   5.296   6.133 -0.3863  0.3226 -1.1488
10826SOL    HW133377   4.123   5.223   6.099  0.7028 -0.6595 -1.0424
10826SOL    HW233378   4.278   5.275   6.108  0.3015  0.2592  1.2491
10827SOL     OW33379   4.524   1.866   5.862 -0.0414  0.2572 -0.4341
10827SOL    HW133380   4.446   1.925   5.845  0.8396  1.2364 -1.1865
10827SOL    HW233381   4.506   1.775   5.823 -0.6348  0.5879 -0.9504
10828SOL     OW33382   6.167   2.605   6.565 -0.0148 -0.1667  0.3051
10828SOL    HW133383   6.184   2.703   6.574 -1.0209  0.1132 -0.5698
10828SOL    HW233384   6.236   2.554   6.617  1.0466  0.9675  0.0615
10829SOL     OW33385   6.133   5.351   5.304 -0.3178 -0.5780  0.1715
10829SOL    HW133386   6.161   5.384   5.394 -1.9355  0.1720  0.4454
10829SOL    HW233387   6.075   5.270   5.314 -1.0076 -0.1332 -0.1440
10830SOL     OW33388   6.646   2.064   0.674 -0.1328 -0.1118 -0.3415
10830SOL    HW133389   6.630   1.966   0.679  0.1495 -0.0955  1.8326
10830SOL    HW233390   6.744   2.082   0.685 -0.2982  0.4478  0.2935
10831SOL     OW33391   6.458   2.632   1.666 -0.5023 -0.1585  0.3038
10831SOL    HW133392   6.385   2.700   1.661 -0.6292 -0.3718 -1.4851
10831SOL    HW233393   6.526   2.660   1.733 -1.4525  0.7981  0.9022
10832SOL     OW33394   1.457   6.369   4.774  0.3490 -0.0482  0.0003
10832SOL    HW133395   1.390   6.315   4.723  1.3565 -1.1018 -0.2474
10832SOL    HW233396   1.431   6.371   4.871 -0.3050 -0.0140 -0.1685
10833SOL     OW33397   5.543   2.784   4.099  0.1260 -0.3197  0.1785
10833SOL    HW133398   5.540   2.697   4.048 -0.1399  0.1853 -0.6826
10833SOL    HW233399   5.451   2.808   4.130  0.2591 -0.5326  0.7556
10834SOL     OW33400   2.347   6.680   4.556  0.8400 -0.3637 -0.1616
10834SOL    HW133401   2.248   6.675   4.543  0.8933 -1.5028 -0.1823
10834SOL    HW233402   2.368   6.691   4.654  0.7352 -1.8343  0.0373
10835SOL     OW33403   2.854   1.004   0.280 -0.0591 -0.0696  0.1258
10835SOL    HW133404   2.832   1.052   0.365  1.1642  2.2845 -0.8092
10835SOL    HW233405   2.775   1.006   0.218  0.3790  2.0009 -0.4221
10836SOL     OW33406   0.142   4.067   2.813  0.0294 -0.0691 -0.0515
10836SOL    HW133407   0.172   3.974   2.835 -0.3478  0.1892  1.7363
10836SOL    HW233408   0.101   4.108   2.894  1.7441  2.2742 -0.2855
10837SOL     OW33409   5.848   2.362   0.019  0.2939 -0.2073 -0.0949
10837SOL    HW133410   5.945   2.356   0.043  0.5427 -1.0195 -1.2128
10837SOL    HW233411   5.817   2.273  -0.014 -0.1455  0.6697 -2.2140
10838SOL     OW33412   6.600   4.640   4.689  0.2730  0.3386  0.0842
10838SOL    HW133413   6.589   4.708   4.618 -2.0110  2.6760  2.4719
10838SOL    HW233414   6.696   4.636   4.717  0.6267  1.7908 -0.8404
10839SOL     OW33415   7.005   2.365   6.812  0.2759 -0.1619 -0.1293
10839SOL    HW133416   7.021   2.455   6.772 -0.0734 -0.0304  0.0161
10839SOL    HW233417   6.914   2.363   6.853  1.2217  0.2873  2.1775
10840SOL     OW33418   4.696   3.620   6.566  0.4599  0.9393  0.1582
10840SOL    HW133419   4.760   3.575   6.504  0.1466  0.8118 -0.0783
10840SOL    HW233420   4.729   3.611   6.660  0.3785  0.1609  0.1210
10841SOL     OW33421   0.613   4.305   0.503  0.1453 -0.0758  0.1967
10841SOL    HW133422   0.599   4.298   0.601 -2.7555  0.1487 -0.1086
10841SOL    HW233423   0.577   4.223   0.458 -1.3697  1.0946 -0.8378
10842SOL     OW33424   1.706   5.383   0.191  0.0218  0.3588 -0.0099
10842SOL    HW133425   1.723   5.305   0.251  0.2563 -2.7097 -3.6635
10842SOL    HW233426   1.792   5.415   0.152 -0.4490 -0.9248 -2.2465
10843SOL     OW33427   4.617   3.979   5.517 -0.0527 -0.3641 -0.0311
10843SOL    HW133428   4.625   3.892   5.467  1.0861  0.0931 -0.6758
10843SOL    HW233429   4.668   4.050   5.469 -1.2818  0.7667  0.2969
10844SOL     OW33430   1.223   0.654   3.004  0.0911 -0.1822 -0.0178
10844SOL    HW133431   1.203   0.576   3.063  1.8004  1.0181  2.3400
10844SOL    HW233432   1.302   0.633   2.946  0.7528 -0.1514  0.8429
10845SOL     OW33433   6.654   5.253   3.250 -0.2388 -0.2501 -0.2950
10845SOL    HW133434   6.623   5.268   3.157  0.5876 -1.0197 -0.7123
10845SOL    HW233435   6.716   5.174   3.253 -1.4217 -1.1892  1.1483
10846SOL     OW33436   2.752   2.263   0.409  0.5495  0.0056  0.2733
10846SOL    HW133437   2.843   2.221   0.406  0.9888  0.6696  2.6384
10846SOL    HW233438   2.754   2.346   0.465 -1.4005  0.3945 -0.1281
10847SOL     OW33439   6.302   2.862   6.290 -0.0105  0.3207  0.6837
10847SOL    HW133440   6.339   2.947   6.328 -0.3718  0.3036  1.0837
10847SOL    HW233441   6.377   2.806   6.257  0.1091  1.9881 -2.2028
10848SOL     OW33442   2.229   1.951   6.814 -0.4122  0.7086 -0.5058
10848SOL    HW133443   2.191   1.973   6.904  1.6364 -0.2683  0.6671
10848SOL    HW233444   2.181   1.873   6.776  0.7451 -0.9478  1.2626
10849SOL     OW33445   0.663   2.669   2.641 -0.2890  0.0297 -0.4546
10849SOL    HW133446   0.760   2.691   2.638 -0.3120  0.2256  0.1322
10849SOL    HW233447   0.647   2.597   2.709 -0.3142 -1.3230 -1.8324
10850SOL     OW33448   0.573   2.895   3.332 -0.8014 -0.2997 -0.8239
10850SOL    HW133449   0.622   2.918   3.248 -0.2336 -0.4743 -0.5463
10850SOL    HW233450   0.625   2.826   3.383 -0.8959  0.1686 -0.0833
10851SOL     OW33451   4.689   6.061   6.257  0.3945  0.0541  0.2074
10851SOL    HW133452   4.777   6.049   6.210 -0.2266  1.2902 -1.3477
10851SOL    HW233453   4.671   5.981   6.313  2.7314 -0.0377  0.9584
10852SOL     OW33454   5.941   2.716   3.633  0.2485  0.4116  0.0811
10852SOL    HW133455   5.952   2.815   3.629 -0.8375  0.5134 -0.9469
10852SOL    HW233456   5.860   2.689   3.581  0.8082 -1.0702 -0.0841
10853SOL     OW33457   4.891   1.817   3.220 -0.2066  0.2586  0.4438
10853SOL    HW133458   4.948   1.767   3.155 -1.4410  0.2770 -0.6854
10853SOL    HW233459   4.933   1.813   3.311  1.5351  0.1894 -0.3120
10854SOL     OW33460   4.391   1.661   0.967 -0.2947 -0.0289  0.0389
10854SOL    HW133461   4.491   1.662   0.965 -0.2752 -1.0573 -0.1192
10854SOL    HW233462   4.360   1.623   1.054 -0.5715  1.0840  0.4471
10855SOL     OW33463   2.737   0.512   4.863  0.0414  0.6750  0.3429
10855SOL    HW133464   2.646   0.529   4.826  0.0167  1.5415  0.7638
10855SOL    HW233465   2.768   0.593   4.913  1.6538  0.9784 -1.0431
10856SOL     OW33466   2.091   2.133   1.776  0.0771  0.3938  0.3955
10856SOL    HW133467   2.118   2.050   1.728  1.7025  1.1679 -0.0666
10856SOL    HW233468   2.006   2.168   1.736 -0.3125 -0.6982  0.2175
10857SOL     OW33469   0.091   6.924   4.159 -0.1057 -0.2292  0.1966
10857SOL    HW133470   0.026   6.993   4.126  0.0968  0.5797  1.3980
10857SOL    HW233471   0.132   6.956   4.245 -0.2810 -2.0283  0.9838
10858SOL     OW33472   5.005   1.673   1.817  0.2289 -0.1272 -0.1346
10858SOL    HW133473   4.908   1.697   1.806  0.5575  1.5180  0.2501
10858SOL    HW233474   5.048   1.667   1.727  0.1854  1.1112 -0.2591
10859SOL     OW33475   5.638   0.973   1.670 -0.2802  0.3329 -0.1524
10859SOL    HW133476   5.732   1.001   1.649 -0.5136  1.5763  0.3713
10859SOL    HW233477   5.638   0.912   1.749  0.2356 -1.1466 -1.2567
10860SOL     OW33478   5.400   1.804   5.174 -0.0784 -1.1745  0.0864
10860SOL    HW133479   5.437   1.869   5.240 -1.6387  0.3427 -0.4617
10860SOL    HW233480   5.401   1.844   5.082  0.6263 -2.6588 -0.6073
10861SOL     OW33481   6.557   4.688   2.918  0.5779  0.0094 -0.1263
10861SOL    HW133482   6.571   4.703   3.016 -0.2719 -0.3191  0.0543
10861SOL    HW233483   6.642   4.706   2.869  1.3319 -0.9644  0.7958
10862SOL     OW33484   3.448   5.525   0.411 -0.5634  0.1917 -0.2677
10862SOL    HW133485   3.544   5.542   0.386 -0.4859  0.5163  0.2234
10862SOL    HW233486   3.446   5.457   0.485 -0.7216  0.0840 -0.3722
10863SOL     OW33487   1.357   5.239   3.060  0.4517  0.5341  0.5162
10863SOL    HW133488   1.451   5.237   3.025  0.3260  0.9375  0.1419
10863SOL    HW233489   1.331   5.148   3.091  1.6321  0.7651  2.4137
10864SOL     OW33490   4.093   5.633   0.406 -0.4305 -0.0940  0.2678
10864SOL    HW133491   4.130   5.610   0.496 -1.1439 -0.8223  0.3882
10864SOL    HW233492   4.029   5.709   0.414 -2.0279 -1.4228  0.7371
10865SOL     OW33493   2.936   5.461   6.860  0.4643  0.1497  0.9745
10865SOL    HW133494   2.976   5.499   6.776  0.2813 -1.1939  0.2623
10865SOL    HW233495   2.842   5.434   6.843  0.7228 -1.0216  1.3317
10866SOL     OW33496   4.360   6.148   5.776  0.0156 -0.5805  0.2508
10866SOL    HW133497   4.276   6.097   5.793 -1.2411  1.1119 -0.6371
10866SOL    HW233498   4.414   6.152   5.860 -2.2737  0.9019  1.7604
10867SOL     OW33499   3.254   4.858   1.295 -0.0076 -0.3135  0.3124
10867SOL    HW133500   3.163   4.860   1.253  0.2538 -0.4738 -0.2762
10867SOL    HW233501   3.290   4.951   1.301  0.0815 -0.3209 -0.1068
10868SOL     OW33502   4.335   1.248   0.299 -0.0874  0.1472  0.3651
10868SOL    HW133503   4.267   1.321   0.309 -0.4610  0.1102 -1.6413
10868SOL    HW233504   4.420   1.276   0.346 -0.1474  1.9974 -0.5334
10869NA      NA33505   5.015   2.689   0.745  0.3179 -0.1889 -0.5339
10870NA      NA33506   2.079   5.467   4.428 -0.8684  0.2826  0.0150
10871NA      NA33507   1.685   6.291   2.775  0.1067  0.0225  0.4638
10872NA      NA33508   3.583   4.779   0.471  0.3451 -0.6547  0.2486
10873NA      NA33509   3.654   2.732   5.481 -0.5128 -0.1119  0.5505
10874NA      NA33510   2.793   4.749   5.188  0.1379 -0.1695  0.5748
10875NA      NA33511   3.705   3.490   1.850 -0.5724 -0.2716  0.1337
10876NA      NA33512   4.325   6.042   0.259 -0.3565  0.1176 -0.1704
10877NA      NA33513   2.164   1.581   5.291 -0.2501 -0.8940 -0.1626
10878NA      NA33514   3.433   0.704   4.024 -0.2499  0.6183  0.6029
10879NA      NA33515   1.259   5.330   0.323 -0.2853  0.3995  0.2045
10880NA      NA33516   2.271   3.163   5.604 -0.0894 -0.5110  0.3446
10881NA      NA33517   2.952   2.285   1.748  0.2990 -0.1988  0.1826
10882NA      NA33518   6.545   2.365   0.961  0.1340  0.3545  0.1409
   7.01777   7.01777   7.01777
