CNT in water
33518
    1C        C    1   2.846   2.771   4.746 -0.2624 -0.2059 -0.1804
    1C        C    2   2.897   2.719   4.866 -0.0674 -0.2918 -0.3010
    1C        C    3   2.839   2.768   4.984  0.0818  0.3543 -0.4941
    1C        C    4   2.849   2.777   4.258  0.1787  0.2308  0.0895
    1C        C    5   2.903   2.730   4.380  0.1063 -0.0251  0.0198
    1C        C    6   2.847   2.776   4.501 -0.1788  0.2345 -0.2114
    1C        C    7   3.011   2.642   4.623 -0.0923  0.2129 -0.1591
    1C        C    8   2.900   2.728   4.623 -0.0017  0.3274 -0.2544
    1C        C    9   3.075   2.605   4.744  0.0388 -0.1484 -0.3374
    1C        C   10   3.011   2.635   4.866 -0.0833 -0.3135 -0.3615
    1C        C   11   3.182   2.493   4.975 -0.4387 -0.2646 -0.3696
    1C        C   12   3.058   2.559   4.974 -0.2843  0.0316 -0.0290
    1C        C   13   2.848   2.776   3.770  0.1338  0.2769  0.0005
    1C        C   14   2.903   2.730   3.892 -0.1421 -0.4011 -0.1330
    1C        C   15   2.848   2.776   4.013  0.0690  0.1811 -0.2596
    1C        C   16   3.013   2.643   4.135 -0.2833  0.1835 -0.0555
    1C        C   17   2.903   2.732   4.135  0.0788  0.6317 -0.1009
    1C        C   18   3.072   2.608   4.258 -0.1654  0.0211 -0.1626
    1C        C   19   3.021   2.652   4.382  0.5204  0.5972 -0.0838
    1C        C   20   3.204   2.548   4.502  0.3073  0.8197 -0.2167
    1C        C   21   3.074   2.602   4.503  0.0053  0.0957 -0.0665
    1C        C   22   3.275   2.526   4.622 -0.3226 -0.3630 -0.0481
    1C        C   23   3.208   2.554   4.743  0.0853 -0.0356  0.1009
    1C        C   24   3.413   2.497   4.864  0.0407 -0.5092  0.2207
    1C        C   25   3.270   2.513   4.864  0.0373 -0.5293 -0.0401
    1C        C   26   3.493   2.474   4.977  0.2086  0.8873  0.4051
    1C        C   27   2.850   2.774   3.282  0.4562  1.0630  0.1332
    1C        C   28   2.905   2.731   3.405  0.9064  0.9970 -0.0911
    1C        C   29   2.844   2.770   3.527  0.1756  0.4675 -0.2819
    1C        C   30   3.019   2.649   3.647  0.1123  0.6488  0.1413
    1C        C   31   2.903   2.729   3.649  0.3151  0.9531 -0.1863
    1C        C   32   3.077   2.610   3.770  0.2531  0.5336  0.0372
    1C        C   33   3.020   2.652   3.892  0.0615 -0.0893  0.1612
    1C        C   34   3.210   2.558   4.013 -0.0255 -0.1158  0.1498
    1C        C   35   3.080   2.614   4.014 -0.1355 -0.3773  0.1653
    1C        C   36   3.272   2.528   4.136  0.1001  0.0835  0.1319
    1C        C   37   3.202   2.554   4.255 -0.1583  0.0411 -0.0140
    1C        C   38   3.407   2.505   4.380  0.1287 -0.0412  0.0302
    1C        C   39   3.268   2.528   4.377  0.1550  0.0822 -0.1767
    1C        C   40   3.482   2.491   4.499  0.0161  0.2036  0.1279
    1C        C   41   3.413   2.500   4.622 -0.1159  0.7209  0.0143
    1C        C   42   3.627   2.493   4.739 -0.2570  0.5063  0.0071
    1C        C   43   3.485   2.487   4.742 -0.2344  0.0123  0.0062
    1C        C   44   3.703   2.497   4.859 -0.4290  0.6162  0.1146
    1C        C   45   3.632   2.480   4.978  0.2392  0.1496  0.4519
    1C        C   46   2.839   2.756   2.794  0.0458  0.2652 -0.3398
    1C        C   47   2.897   2.716   2.917  0.5666  0.8410 -0.3916
    1C        C   48   2.840   2.761   3.038  0.9440  0.8567 -0.2215
    1C        C   49   3.014   2.641   3.161  0.4839  1.1944  0.2345
    1C        C   50   2.900   2.724   3.160  0.3720  1.0352  0.1132
    1C        C   51   3.079   2.612   3.283  0.3903  0.0697  0.0269
    1C        C   52   3.022   2.652   3.405  0.6437  0.6079 -0.0308
    1C        C   53   3.214   2.560   3.524  0.1311  0.3247  0.0320
    1C        C   54   3.084   2.615   3.526  0.4296  1.0300  0.2072
    1C        C   55   3.279   2.539   3.648 -0.2271 -0.2781  0.1164
    1C        C   56   3.209   2.563   3.768  0.0332 -0.0881  0.2275
    1C        C   57   3.417   2.519   3.891  0.1803  0.3912  0.0664
    1C        C   58   3.277   2.540   3.890  0.1406  0.1363  0.2073
    1C        C   59   3.482   2.492   4.013  0.0870  0.7852  0.2034
    1C        C   60   3.410   2.496   4.135  0.2079  0.5513  0.2840
    1C        C   61   3.620   2.497   4.255  0.3988 -0.1628  0.0513
    1C        C   62   3.478   2.497   4.258  0.4020  0.1312  0.1803
    1C        C   63   3.693   2.512   4.375  0.3909  0.1696  0.0156
    1C        C   64   3.623   2.501   4.497 -0.0232  0.7381 -0.1648
    1C        C   65   3.830   2.557   4.618 -0.2836  0.5348  0.2708
    1C        C   66   3.695   2.515   4.618 -0.2069  0.2906 -0.0018
    1C        C   67   3.901   2.576   4.739 -0.1535 -0.1065  0.2988
    1C        C   68   3.840   2.529   4.857 -0.2528 -0.0981  0.2502
    1C        C   69   4.049   2.589   4.974  0.2323  0.3300  0.3183
    1C        C   70   3.927   2.521   4.967  0.6259 -0.3067 -0.4553
    1C        C   71   2.822   2.733   2.309 -0.1254  0.2386 -0.1644
    1C        C   72   2.884   2.695   2.429 -0.0116  0.2383 -0.2283
    1C        C   73   2.831   2.744   2.550 -0.1796  0.0720 -0.2390
    1C        C   74   3.007   2.629   2.676  0.0943  0.1808 -0.1571
    1C        C   75   2.886   2.702   2.673  0.2231  0.3806 -0.3192
    1C        C   76   3.071   2.598   2.797 -0.0126  0.3311 -0.0666
    1C        C   77   3.014   2.638   2.920  0.2106  0.3233  0.0360
    1C        C   78   3.209   2.551   3.040  0.0329  0.5960  0.2470
    1C        C   79   3.077   2.602   3.041  0.0034  0.5123  0.1963
    1C        C   80   3.277   2.527   3.161  0.2469 -0.1828 -0.0232
    1C        C   81   3.209   2.557   3.281  0.3612  0.0091 -0.0102
    1C        C   82   3.417   2.503   3.400  0.1183 -0.1434 -0.0180
    1C        C   83   3.279   2.535   3.402  0.1732  0.0744  0.1076
    1C        C   84   3.484   2.490   3.523 -0.2870 -0.1520  0.2049
    1C        C   85   3.416   2.505   3.646 -0.2521 -0.3821  0.2516
    1C        C   86   3.626   2.491   3.768  0.0773 -0.4503 -0.5394
    1C        C   87   3.485   2.501   3.769  0.1174  0.1538  0.0657
    1C        C   88   3.694   2.502   3.891 -0.3958 -0.0067 -0.3127
    1C        C   89   3.623   2.495   4.013  0.1331 -0.4982 -0.0228
    1C        C   90   3.828   2.542   4.133  0.0552  0.0247 -0.1472
    1C        C   91   3.693   2.501   4.135  0.2229 -0.5457 -0.0706
    1C        C   92   3.894   2.579   4.253  0.3548 -0.1907 -0.2409
    1C        C   93   3.825   2.560   4.375  0.4324  0.0558 -0.1585
    1C        C   94   4.022   2.645   4.496 -0.1669  0.1444  0.3842
    1C        C   95   3.895   2.583   4.495 -0.3985  0.6170  0.2275
    1C        C   96   4.089   2.676   4.616  0.1149 -0.1042  0.2920
    1C        C   97   4.029   2.637   4.738 -0.1417 -0.1355  0.1551
    1C        C   98   4.191   2.769   4.860 -0.1753  0.2465  0.0980
    1C        C   99   4.097   2.662   4.860 -0.1718  0.2460  0.0944
    1C        C  100   4.214   2.843   4.977  0.0840 -0.6036  0.5987
    1C        C  101   2.819   2.727   2.072 -0.3248  0.0200  0.4045
    1C        C  102   2.987   2.588   2.191  0.3192  0.1476  0.2437
    1C        C  103   2.873   2.675   2.190  0.0623 -0.1936  0.1304
    1C        C  104   3.060   2.567   2.312  0.1964 -0.5122  0.2050
    1C        C  105   3.001   2.615   2.431  0.0496  0.3366 -0.2078
    1C        C  106   3.195   2.533   2.553  0.2150  0.8378  0.2204
    1C        C  107   3.064   2.587   2.554 -0.1226  0.0222 -0.1978
    1C        C  108   3.266   2.514   2.673  0.2501  0.8094  0.1895
    1C        C  109   3.203   2.546   2.795 -0.0442  0.2523  0.1799
    1C        C  110   3.411   2.496   2.914 -0.2517 -0.3053 -0.1320
    1C        C  111   3.273   2.525   2.916 -0.1050  0.3592  0.2288
    1C        C  112   3.484   2.490   3.034 -0.0820 -0.4444 -0.2457
    1C        C  113   3.416   2.501   3.157  0.1404 -0.7234 -0.0995
    1C        C  114   3.628   2.486   3.281  0.0345 -0.7169 -0.4685
    1C        C  115   3.487   2.491   3.278  0.0304 -0.5905 -0.0262
    1C        C  116   3.699   2.494   3.403 -0.3052 -0.1006 -0.3081
    1C        C  117   3.626   2.493   3.524 -0.2853 -0.0484 -0.2942
    1C        C  118   3.831   2.543   3.646  0.1649 -0.1733 -0.1165
    1C        C  119   3.696   2.500   3.646  0.0671  0.1300 -0.5056
    1C        C  120   3.897   2.567   3.769 -0.0731 -0.1145  0.0061
    1C        C  121   3.828   2.546   3.890 -0.4742  0.2459 -0.1551
    1C        C  122   4.014   2.647   4.009  0.0774 -0.3952 -0.0453
    1C        C  123   3.893   2.575   4.012 -0.0337 -0.2304 -0.2691
    1C        C  124   4.079   2.680   4.130  0.4647 -1.0937 -0.0529
    1C        C  125   4.020   2.642   4.252  0.2100  0.1148  0.2236
    1C        C  126   4.183   2.778   4.375  0.0615 -0.1494 -0.0696
    1C        C  127   4.080   2.682   4.373  0.0442 -0.1401  0.3952
    1C        C  128   4.239   2.825   4.496 -0.5254 -0.0773  0.1730
    1C        C  129   4.201   2.763   4.617  0.4296 -0.5120  0.2578
    1C        C  130   4.329   2.934   4.738 -0.2309  0.2912 -0.1335
    1C        C  131   4.245   2.819   4.739 -0.0443  0.1564  0.1206
    1C        C  132   4.350   3.004   4.859 -0.8513  0.0815  0.0996
    1C        C  133   4.292   2.958   4.978 -0.5507 -0.1586  0.1542
    1C        C  134   3.168   2.459   2.081  0.0850  0.0358 -0.3091
    1C        C  135   3.036   2.503   2.086  0.2986  0.6561 -0.1756
    1C        C  136   3.255   2.480   2.188  0.0220  0.3660 -0.3272
    1C        C  137   3.195   2.524   2.308  0.3928  0.1270 -0.0582
    1C        C  138   3.402   2.484   2.428 -0.0102  0.3260  0.0603
    1C        C  139   3.263   2.511   2.431  0.0475  0.5799  0.1779
    1C        C  140   3.474   2.478   2.549  0.0511 -0.0785 -0.0026
    1C        C  141   3.405   2.491   2.672  0.1062 -0.0448  0.0190
    1C        C  142   3.621   2.485   2.789  0.0527 -0.3329  0.0526
    1C        C  143   3.480   2.483   2.791  0.0535 -0.2219  0.0348
    1C        C  144   3.691   2.497   2.911  0.3422 -0.5972 -0.0910
    1C        C  145   3.625   2.492   3.035 -0.0861 -0.2291 -0.3025
    1C        C  146   3.832   2.535   3.156 -0.0262  0.3965  0.3895
    1C        C  147   3.696   2.499   3.158  0.0200  0.1576 -0.3850
    1C        C  148   3.900   2.553   3.278  0.1248 -0.5648  0.4629
    1C        C  149   3.835   2.529   3.401 -0.2797 -0.1503  0.3367
    1C        C  150   4.018   2.637   3.521  0.5636 -0.4994  0.3321
    1C        C  151   3.897   2.563   3.524  0.5277 -0.4629  0.0260
    1C        C  152   4.081   2.671   3.642  0.3484 -0.4355  0.4327
    1C        C  153   4.019   2.638   3.765 -0.0332 -0.1556  0.3213
    1C        C  154   4.187   2.768   3.887  0.6684 -0.5930  0.1309
    1C        C  155   4.070   2.689   3.886  0.3790 -0.1751  0.1629
    1C        C  156   4.241   2.816   4.008  0.2509 -0.5029  0.2865
    1C        C  157   4.193   2.764   4.130  0.1696 -0.6832  0.1804
    1C        C  158   4.334   2.923   4.252 -0.2071  0.2138 -0.2541
    1C        C  159   4.239   2.819   4.251 -0.1976  0.2025 -0.0727
    1C        C  160   4.382   2.979   4.372  0.0523 -0.4052 -0.0673
    1C        C  161   4.335   2.928   4.495 -0.3907 -0.2073 -0.1538
    1C        C  162   4.446   3.110   4.615  0.3332 -0.3646  0.0198
    1C        C  163   4.376   2.987   4.617 -0.2527 -0.0403 -0.2837
    1C        C  164   4.470   3.181   4.734 -0.1371 -0.1029 -0.0402
    1C        C  165   4.431   3.120   4.855 -0.7105 -0.0273 -0.1881
    1C        C  166   4.511   3.320   4.970 -0.1799 -0.0449  0.0751
    1C        C  167   4.475   3.186   4.970 -0.3592  0.0011 -0.3401
    1C        C  168   3.469   2.432   2.073 -0.1129  0.1519  0.0540
    1C        C  169   3.395   2.466   2.187 -0.0172 -0.0645  0.1790
    1C        C  170   3.613   2.468   2.308  0.0462  0.3447  0.0974
    1C        C  171   3.471   2.466   2.306  0.0533  0.1385  0.1297
    1C        C  172   3.689   2.481   2.427  0.0265 -0.6093  0.2139
    1C        C  173   3.615   2.476   2.547  0.0454 -0.9405  0.2080
    1C        C  174   3.824   2.538   2.667  0.0726 -0.1881 -0.3413
    1C        C  175   3.688   2.498   2.666 -0.0555  0.2403  0.0549
    1C        C  176   3.892   2.558   2.789 -0.0277 -0.4679 -0.2403
    1C        C  177   3.828   2.534   2.912  0.2316 -0.1892 -0.0491
    1C        C  178   4.020   2.627   3.030 -0.0446 -0.3474  0.2391
    1C        C  179   3.896   2.560   3.033 -0.2699  0.0556  0.1893
    1C        C  180   4.079   2.666   3.152  0.1197 -0.0228  0.0623
    1C        C  181   4.018   2.630   3.274 -0.4579  0.3257 -0.1156
    1C        C  182   4.183   2.763   3.395 -0.1746 -0.3961 -0.2667
    1C        C  183   4.075   2.672   3.397 -0.1448 -0.4353  0.0119
    1C        C  184   4.238   2.809   3.517  0.1818 -0.5777 -0.3516
    1C        C  185   4.192   2.758   3.641  0.8150 -1.0211 -0.2908
    1C        C  186   4.335   2.914   3.761 -0.4057 -0.2554 -0.3472
    1C        C  187   4.243   2.808   3.763  0.3124 -0.8844 -0.1301
    1C        C  188   4.379   2.973   3.881 -0.7277 -0.0138 -0.3421
    1C        C  189   4.336   2.920   4.005 -0.1343 -0.1547 -0.1908
    1C        C  190   4.442   3.100   4.126  0.1003  0.0455 -0.0399
    1C        C  191   4.379   2.974   4.128 -0.3671  0.2694 -0.2913
    1C        C  192   4.471   3.167   4.247 -0.4604 -0.0513  0.1511
    1C        C  193   4.444   3.106   4.371 -0.2422 -0.2602  0.0952
    1C        C  194   4.509   3.310   4.487 -0.6616  0.0173  0.3792
    1C        C  195   4.471   3.174   4.492 -0.4359 -0.0568  0.0211
    1C        C  196   4.525   3.380   4.609 -0.6315  0.4003  0.1543
    1C        C  197   4.514   3.316   4.734  0.0553 -0.1677 -0.0750
    1C        C  198   4.555   3.534   4.847  0.1317 -0.2904  0.0735
    1C        C  199   4.535   3.392   4.852  0.1558 -0.2960 -0.0112
    1C        C  200   4.576   3.615   4.964 -0.1048 -0.2097  0.0608
    1C        C  201   3.609   2.434   2.072 -0.0937 -0.4908  0.4972
    1C        C  202   3.820   2.523   2.182  0.0851  0.1545  0.0360
    1C        C  203   3.686   2.472   2.186  0.1968 -0.1137  0.1780
    1C        C  204   3.893   2.542   2.302  0.3119 -0.8935  0.0736
    1C        C  205   3.825   2.517   2.424 -0.0596 -0.3187 -0.0140
    1C        C  206   4.014   2.621   2.542  0.0922  0.1149 -0.0791
    1C        C  207   3.892   2.549   2.544  0.2541 -0.1598 -0.2355
    1C        C  208   4.073   2.661   2.663 -0.3086  0.1534  0.1053
    1C        C  209   4.013   2.631   2.787 -0.0132 -0.4811  0.1028
    1C        C  210   4.182   2.762   2.906  0.1919 -0.5137  0.0048
    1C        C  211   4.078   2.666   2.907 -0.5745  0.3057  0.1890
    1C        C  212   4.237   2.808   3.028 -0.2835  0.5557 -0.1751
    1C        C  213   4.189   2.754   3.149  0.0989  0.0005 -0.2639
    1C        C  214   4.332   2.910   3.274 -0.2429  0.0270  0.0893
    1C        C  215   4.235   2.808   3.272 -0.1167 -0.0926 -0.1386
    1C        C  216   4.377   2.968   3.394  0.1961 -0.3248  0.0954
    1C        C  217   4.332   2.914   3.517  0.1347 -0.5262 -0.0126
    1C        C  218   4.443   3.095   3.639 -0.3901  0.1537  0.3123
    1C        C  219   4.378   2.970   3.638 -0.2124  0.0590 -0.1429
    1C        C  220   4.468   3.164   3.759  0.0611  0.2457  0.1698
    1C        C  221   4.441   3.100   3.882 -0.6646 -0.0430 -0.1346
    1C        C  222   4.500   3.304   4.000 -0.8978  0.1445  0.2058
    1C        C  223   4.467   3.166   4.003 -0.7344  0.0939 -0.1933
    1C        C  224   4.514   3.372   4.123 -0.5431  0.1361  0.1702
    1C        C  225   4.506   3.304   4.246 -0.2754 -0.1000  0.0566
    1C        C  226   4.518   3.521   4.362  0.1149 -0.2558 -0.1203
    1C        C  227   4.517   3.380   4.365 -0.9607 -0.2452  0.2136
    1C        C  228   4.517   3.592   4.483 -0.8236 -0.0126 -0.2656
    1C        C  229   4.529   3.521   4.605 -0.1350  0.3799 -0.1006
    1C        C  230   4.501   3.737   4.723 -0.0683 -0.1221  0.0527
    1C        C  231   4.538   3.599   4.722  0.0915 -0.0791  0.1887
    1C        C  232   4.492   3.816   4.839  0.4778  0.1337 -0.0759
    1C        C  233   4.545   3.751   4.951  0.3976 -0.1165 -0.1815
    1C        C  234   4.011   2.611   2.065 -0.3513 -0.2131  0.5357
    1C        C  235   3.887   2.547   2.062 -0.4894  0.0883 -0.3003
    1C        C  236   4.084   2.647   2.179  0.1555 -0.1137  0.1802
    1C        C  237   4.016   2.613   2.298  0.1484 -0.6166  0.0281
    1C        C  238   4.186   2.744   2.418  0.0367 -0.0502 -0.0269
    1C        C  239   4.074   2.656   2.419  0.2187 -0.2783 -0.1289
    1C        C  240   4.233   2.798   2.540  0.3491 -0.3113 -0.0350
    1C        C  241   4.184   2.749   2.663 -0.1387 -0.0604 -0.1285
    1C        C  242   4.331   2.907   2.783  0.0146 -0.3950 -0.0193
    1C        C  243   4.234   2.804   2.782  0.0213 -0.4044 -0.0328
    1C        C  244   4.377   2.963   2.904 -0.1379 -0.1389 -0.0754
    1C        C  245   4.332   2.913   3.028 -0.3181  0.5901  0.1616
    1C        C  246   4.442   3.091   3.148 -0.2428  0.2354  0.1011
    1C        C  247   4.375   2.966   3.151  0.3368 -0.0804  0.2370
    1C        C  248   4.467   3.155   3.271  0.1089 -0.0433  0.1797
    1C        C  249   4.442   3.093   3.395 -0.4304  0.0045  0.1002
    1C        C  250   4.502   3.298   3.512 -1.1831  0.1204  0.0203
    1C        C  251   4.462   3.162   3.516 -0.8269  0.0184  0.1630
    1C        C  252   4.522   3.367   3.633 -0.9530  0.2301 -0.0765
    1C        C  253   4.510   3.299   3.757 -0.6620  0.4780  0.0899
    1C        C  254   4.519   3.512   3.875 -0.8036  0.2206 -0.0434
    1C        C  255   4.520   3.371   3.877 -0.8545  0.2263  0.2582
    1C        C  256   4.511   3.583   3.997 -0.2175 -0.0233  0.1367
    1C        C  257   4.523   3.513   4.119  0.5313  0.0716  0.1180
    1C        C  258   4.486   3.727   4.239  0.3451  0.2274 -0.0724
    1C        C  259   4.513   3.588   4.238 -0.6930  0.0153  0.0571
    1C        C  260   4.464   3.797   4.360 -0.5077  0.1070 -0.1487
    1C        C  261   4.487   3.730   4.482 -0.7070  0.0125 -0.1650
    1C        C  262   4.414   3.932   4.600  0.5386  0.0769 -0.0103
    1C        C  263   4.470   3.803   4.602  0.3085 -0.0226  0.0086
    1C        C  264   4.391   4.003   4.720 -0.4059 -0.0183 -0.1260
    1C        C  265   4.436   3.945   4.840 -0.2204 -0.1604 -0.2641
    1C        C  266   4.310   4.121   4.954 -0.3996 -0.0222  0.5141
    1C        C  267   4.389   4.007   4.957 -0.5185 -0.1306 -0.4003
    1C        C  268   4.253   2.778   2.061 -0.2625  0.2117 -0.1911
    1C        C  269   4.201   2.726   2.180  0.0176  0.0944 -0.1212
    1C        C  270   4.341   2.889   2.297  0.0821 -0.2869 -0.0025
    1C        C  271   4.257   2.775   2.300  0.1832 -0.3586 -0.0166
    1C        C  272   4.373   2.957   2.417 -0.4286  0.1188 -0.0944
    1C        C  273   4.325   2.906   2.539 -0.3818  0.3147  0.0073
    1C        C  274   4.443   3.085   2.659  0.1746 -0.2642 -0.3199
    1C        C  275   4.370   2.964   2.659  0.1783 -0.2696  0.0863
    1C        C  276   4.477   3.147   2.781  0.6284 -0.6673 -0.2333
    1C        C  277   4.446   3.085   2.904 -0.1363 -0.1369 -0.1457
    1C        C  278   4.501   3.291   3.023 -1.1649  0.1547 -0.0030
    1C        C  279   4.474   3.152   3.025 -0.7084  0.0616 -0.1163
    1C        C  280   4.507   3.364   3.143 -1.4266  0.2253 -0.0270
    1C        C  281   4.489   3.295   3.265 -0.0748 -0.0166  0.0595
    1C        C  282   4.501   3.505   3.384 -0.5299  0.1817 -0.2379
    1C        C  283   4.501   3.364   3.387 -0.9447  0.1802  0.0475
    1C        C  284   4.500   3.574   3.508  0.1234  0.3122 -0.3008
    1C        C  285   4.514   3.508   3.631 -0.6352  0.2480 -0.2450
    1C        C  286   4.485   3.719   3.751 -0.0444  0.1059  0.0823
    1C        C  287   4.516   3.581   3.752 -0.1881  0.0707 -0.1433
    1C        C  288   4.462   3.789   3.871  0.2339  0.3074  0.0186
    1C        C  289   4.479   3.720   3.994 -0.0199  0.0159 -0.1100
    1C        C  290   4.404   3.919   4.115 -0.1318  0.0009  0.1291
    1C        C  291   4.465   3.791   4.115 -0.1677 -0.0142 -0.1113
    1C        C  292   4.377   3.988   4.235  0.3363  0.3491  0.0365
    1C        C  293   4.409   3.927   4.357 -0.2968  0.1994  0.1305
    1C        C  294   4.318   4.121   4.476 -0.4399 -0.1639  0.3663
    1C        C  295   4.389   3.998   4.477  0.5387  0.3913  0.1601
    1C        C  296   4.276   4.180   4.597 -0.0497  0.3970  0.2303
    1C        C  297   4.322   4.127   4.720 -0.2869  0.0475  0.1698
    1C        C  298   4.201   4.313   4.835  0.3463  0.1326  0.0877
    1C        C  299   4.280   4.194   4.838 -0.1087 -0.1612  0.3506
    1C        C  300   4.169   4.402   4.942  0.1579 -0.5181  0.5756
    1C        C  301   4.335   2.891   2.060 -0.5295  0.4064 -0.1575
    1C        C  302   4.469   3.065   2.175 -0.4757 -0.0538 -0.2151
    1C        C  303   4.394   2.943   2.176 -0.0484 -0.3164 -0.0703
    1C        C  304   4.475   3.141   2.295 -0.7223 -0.1162 -0.1602
    1C        C  305   4.443   3.080   2.418  0.0131 -0.1328  0.0301
    1C        C  306   4.519   3.282   2.535 -0.7940  0.3689  0.0613
    1C        C  307   4.479   3.146   2.537  0.2863  0.0326 -0.1405
    1C        C  308   4.523   3.354   2.657 -0.2528 -0.1085  0.3384
    1C        C  309   4.507   3.285   2.778  0.0830 -0.5327  0.1500
    1C        C  310   4.522   3.498   2.898 -0.1482 -0.1057 -0.1523
    1C        C  311   4.519   3.357   2.899 -0.4570 -0.1031 -0.0474
    1C        C  312   4.512   3.573   3.018  0.2836  0.0444 -0.2033
    1C        C  313   4.518   3.505   3.141 -0.0831  0.1365 -0.1305
    1C        C  314   4.490   3.716   3.263 -0.5877  0.2743 -0.2488
    1C        C  315   4.510   3.576   3.263 -0.7815  0.2422 -0.2271
    1C        C  316   4.479   3.786   3.385  0.5138  0.1359 -0.0529
    1C        C  317   4.486   3.715   3.507 -0.0412  0.3012  0.0850
    1C        C  318   4.418   3.917   3.625  0.8313  0.5610  0.1652
    1C        C  319   4.469   3.786   3.628 -0.0228  0.2179  0.1399
    1C        C  320   4.387   3.985   3.745  0.2984  0.1467  0.2673
    1C        C  321   4.410   3.920   3.868  0.3557  0.3658  0.3737
    1C        C  322   4.316   4.108   3.988 -0.4977  0.1076  0.1203
    1C        C  323   4.380   3.982   3.991  0.0046  0.3645  0.2880
    1C        C  324   4.280   4.172   4.108  0.1602  0.1759  0.2812
    1C        C  325   4.313   4.114   4.233 -0.1936  0.0881  0.3331
    1C        C  326   4.179   4.279   4.348  0.2246  0.3699 -0.1367
    1C        C  327   4.277   4.178   4.354 -0.1246  0.0629  0.3642
    1C        C  328   4.127   4.328   4.469  0.2932  0.4618 -0.1457
    1C        C  329   4.187   4.289   4.591  0.5233  0.8498 -0.1347
    1C        C  330   4.026   4.431   4.711  0.1576 -0.1080  0.0222
    1C        C  331   4.143   4.350   4.711  0.5191  0.4117  0.0885
    1C        C  332   3.971   4.484   4.829  0.4365  0.1719  0.0259
    1C        C  333   4.049   4.473   4.945  0.5027  0.1053 -0.0242
    1C        C  334   4.541   3.266   2.059 -0.4802  0.0988 -0.2980
    1C        C  335   4.530   3.127   2.061  0.2200  0.0473  0.2108
    1C        C  336   4.526   3.348   2.171  0.3058  0.0343 -0.1370
    1C        C  337   4.510   3.279   2.293 -0.0155 -0.2879 -0.3591
    1C        C  338   4.523   3.493   2.409 -0.3475 -0.2406 -0.1288
    1C        C  339   4.525   3.352   2.413 -0.6234 -0.2542 -0.2958
    1C        C  340   4.519   3.565   2.530 -0.8875 -0.2017 -0.1607
    1C        C  341   4.524   3.495   2.653  0.2642 -0.1104 -0.1341
    1C        C  342   4.495   3.707   2.773 -0.1182 -0.0872 -0.0714
    1C        C  343   4.515   3.567   2.775 -0.3809 -0.1316 -0.1590
    1C        C  344   4.479   3.780   2.892  0.0749  0.0055 -0.0965
    1C        C  345   4.491   3.712   3.016  0.1120  0.0245 -0.0837
    1C        C  346   4.414   3.909   3.135  0.4159  0.5855  0.2039
    1C        C  347   4.470   3.779   3.138  0.0215  0.3963 -0.2953
    1C        C  348   4.391   3.977   3.257  0.7765  0.5869  0.2755
    1C        C  349   4.425   3.916   3.380  0.5999  0.1822  0.1295
    1C        C  350   4.308   4.095   3.501 -0.0834 -0.0254 -0.4100
    1C        C  351   4.387   3.978   3.501 -0.4406 -0.2704  0.0505
    1C        C  352   4.274   4.162   3.620  0.5746 -0.2959 -0.0628
    1C        C  353   4.317   4.108   3.743  0.4025  0.2054  0.2219
    1C        C  354   4.175   4.265   3.862 -0.4491 -0.0857 -0.3551
    1C        C  355   4.273   4.164   3.866 -0.3047  0.0702  0.0364
    1C        C  356   4.121   4.312   3.983 -0.3650 -0.4860 -0.1610
    1C        C  357   4.179   4.270   4.105 -0.1781 -0.1886 -0.1458
    1C        C  358   4.009   4.403   4.225  0.1857  0.2816 -0.0300
    1C        C  359   4.126   4.323   4.224  0.0358  0.0626 -0.1640
    1C        C  360   3.947   4.439   4.347  0.1673  0.7646 -0.1812
    1C        C  361   4.015   4.413   4.468  0.0548  0.1465 -0.2478
    1C        C  362   3.826   4.506   4.592  0.2710 -0.0133  0.0700
    1C        C  363   3.959   4.459   4.590  0.1792 -0.2710 -0.0287
    1C        C  364   3.761   4.535   4.715  0.1361 -0.0356  0.0050
    1C        C  365   3.838   4.530   4.833  0.2801 -0.2681 -0.0952
    1C        C  366   3.627   4.574   4.950  0.2576 -0.1504 -0.1071
    1C        C  367   3.766   4.570   4.947  0.2686  0.3021 -0.2978
    1C        C  368   4.502   3.562   2.050 -0.2690  0.3003  0.0737
    1C        C  369   4.520   3.489   2.168 -0.1580  0.0213 -0.1126
    1C        C  370   4.497   3.704   2.285  0.0731  0.0711  0.0607
    1C        C  371   4.522   3.565   2.287 -0.6825 -0.0754 -0.0362
    1C        C  372   4.477   3.774   2.406  0.2851  0.2517 -0.0038
    1C        C  373   4.493   3.704   2.527 -0.1273 -0.0514 -0.1162
    1C        C  374   4.422   3.903   2.649  0.2660  0.1232  0.0360
    1C        C  375   4.474   3.772   2.649 -0.6056 -0.2400 -0.0789
    1C        C  376   4.389   3.969   2.769  0.3131  0.7186 -0.2724
    1C        C  377   4.427   3.911   2.892 -0.4001 -0.1756 -0.4624
    1C        C  378   4.314   4.093   3.011 -0.0007 -0.3242  0.0355
    1C        C  379   4.394   3.976   3.013 -0.0332 -0.3548 -0.2584
    1C        C  380   4.271   4.151   3.133  0.4215  0.2391 -0.0771
    1C        C  381   4.313   4.094   3.255  0.4342  0.3605 -0.0229
    1C        C  382   4.169   4.250   3.375 -0.3502  0.1007 -0.2593
    1C        C  383   4.270   4.151   3.377  0.0347  0.4876 -0.2204
    1C        C  384   4.114   4.299   3.496 -0.1049 -0.5651  0.1274
    1C        C  385   4.171   4.259   3.618  0.3375 -0.5483 -0.0711
    1C        C  386   4.004   4.389   3.738 -0.3507 -0.0963  0.0398
    1C        C  387   4.123   4.313   3.740 -0.6010 -0.5012 -0.4566
    1C        C  388   3.942   4.425   3.860 -0.0860  0.1332  0.1086
    1C        C  389   4.005   4.392   3.982 -0.3373 -0.4421  0.0834
    1C        C  390   3.820   4.497   4.104 -0.0562  0.1174  0.0774
    1C        C  391   3.947   4.436   4.103 -0.1578 -0.0934  0.0398
    1C        C  392   3.751   4.514   4.226 -0.1197 -0.8799  0.1886
    1C        C  393   3.817   4.493   4.350 -0.1495 -0.0015  0.3554
    1C        C  394   3.614   4.547   4.474 -0.2108  0.1301 -0.1572
    1C        C  395   3.753   4.522   4.472 -0.2748 -0.2854  0.3589
    1C        C  396   3.543   4.557   4.595 -0.0661 -0.5515 -0.0127
    1C        C  397   3.621   4.548   4.713  0.1153 -0.2581 -0.1072
    1C        C  398   3.410   4.539   4.837  0.1720  0.1037  0.5724
    1C        C  399   3.549   4.558   4.834  0.1973 -0.1339 -0.0690
    1C        C  400   3.341   4.501   4.953 -0.1110 -0.4530  0.2292
    1C        C  401   4.497   3.701   2.047 -0.0734  0.3138  0.2657
    1C        C  402   4.447   3.912   2.163  0.9464  0.5915 -0.2481
    1C        C  403   4.484   3.776   2.165  0.3631  0.4333  0.2402
    1C        C  404   4.406   3.973   2.284  0.1469 -0.0449 -0.1931
    1C        C  405   4.422   3.904   2.406 -0.1200  0.0872 -0.0811
    1C        C  406   4.323   4.093   2.527  0.0484 -0.0083 -0.3004
    1C        C  407   4.389   3.968   2.528  0.0013 -0.0339  0.0182
    1C        C  408   4.273   4.147   2.647  0.7581  0.3348 -0.1489
    1C        C  409   4.311   4.087   2.769 -0.1890  0.3937  0.1861
    1C        C  410   4.169   4.247   2.889  0.2015  0.5059  0.1738
    1C        C  411   4.267   4.146   2.889 -0.0177  0.2910  0.3030
    1C        C  412   4.121   4.303   3.010  0.3387  0.7060  0.1357
    1C        C  413   4.172   4.251   3.131  0.2200  0.0421 -0.0942
    1C        C  414   4.001   4.377   3.251 -0.0480  0.3424 -0.1094
    1C        C  415   4.116   4.295   3.253 -0.2121  0.1083 -0.3166
    1C        C  416   3.936   4.415   3.371 -0.1979 -0.4805  0.0699
    1C        C  417   3.998   4.378   3.492 -0.1679 -0.6640 -0.0017
    1C        C  418   3.815   4.479   3.618 -0.1391  0.0539 -0.2667
    1C        C  419   3.944   4.424   3.615 -0.5000 -0.8115 -0.0910
    1C        C  420   3.746   4.509   3.738  0.1468  0.1414 -0.1267
    1C        C  421   3.811   4.476   3.859  0.0896  0.5804  0.0231
    1C        C  422   3.611   4.535   3.985 -0.0288  0.0055  0.0767
    1C        C  423   3.750   4.509   3.982  0.0439  0.3935  0.0487
    1C        C  424   3.542   4.547   4.107 -0.1385 -0.2799  0.0413
    1C        C  425   3.613   4.540   4.229 -0.0511 -0.4938 -0.0234
    1C        C  426   3.403   4.534   4.356 -0.1903 -0.2421  0.2009
    1C        C  427   3.543   4.549   4.352 -0.2229 -0.0353 -0.1536
    1C        C  428   3.332   4.527   4.478 -0.2000  0.0371  0.2107
    1C        C  429   3.402   4.550   4.598 -0.0712 -0.3789  0.2164
    1C        C  430   3.192   4.513   4.719  0.2102  0.3803 -0.2082
    1C        C  431   3.331   4.541   4.719  0.3239 -0.1701  0.4647
    1C        C  432   3.126   4.483   4.841  0.4506  0.3890 -0.0775
    1C        C  433   3.202   4.495   4.958 -0.1440  0.3189  0.3193
    1C        C  434   4.382   4.122   2.054 -0.4336  0.0599 -0.2218
    1C        C  435   4.443   3.996   2.051  0.5148  0.5114 -0.2956
    1C        C  436   4.298   4.156   2.164 -0.3826 -0.3769 -0.0450
    1C        C  437   4.332   4.094   2.287  0.2411  0.0097 -0.0195
    1C        C  438   4.182   4.251   2.402  0.3674  0.5279 -0.1015
    1C        C  439   4.282   4.152   2.406  0.0897  0.2422 -0.1949
    1C        C  440   4.122   4.293   2.522 -0.0882 -0.4147  0.0122
    1C        C  441   4.173   4.246   2.645  0.2761 -0.1422 -0.0328
    1C        C  442   4.006   4.380   2.767  0.1649 -0.2143  0.2594
    1C        C  443   4.119   4.296   2.766  0.3493  0.0355 -0.0721
    1C        C  444   3.944   4.420   2.887 -0.1236  0.0315  0.0284
    1C        C  445   4.001   4.378   3.009 -0.0484  0.0970  0.0130
    1C        C  446   3.812   4.477   3.130 -0.3368  0.1328 -0.2016
    1C        C  447   3.941   4.419   3.130 -0.5147 -0.2664 -0.0937
    1C        C  448   3.745   4.501   3.252 -0.1967  0.2411 -0.1480
    1C        C  449   3.810   4.478   3.375 -0.4086 -0.8783 -0.2318
    1C        C  450   3.607   4.529   3.497 -0.1023  0.3157  0.0687
    1C        C  451   3.747   4.507   3.498 -0.1659 -0.1106 -0.2875
    1C        C  452   3.535   4.531   3.618  0.1811 -0.2625  0.2495
    1C        C  453   3.607   4.535   3.740  0.1195 -0.0370  0.2765
    1C        C  454   3.400   4.551   3.867  0.0097  0.3064 -0.0977
    1C        C  455   3.541   4.548   3.863  0.0297  0.8955  0.1319
    1C        C  456   3.329   4.536   3.988 -0.0923  0.4668 -0.1386
    1C        C  457   3.401   4.538   4.110 -0.1405 -0.2609 -0.0941
    1C        C  458   3.194   4.505   4.234  0.1548 -0.6804  0.0673
    1C        C  459   3.333   4.529   4.233  0.1274 -0.5233  0.0317
    1C        C  460   3.123   4.489   4.355 -0.1206  0.3170  0.0456
    1C        C  461   3.192   4.510   4.477 -0.1798 -0.1224  0.1543
    1C        C  462   2.995   4.430   4.598  0.0208 -0.6282  0.0699
    1C        C  463   3.122   4.491   4.598 -0.2287 -0.1115  0.1274
    1C        C  464   2.926   4.404   4.719  0.0031  0.0940  0.2175
    1C        C  465   2.992   4.434   4.841  0.5781  0.0362 -0.0737
    1C        C  466   2.800   4.335   4.958  0.3626  0.3155  0.0055
    1C        C  467   2.905   4.428   4.955  0.2905  0.3894 -0.2746
    1C        C  468   4.117   4.278   2.042  0.1831  0.3805  0.5238
    1C        C  469   4.187   4.247   2.159  0.4267  0.6474  0.4465
    1C        C  470   4.008   4.372   2.278  0.0290  0.8828  0.0938
    1C        C  471   4.123   4.289   2.279  0.1599  1.0653  0.1604
    1C        C  472   3.947   4.414   2.398  0.0550  0.4093  0.2716
    1C        C  473   4.005   4.373   2.520  0.1617 -0.0428  0.0706
    1C        C  474   3.813   4.460   2.642 -0.0482 -1.0054 -0.3807
    1C        C  475   3.945   4.409   2.643  0.1274 -0.5472  0.2020
    1C        C  476   3.745   4.489   2.762 -0.1250 -0.3339 -0.5858
    1C        C  477   3.811   4.467   2.885 -0.2072 -0.2340 -0.5274
    1C        C  478   3.608   4.526   3.006  0.3042  0.8687 -0.1740
    1C        C  479   3.745   4.493   3.007  0.2131  0.4849 -0.4530
    1C        C  480   3.538   4.531   3.129 -0.0075  0.4760 -0.3377
    1C        C  481   3.605   4.522   3.252 -0.1218  0.7247 -0.2594
    1C        C  482   3.395   4.539   3.375  0.1703  0.5270 -0.4284
    1C        C  483   3.536   4.533   3.375  0.1697  0.5303 -0.0797
    1C        C  484   3.326   4.534   3.498  0.6487 -0.1112 -0.1837
    1C        C  485   3.394   4.535   3.622  0.1906  0.2455  0.0671
    1C        C  486   3.191   4.502   3.745  0.0347 -0.0796 -0.1714
    1C        C  487   3.327   4.540   3.746 -0.0364  0.1673 -0.0546
    1C        C  488   3.128   4.473   3.868  0.2322 -0.4932 -0.1643
    1C        C  489   3.192   4.503   3.990  0.0577 -0.1613 -0.1524
    1C        C  490   3.001   4.414   4.112  0.0597  0.1543  0.2217
    1C        C  491   3.126   4.480   4.113  0.1566 -0.0218 -0.0731
    1C        C  492   2.942   4.380   4.235 -0.2086  0.0197  0.0556
    1C        C  493   2.995   4.429   4.356 -0.0080  0.0727 -0.0548
    1C        C  494   2.824   4.303   4.481  0.1354 -0.2370  0.0956
    1C        C  495   2.932   4.394   4.477  0.0435 -0.1350 -0.0881
    1C        C  496   2.766   4.261   4.602 -0.4415  0.2796  0.0051
    1C        C  497   2.814   4.317   4.723  0.0713 -0.0068 -0.0612
    1C        C  498   2.665   4.162   4.845  0.7225 -0.1670 -0.3693
    1C        C  499   2.751   4.274   4.841  0.2002  0.2581  0.1026
    1C        C  500   2.588   4.116   4.952  0.4988  0.1492 -0.3903
    1C        C  501   4.003   4.358   2.039  0.1522  0.3254  0.2414
    1C        C  502   3.819   4.468   2.157 -0.1476  0.5113 -0.3117
    1C        C  503   3.947   4.410   2.157 -0.2077  0.3707  0.0514
    1C        C  504   3.746   4.480   2.278 -0.1406 -0.4287 -0.2081
    1C        C  505   3.814   4.461   2.400 -0.0830  0.0400 -0.1633
    1C        C  506   3.605   4.508   2.521 -0.0235  0.2841 -0.0074
    1C        C  507   3.743   4.480   2.521  0.0319  0.5663 -0.1811
    1C        C  508   3.535   4.523   2.643 -0.1055 -0.1677  0.0002
    1C        C  509   3.608   4.525   2.763  0.1599  0.7482 -0.1740
    1C        C  510   3.396   4.524   2.885  0.2091  0.0601 -0.0640
    1C        C  511   3.537   4.530   2.885  0.1981  0.2683 -0.1330
    1C        C  512   3.327   4.516   3.008 -0.2656  0.3934 -0.3056
    1C        C  513   3.397   4.528   3.130 -0.0050  0.3991 -0.4553
    1C        C  514   3.190   4.494   3.252  0.1049  0.4352 -0.3009
    1C        C  515   3.326   4.530   3.253  0.1171  0.3849 -0.3866
    1C        C  516   3.126   4.470   3.376  0.3368  0.2846 -0.2125
    1C        C  517   3.189   4.500   3.499  0.6706 -0.1941 -0.2621
    1C        C  518   3.003   4.408   3.622  0.8690 -0.8208  0.4289
    1C        C  519   3.124   4.480   3.623  0.3734  0.0397 -0.3798
    1C        C  520   2.945   4.367   3.744  0.0790 -0.1761  0.2826
    1C        C  521   3.008   4.400   3.867  0.2813 -0.5865  0.2944
    1C        C  522   2.837   4.282   3.995  0.0997 -0.2209 -0.2397
    1C        C  523   2.943   4.374   3.989  0.1654 -0.2614  0.3058
    1C        C  524   2.788   4.231   4.117  0.0977 -0.0985 -0.1880
    1C        C  525   2.837   4.285   4.238  0.3278 -0.5870 -0.0573
    1C        C  526   2.700   4.128   4.364  0.1509  0.0212  0.1283
    1C        C  527   2.780   4.244   4.361 -0.2774  0.3125 -0.0252
    1C        C  528   2.656   4.074   4.487  0.5220 -0.1428  0.1894
    1C        C  529   2.685   4.145   4.606 -0.2277  0.1335  0.2069
    1C        C  530   2.584   3.958   4.732 -0.8118 -0.1427 -0.1048
    1C        C  531   2.643   4.087   4.727 -0.4365 -0.3090 -0.0730
    1C        C  532   2.543   3.900   4.855 -0.1175 -0.0529  0.1717
    1C        C  533   2.522   3.993   4.962  0.2302  0.3148 -0.0731
    1C        C  534   3.620   4.557   2.042 -0.3327  0.0767  0.0044
    1C        C  535   3.755   4.520   2.044 -0.4869 -0.5335 -0.6046
    1C        C  536   3.538   4.522   2.154 -0.2964 -0.0220  0.0003
    1C        C  537   3.604   4.491   2.276 -0.1163 -0.0904 -0.1133
    1C        C  538   3.394   4.511   2.397  0.0357  0.7034 -0.5204
    1C        C  539   3.535   4.507   2.398  0.0085 -0.2512 -0.0223
    1C        C  540   3.323   4.504   2.519  0.1117  0.3287 -0.4984
    1C        C  541   3.393   4.518   2.640 -0.1091  0.1274 -0.3492
    1C        C  542   3.186   4.487   2.764  0.3573 -0.0733  0.0612
    1C        C  543   3.324   4.517   2.763  0.2917  0.2255 -0.1215
    1C        C  544   3.124   4.454   2.886 -0.2290  0.2883 -0.1351
    1C        C  545   3.192   4.474   3.008 -0.0547 -0.2843 -0.1369
    1C        C  546   3.003   4.389   3.135 -0.0909  0.0119 -0.0180
    1C        C  547   3.125   4.460   3.132  0.0287 -0.1968 -0.0826
    1C        C  548   2.948   4.351   3.259  1.2277 -0.8264  0.3327
    1C        C  549   3.004   4.399   3.379  0.5070  0.0021  0.3417
    1C        C  550   2.832   4.278   3.503  0.4767 -0.0613 -0.0323
    1C        C  551   2.944   4.364   3.501  0.6489 -0.2723  0.3338
    1C        C  552   2.788   4.228   3.627 -0.1985 -0.1901 -0.3161
    1C        C  553   2.838   4.276   3.750 -0.4195  0.3490 -0.4315
    1C        C  554   2.699   4.119   3.873 -0.7952  0.5139 -0.0236
    1C        C  555   2.785   4.231   3.873  0.4252 -0.3821 -0.3171
    1C        C  556   2.659   4.063   3.996 -0.4266  0.4106  0.0530
    1C        C  557   2.707   4.116   4.118 -0.2992  0.1807  0.1052
    1C        C  558   2.602   3.938   4.242 -0.3981  0.2565 -0.5940
    1C        C  559   2.667   4.063   4.243  0.1066 -0.0076  0.1556
    1C        C  560   2.580   3.875   4.366  0.3574  0.3084 -0.4304
    1C        C  561   2.600   3.945   4.487  0.1634  0.0130 -0.2281
    1C        C  562   2.526   3.751   4.613  0.2539 -0.0979 -0.0469
    1C        C  563   2.569   3.885   4.611 -0.2733  0.0723 -0.3043
    1C        C  564   2.517   3.683   4.736  0.1776 -0.1617 -0.0857
    1C        C  565   2.523   3.758   4.856 -0.1019 -0.0600 -0.1344
    1C        C  566   2.517   3.544   4.972  0.6381  0.1049  0.1772
    1C        C  567   2.532   3.683   4.974  0.3011  0.1456 -0.0304
    1C        C  568   3.329   4.469   2.038  0.2671 -0.1640 -0.2768
    1C        C  569   3.398   4.498   2.156 -0.3384  0.2283 -0.0130
    1C        C  570   3.184   4.462   2.277 -0.4070 -0.1753  0.1333
    1C        C  571   3.322   4.496   2.276 -0.5418  0.3804 -0.1383
    1C        C  572   3.113   4.451   2.399  0.0725 -0.2449  0.4080
    1C        C  573   3.185   4.475   2.518  0.2009 -0.1427  0.3092
    1C        C  574   2.996   4.394   2.644  0.3931 -0.7467 -0.0155
    1C        C  575   3.119   4.462   2.642  0.0648 -0.1413  0.2357
    1C        C  576   2.940   4.353   2.767  0.0174  0.1101  0.1037
    1C        C  577   2.999   4.389   2.890  0.0477 -0.2297  0.1881
    1C        C  578   2.837   4.256   3.014 -0.0115 -0.2825  0.0706
    1C        C  579   2.940   4.352   3.014 -0.3503  0.0845  0.0942
    1C        C  580   2.791   4.208   3.138  0.7449 -0.6042  0.2265
    1C        C  581   2.837   4.263   3.260  0.8046 -0.3003  0.0661
    1C        C  582   2.699   4.108   3.385  0.3115  0.1736 -0.3767
    1C        C  583   2.781   4.223   3.383  0.0058  0.4011 -0.0529
    1C        C  584   2.669   4.049   3.509  0.2230  0.5505 -0.2150
    1C        C  585   2.705   4.113   3.630 -0.0566 -0.2882  0.3322
    1C        C  586   2.593   3.934   3.755 -0.4395 -0.1343 -0.4728
    1C        C  587   2.661   4.058   3.752 -1.2660  0.3507  0.2024
    1C        C  588   2.565   3.868   3.877 -0.1731  0.0806 -0.2930
    1C        C  589   2.594   3.938   3.996  0.1046  0.1277 -0.3854
    1C        C  590   2.532   3.739   4.126  0.2271 -0.0982  0.1155
    1C        C  591   2.569   3.875   4.120 -0.1793 -0.0148 -0.5143
    1C        C  592   2.520   3.669   4.248  0.1002 -0.0506  0.1308
    1C        C  593   2.536   3.741   4.369  0.4192  0.2941 -0.1159
    1C        C  594   2.517   3.535   4.493  0.3275  0.1623 -0.0245
    1C        C  595   2.519   3.676   4.493  0.2261  0.1638 -0.2091
    1C        C  596   2.527   3.467   4.616 -0.0451  0.1835  0.0186
    1C        C  597   2.525   3.541   4.736 -0.2081 -0.1854  0.2472
    1C        C  598   2.537   3.326   4.857 -0.2111 -0.2377 -0.2071
    1C        C  599   2.520   3.466   4.856  0.6189 -0.1223  0.3278
    1C        C  600   2.534   3.251   4.975  0.2939 -0.0095 -0.0437
    1C        C  601   3.194   4.437   2.038  0.2221  0.0238 -0.3736
    1C        C  602   2.981   4.389   2.159  0.2840  0.1024  0.0471
    1C        C  603   3.118   4.431   2.155  0.3524 -0.1471 -0.2959
    1C        C  604   2.920   4.360   2.284  0.3078 -0.4913 -0.0756
    1C        C  605   2.981   4.402   2.404  0.1929 -0.6198  0.0265
    1C        C  606   2.828   4.255   2.528  0.1345 -0.6028 -0.2054
    1C        C  607   2.929   4.353   2.526  0.4678 -0.9460  0.0120
    1C        C  608   2.776   4.210   2.651 -0.1767  0.0544 -0.0954
    1C        C  609   2.834   4.259   2.770  0.1876 -0.0914 -0.2145
    1C        C  610   2.692   4.101   2.898 -0.3442  0.5456 -0.1479
    1C        C  611   2.783   4.209   2.892  0.0406  0.2188 -0.1484
    1C        C  612   2.654   4.042   3.020  0.2755  0.2306 -0.1079
    1C        C  613   2.699   4.101   3.140  0.1346 -0.0875  0.1004
    1C        C  614   2.584   3.927   3.266 -0.3481 -0.0522 -0.1929
    1C        C  615   2.657   4.048   3.264 -0.3005 -0.0768 -0.0427
    1C        C  616   2.565   3.861   3.390 -0.1265  0.3129  0.0389
    1C        C  617   2.602   3.924   3.510 -0.0216  0.6788 -0.1806
    1C        C  618   2.526   3.730   3.639 -0.1379  0.1024 -0.3239
    1C        C  619   2.566   3.866   3.634 -1.1480  0.3988 -0.6269
    1C        C  620   2.513   3.665   3.763  0.2667  0.2017 -0.2238
    1C        C  621   2.525   3.733   3.886  0.4053 -0.0786 -0.0799
    1C        C  622   2.504   3.523   4.008  0.2209  0.1572 -0.3907
    1C        C  623   2.514   3.664   4.008 -0.3522  0.2003  0.0120
    1C        C  624   2.503   3.453   4.131  0.3739  0.1914 -0.3691
    1C        C  625   2.510   3.528   4.250 -0.1059 -0.0414 -0.1891
    1C        C  626   2.543   3.321   4.375 -0.7355  0.0598 -0.0736
    1C        C  627   2.520   3.460   4.374  0.1956  0.2207 -0.0649
    1C        C  628   2.552   3.251   4.497 -0.5993  0.0475 -0.0907
    1C        C  629   2.545   3.327   4.616 -0.3870  0.1379 -0.1348
    1C        C  630   2.597   3.118   4.742 -0.8796 -0.2117 -0.0341
    1C        C  631   2.555   3.254   4.737 -1.0183 -0.2644 -0.3161
    1C        C  632   2.618   3.048   4.864  0.3063 -0.0193 -0.1211
    1C        C  633   2.566   3.115   4.980 -0.2830 -0.1572 -0.3057
    1C        C  634   2.774   4.305   2.054 -0.2623 -0.0102 -0.3636
    1C        C  635   2.891   4.382   2.048 -0.4531  0.3795  0.6142
    1C        C  636   2.753   4.226   2.168 -0.4455  0.2092 -0.2454
    1C        C  637   2.811   4.269   2.289 -0.3140  0.2256 -0.3146
    1C        C  638   2.676   4.102   2.411 -0.0597  0.0330  0.1674
    1C        C  639   2.763   4.213   2.409 -0.1285  0.0820 -0.3074
    1C        C  640   2.639   4.046   2.535 -0.1009  0.0734  0.1720
    1C        C  641   2.681   4.105   2.655 -0.3586  0.2319  0.1822
    1C        C  642   2.573   3.924   2.776 -0.2125  0.0114  0.0317
    1C        C  643   2.640   4.048   2.778 -0.5373  0.1839  0.0967
    1C        C  644   2.553   3.858   2.899 -0.1111  0.2700  0.1858
    1C        C  645   2.585   3.919   3.022 -0.1577  0.4752  0.0958
    1C        C  646   2.515   3.724   3.149  0.2050 -0.2592  0.0094
    1C        C  647   2.554   3.859   3.146 -0.0500 -0.1882 -0.1902
    1C        C  648   2.506   3.656   3.272  0.0764  0.0216  0.1563
    1C        C  649   2.527   3.725   3.393  0.0656  0.2572  0.0241
    1C        C  650   2.506   3.520   3.520 -0.4866 -0.0632  0.0832
    1C        C  651   2.510   3.661   3.517 -0.3419 -0.0706 -0.1992
    1C        C  652   2.507   3.450   3.643 -0.0039  0.0385  0.1396
    1C        C  653   2.506   3.524   3.763  0.6155  0.1813  0.0635
    1C        C  654   2.525   3.313   3.888 -0.6461 -0.3361  0.1747
    1C        C  655   2.511   3.453   3.886  0.0350 -0.2688 -0.1629
    1C        C  656   2.546   3.244   4.010 -0.2637 -0.1947  0.1909
    1C        C  657   2.531   3.315   4.131 -0.4672  0.0162  0.0445
    1C        C  658   2.605   3.117   4.256 -0.1353  0.0374  0.2247
    1C        C  659   2.556   3.249   4.254  0.0332  0.0973 -0.0144
    1C        C  660   2.630   3.052   4.379 -0.2039 -0.1486  0.1393
    1C        C  661   2.599   3.118   4.500 -1.1006 -0.1335 -0.0884
    1C        C  662   2.708   2.936   4.622  0.0084  0.4910  0.2116
    1C        C  663   2.629   3.053   4.621 -0.7476 -0.0102 -0.1071
    1C        C  664   2.754   2.880   4.743 -0.4416 -0.3526  0.0009
    1C        C  665   2.702   2.932   4.865  0.3439  0.0081  0.1878
    1C        C  666   2.752   2.877   4.983  0.1214  0.4003  0.4678
    1C        C  667   2.678   4.019   2.057 -0.3787  0.5951 -0.0405
    1C        C  668   2.681   4.105   2.168 -0.5215  0.2545  0.2240
    1C        C  669   2.581   3.914   2.288 -0.3737 -0.0129  0.0710
    1C        C  670   2.634   4.045   2.288  0.0441 -0.1807  0.2316
    1C        C  671   2.549   3.853   2.412 -0.6609  0.4192  0.2088
    1C        C  672   2.575   3.920   2.534 -0.8072  0.4325  0.2303
    1C        C  673   2.506   3.719   2.658 -0.3804 -0.0064  0.0057
    1C        C  674   2.545   3.855   2.656 -0.4796  0.0217  0.0892
    1C        C  675   2.499   3.653   2.782 -0.7345  0.3230  0.1600
    1C        C  676   2.512   3.723   2.904 -0.0672  0.2559  0.1292
    1C        C  677   2.490   3.513   3.031 -0.0466 -0.1463 -0.2513
    1C        C  678   2.501   3.654   3.027  0.4611 -0.1784 -0.0667
    1C        C  679   2.495   3.443   3.154  0.1785  0.0261 -0.1610
    1C        C  680   2.492   3.515   3.275 -0.1988  0.0386 -0.1742
    1C        C  681   2.524   3.308   3.397  0.2616  0.2155  0.1599
    1C        C  682   2.498   3.447   3.399  0.0729  0.1864 -0.1051
    1C        C  683   2.544   3.242   3.520 -0.6660 -0.0676  0.1673
    1C        C  684   2.529   3.311   3.642 -0.7183 -0.0814  0.1693
    1C        C  685   2.595   3.113   3.766 -0.1466 -0.0740 -0.0264
    1C        C  686   2.544   3.245   3.766 -0.2033 -0.0960  0.1046
    1C        C  687   2.623   3.047   3.888  0.1230  0.1135  0.0149
    1C        C  688   2.596   3.112   4.010  0.0256 -0.0847  0.0999
    1C        C  689   2.707   2.934   4.134 -0.6349 -0.1791  0.1159
    1C        C  690   2.628   3.051   4.133 -0.5652 -0.1329  0.2336
    1C        C  691   2.749   2.877   4.256  0.2255  0.2732  0.0327
    1C        C  692   2.708   2.934   4.378  0.3886  0.2423  0.1012
    1C        C  693   2.748   2.876   4.501 -0.2044  0.2099  0.2790
    1C        C  694   2.618   3.893   2.054 -0.2527  0.5292  0.1616
    1C        C  695   2.519   3.703   2.171  0.3490 -0.1617  0.1894
    1C        C  696   2.565   3.837   2.171  0.1811 -0.1032  0.0557
    1C        C  697   2.500   3.642   2.297 -0.6763  0.0169  0.1282
    1C        C  698   2.508   3.718   2.415 -0.4016  0.3341 -0.0963
    1C        C  699   2.486   3.508   2.542  0.3890  0.1847  0.2954
    1C        C  700   2.492   3.649   2.537 -0.0884  0.1874 -0.1399
    1C        C  701   2.493   3.439   2.665 -0.0032 -0.2091  0.0983
    1C        C  702   2.503   3.512   2.786 -0.5048  0.3213 -0.1776
    1C        C  703   2.528   3.305   2.909  0.4347  0.0878 -0.4386
    1C        C  704   2.500   3.443   2.909  0.0925  0.0180 -0.3337
    1C        C  705   2.540   3.236   3.032 -0.3945  0.2244 -0.2750
    1C        C  706   2.518   3.304   3.153 -0.6964 -0.1253 -0.1318
    1C        C  707   2.595   3.109   3.276 -0.6541 -0.0403  0.2468
    1C        C  708   2.536   3.237   3.276  0.3296  0.4300  0.0368
    1C        C  709   2.628   3.048   3.399 -0.6698 -0.0061  0.2677
    1C        C  710   2.597   3.111   3.522 -0.6745 -0.0693  0.2980
    1C        C  711   2.709   2.934   3.644 -0.1280 -0.0851  0.1551
    1C        C  712   2.626   3.048   3.645 -0.8120 -0.5784  0.0717
    1C        C  713   2.753   2.881   3.767 -0.1619  0.0115  0.2076
    1C        C  714   2.703   2.931   3.890 -0.1273 -0.0560  0.2476
    1C        C  715   2.750   2.878   4.012 -0.8361 -0.6654  0.2643
    1C        C  716   2.444   3.497   2.059 -0.4200 -0.1504 -0.0161
    1C        C  717   2.479   3.632   2.058  0.0406 -0.2635  0.3605
    1C        C  718   2.465   3.425   2.181 -0.1741  0.1956  0.1477
    1C        C  719   2.482   3.501   2.300 -0.4124 -0.0141  0.3143
    1C        C  720   2.512   3.293   2.425  0.0486  0.0918 -0.1347
    1C        C  721   2.488   3.432   2.423 -0.0163  0.0896  0.3526
    1C        C  722   2.543   3.229   2.548 -0.1551 -0.2452 -0.2602
    1C        C  723   2.531   3.303   2.667  0.4818 -0.0807 -0.2977
    1C        C  724   2.604   3.104   2.787  0.0862 -0.2950  0.3634
    1C        C  725   2.547   3.233   2.789  0.4783 -0.1076 -0.3153
    1C        C  726   2.632   3.044   2.911  0.2956  0.2555  0.5853
    1C        C  727   2.593   3.105   3.032 -0.6272  0.1309  0.3523
    1C        C  728   2.711   2.930   3.157  0.0702  0.3588  0.0350
    1C        C  729   2.628   3.044   3.155 -0.1551  0.1962  0.2506
    1C        C  730   2.756   2.879   3.280 -0.5050  0.2143  0.1833
    1C        C  731   2.707   2.932   3.402 -0.6585  0.0015  0.2122
    1C        C  732   2.748   2.872   3.523 -0.5549 -0.2005  0.0775
    1C        C  733   2.495   3.197   2.074  0.0203  0.0562 -0.0206
    1C        C  734   2.494   3.285   2.183 -0.2849  0.1684 -0.1121
    1C        C  735   2.586   3.091   2.304  0.3155  0.2606 -0.6198
    1C        C  736   2.525   3.220   2.306  0.3772  0.2852 -0.2155
    1C        C  737   2.624   3.029   2.425  0.4748  0.5826 -0.5049
    1C        C  738   2.600   3.100   2.545  0.6223  0.0953 -0.1881
    1C        C  739   2.702   2.914   2.671 -0.0510  0.2674  0.2192
    1C        C  740   2.630   3.035   2.666 -0.3049  0.1056  0.0477
    1C        C  741   2.740   2.857   2.794 -0.0030  0.2172  0.1781
    1C        C  742   2.696   2.918   2.913 -0.2612 -0.0383  0.2126
    1C        C  743   2.750   2.870   3.035  0.0842  0.1638  0.1375
    1C        C  744   2.546   3.067   2.073  0.0614  0.0709  0.1617
    1C        C  745   2.688   2.899   2.185  0.1640 -0.5219 -0.1899
    1C        C  746   2.611   3.017   2.186  0.2291 -0.4801 -0.1750
    1C        C  747   2.738   2.848   2.307 -0.2419  0.1593  0.2669
    1C        C  748   2.697   2.909   2.427 -0.1015  0.2416  0.2705
    1C        C  749   2.740   2.852   2.549  0.1980  0.3930  0.2345
    1C        C  750   2.744   2.844   2.069 -0.3735 -0.0327 -0.6823
    1C        C  751   3.664   2.332   1.980 -0.1298 -0.2258  0.1820
    1C        O  752   3.655   2.210   2.006  0.1230 -0.4621 -0.7945
    1C        O  753   3.634   2.348   1.844 -0.0510  0.8414  0.2764
    1C        C  754   4.637   3.070   1.976  0.2789  0.5147 -0.0332
    1C        O  755   4.641   3.068   1.850  0.4362 -0.2287 -0.0210
    1C        O  756   4.759   3.032   2.032 -0.0336  0.3001  0.5124
    1C        C  757   4.460   4.233   1.994 -0.0257  0.0611  0.3002
    1C        O  758   4.561   4.274   2.057  0.1282 -0.0119  0.1032
    1C        O  759   4.480   4.225   1.855 -0.4675  0.0045  0.2386
    1C        C  760   3.587   4.661   1.942  0.0950  0.2690  0.0608
    1C        O  761   3.563   4.631   1.822 -0.0074 -0.0866  0.1705
    1C        O  762   3.578   4.800   1.964  0.6379  0.4029 -0.5555
    1C        C  763   2.871   4.498   1.958 -0.0522 -0.1780 -0.2155
    1C        O  764   2.904   4.506   1.837  0.1456  0.2119 -0.1401
    1C        O  765   2.777   4.598   1.986  0.1664 -0.1091  0.2946
    1C        C  766   2.335   3.461   1.965 -0.0891 -0.1543 -0.4018
    1C        O  767   2.352   3.405   1.854  0.7042  0.8283 -0.7945
    1C        O  768   2.202   3.473   2.008 -0.2103 -0.0778 -0.7924
    1C        C  769   4.653   3.573   5.083 -0.1831 -0.2850  0.0861
    1C        O  770   4.606   3.584   5.200 -0.2477 -0.5269  0.0833
    1C        O  771   4.791   3.592   5.089 -0.1558 -0.6718  0.8782
    1C        C  772   4.267   4.462   5.037  0.2544  0.1937  0.0381
    1C        O  773   4.312   4.394   5.133  0.2042 -0.0969 -0.1416
    1C        O  774   4.341   4.577   5.009  0.8377 -0.3935 -0.8700
    1C        C  775   4.139   2.536   5.080 -0.2600 -0.1268  0.5119
    1C        O  776   4.208   2.436   5.048  0.2796  0.3243  0.2334
    1C        O  777   4.113   2.556   5.216 -0.1050  0.0660  0.5140
    1C        C  778   2.877   4.560   5.016 -0.3964  0.0824  0.0894
    1C        O  779   2.762   4.609   5.006 -0.3859  0.0606 -0.1624
    1C        O  780   2.930   4.575   5.145  0.5713  0.3647 -0.3337
    1C        C  781   2.500   3.038   5.088 -0.1066 -0.2015 -0.2303
    1C        O  782   2.389   2.980   5.081 -0.4892  0.4671  0.1741
    1C        O  783   2.529   3.075   5.219  0.4056 -0.1118 -0.3655
    1C        C  784   2.399   3.994   5.045  0.4694 -0.9546  0.3231
    1C        O  785   2.286   3.958   5.002  0.3639 -0.0498 -0.1838
    1C        O  786   2.407   4.018   5.182  0.2224  0.2275  0.1409
    1C        C  787   2.942   2.429   1.999  0.2535  0.5525 -0.0373
    1C        O  788   2.927   2.456   1.877 -0.3288 -0.4850 -0.2041
    1C        O  789   2.906   2.299   2.031 -0.0294  0.8477  0.8959
    1C        C  790   3.171   2.361   5.040 -0.2233 -0.1786 -0.1572
    1C        O  791   3.169   2.248   4.985 -0.0166 -0.7318  0.9315
    1C        O  792   3.165   2.352   5.180  0.7321 -0.0884 -0.1065
    1C        H  793   4.288   3.021   5.065  0.7993 -0.2150  0.2846
    1C        H  794   4.159   2.818   5.065 -1.1673 -0.0617  0.0049
    1C        H  795   4.516   3.125   5.048  1.5832 -0.6481 -1.7998
    1C        H  796   4.489   3.374   5.060  0.4339  0.4626 -0.0671
    1C        H  797   4.596   3.814   5.021 -0.2417  0.5795 -0.3275
    1C        H  798   4.424   3.970   5.051  0.4099  0.6576 -0.4230
    1C        H  799   4.251   4.139   5.042  0.8381  0.3896  1.2912
    1C        H  800   4.029   4.536   5.030  0.9586 -0.0066  0.1671
    1C        H  801   3.804   4.644   5.014 -1.4256  0.5821  0.4139
    1C        H  802   3.583   4.600   5.043  1.6409  2.7035 -0.1469
    1C        H  803   3.393   4.446   5.029  1.5029  0.1499 -0.3914
    1C        H  804   3.156   4.517   5.053 -0.3033 -1.3675  0.6582
    1C        H  805   3.916   2.435   5.030  0.1706  0.9286  1.2137
    1C        H  806   3.682   2.483   5.072  0.7151 -1.5579  0.2970
    1C        H  807   2.993   2.535   5.055  0.8614  2.4089  1.7383
    1C        H  808   3.440   2.469   5.070 -1.6528  0.5250 -0.6116
    1C        H  809   2.869   2.729   5.078  0.6244  1.2663 -0.2858
    1C        H  810   2.737   2.931   5.074 -2.8286  0.2362  0.1507
    1C        H  811   2.452   3.281   5.037 -1.2599 -0.4166 -1.7989
    1C        H  812   2.439   3.513   5.038  1.8307  0.1072  1.6457
    1C        H  813   2.569   3.727   5.064  0.7930  0.5329 -0.4204
    1C        H  814   2.589   4.174   5.042  0.4572  0.7846 -0.8010
    1C        H  815   2.804   4.272   5.044 -0.0638  1.3991  0.8426
    1C        H  816   2.739   2.892   1.973  0.2870  1.6810  0.1056
    1C        H  817   2.860   2.684   1.983  1.4720  0.1373  1.1347
    1C        H  818   3.186   2.367   2.027  1.3143 -0.1268  0.3351
    1C        H  819   3.421   2.449   1.979  0.7314  1.7476 -0.1236
    1C        H  820   3.837   2.535   1.968  1.0892  0.4587 -1.2358
    1C        H  821   4.062   2.606   1.971 -0.2061  0.5829  0.5684
    1C        H  822   4.255   2.714   1.976  1.8647 -0.4829  0.3194
    1C        H  823   4.333   2.946   1.968 -0.8718  1.8867  0.7051
    1C        H  824   4.546   3.306   1.960 -0.5946  1.1906  0.1196
    1C        H  825   4.464   3.513   1.963 -1.7592  0.2440  0.7268
    1C        H  826   4.540   3.750   1.961  1.1636 -0.2919  0.5220
    1C        H  827   3.813   4.570   1.969 -0.0911 -0.4325 -0.2296
    1C        H  828   3.990   4.418   1.951 -0.4611  0.0246  0.1286
    1C        H  829   4.163   4.257   1.948  0.6660  0.0219  0.8404
    1C        H  830   4.512   3.981   1.970 -0.0729  1.6842 -1.0404
    1C        H  831   2.629   3.832   1.967 -2.2414  0.1603  0.1199
    1C        H  832   2.709   4.053   1.961  0.0473 -0.1707 -0.1805
    1C        H  833   2.687   4.360   2.027 -0.6750 -0.9454 -0.9927
    1C        H  834   3.371   4.493   1.943 -0.4762 -0.6776 -0.7474
    1C        H  835   3.168   4.365   1.963 -0.0218 -2.4599  1.9431
    1C        H  836   2.481   2.998   2.023 -0.7289  0.4549  0.6356
    1C        H  837   2.424   3.221   1.997 -0.2949  1.2007  0.6076
    1C        H  838   2.420   3.691   1.990 -0.5494 -1.3548 -0.0981
    2V3OU   H29  839   2.806   3.549   1.475  0.2960  2.3800  1.8199
    2V3OU   C27  840   2.791   3.500   1.575 -0.2247  0.2650  0.7711
    2V3OU   H27  841   2.731   3.576   1.631 -0.5017  1.6158 -1.2345
    2V3OU   H28  842   2.741   3.401   1.561 -0.3249  0.5883 -1.7196
    2V3OU   O11  843   2.916   3.473   1.639  0.2253 -0.3111 -0.3217
    2V3OU   C15  844   2.918   3.398   1.755 -0.2965  0.4746  0.2067
    2V3OU   C13  845   3.050   3.375   1.800 -0.4214  0.4291  0.5500
    2V3OU   C14  846   3.075   3.264   1.882  0.0639 -0.0775 -0.2702
    2V3OU   C16  847   2.969   3.182   1.920  0.1965  0.0921  0.4660
    2V3OU    H6  848   2.988   3.111   2.002 -0.1113 -1.9300 -1.1525
    2V3OU   C12  849   3.213   3.233   1.925  0.1256  0.3198 -0.1832
    2V3OU    O2  850   3.247   3.131   1.989 -0.4781  0.3271  0.1626
    2V3OU   C10  851   3.323   3.314   1.872  0.0582  0.0882 -0.6766
    2V3OU    C8  852   3.454   3.273   1.892 -0.1960 -0.6399 -0.5050
    2V3OU   O10  853   3.487   3.148   1.934  0.3488 -0.5427 -0.6413
    2V3OU   H26  854   3.409   3.113   1.981 -0.2167  1.4730  0.0250
    2V3OU    C6  855   3.565   3.351   1.849 -0.0983 -0.1786  0.5487
    2V3OU    C5  856   3.538   3.467   1.777 -0.2857  0.0395  0.9711
    2V3OU    C4  857   3.702   3.293   1.840 -0.2179 -0.3534 -0.2093
    2V3OU    H4  858   3.724   3.226   1.928  0.9325  0.2926  0.0192
    2V3OU    H5  859   3.705   3.225   1.750 -0.4971  0.8427 -1.1557
    2V3OU    C2  860   3.816   3.394   1.824 -0.3178 -0.1732  0.2075
    2V3OU    O6  861   3.818   3.476   1.941 -0.5907  0.5312 -0.2725
    2V3OU   H21  862   3.765   3.555   1.924 -2.7968 -0.6266  0.6991
    2V3OU    C3  863   3.784   3.494   1.713  0.2596  0.0558  0.2425
    2V3OU    H2  864   3.857   3.579   1.710 -0.8126  1.0132  0.6207
    2V3OU    H3  865   3.787   3.442   1.614  1.2302 -0.0638  0.3231
    2V3OU   C25  866   3.948   3.317   1.815 -0.2322 -0.0414  0.3436
    2V3OU    O7  867   4.005   3.295   1.708  0.1247  1.4144  0.2167
    2V3OU   C26  868   4.025   3.287   1.943  0.1251 -0.0535  0.1273
    2V3OU   H22  869   4.051   3.389   1.980 -0.1793  0.7832 -1.8138
    2V3OU   H23  870   4.111   3.219   1.921 -0.3671 -0.6284 -0.0485
    2V3OU    O8  871   3.943   3.209   2.027 -0.0778 -0.5129 -0.4853
    2V3OU   H24  872   3.915   3.265   2.102  2.8125 -1.5812  1.5815
    2V3OU    C1  873   3.648   3.560   1.734 -0.0122 -0.5491  0.3973
    2V3OU    H1  874   3.621   3.613   1.638  0.4857 -0.2818  0.4000
    2V3OU    O3  875   3.650   3.654   1.841 -0.3445  0.4816 -0.4855
    2V3OU   C19  876   3.613   3.790   1.820 -0.0851  0.5810 -0.3060
    2V3OU    H9  877   3.515   3.801   1.763 -1.2240 -0.7844  1.2875
    2V3OU    O4  878   3.708   3.851   1.736  0.0003  0.4072 -0.3354
    2V3OU   C20  879   3.842   3.873   1.782 -0.0910  0.1895  0.0419
    2V3OU   H10  880   3.891   3.772   1.783 -0.4006 -0.0993 -3.2592
    2V3OU   C24  881   3.612   3.858   1.958  0.6882  0.3922 -0.2039
    2V3OU   H16  882   3.550   3.795   2.027  1.6076 -0.5632 -0.2282
    2V3OU   H17  883   3.564   3.958   1.946 -0.8806  0.0597  2.4729
    2V3OU   C23  884   3.752   3.875   2.016  0.5347 -0.3900  0.4122
    2V3OU   H15  885   3.797   3.774   2.042  2.0410  0.6386  2.0238
    2V3OU    N1  886   3.734   3.953   2.137  0.0977 -0.0016  0.0986
    2V3OU   H19  887   3.805   3.922   2.199 -1.4706 -0.4016  1.7679
    2V3OU   H20  888   3.643   3.930   2.172  0.4329 -1.6489 -0.0395
    2V3OU   C21  889   3.850   3.945   1.917 -0.2164  0.1746  0.0571
    2V3OU   H11  890   3.955   3.924   1.952 -0.4236  0.1668  0.6971
    2V3OU    O5  891   3.835   4.086   1.918 -0.2604  0.1684  0.7490
    2V3OU   H18  892   3.796   4.113   2.003  0.5190 -1.6417  1.7349
    2V3OU   C22  893   3.908   3.946   1.666 -0.0127 -0.3553 -0.2568
    2V3OU   H12  894   3.857   4.044   1.647  0.5510 -0.2552 -1.3396
    2V3OU   H13  895   3.907   3.883   1.573 -0.9267  0.1195 -0.5790
    2V3OU   H14  896   4.018   3.958   1.685 -0.3394  1.6105  0.6383
    2V3OU   C11  897   3.155   3.475   1.777 -0.2039  0.2550  0.7855
    2V3OU    O1  898   3.137   3.586   1.723 -0.3228 -0.2468 -0.2371
    2V3OU    C9  899   3.296   3.436   1.804  0.0182  0.3251 -0.2382
    2V3OU    C7  900   3.403   3.505   1.749  0.0250  0.2020 -0.3777
    2V3OU    O9  901   3.387   3.621   1.676  0.4861  0.3810 -0.2000
    2V3OU   H25  902   3.290   3.633   1.678  0.5956  1.3124  0.2823
    2V3OU   C17  903   2.812   3.319   1.803 -0.2099  0.3119  0.1304
    2V3OU    H7  904   2.709   3.342   1.777 -0.2901  0.7458  0.8299
    2V3OU   C18  905   2.838   3.207   1.881  0.4392  0.1249 -0.3397
    2V3OU    H8  906   2.754   3.139   1.903  0.3808  0.9135  2.1430
    3SOL     OW  907   1.335   2.860   3.312  0.2067  0.1945 -0.2910
    3SOL    HW1  908   1.242   2.892   3.331  0.0411  0.0511 -0.8507
    3SOL    HW2  909   1.340   2.761   3.327  0.3008  0.2200 -0.1500
    4SOL     OW  910   6.182   2.345   5.671  0.1465 -0.1143 -0.7314
    4SOL    HW1  911   6.125   2.419   5.706  1.3740  0.1676  0.7963
    4SOL    HW2  912   6.124   2.271   5.637 -1.1000  0.6827 -0.4109
    5SOL     OW  913   3.318   2.088   6.616 -0.5962 -0.4143 -0.4093
    5SOL    HW1  914   3.410   2.119   6.594  0.0171 -1.0984  1.1296
    5SOL    HW2  915   3.280   2.038   6.538  1.7866 -3.4214  0.2214
    6SOL     OW  916   4.120   5.357   1.640 -0.2711  0.0964  0.3120
    6SOL    HW1  917   4.060   5.398   1.571  0.9208  0.0045 -0.8161
    6SOL    HW2  918   4.145   5.264   1.612  0.5448  0.2003  0.6718
    7SOL     OW  919   4.497   0.857   5.912 -0.2657 -0.2723  0.2926
    7SOL    HW1  920   4.541   0.918   5.979 -0.4774  0.1445  0.0570
    7SOL    HW2  921   4.408   0.895   5.887 -0.6664 -1.0001  0.5966
    8SOL     OW  922   6.192   5.520   3.449  0.1354 -0.1585 -0.1239
    8SOL    HW1  923   6.153   5.434   3.415  1.1925 -0.3012 -1.0301
    8SOL    HW2  924   6.128   5.594   3.431 -0.5872 -0.6752  0.2443
    9SOL     OW  925   4.127   4.359   0.257 -0.3840 -0.1108  0.7466
    9SOL    HW1  926   4.168   4.433   0.309  0.0751 -0.0537  0.3093
    9SOL    HW2  927   4.029   4.356   0.275 -0.0943 -0.7311  2.4014
   10SOL     OW  928   5.287   3.346   0.881 -0.1125 -0.7601 -0.2745
   10SOL    HW1  929   5.300   3.430   0.829 -0.4194 -0.8552 -0.5033
   10SOL    HW2  930   5.322   3.359   0.974 -0.5532 -0.2371 -0.1783
   11SOL     OW  931   6.545   1.884   1.786  0.0555 -0.4502  0.1041
   11SOL    HW1  932   6.499   1.799   1.760 -0.9055 -0.3420  1.3591
   11SOL    HW2  933   6.569   1.935   1.703  1.9735 -2.5857 -0.7438
   12SOL     OW  934   6.400   2.654   4.313  0.2634  0.2803  0.1006
   12SOL    HW1  935   6.348   2.645   4.228 -0.7568  1.7895  0.5284
   12SOL    HW2  936   6.341   2.692   4.385  1.8939  1.8999  0.6562
   13SOL     OW  937   0.688   3.242   1.202 -0.2669  0.1410  0.2590
   13SOL    HW1  938   0.782   3.211   1.184 -0.9190 -1.6760 -0.2196
   13SOL    HW2  939   0.661   3.215   1.294 -1.6873 -3.1986 -0.9731
   14SOL     OW  940   2.692   0.633   6.262  0.3538 -0.5210 -0.0005
   14SOL    HW1  941   2.773   0.586   6.295 -0.3320 -2.0800 -0.4288
   14SOL    HW2  942   2.653   0.582   6.185 -1.2704 -0.0528  0.4753
   15SOL     OW  943   5.916   3.219   6.097 -0.3462  0.0582  0.1327
   15SOL    HW1  944   5.947   3.171   6.178  0.2611 -1.7757 -1.1167
   15SOL    HW2  945   5.974   3.193   6.019  0.7850  3.7597 -0.4355
   16SOL     OW  946   2.316   1.623   0.878  0.2828 -0.6819 -0.2719
   16SOL    HW1  947   2.400   1.581   0.843  1.0569  1.6830 -1.5305
   16SOL    HW2  948   2.340   1.703   0.933 -1.1472  0.3315 -1.0797
   17SOL     OW  949   0.888   4.981   5.723 -0.0558 -0.3598  0.0002
   17SOL    HW1  950   0.863   5.016   5.633  0.1460  1.3553  0.5771
   17SOL    HW2  951   0.858   5.045   5.794 -0.4889 -1.8163  1.2038
   18SOL     OW  952   3.611   2.145   3.689 -0.2299 -0.2716  0.7876
   18SOL    HW1  953   3.517   2.177   3.696  0.2852  1.2384  1.1830
   18SOL    HW2  954   3.652   2.139   3.780  0.3629  0.0942  0.5553
   19SOL     OW  955   0.639   3.010   1.031 -0.0118 -0.5387  0.5719
   19SOL    HW1  956   0.632   3.109   1.044 -1.1023 -0.4905 -0.2485
   19SOL    HW2  957   0.636   2.965   1.121 -0.7909  0.1112  0.8894
   20SOL     OW  958   5.550   0.286   2.844  0.1084  0.1360  0.3274
   20SOL    HW1  959   5.543   0.376   2.801  0.0137 -0.1852 -0.3418
   20SOL    HW2  960   5.470   0.231   2.821 -0.5300  0.3551  1.9006
   21SOL     OW  961   1.078   4.761   6.952  0.2455  0.6720  0.2524
   21SOL    HW1  962   1.148   4.784   6.884 -1.1718  1.0296 -1.1654
   21SOL    HW2  963   1.115   4.772   7.044  1.5868  2.3330 -0.4393
   22SOL     OW  964   0.742   6.950   0.752  0.4975 -0.0771 -0.1640
   22SOL    HW1  965   0.788   6.965   0.664  0.4552 -2.7971 -0.7294
   22SOL    HW2  966   0.773   6.864   0.791 -1.4551 -0.2151  1.2161
   23SOL     OW  967   3.358   1.265   5.936  0.1792  0.4652 -0.2019
   23SOL    HW1  968   3.269   1.231   5.906  0.1302  0.6939 -0.3204
   23SOL    HW2  969   3.412   1.190   5.973  0.6350 -0.0377 -1.7857
   24SOL     OW  970   5.369   3.201   0.425  0.4719  0.3960  0.1108
   24SOL    HW1  971   5.300   3.149   0.376 -2.2012  0.3544  3.5431
   24SOL    HW2  972   5.344   3.298   0.425  0.1778  0.3450  1.6125
   25SOL     OW  973   6.920   0.532   0.292  0.3594 -0.3187  0.1853
   25SOL    HW1  974   6.906   0.555   0.388 -0.6729  0.6419 -0.1736
   25SOL    HW2  975   6.856   0.584   0.236  1.2406 -0.5452 -1.0627
   26SOL     OW  976   3.304   1.663   3.554 -0.7247  0.6318 -0.1479
   26SOL    HW1  977   3.245   1.612   3.617 -0.9871 -0.5267 -1.3043
   26SOL    HW2  978   3.254   1.742   3.519 -1.8007 -0.5895 -1.4721
   27SOL     OW  979   5.637   2.078   4.621  0.4501 -0.4018  0.5889
   27SOL    HW1  980   5.560   2.055   4.561 -1.2636 -0.1465  2.5679
   27SOL    HW2  981   5.629   2.026   4.706  0.9095  1.6608  1.9527
   28SOL     OW  982   2.138   3.875   1.506  0.0594 -0.0787  0.3218
   28SOL    HW1  983   2.193   3.854   1.425 -0.8563  0.0127 -0.3396
   28SOL    HW2  984   2.164   3.965   1.541 -0.5838  0.5538 -0.7840
   29SOL     OW  985   5.811   1.510   1.087  0.0627 -0.3801 -0.4362
   29SOL    HW1  986   5.792   1.608   1.079  0.4949 -0.1535  1.0023
   29SOL    HW2  987   5.757   1.460   1.019 -1.3194  0.7242 -0.2009
   30SOL     OW  988   6.692   5.389   6.833 -0.2259 -0.6096 -0.0091
   30SOL    HW1  989   6.775   5.419   6.785 -0.4545  0.1268  0.0480
   30SOL    HW2  990   6.627   5.352   6.767 -0.1272 -0.5549 -0.1372
   31SOL     OW  991   1.186   0.885   5.183  0.0576  0.6957  0.1765
   31SOL    HW1  992   1.183   0.983   5.203 -1.8386  0.7316 -0.0977
   31SOL    HW2  993   1.157   0.870   5.088  4.0385  0.1309 -1.1324
   32SOL     OW  994   2.485   6.794   5.328  0.2707 -0.2519 -0.0845
   32SOL    HW1  995   2.400   6.743   5.321  2.0489 -3.2909 -2.0032
   32SOL    HW2  996   2.539   6.757   5.404  0.6232  0.4511  0.0162
   33SOL     OW  997   2.887   2.163   5.364  0.0192 -0.2278 -0.1623
   33SOL    HW1  998   2.859   2.246   5.315 -0.1079  0.3243  0.8308
   33SOL    HW2  999   2.985   2.146   5.348 -0.1274 -0.3396 -1.0009
   34SOL     OW 1000   0.136   5.151   3.175  0.1175  0.0935  0.2364
   34SOL    HW1 1001   0.117   5.234   3.122 -0.3309  0.4896  1.0072
   34SOL    HW2 1002   0.218   5.165   3.231  0.2813 -0.1352  0.0575
   35SOL     OW 1003   6.802   6.185   4.484  0.0327  0.0509  0.6546
   35SOL    HW1 1004   6.807   6.264   4.545 -0.0953 -0.0517  0.7987
   35SOL    HW2 1005   6.739   6.117   4.522  0.3310 -0.2290  0.6590
   36SOL     OW 1006   4.645   2.099   1.183 -0.2037  0.5453 -0.0879
   36SOL    HW1 1007   4.708   2.176   1.179 -0.1677  0.5326  0.2135
   36SOL    HW2 1008   4.631   2.063   1.091  2.2073 -1.0393  0.0598
   37SOL     OW 1009   4.938   4.299   4.512 -0.1865  0.4677 -0.0253
   37SOL    HW1 1010   5.018   4.240   4.508  1.4569  2.5572  0.0860
   37SOL    HW2 1011   4.909   4.311   4.608 -0.2411  0.2067 -0.0099
   38SOL     OW 1012   6.955   1.121   5.364 -0.3468  0.1670 -0.4119
   38SOL    HW1 1013   6.956   1.112   5.464 -1.2825  0.8622 -0.3285
   38SOL    HW2 1014   6.865   1.151   5.334 -0.1448 -0.2569 -1.5006
   39SOL     OW 1015   4.568   6.928   2.122 -0.3211 -0.1023 -0.0302
   39SOL    HW1 1016   4.494   6.936   2.055 -0.8863 -0.1429  0.5829
   39SOL    HW2 1017   4.644   6.986   2.093 -0.8574  0.4808 -0.3180
   40SOL     OW 1018   0.941   1.381   4.346 -0.4588 -0.1182 -0.3046
   40SOL    HW1 1019   0.934   1.283   4.366  0.8105 -0.9570 -3.3781
   40SOL    HW2 1020   0.849   1.420   4.342 -0.9165 -0.5578  3.1974
   41SOL     OW 1021   5.946   1.285   2.252  0.0494  0.2496  0.1240
   41SOL    HW1 1022   5.852   1.252   2.246  0.1890 -0.5344  1.7006
   41SOL    HW2 1023   5.971   1.330   2.166 -1.3252 -0.6440 -0.7884
   42SOL     OW 1024   4.622   2.691   5.564 -0.0903 -0.0137 -0.3245
   42SOL    HW1 1025   4.628   2.717   5.468  0.8235 -0.7532 -0.4801
   42SOL    HW2 1026   4.594   2.595   5.572 -2.4423  0.6498  0.2233
   43SOL     OW 1027   3.246   5.482   4.811 -0.0449 -0.0350 -0.1302
   43SOL    HW1 1028   3.244   5.578   4.786  0.9318  0.8270  2.6602
   43SOL    HW2 1029   3.214   5.471   4.906  0.0682 -2.4297 -0.2903
   44SOL     OW 1030   4.158   2.799   5.575 -0.0269  0.1205  0.0749
   44SOL    HW1 1031   4.066   2.835   5.566 -0.2237 -0.2342  0.6071
   44SOL    HW2 1032   4.216   2.837   5.502 -0.7111 -0.0546 -0.5779
   45SOL     OW 1033   3.406   1.323   0.989 -0.5267  0.2090  0.7293
   45SOL    HW1 1034   3.364   1.405   0.951  1.1041  0.5101 -0.5626
   45SOL    HW2 1035   3.443   1.343   1.080  0.1920  1.0311  0.2692
   46SOL     OW 1036   6.358   3.802   0.242 -0.5359 -0.0647 -0.2212
   46SOL    HW1 1037   6.409   3.856   0.175  1.1319 -0.5131  0.6358
   46SOL    HW2 1038   6.419   3.775   0.317 -2.1864 -0.1501  1.1501
   47SOL     OW 1039   4.361   1.321   1.956  0.3006 -0.7912  0.6128
   47SOL    HW1 1040   4.274   1.363   1.933  1.8212  1.6790 -1.1819
   47SOL    HW2 1041   4.402   1.281   1.873  2.2474  0.9863  0.6283
   48SOL     OW 1042   3.388   3.465   3.770  0.1460 -0.0523 -0.3636
   48SOL    HW1 1043   3.329   3.403   3.821  0.1801  0.4045  0.2402
   48SOL    HW2 1044   3.447   3.412   3.709  0.0937 -0.6043  0.0595
   49SOL     OW 1045   2.929   0.767   4.283  0.2914 -0.0439  0.5238
   49SOL    HW1 1046   2.844   0.720   4.260 -1.7934  2.6945  2.1058
   49SOL    HW2 1047   2.964   0.731   4.370 -0.8496  0.7054  1.3198
   50SOL     OW 1048   2.540   3.509   1.349 -0.1571  0.3632 -0.1046
   50SOL    HW1 1049   2.483   3.495   1.430 -4.2967 -0.7992 -2.8802
   50SOL    HW2 1050   2.583   3.422   1.324 -1.0716  0.0035 -0.5161
   51SOL     OW 1051   3.803   1.680   5.178 -0.0019 -0.2397  0.2771
   51SOL    HW1 1052   3.813   1.779   5.191 -2.4103 -0.0748  1.3742
   51SOL    HW2 1053   3.826   1.633   5.264 -1.9094 -0.3428  0.7627
   52SOL     OW 1054   0.749   5.808   4.229  0.1239 -0.0110 -0.0506
   52SOL    HW1 1055   0.746   5.729   4.290  0.7590 -0.4740 -0.6059
   52SOL    HW2 1056   0.765   5.777   4.135 -0.1115  0.7420 -0.3479
   53SOL     OW 1057   1.686   3.563   1.459  0.7837  0.0321 -0.5399
   53SOL    HW1 1058   1.634   3.648   1.460  0.1736 -0.3258 -1.2303
   53SOL    HW2 1059   1.778   3.581   1.423  0.7953  0.4662 -0.3036
   54SOL     OW 1060   0.386   5.783   4.861  0.0002 -0.2338  0.1143
   54SOL    HW1 1061   0.419   5.878   4.861  2.0085 -0.8810  0.6976
   54SOL    HW2 1062   0.461   5.722   4.836 -1.2937 -1.6898 -0.3738
   55SOL     OW 1063   3.294   3.822   4.843  0.1940  0.0884  0.6910
   55SOL    HW1 1064   3.311   3.910   4.799  0.2786  0.2602  1.0662
   55SOL    HW2 1065   3.321   3.826   4.939  1.4440 -0.7453  0.3920
   56SOL     OW 1066   1.828   6.361   1.804 -0.4462 -0.3254 -0.0137
   56SOL    HW1 1067   1.759   6.416   1.851  0.2300  0.6055 -0.0857
   56SOL    HW2 1068   1.843   6.396   1.712  1.2330  0.4904  0.5269
   57SOL     OW 1069   0.623   4.298   6.520  0.2953 -0.0139 -0.0668
   57SOL    HW1 1070   0.704   4.320   6.467  0.6361  0.4779  0.6418
   57SOL    HW2 1071   0.581   4.382   6.554  0.2697 -0.3323  0.7106
   58SOL     OW 1072   2.514   6.562   3.925 -0.1344  0.4806  0.0199
   58SOL    HW1 1073   2.421   6.593   3.943 -0.6031 -0.8277 -0.0015
   58SOL    HW2 1074   2.511   6.483   3.863  0.9936  0.4395 -0.0054
   59SOL     OW 1075   4.966   2.590   1.013 -0.5454  0.6558  0.7469
   59SOL    HW1 1076   4.997   2.553   1.100  0.2186  0.9730  0.6149
   59SOL    HW2 1077   4.884   2.541   0.983  0.8570 -1.4599  0.2040
   60SOL     OW 1078   6.064   1.268   5.280 -0.1415 -0.3088  0.6277
   60SOL    HW1 1079   6.048   1.334   5.206  0.7932 -2.6296 -1.8046
   60SOL    HW2 1080   5.982   1.261   5.336 -1.3662  0.6417 -0.9434
   61SOL     OW 1081   3.036   6.621   4.835  0.2699  0.0009 -0.3113
   61SOL    HW1 1082   3.118   6.639   4.890  0.2597  0.0426 -0.3101
   61SOL    HW2 1083   3.018   6.522   4.834  0.2981 -0.0046 -0.2799
   62SOL     OW 1084   0.682   4.585   3.654 -0.5173  0.2282 -0.9020
   62SOL    HW1 1085   0.589   4.555   3.674 -0.1864 -1.5312 -1.7758
   62SOL    HW2 1086   0.732   4.595   3.740 -1.5596  1.4739 -0.4071
   63SOL     OW 1087   6.741   3.289   3.949 -0.1299 -0.1991  0.4011
   63SOL    HW1 1088   6.710   3.195   3.931 -3.1991  0.4781  1.6679
   63SOL    HW2 1089   6.805   3.288   4.026  0.0065 -1.2400  0.2946
   64SOL     OW 1090   1.922   5.456   1.668  0.4673 -0.1621  0.0024
   64SOL    HW1 1091   1.920   5.400   1.751 -2.4628  1.1319  0.9480
   64SOL    HW2 1092   1.995   5.524   1.676  0.3971 -0.2118  1.4499
   65SOL     OW 1093   2.248   2.454   1.169  0.2538 -0.1416  0.1751
   65SOL    HW1 1094   2.213   2.545   1.192  0.2810 -0.3122  0.9207
   65SOL    HW2 1095   2.340   2.443   1.205  0.8462  0.0695 -1.2286
   66SOL     OW 1096   6.698   3.669   2.540  0.3403 -0.0196  0.5249
   66SOL    HW1 1097   6.721   3.759   2.575 -1.6398  0.8745 -0.2987
   66SOL    HW2 1098   6.781   3.613   2.531  1.5971  1.7035  1.0167
   67SOL     OW 1099   3.092   4.190   5.320  0.4594  0.0314  0.7537
   67SOL    HW1 1100   3.114   4.285   5.343 -0.5892  0.3504  0.4769
   67SOL    HW2 1101   3.125   4.170   5.227  3.3180 -0.7989  1.8349
   68SOL     OW 1102   1.994   3.506   3.837 -0.3709  0.4332  0.1841
   68SOL    HW1 1103   1.925   3.480   3.770 -0.7969 -1.3511  1.2666
   68SOL    HW2 1104   2.071   3.442   3.833 -0.7449 -0.1826  1.8718
   69SOL     OW 1105   0.587   3.523   5.079  0.1277  0.0233  0.2920
   69SOL    HW1 1106   0.621   3.518   4.985  0.1305  2.7993  0.0552
   69SOL    HW2 1107   0.650   3.576   5.135 -0.6507 -0.2420  1.4628
   70SOL     OW 1108   5.963   5.886   2.635  0.2201  0.5797  0.0002
   70SOL    HW1 1109   5.889   5.954   2.635 -2.1224 -1.7701  1.3727
   70SOL    HW2 1110   5.972   5.846   2.726  0.0744 -2.3113 -1.1366
   71SOL     OW 1111   1.594   6.999   4.092  0.0479 -0.3163 -0.4211
   71SOL    HW1 1112   1.594   6.991   4.192 -0.4455 -1.0571 -0.4701
   71SOL    HW2 1113   1.588   7.096   4.067 -1.1610 -0.1809  0.2823
   72SOL     OW 1114   3.408   6.984   6.148  0.2855  0.4091 -0.3834
   72SOL    HW1 1115   3.446   6.998   6.056 -1.0035  0.4283 -0.9349
   72SOL    HW2 1116   3.446   6.900   6.187  1.6362  0.9477 -0.5030
   73SOL     OW 1117   5.481   3.516   6.559 -0.8458  0.2049  0.0050
   73SOL    HW1 1118   5.478   3.602   6.509  0.3129 -0.1655 -0.7449
   73SOL    HW2 1119   5.558   3.516   6.622 -1.7467  0.3008  1.1372
   74SOL     OW 1120   1.027   3.891   5.109  0.1129  0.2576 -0.6450
   74SOL    HW1 1121   0.935   3.856   5.122 -0.6872  1.9975 -1.2744
   74SOL    HW2 1122   1.092   3.834   5.158 -1.3200 -0.8423  0.0389
   75SOL     OW 1123   3.967   5.864   1.671  0.0133  0.1791  0.0160
   75SOL    HW1 1124   3.982   5.777   1.718  0.0312  1.5706  2.7992
   75SOL    HW2 1125   4.049   5.921   1.679 -1.1785  1.7977  1.4802
   76SOL     OW 1126   0.324   4.312   2.514 -0.2502  0.2608  0.1098
   76SOL    HW1 1127   0.392   4.291   2.584  0.7195 -0.0687 -0.9018
   76SOL    HW2 1128   0.348   4.397   2.468  0.3384 -0.5867 -1.2399
   77SOL     OW 1129   5.199   6.717   4.039  0.3599 -0.2282  0.4467
   77SOL    HW1 1130   5.193   6.643   4.106  1.0020 -0.7104 -0.0207
   77SOL    HW2 1131   5.217   6.803   4.086 -1.4711 -0.1545  1.1045
   78SOL     OW 1132   4.812   2.927   5.054 -0.3195  0.2378  0.0372
   78SOL    HW1 1133   4.861   3.014   5.043  0.1843 -0.0314  0.1411
   78SOL    HW2 1134   4.780   2.896   4.964  1.7987 -0.7895 -0.4526
   79SOL     OW 1135   3.090   3.695   4.679 -0.1564  0.2839  0.4742
   79SOL    HW1 1136   3.149   3.765   4.718  0.9107  0.5588 -1.5023
   79SOL    HW2 1137   3.004   3.691   4.731  0.5702  1.6142  1.8619
   80SOL     OW 1138   5.976   0.885   5.205 -0.0484 -0.1641 -0.1790
   80SOL    HW1 1139   5.958   0.879   5.106 -0.7873 -0.6939 -0.0154
   80SOL    HW2 1140   5.897   0.850   5.256  0.3571  0.0404  0.6027
   81SOL     OW 1141   1.692   3.600   1.876  0.2664 -0.1729 -0.5767
   81SOL    HW1 1142   1.789   3.586   1.896  0.1181 -0.2259  0.1524
   81SOL    HW2 1143   1.637   3.544   1.939 -0.2148 -1.1595 -1.8314
   82SOL     OW 1144   0.984   4.529   4.894 -0.5428 -0.7839 -0.6563
   82SOL    HW1 1145   1.009   4.456   4.831 -0.0423 -0.8437 -0.3955
   82SOL    HW2 1146   0.969   4.490   4.985 -1.1661 -0.6864 -0.7146
   83SOL     OW 1147   3.893   6.532   2.376 -0.0962  0.5628 -0.1784
   83SOL    HW1 1148   3.883   6.472   2.455 -1.0279  0.5029 -0.3258
   83SOL    HW2 1149   3.979   6.582   2.382  0.3209 -0.2105  0.3387
   84SOL     OW 1150   0.577   1.180   5.162 -0.1531  0.0190  0.0718
   84SOL    HW1 1151   0.620   1.092   5.140  0.6048  0.4751 -0.3067
   84SOL    HW2 1152   0.645   1.242   5.199 -0.1917  1.1731 -1.6741
   85SOL     OW 1153   1.785   5.592   5.843 -0.4746 -0.5098 -0.0930
   85SOL    HW1 1154   1.727   5.651   5.786 -0.0604 -1.1589 -1.1958
   85SOL    HW2 1155   1.747   5.590   5.936  0.2071  2.5452  0.3856
   86SOL     OW 1156   5.906   5.249   0.481  0.5217  0.1596  0.2467
   86SOL    HW1 1157   5.946   5.215   0.396  0.2303 -0.6465  0.4214
   86SOL    HW2 1158   5.949   5.202   0.559 -1.3248 -1.3938  0.4094
   87SOL     OW 1159   4.018   4.672   0.269  0.4612  0.4912 -0.5580
   87SOL    HW1 1160   3.945   4.691   0.335  0.3542  0.3379 -0.6296
   87SOL    HW2 1161   4.101   4.719   0.296 -0.0069  1.7343 -1.1592
   88SOL     OW 1162   6.308   0.210   6.000  0.5298  0.3509  0.2367
   88SOL    HW1 1163   6.372   0.146   6.044  0.4828 -0.7957 -1.2747
   88SOL    HW2 1164   6.357   0.263   5.931  0.0338  0.0517 -0.3538
   89SOL     OW 1165   0.832   3.420   0.802 -0.2008  0.2104  0.0831
   89SOL    HW1 1166   0.874   3.447   0.889  1.2303  2.1623 -1.1274
   89SOL    HW2 1167   0.887   3.348   0.760  0.2051  0.5960 -0.0608
   90SOL     OW 1168   2.348   0.234   6.044 -0.0115  0.1748  0.3035
   90SOL    HW1 1169   2.431   0.179   6.056  0.5475  0.9531  0.1139
   90SOL    HW2 1170   2.271   0.188   6.088  0.6464 -0.2716  1.0161
   91SOL     OW 1171   6.018   6.091   6.092  0.2021 -0.1059 -0.3417
   91SOL    HW1 1172   5.955   6.087   6.015  1.0894  0.2529 -1.1166
   91SOL    HW2 1173   5.971   6.063   6.175 -0.4708 -1.7180 -1.2065
   92SOL     OW 1174   3.618   0.368   3.435 -0.5455  0.2050  0.3399
   92SOL    HW1 1175   3.596   0.287   3.381  1.1751 -0.5915  0.7820
   92SOL    HW2 1176   3.575   0.360   3.525 -1.9962  0.7403 -0.2665
   93SOL     OW 1177   3.777   3.007   3.950  0.1010  0.3411  0.0070
   93SOL    HW1 1178   3.842   3.010   3.873  0.7505 -0.2067  0.5174
   93SOL    HW2 1179   3.723   3.091   3.951  1.2137  1.0946 -0.0961
   94SOL     OW 1180   0.938   2.785   3.817 -0.6497  0.0259 -0.3515
   94SOL    HW1 1181   0.989   2.799   3.902  0.1762  0.6850 -0.9379
   94SOL    HW2 1182   0.850   2.833   3.822 -0.4651  0.3314 -0.0026
   95SOL     OW 1183   3.916   6.775   5.469  0.2001  0.3631 -0.0296
   95SOL    HW1 1184   3.854   6.716   5.417 -0.3616  0.7436  0.1927
   95SOL    HW2 1185   3.863   6.850   5.510  0.9851  1.3768 -0.8162
   96SOL     OW 1186   5.016   6.023   2.643 -0.1974 -0.2998 -0.0420
   96SOL    HW1 1187   5.099   6.009   2.589 -0.0778 -0.4032  0.1673
   96SOL    HW2 1188   5.037   6.077   2.724 -0.7530  1.6440 -1.1136
   97SOL     OW 1189   1.981   6.098   5.378  0.1042 -0.2741  0.1822
   97SOL    HW1 1190   2.015   6.167   5.314  0.9037 -0.2395  0.6276
   97SOL    HW2 1191   2.059   6.049   5.418 -0.3922 -0.4569  0.9514
   98SOL     OW 1192   4.379   3.135   6.437 -0.2254  0.1803  0.2124
   98SOL    HW1 1193   4.418   3.052   6.396  2.0303  1.2329  0.1071
   98SOL    HW2 1194   4.408   3.142   6.532 -1.5497  0.1794  0.6397
   99SOL     OW 1195   6.413   5.545   0.166  0.0636 -0.3242  0.3684
   99SOL    HW1 1196   6.317   5.543   0.139 -0.2309 -4.2076  1.1104
   99SOL    HW2 1197   6.470   5.566   0.086 -1.2917  0.6564 -0.3745
  100SOL     OW 1198   2.260   6.693   2.887 -0.3216  0.2877 -0.1401
  100SOL    HW1 1199   2.318   6.641   2.825 -0.1479  0.2577  0.0452
  100SOL    HW2 1200   2.261   6.789   2.861 -2.1116 -0.0405 -1.6295
  101SOL     OW 1201   3.752   2.036   0.364 -0.1186  0.1113 -0.1689
  101SOL    HW1 1202   3.736   2.135   0.360 -0.1128  0.1483  0.5928
  101SOL    HW2 1203   3.689   1.995   0.429 -0.8656 -0.5531 -1.2926
  102SOL     OW 1204   3.910   3.001   1.559 -0.0263 -0.2162 -0.2908
  102SOL    HW1 1205   3.945   3.060   1.632 -2.5555  2.9051 -1.4027
  102SOL    HW2 1206   3.892   2.910   1.597 -0.4754  1.0131  2.7973
  103SOL     OW 1207   6.424   5.141   0.280 -0.6745  0.4901 -0.6616
  103SOL    HW1 1208   6.426   5.128   0.181  0.0802  1.6298 -0.8212
  103SOL    HW2 1209   6.460   5.060   0.325 -0.5657  0.1496 -1.3429
  104SOL     OW 1210   2.579   6.369   3.097  0.1081  0.2478 -0.2151
  104SOL    HW1 1211   2.568   6.390   3.194 -0.1681 -0.3723 -0.1071
  104SOL    HW2 1212   2.494   6.387   3.049  0.0579 -0.0180 -0.2298
  105SOL     OW 1213   3.448   0.132   5.520  0.4100  0.4696  0.2641
  105SOL    HW1 1214   3.530   0.160   5.569 -0.8194  2.2275  1.4301
  105SOL    HW2 1215   3.369   0.137   5.581 -0.5800 -1.3605 -0.7686
  106SOL     OW 1216   3.124   4.026   6.202 -0.2167  0.0328  0.2118
  106SOL    HW1 1217   3.076   3.941   6.221  0.0012 -0.2604 -0.5289
  106SOL    HW2 1218   3.080   4.101   6.253 -0.4748 -0.4952  0.7759
  107SOL     OW 1219   0.336   0.516   3.768  0.3234 -0.2637  0.1879
  107SOL    HW1 1220   0.352   0.532   3.866  1.0416  0.6182 -0.0566
  107SOL    HW2 1221   0.419   0.482   3.725 -0.3724 -1.9676  0.1168
  108SOL     OW 1222   1.959   4.887   1.590 -0.0734  0.3082 -0.6400
  108SOL    HW1 1223   1.939   4.964   1.529  2.5409  2.0231  0.5057
  108SOL    HW2 1224   1.966   4.803   1.537 -1.0476  1.1834 -2.2146
  109SOL     OW 1225   4.656   3.842   1.250 -0.1205  0.2207  0.2433
  109SOL    HW1 1226   4.568   3.888   1.240 -0.3013 -0.5935 -2.7680
  109SOL    HW2 1227   4.642   3.745   1.269  0.1109  0.0299 -0.5399
  110SOL     OW 1228   3.968   1.902   0.293 -0.5485  0.2451 -0.6651
  110SOL    HW1 1229   3.984   1.876   0.198 -1.8515 -1.6792 -0.4173
  110SOL    HW2 1230   3.889   1.963   0.299 -1.5892 -1.0528 -0.7049
  111SOL     OW 1231   3.516   4.607   1.049 -0.7648 -0.1072  0.4966
  111SOL    HW1 1232   3.495   4.511   1.033 -1.5375  0.1938 -0.3879
  111SOL    HW2 1233   3.496   4.630   1.145  0.4043 -1.0556  0.9887
  112SOL     OW 1234   2.564   6.534   0.470  0.0746  0.2589  0.2283
  112SOL    HW1 1235   2.615   6.599   0.525  0.6033 -0.2937  0.4059
  112SOL    HW2 1236   2.472   6.569   0.452  0.5356  1.2992 -0.1471
  113SOL     OW 1237   2.661   3.180   6.300 -0.1492  0.5194  0.2674
  113SOL    HW1 1238   2.739   3.123   6.275 -1.3874 -0.3929 -1.7764
  113SOL    HW2 1239   2.606   3.133   6.370 -0.7181 -0.4958 -0.8176
  114SOL     OW 1240   6.893   3.890   5.058  0.0748  0.6070  0.1427
  114SOL    HW1 1241   6.960   3.901   5.131 -1.1325 -0.1659  1.4149
  114SOL    HW2 1242   6.837   3.973   5.052 -0.4995  0.2693  0.8061
  115SOL     OW 1243   0.489   5.929   3.787  0.4041 -0.4541  0.5477
  115SOL    HW1 1244   0.414   5.919   3.853 -0.9281  1.7727 -0.5162
  115SOL    HW2 1245   0.454   5.916   3.695  1.8283 -1.5351  0.1306
  116SOL     OW 1246   5.916   3.876   5.365  0.4592 -0.2744 -0.0555
  116SOL    HW1 1247   6.010   3.908   5.381  0.6690 -0.3032 -1.1135
  116SOL    HW2 1248   5.867   3.944   5.311 -0.5479  0.3234  1.5805
  117SOL     OW 1249   6.428   1.249   2.665 -0.3948 -0.1644 -0.2958
  117SOL    HW1 1250   6.463   1.342   2.680 -1.1863  0.1296 -0.2002
  117SOL    HW2 1251   6.503   1.189   2.638  0.2243  0.3740  0.2076
  118SOL     OW 1252   3.350   2.655   5.328 -0.2885  0.1938 -0.1161
  118SOL    HW1 1253   3.325   2.709   5.247 -0.0435 -0.1061 -0.4001
  118SOL    HW2 1254   3.279   2.663   5.397 -1.0961 -0.5158 -0.8384
  119SOL     OW 1255   6.001   4.526   5.100 -0.0812 -0.4265  0.1224
  119SOL    HW1 1256   5.964   4.555   5.012  0.8087  1.6588  0.3964
  119SOL    HW2 1257   6.100   4.537   5.101 -0.2024  0.9562  1.8343
  120SOL     OW 1258   3.533   4.945   5.817 -0.3970  0.5131 -0.4940
  120SOL    HW1 1259   3.470   5.019   5.841 -0.2201  0.1940  1.0368
  120SOL    HW2 1260   3.555   4.951   5.720 -0.7971  2.1561 -0.5148
  121SOL     OW 1261   3.945   3.098   3.743 -0.6211  0.7402 -0.2708
  121SOL    HW1 1262   3.925   3.172   3.807  0.2853  0.7028  0.0744
  121SOL    HW2 1263   3.996   3.134   3.665  3.7878 -0.0679  1.9269
  122SOL     OW 1264   4.032   1.477   4.421 -0.1228  0.3227  0.6120
  122SOL    HW1 1265   3.958   1.524   4.470 -1.7471 -0.5205 -0.9213
  122SOL    HW2 1266   4.023   1.495   4.323  0.4604 -1.4865  0.1990
  123SOL     OW 1267   6.971   1.892   2.880  0.3075  0.1900  0.3588
  123SOL    HW1 1268   6.962   1.966   2.946  0.6809  0.9287 -0.3970
  123SOL    HW2 1269   7.043   1.829   2.909 -1.4765 -1.1379  2.1482
  124SOL     OW 1270   4.895   4.306   3.864 -0.2556 -0.2461 -0.1526
  124SOL    HW1 1271   4.978   4.329   3.813  0.6192 -2.2559  0.2671
  124SOL    HW2 1272   4.827   4.378   3.852  1.1286  0.8978 -1.4453
  125SOL     OW 1273   1.378   5.034   5.475  0.5496 -0.0424 -0.6990
  125SOL    HW1 1274   1.464   4.983   5.482  2.5042  3.0137 -0.7174
  125SOL    HW2 1275   1.372   5.101   5.549 -2.0231 -0.3293 -0.5278
  126SOL     OW 1276   0.603   2.566   6.759 -0.0331 -0.2625  0.2026
  126SOL    HW1 1277   0.590   2.665   6.750  1.9188 -0.0637 -0.8174
  126SOL    HW2 1278   0.665   2.547   6.835  0.5629 -0.6198 -0.3670
  127SOL     OW 1279   6.207   0.985   2.867 -0.3860 -0.8983  0.1627
  127SOL    HW1 1280   6.140   1.002   2.939 -0.7122  1.1735 -0.5690
  127SOL    HW2 1281   6.159   0.961   2.782 -0.2620  0.9068 -0.4469
  128SOL     OW 1282   4.706   5.684   1.619 -0.3900 -0.0107  0.1386
  128SOL    HW1 1283   4.747   5.641   1.700  0.5527 -1.8126 -1.2241
  128SOL    HW2 1284   4.774   5.742   1.575 -0.6126  0.2378  0.1232
  129SOL     OW 1285   0.584   4.239   4.104 -0.8947  0.2884  0.5196
  129SOL    HW1 1286   0.601   4.307   4.176 -0.1185  0.5406  0.1067
  129SOL    HW2 1287   0.505   4.267   4.050 -1.1620  0.3698  0.9531
  130SOL     OW 1288   5.044   5.623   5.353 -0.4597  0.6239 -0.0884
  130SOL    HW1 1289   4.999   5.587   5.434  2.7769  1.0228  2.0554
  130SOL    HW2 1290   4.988   5.696   5.314 -1.7224  1.0715  2.3507
  131SOL     OW 1291   0.899   6.414   4.003  0.2089 -0.2471  0.4160
  131SOL    HW1 1292   0.999   6.419   3.997  0.1695  0.7476  0.4204
  131SOL    HW2 1293   0.868   6.466   4.082 -0.3684  0.0853 -0.0267
  132SOL     OW 1294   0.293   1.121   2.469  0.1993 -0.0029 -0.0109
  132SOL    HW1 1295   0.325   1.212   2.495 -1.1610  0.4234  0.2366
  132SOL    HW2 1296   0.241   1.126   2.384 -0.6776 -0.3795  0.4848
  133SOL     OW 1297   6.606   0.334   2.116  0.8769  0.0905  0.0924
  133SOL    HW1 1298   6.561   0.408   2.168  1.2747  1.2965 -1.2143
  133SOL    HW2 1299   6.636   0.263   2.179  0.3848  0.9971  1.3954
  134SOL     OW 1300   4.697   5.268   6.948 -0.1087 -0.6054 -0.2858
  134SOL    HW1 1301   4.746   5.353   6.968  0.9514 -1.1891 -0.3157
  134SOL    HW2 1302   4.610   5.267   6.998  0.3022  0.0642  0.4726
  135SOL     OW 1303   4.227   3.694   0.019  0.0032 -0.3225  0.1524
  135SOL    HW1 1304   4.215   3.724   0.113 -0.4501  3.3062 -0.9294
  135SOL    HW2 1305   4.156   3.734  -0.038  1.7387 -0.3252 -2.1582
  136SOL     OW 1306   4.594   6.896   6.081  0.5964 -0.2540 -0.1134
  136SOL    HW1 1307   4.568   6.983   6.040 -0.4615 -1.5183 -2.2994
  136SOL    HW2 1308   4.652   6.845   6.018  0.8977 -1.3157  0.9705
  137SOL     OW 1309   3.042   5.648   5.638 -0.2599 -0.0183 -0.0253
  137SOL    HW1 1310   2.950   5.680   5.661 -0.7514 -0.2882 -1.5432
  137SOL    HW2 1311   3.048   5.630   5.540  1.1886 -0.7529  0.1693
  138SOL     OW 1312   4.254   5.681   6.419 -0.1482  0.4150  0.2340
  138SOL    HW1 1313   4.185   5.687   6.347  0.4310  0.7137 -0.3046
  138SOL    HW2 1314   4.253   5.765   6.473 -1.2361 -0.1845  1.2020
  139SOL     OW 1315   2.982   2.146   2.228 -0.0185  0.2085  0.3450
  139SOL    HW1 1316   3.081   2.136   2.225  0.1198  0.3455  2.7746
  139SOL    HW2 1317   2.955   2.228   2.178  1.2796  1.1430  1.1315
  140SOL     OW 1318   6.815   0.415   0.983  0.7999  0.5139 -0.6432
  140SOL    HW1 1319   6.905   0.429   1.025  0.7062 -1.6139  0.3565
  140SOL    HW2 1320   6.744   0.420   1.053  0.4955 -1.4208 -0.7612
  141SOL     OW 1321   0.111   4.750   6.425  0.0742 -0.1763  0.0352
  141SOL    HW1 1322   0.096   4.780   6.331  0.3310  1.0799  0.3878
  141SOL    HW2 1323   0.045   4.678   6.447 -1.2034  0.7839 -0.5305
  142SOL     OW 1324   2.322   2.160   3.611  0.3467  0.0458 -0.1123
  142SOL    HW1 1325   2.366   2.250   3.606  1.6638 -0.6016 -0.7122
  142SOL    HW2 1326   2.380   2.097   3.663 -0.2734 -0.6128 -0.2022
  143SOL     OW 1327   0.398   5.497   6.672 -0.0288 -0.2710  0.1885
  143SOL    HW1 1328   0.313   5.470   6.717 -0.8224  1.9875  0.1436
  143SOL    HW2 1329   0.474   5.491   6.737 -0.9475  1.7536  1.5182
  144SOL     OW 1330   1.789   6.988   6.568  0.4879 -0.3087 -0.2017
  144SOL    HW1 1331   1.876   6.945   6.588  0.3475 -1.3090 -1.6258
  144SOL    HW2 1332   1.785   7.014   6.471  0.0318  1.6960  0.2965
  145SOL     OW 1333   5.680   6.625   6.961  0.0282 -0.1383  0.3458
  145SOL    HW1 1334   5.709   6.549   7.020  0.3166 -0.2103  0.1156
  145SOL    HW2 1335   5.689   6.598   6.865  0.9033  0.4560  0.2449
  146SOL     OW 1336   0.052   1.107   0.864 -0.2354  0.2458 -0.1201
  146SOL    HW1 1337   0.001   1.178   0.817 -0.2954 -0.4283 -1.1165
  146SOL    HW2 1338   0.033   1.018   0.821  1.7390 -0.0256 -0.5298
  147SOL     OW 1339   5.299   5.223   2.334  0.2190  0.0058  0.2237
  147SOL    HW1 1340   5.261   5.233   2.242 -0.1482 -1.0898  0.2437
  147SOL    HW2 1341   5.360   5.144   2.336 -0.0097 -0.1565  0.9948
  148SOL     OW 1342   1.771   1.991   5.218 -0.0936  0.0544 -0.9137
  148SOL    HW1 1343   1.803   2.003   5.124 -1.0361  0.0915 -1.2426
  148SOL    HW2 1344   1.750   1.895   5.235  1.1581 -0.1434 -0.3665
  149SOL     OW 1345   6.146   6.789   1.920 -0.9105 -0.0678  0.0309
  149SOL    HW1 1346   6.172   6.800   2.016 -2.0769  0.2019  0.3271
  149SOL    HW2 1347   6.047   6.788   1.912 -0.8288  0.2703 -1.2242
  150SOL     OW 1348   5.569   5.605   2.231  0.0483 -0.4219 -0.4105
  150SOL    HW1 1349   5.559   5.527   2.293 -0.1367 -0.7368 -0.8376
  150SOL    HW2 1350   5.653   5.596   2.179 -0.3460 -0.7240 -1.0031
  151SOL     OW 1351   5.607   1.431   3.961 -0.0681 -0.5883  0.0098
  151SOL    HW1 1352   5.585   1.334   3.945 -0.3730 -0.7190  1.1291
  151SOL    HW2 1353   5.660   1.439   4.045 -0.0403  0.2210 -0.0787
  152SOL     OW 1354   4.789   1.827   5.733  0.0915  0.3536 -0.0899
  152SOL    HW1 1355   4.746   1.782   5.655 -1.4045 -0.1936  1.0142
  152SOL    HW2 1356   4.802   1.760   5.806  1.1773  0.9332  0.2653
  153SOL     OW 1357   1.101   2.352   3.338 -0.0937 -0.0971  0.4782
  153SOL    HW1 1358   1.160   2.284   3.381  0.5473 -0.1988 -0.5467
  153SOL    HW2 1359   1.081   2.424   3.405 -2.0694 -2.0050  2.0998
  154SOL     OW 1360   2.913   4.253   1.727  0.2346  0.1743  0.3608
  154SOL    HW1 1361   2.820   4.221   1.707 -0.4436  2.4673 -0.3833
  154SOL    HW2 1362   2.910   4.338   1.778  1.9829 -0.3544  1.4605
  155SOL     OW 1363   6.025   6.080   3.661  0.6683 -0.3482  0.0785
  155SOL    HW1 1364   5.959   6.014   3.625  0.0527  0.3928 -0.1548
  155SOL    HW2 1365   6.036   6.155   3.596  0.2750  0.5149  0.9964
  156SOL     OW 1366   1.487   0.841   3.956 -0.0958 -0.5249 -0.1122
  156SOL    HW1 1367   1.424   0.797   3.892 -0.6669  1.9199 -1.3473
  156SOL    HW2 1368   1.545   0.906   3.907  0.8525 -0.0304  1.5713
  157SOL     OW 1369   6.509   0.543   6.910  0.0364 -0.3188  0.0892
  157SOL    HW1 1370   6.553   0.468   6.960 -0.9361 -0.7179  0.3560
  157SOL    HW2 1371   6.558   0.628   6.929  1.1350 -0.8662 -0.1967
  158SOL     OW 1372   0.266   0.588   1.261 -0.1342  0.0730 -0.2198
  158SOL    HW1 1373   0.193   0.651   1.236 -0.0143  1.1954  2.0680
  158SOL    HW2 1374   0.347   0.639   1.289 -0.5670 -0.9167  3.2953
  159SOL     OW 1375   1.958   3.158   4.080 -0.3025 -0.5333 -0.0379
  159SOL    HW1 1376   1.949   3.254   4.108  0.1277 -0.3293 -0.5969
  159SOL    HW2 1377   2.054   3.133   4.074 -0.4068 -1.1966  0.7259
  160SOL     OW 1378   2.092   5.677   5.298  0.3297  0.1474  0.7720
  160SOL    HW1 1379   2.018   5.649   5.237 -0.2489 -1.9046  2.3014
  160SOL    HW2 1380   2.177   5.685   5.246 -0.2046 -1.2360 -0.3808
  161SOL     OW 1381   5.272   4.396   0.569  0.4178 -0.2307  0.2272
  161SOL    HW1 1382   5.369   4.376   0.556  0.8856  2.7457 -1.9205
  161SOL    HW2 1383   5.262   4.488   0.608 -1.4858  0.1729 -1.0679
  162SOL     OW 1384   4.773   6.206   5.491 -0.3707  0.0327  0.2776
  162SOL    HW1 1385   4.831   6.282   5.462 -0.4867  0.0344  0.0491
  162SOL    HW2 1386   4.761   6.209   5.591  1.2605 -0.8373  0.5270
  163SOL     OW 1387   5.401   3.321   5.430  0.0805  0.7389  0.7419
  163SOL    HW1 1388   5.486   3.352   5.471  0.8394  2.8836 -2.1279
  163SOL    HW2 1389   5.412   3.229   5.393  1.7013  1.5560 -0.9155
  164SOL     OW 1390   5.451   1.981   6.526  0.6960 -0.2683 -0.1251
  164SOL    HW1 1391   5.513   2.041   6.474  0.5724  0.8516  0.9721
  164SOL    HW2 1392   5.378   2.036   6.566 -0.0939 -1.3480 -0.0571
  165SOL     OW 1393   2.934   5.192   1.027 -0.2362  0.5737 -0.3615
  165SOL    HW1 1394   2.986   5.106   1.031 -2.1927 -0.8697 -2.8963
  165SOL    HW2 1395   2.865   5.192   1.099 -1.4914 -0.9656 -1.4886
  166SOL     OW 1396   2.278   1.090   5.759  0.3596 -0.2645 -0.1626
  166SOL    HW1 1397   2.311   1.047   5.843 -0.2149  1.5595  1.0688
  166SOL    HW2 1398   2.209   1.032   5.716 -1.8659  0.1933  2.5008
  167SOL     OW 1399   3.334   5.002   0.660 -0.2351 -0.4898 -0.1168
  167SOL    HW1 1400   3.354   5.014   0.562  1.2731 -1.7593  0.0007
  167SOL    HW2 1401   3.411   5.036   0.714 -0.2522 -1.4890  0.5580
  168SOL     OW 1402   3.235   3.158   6.020 -0.1108  0.5649  0.1299
  168SOL    HW1 1403   3.229   3.113   6.109 -0.5651  2.5564  1.1610
  168SOL    HW2 1404   3.294   3.238   6.027 -0.4508  0.9605 -1.2795
  169SOL     OW 1405   2.710   5.773   5.484  0.0270  0.2707 -0.2796
  169SOL    HW1 1406   2.620   5.817   5.485 -0.4200 -0.5562  1.9767
  169SOL    HW2 1407   2.747   5.771   5.577  1.9612 -0.2898 -1.0147
  170SOL     OW 1408   6.484   4.744   3.083  0.1995 -0.6846  0.0997
  170SOL    HW1 1409   6.471   4.715   2.988 -2.5578 -1.2845  0.5634
  170SOL    HW2 1410   6.484   4.663   3.142  0.0482 -0.2067  0.7605
  171SOL     OW 1411   1.188   4.660   3.571 -0.9548 -0.2838  0.5065
  171SOL    HW1 1412   1.136   4.742   3.592 -1.4921 -1.0468  2.3304
  171SOL    HW2 1413   1.163   4.627   3.479 -0.7987  1.4845 -0.2073
  172SOL     OW 1414   3.022   6.571   3.407  0.6802 -0.4171 -0.1617
  172SOL    HW1 1415   3.023   6.478   3.368 -1.2066 -1.2891  1.6481
  172SOL    HW2 1416   2.972   6.632   3.346  0.6166 -0.9443 -0.6507
  173SOL     OW 1417   2.660   0.531   1.623  0.2190  0.2625 -0.5307
  173SOL    HW1 1418   2.621   0.561   1.536 -0.7282 -1.8999 -0.9112
  173SOL    HW2 1419   2.753   0.497   1.608  0.2006  0.2543 -0.6292
  174SOL     OW 1420   2.794   5.503   2.834  0.1186 -0.0820 -0.1541
  174SOL    HW1 1421   2.834   5.417   2.867  0.6207 -1.0144 -2.9110
  174SOL    HW2 1422   2.694   5.496   2.835  0.1568 -0.9237 -0.7942
  175SOL     OW 1423   1.024   1.315   6.927 -0.2784 -0.0599 -0.2043
  175SOL    HW1 1424   0.945   1.319   6.866 -0.2494 -1.8730 -0.4036
  175SOL    HW2 1425   0.998   1.269   7.012 -0.1340  1.8037  0.9246
  176SOL     OW 1426   2.975   5.418   3.334 -0.1242  0.3871  0.0423
  176SOL    HW1 1427   2.922   5.334   3.344 -0.2076  0.3542 -0.6418
  176SOL    HW2 1428   2.943   5.485   3.401 -1.2134  0.4486 -0.5026
  177SOL     OW 1429   4.858   4.028   3.837 -0.1493  0.5534 -0.4346
  177SOL    HW1 1430   4.769   4.004   3.874  1.1550 -0.0063  2.6905
  177SOL    HW2 1431   4.860   4.125   3.814 -1.0720  1.0184  1.2335
  178SOL     OW 1432   6.072   3.787   4.243  0.2573  0.1674  0.1726
  178SOL    HW1 1433   6.050   3.844   4.164  2.1973 -0.6248 -0.9973
  178SOL    HW2 1434   6.032   3.696   4.231  1.2842 -0.2303 -0.3586
  179SOL     OW 1435   1.189   2.918   4.599 -0.1067 -0.2670  0.2051
  179SOL    HW1 1436   1.129   2.840   4.615 -0.6186  0.5130  2.6052
  179SOL    HW2 1437   1.212   2.961   4.687  2.1850  0.8077 -0.8200
  180SOL     OW 1438   6.827   1.617   2.970  0.0872 -0.5667 -0.2437
  180SOL    HW1 1439   6.767   1.641   2.893 -0.0562  0.5171  0.1841
  180SOL    HW2 1440   6.897   1.688   2.980  0.4004 -0.9523  0.3244
  181SOL     OW 1441   3.134   6.901   3.215 -0.3625 -0.3877 -0.3858
  181SOL    HW1 1442   3.068   6.865   3.281 -1.2150  0.1061 -0.9533
  181SOL    HW2 1443   3.180   6.980   3.254 -0.4185 -0.4708 -0.1492
  182SOL     OW 1444   2.110   5.600   3.134 -0.5171 -0.6924  0.3133
  182SOL    HW1 1445   2.078   5.576   3.226  0.9599  1.6289  1.5229
  182SOL    HW2 1446   2.065   5.684   3.104 -0.5782 -1.1330 -0.8907
  183SOL     OW 1447   0.524   2.323   4.526  0.3729  0.6886 -0.4526
  183SOL    HW1 1448   0.440   2.288   4.486  1.1213 -0.7381 -0.8189
  183SOL    HW2 1449   0.602   2.274   4.489  1.3718  1.9038 -0.0207
  184SOL     OW 1450   0.372   6.141   2.986 -0.6587 -0.0262  0.2050
  184SOL    HW1 1451   0.384   6.139   3.086  0.6005  0.8745  0.0944
  184SOL    HW2 1452   0.374   6.236   2.954  0.3486 -0.3737 -0.8192
  185SOL     OW 1453   7.000   3.241   0.538 -0.3465  0.0611  0.1639
  185SOL    HW1 1454   6.958   3.331   0.552 -1.0835 -0.5310  2.0196
  185SOL    HW2 1455   7.097   3.253   0.514 -0.5443  1.3469 -0.0676
  186SOL     OW 1456   1.469   5.657   5.150 -0.3842  0.5247 -0.2840
  186SOL    HW1 1457   1.499   5.691   5.061  2.7595  0.8557  0.7854
  186SOL    HW2 1458   1.379   5.696   5.172 -1.1152  0.6390 -3.1369
  187SOL     OW 1459   4.604   6.679   3.373  0.0507 -0.1274  0.6117
  187SOL    HW1 1460   4.701   6.656   3.366  0.5629  1.8415  0.6844
  187SOL    HW2 1461   4.576   6.732   3.293 -1.1694 -1.2798  0.2440
  188SOL     OW 1462   0.153   2.839   2.398 -0.6478  0.1018 -0.0685
  188SOL    HW1 1463   0.213   2.762   2.414  0.5152  0.5437 -1.9864
  188SOL    HW2 1464   0.058   2.808   2.395 -0.3405 -0.9570  0.8316
  189SOL     OW 1465   5.955   6.302   5.639  0.1852 -0.0616  0.8655
  189SOL    HW1 1466   5.897   6.222   5.654  0.1865  0.2110  2.5019
  189SOL    HW2 1467   5.995   6.298   5.547 -1.8739 -0.5818 -0.0473
  190SOL     OW 1468   1.373   2.192   2.315  0.0063  0.2296  0.0902
  190SOL    HW1 1469   1.297   2.252   2.339  1.4639  2.6145 -0.9165
  190SOL    HW2 1470   1.419   2.228   2.234  2.0732 -1.2672  0.5296
  191SOL     OW 1471   3.011   6.721   3.958 -0.4091  0.3533  0.0796
  191SOL    HW1 1472   2.938   6.673   3.910  0.7409 -1.1373 -0.2756
  191SOL    HW2 1473   2.976   6.755   4.045 -1.4533 -0.6153  0.0758
  192SOL     OW 1474   6.780   0.876   2.473 -0.2669 -0.0085 -0.5465
  192SOL    HW1 1475   6.688   0.865   2.433 -0.2944  0.4139 -0.6003
  192SOL    HW2 1476   6.844   0.903   2.402 -0.1106 -0.2519 -0.4980
  193SOL     OW 1477   1.499   5.427   2.425  0.1447  0.1819 -0.4052
  193SOL    HW1 1478   1.455   5.481   2.497 -1.6867  0.3906 -1.6185
  193SOL    HW2 1479   1.447   5.344   2.409  0.8610 -0.1472 -1.1104
  194SOL     OW 1480   1.523   3.364   6.599  0.3607 -0.6178  0.1446
  194SOL    HW1 1481   1.486   3.456   6.611  0.1300 -0.6846 -0.0448
  194SOL    HW2 1482   1.489   3.326   6.513  3.0398  0.3753 -1.4743
  195SOL     OW 1483   3.662   1.524   3.463 -0.0165 -0.2276 -0.3931
  195SOL    HW1 1484   3.649   1.540   3.561 -0.5129 -3.2116  0.1302
  195SOL    HW2 1485   3.619   1.598   3.411  0.2110  1.4043  1.5909
  196SOL     OW 1486   3.634   5.342   2.442 -0.3074 -0.1705 -0.3230
  196SOL    HW1 1487   3.644   5.274   2.368  1.6468 -2.2685  1.7081
  196SOL    HW2 1488   3.575   5.305   2.513 -0.4081  0.8984  0.1633
  197SOL     OW 1489   2.968   1.596   5.268  0.0749 -0.3507  0.2816
  197SOL    HW1 1490   2.982   1.497   5.275 -0.0527 -0.5631 -1.9371
  197SOL    HW2 1491   2.871   1.617   5.275 -0.4238 -0.8850 -3.2417
  198SOL     OW 1492   2.887   4.094   0.056 -0.3331  0.5340  0.2584
  198SOL    HW1 1493   2.922   4.105  -0.037  1.6437 -1.8606  0.6230
  198SOL    HW2 1494   2.823   4.168   0.076 -0.8316  1.1315 -2.9719
  199SOL     OW 1495   5.885   4.035   2.155 -0.4387 -0.5185  0.5852
  199SOL    HW1 1496   5.844   3.967   2.095  0.6354 -0.1140 -0.6628
  199SOL    HW2 1497   5.825   4.115   2.160 -1.2658 -1.1681  1.3176
  200SOL     OW 1498   3.307   6.156   1.909  0.6002 -0.9203 -0.3631
  200SOL    HW1 1499   3.405   6.139   1.924  0.5078 -0.1163  1.3687
  200SOL    HW2 1500   3.270   6.206   1.987 -1.0646 -0.6360 -1.3034
  201SOL     OW 1501   3.193   6.795   3.596  0.1790  0.2666  0.3796
  201SOL    HW1 1502   3.126   6.842   3.537  0.9718 -0.5498 -1.2268
  201SOL    HW2 1503   3.179   6.696   3.590  0.7367  0.1453  1.0032
  202SOL     OW 1504   6.463   5.858   6.705  0.2701  0.3358 -0.1420
  202SOL    HW1 1505   6.379   5.807   6.726 -0.2592  1.1090 -0.3241
  202SOL    HW2 1506   6.466   5.941   6.761  1.4742 -0.2311  0.6682
  203SOL     OW 1507   5.773   1.672   1.514 -0.0579 -0.0317 -0.4678
  203SOL    HW1 1508   5.837   1.749   1.508 -0.9628  0.7938  0.0594
  203SOL    HW2 1509   5.680   1.707   1.527 -0.4214 -1.2386  0.3536
  204SOL     OW 1510   4.408   5.890   6.095 -0.1236  0.6833  0.6029
  204SOL    HW1 1511   4.376   5.796   6.086  1.4407  0.1328  0.4399
  204SOL    HW2 1512   4.343   5.942   6.151 -0.5777 -0.7188  1.4371
  205SOL     OW 1513   1.965   1.871   3.378  0.4552  0.3177  0.6607
  205SOL    HW1 1514   1.886   1.892   3.320  0.2311  1.3587  1.3200
  205SOL    HW2 1515   1.961   1.926   3.461  2.9879  2.0551 -0.2431
  206SOL     OW 1516   4.896   2.101   4.833  0.1226  0.5056  0.2320
  206SOL    HW1 1517   4.851   2.189   4.823 -1.9276 -0.3609  1.2355
  206SOL    HW2 1518   4.887   2.069   4.927 -1.4072 -1.8568 -0.6271
  207SOL     OW 1519   3.021   0.263   6.461 -0.7315 -0.1441 -0.2285
  207SOL    HW1 1520   2.998   0.166   6.452 -1.5184  0.0500 -0.4512
  207SOL    HW2 1521   3.044   0.284   6.556  0.7486 -0.8113 -0.4310
  208SOL     OW 1522   6.684   4.212   4.385  0.0245  0.0601 -0.5414
  208SOL    HW1 1523   6.651   4.300   4.353 -0.2877  0.3838  0.6133
  208SOL    HW2 1524   6.661   4.201   4.482 -0.7972 -1.6848 -0.8824
  209SOL     OW 1525   5.630   0.272   1.159 -0.2489 -0.1608  0.6109
  209SOL    HW1 1526   5.664   0.235   1.072  0.4478  0.0106  0.8046
  209SOL    HW2 1527   5.707   0.302   1.214 -0.8085  3.2851 -0.2743
  210SOL     OW 1528   6.781   2.379   4.354  0.0364 -0.0035  0.1431
  210SOL    HW1 1529   6.815   2.307   4.293 -1.2473  0.8370 -1.6686
  210SOL    HW2 1530   6.804   2.356   4.449  0.7067 -2.1765 -0.4768
  211SOL     OW 1531   3.980   6.659   3.823  0.5994 -0.0077  0.6614
  211SOL    HW1 1532   4.055   6.626   3.880  0.9023  0.2795  0.4351
  211SOL    HW2 1533   3.894   6.654   3.874  1.1539  2.2006  1.9337
  212SOL     OW 1534   2.248   6.925   1.080 -0.2197  0.8361  0.1274
  212SOL    HW1 1535   2.336   6.929   1.127 -0.0850 -1.2122  0.1354
  212SOL    HW2 1536   2.240   6.839   1.030 -2.8948  0.1381  1.5322
  213SOL     OW 1537   5.240   5.573   1.513 -0.1449  0.0411  0.0914
  213SOL    HW1 1538   5.199   5.520   1.587  0.2060  0.2240  0.4223
  213SOL    HW2 1539   5.241   5.519   1.429  2.2598 -1.3934  0.9376
  214SOL     OW 1540   2.928   5.505   6.402  0.0508  0.1760  0.0391
  214SOL    HW1 1541   2.918   5.582   6.465  3.0754  0.0639  0.8088
  214SOL    HW2 1542   3.005   5.522   6.340 -0.5619 -1.3402 -1.2212
  215SOL     OW 1543   2.534   4.553   3.023  0.4645  0.0175 -0.3017
  215SOL    HW1 1544   2.465   4.625   3.009 -1.1453 -1.6017 -1.1964
  215SOL    HW2 1545   2.625   4.591   3.011 -0.4042  1.4782 -2.9974
  216SOL     OW 1546   5.705   0.308   6.936  0.6191 -0.5738  0.4233
  216SOL    HW1 1547   5.681   0.397   6.895 -0.6370 -1.8818 -1.8894
  216SOL    HW2 1548   5.641   0.286   7.009  0.5127  0.1167  0.5458
  217SOL     OW 1549   6.240   6.532   6.872 -0.0305 -0.1510  0.5279
  217SOL    HW1 1550   6.158   6.589   6.879  1.7821  2.4795  2.4949
  217SOL    HW2 1551   6.237   6.461   6.942 -0.6996 -0.1556  0.4987
  218SOL     OW 1552   6.367   6.687   2.100 -0.0600 -0.3082  0.2094
  218SOL    HW1 1553   6.435   6.749   2.061 -1.0626  0.2855 -0.6703
  218SOL    HW2 1554   6.406   6.637   2.177  0.9903  0.8845  0.4678
  219SOL     OW 1555   5.480   1.972   5.586 -0.5388  0.3083  0.1755
  219SOL    HW1 1556   5.470   1.992   5.489  0.0672  1.5053  0.3438
  219SOL    HW2 1557   5.390   1.968   5.630 -0.8451 -0.7545 -0.5124
  220SOL     OW 1558   2.238   6.973   2.789  0.8407  0.0121 -0.4028
  220SOL    HW1 1559   2.309   6.995   2.722 -1.0383 -1.3894 -3.0304
  220SOL    HW2 1560   2.154   7.020   2.765 -0.0059 -0.8152  0.8032
  221SOL     OW 1561   2.904   2.213   1.044 -0.4744 -0.7793  0.8391
  221SOL    HW1 1562   2.945   2.151   1.111 -0.0141 -2.2806 -0.7451
  221SOL    HW2 1563   2.968   2.227   0.968 -0.0538  2.6735  1.6710
  222SOL     OW 1564   6.305   1.939   5.720 -0.3877  0.7156 -0.0070
  222SOL    HW1 1565   6.337   1.889   5.639 -2.0947  0.5593 -0.6451
  222SOL    HW2 1566   6.367   2.015   5.739 -0.6885  1.6461 -2.3787
  223SOL     OW 1567   0.776   0.615   6.829  0.5609 -0.1937 -0.1431
  223SOL    HW1 1568   0.833   0.695   6.849 -1.0626  0.9095  0.3340
  223SOL    HW2 1569   0.774   0.556   6.910  0.7047 -0.0269 -0.0148
  224SOL     OW 1570   1.428   5.164   1.794 -0.3077  0.6028 -0.2682
  224SOL    HW1 1571   1.504   5.229   1.802  0.4687 -0.4764  2.0005
  224SOL    HW2 1572   1.355   5.191   1.857 -0.8807  0.4145 -0.8432
  225SOL     OW 1573   1.312   4.089   4.045  0.2410  0.1540 -0.5742
  225SOL    HW1 1574   1.309   4.148   4.125 -1.0327 -0.3647 -0.2081
  225SOL    HW2 1575   1.359   4.003   4.068  0.0459  0.0848 -0.4316
  226SOL     OW 1576   1.214   4.385   1.189  0.5399 -0.0842 -0.3800
  226SOL    HW1 1577   1.268   4.394   1.106  0.3347 -1.8504 -0.7395
  226SOL    HW2 1578   1.120   4.360   1.165  0.4093 -0.3436  0.3758
  227SOL     OW 1579   5.304   3.150   2.453  0.0245  0.0965  0.7370
  227SOL    HW1 1580   5.388   3.204   2.445 -1.0635  1.8115  0.4579
  227SOL    HW2 1581   5.304   3.079   2.383  2.8878 -2.3692  2.9829
  228SOL     OW 1582   0.887   0.911   0.821  0.3941  0.2529  0.5307
  228SOL    HW1 1583   0.906   1.009   0.822  0.2962  0.2739  1.8386
  228SOL    HW2 1584   0.965   0.861   0.857 -0.2458  0.0080  1.6327
  229SOL     OW 1585   3.792   2.987   2.208 -0.0364 -0.5925  0.0255
  229SOL    HW1 1586   3.760   3.034   2.126 -0.9723  1.0960  1.3013
  229SOL    HW2 1587   3.871   3.035   2.245  1.4704 -2.3410 -0.7842
  230SOL     OW 1588   1.724   5.745   6.525  0.0765 -0.1552  0.1616
  230SOL    HW1 1589   1.656   5.674   6.541 -0.3763  0.1516 -0.3805
  230SOL    HW2 1590   1.681   5.824   6.482  0.0908  1.3927  2.7842
  231SOL     OW 1591   0.532   4.254   2.681 -0.4371  0.2467  0.2583
  231SOL    HW1 1592   0.618   4.231   2.636 -0.5860  0.6467 -0.2423
  231SOL    HW2 1593   0.512   4.186   2.751  0.2094  0.0683  0.2755
  232SOL     OW 1594   5.376   6.893   0.533  0.2629  0.3780 -0.1298
  232SOL    HW1 1595   5.389   6.939   0.445 -0.9070  1.9042  0.4531
  232SOL    HW2 1596   5.283   6.856   0.539  0.3493  0.2342  0.4512
  233SOL     OW 1597   4.817   6.071   1.701 -0.1647 -0.1263 -0.3837
  233SOL    HW1 1598   4.889   6.140   1.689  1.2038 -1.7338 -1.9169
  233SOL    HW2 1599   4.735   6.115   1.738  1.3925  1.8666  0.8841
  234SOL     OW 1600   6.739   4.190   1.334 -0.3853  0.0572 -0.7687
  234SOL    HW1 1601   6.834   4.168   1.360  0.5737  2.6502 -1.8076
  234SOL    HW2 1602   6.693   4.232   1.412  0.4826  1.9985 -1.2433
  235SOL     OW 1603   1.943   4.216   0.466  0.0005  0.3838  0.3421
  235SOL    HW1 1604   2.016   4.153   0.440 -1.8573 -0.7649 -2.6160
  235SOL    HW2 1605   1.878   4.168   0.526  1.6615  1.5048  3.2613
  236SOL     OW 1606   6.577   5.862   4.059  0.1890 -0.2952  0.0433
  236SOL    HW1 1607   6.583   5.925   4.136 -1.9107 -0.8279  0.7103
  236SOL    HW2 1608   6.559   5.913   3.975  2.8420  0.3244 -0.2335
  237SOL     OW 1609   0.728   0.996   2.423 -0.2681 -0.3035 -0.3921
  237SOL    HW1 1610   0.758   1.067   2.486 -0.7851  0.9508 -1.5004
  237SOL    HW2 1611   0.645   0.952   2.458  0.0777 -0.3949  0.3189
  238SOL     OW 1612   2.693   2.106   2.618  0.4762 -0.7306 -0.2230
  238SOL    HW1 1613   2.754   2.148   2.550  2.6987  1.6528  2.9528
  238SOL    HW2 1614   2.737   2.026   2.657 -0.4497 -1.6314 -0.9861
  239SOL     OW 1615   0.102   6.457   3.704  0.2555 -0.4514 -0.3539
  239SOL    HW1 1616   0.164   6.450   3.782  0.8188 -1.1561 -0.8596
  239SOL    HW2 1617   0.050   6.372   3.695 -1.8496  0.6044  0.9124
  240SOL     OW 1618   5.529   0.180   3.222 -0.3560 -0.1815  0.1540
  240SOL    HW1 1619   5.561   0.260   3.272 -3.1503  2.4108 -1.8051
  240SOL    HW2 1620   5.485   0.116   3.285  0.2597  0.7202  1.5405
  241SOL     OW 1621   0.624   4.488   1.346  0.4273  0.2519 -0.1216
  241SOL    HW1 1622   0.581   4.482   1.256 -0.6836 -0.1604  0.4163
  241SOL    HW2 1623   0.570   4.549   1.405  1.1784  0.5714  0.2516
  242SOL     OW 1624   3.001   3.579   3.450 -0.2402  0.0127  0.5402
  242SOL    HW1 1625   2.958   3.664   3.419  0.9683  0.0907 -1.0860
  242SOL    HW2 1626   2.944   3.501   3.424 -1.4627  0.2973  2.2315
  243SOL     OW 1627   3.526   3.140   0.229  0.0109 -0.3704 -0.1686
  243SOL    HW1 1628   3.533   3.235   0.258 -0.0818 -0.3715 -0.1422
  243SOL    HW2 1629   3.587   3.083   0.284 -0.9867 -0.5493  0.7902
  244SOL     OW 1630   1.230   5.905   3.252 -0.7697  0.3888 -0.1801
  244SOL    HW1 1631   1.156   5.925   3.317 -0.4851  0.7107  0.0458
  244SOL    HW2 1632   1.310   5.960   3.275  0.6248 -2.1378  1.4677
  245SOL     OW 1633   0.964   2.776   5.301  0.1821  0.2060 -0.1262
  245SOL    HW1 1634   0.893   2.844   5.282 -1.5369 -1.3120  0.6122
  245SOL    HW2 1635   1.054   2.817   5.286 -0.7748  2.6595  0.3451
  246SOL     OW 1636   2.119   0.860   0.532 -0.0764 -0.2092 -0.1899
  246SOL    HW1 1637   2.105   0.863   0.631 -0.1150 -0.4212 -0.1874
  246SOL    HW2 1638   2.045   0.808   0.490 -0.2794  0.2316 -0.3753
  247SOL     OW 1639   4.149   5.934   1.376  0.3134 -0.2815  0.6205
  247SOL    HW1 1640   4.069   5.875   1.368  0.8371 -0.7621 -1.5502
  247SOL    HW2 1641   4.168   5.952   1.473 -2.5898  0.1202  1.1983
  248SOL     OW 1642   3.443   1.391   2.366 -0.4356 -0.5543 -0.2829
  248SOL    HW1 1643   3.392   1.340   2.297  0.5352 -1.0030 -0.6871
  248SOL    HW2 1644   3.517   1.333   2.402  1.8728  1.1225 -2.0706
  249SOL     OW 1645   4.503   2.548   1.548  0.0665  0.5742 -0.4309
  249SOL    HW1 1646   4.407   2.558   1.522 -0.2658 -0.1050  0.4742
  249SOL    HW2 1647   4.508   2.505   1.639  1.2283 -0.3333 -0.9019
  250SOL     OW 1648   0.186   2.153   2.615  0.6120 -0.1798 -0.1502
  250SOL    HW1 1649   0.248   2.213   2.563  2.2940 -0.6022  1.2650
  250SOL    HW2 1650   0.162   2.197   2.702 -0.0921 -0.5627 -0.1425
  251SOL     OW 1651   2.772   2.029   0.843  0.2933 -0.3695 -0.2078
  251SOL    HW1 1652   2.758   2.100   0.774 -2.5944 -0.1948  0.4207
  251SOL    HW2 1653   2.781   2.072   0.933 -3.5125 -0.6717  0.4750
  252SOL     OW 1654   1.998   5.007   6.217 -0.1759 -0.1328  0.2478
  252SOL    HW1 1655   1.902   5.018   6.193 -0.0355 -1.0068 -0.7666
  252SOL    HW2 1656   2.006   4.992   6.316 -1.2263 -1.5010  0.1576
  253SOL     OW 1657   6.807   2.902   0.692  0.3219 -0.4975  0.5062
  253SOL    HW1 1658   6.729   2.841   0.673 -0.6822  0.6566  0.7661
  253SOL    HW2 1659   6.776   2.978   0.750  0.9427  1.5848 -1.7573
  254SOL     OW 1660   3.260   6.607   1.249  0.0723  0.5159  0.4738
  254SOL    HW1 1661   3.265   6.527   1.308 -0.2053 -0.6764 -1.0527
  254SOL    HW2 1662   3.348   6.655   1.250  0.1651  0.3388  1.5911
  255SOL     OW 1663   2.727   0.470   2.562  0.5804 -0.0410  0.2446
  255SOL    HW1 1664   2.750   0.478   2.465 -3.3287 -1.5030 -1.0238
  255SOL    HW2 1665   2.726   0.373   2.588 -1.5349  0.0487  0.7153
  256SOL     OW 1666   4.287   5.621   5.767 -0.2337  0.2948 -0.4077
  256SOL    HW1 1667   4.265   5.524   5.771  0.9482  0.0471  0.6200
  256SOL    HW2 1668   4.278   5.653   5.672 -1.7005 -0.5302 -0.5729
  257SOL     OW 1669   1.800   3.989   2.956  0.2290  0.0240  0.5109
  257SOL    HW1 1670   1.738   4.016   3.030 -0.8232 -0.0904 -0.3058
  257SOL    HW2 1671   1.747   3.966   2.874  1.4093  1.4236 -0.7126
  258SOL     OW 1672   5.016   4.962   2.161  0.5637  0.0353 -0.6632
  258SOL    HW1 1673   5.075   4.931   2.086  0.2002 -1.2029 -0.4566
  258SOL    HW2 1674   4.930   4.995   2.123  0.3106 -0.7544 -0.8027
  259SOL     OW 1675   4.740   5.764   0.483 -0.0566  0.3785  0.7923
  259SOL    HW1 1676   4.753   5.724   0.392 -0.6835  1.4764  0.1809
  259SOL    HW2 1677   4.803   5.723   0.548  1.2829  0.4425 -0.4194
  260SOL     OW 1678   1.422   2.921   5.254 -0.0248  0.4200 -0.1597
  260SOL    HW1 1679   1.362   2.966   5.319  0.6731  2.5267 -0.8951
  260SOL    HW2 1680   1.518   2.940   5.278  0.2587  0.2862 -1.1251
  261SOL     OW 1681   0.457   4.533   6.016 -0.7797  0.2344  0.1776
  261SOL    HW1 1682   0.428   4.477   6.093 -1.3678 -1.6892 -1.3522
  261SOL    HW2 1683   0.437   4.485   5.931  0.5839  1.9186 -1.1692
  262SOL     OW 1684   6.052   0.283   4.247 -0.0265 -0.0026  0.1961
  262SOL    HW1 1685   6.128   0.219   4.254  0.6039  0.7716  0.5042
  262SOL    HW2 1686   6.061   0.354   4.316 -0.9108  0.2253  0.0908
  263SOL     OW 1687   3.404   1.328   0.384 -0.1487  0.2373 -0.4982
  263SOL    HW1 1688   3.341   1.307   0.460  1.3074  1.0311  0.9912
  263SOL    HW2 1689   3.423   1.426   0.383 -1.5611  0.5844 -3.1124
  264SOL     OW 1690   1.952   1.398   5.585  0.0887 -0.3673 -0.1280
  264SOL    HW1 1691   2.006   1.367   5.663  0.5035 -0.1568 -0.3294
  264SOL    HW2 1692   1.891   1.472   5.614 -1.2752 -1.6704  0.4773
  265SOL     OW 1693   6.885   1.944   6.486 -0.0023 -0.3124  0.6609
  265SOL    HW1 1694   6.904   1.850   6.514  1.2686 -0.8354 -1.7023
  265SOL    HW2 1695   6.911   1.956   6.390  0.3103  2.6084  1.0366
  266SOL     OW 1696   5.510   4.237   2.352  0.3589  0.0037 -0.5404
  266SOL    HW1 1697   5.467   4.151   2.324  0.9970  0.0940 -1.8443
  266SOL    HW2 1698   5.562   4.275   2.276 -1.5037  2.5936 -0.6382
  267SOL     OW 1699   2.214   2.407   0.158  0.2899 -0.0806  0.1047
  267SOL    HW1 1700   2.176   2.327   0.113 -0.7910 -0.2698  1.2934
  267SOL    HW2 1701   2.144   2.449   0.217  0.6938  1.9994 -0.8204
  268SOL     OW 1702   5.627   3.506   1.301 -0.2623 -0.3591 -0.3141
  268SOL    HW1 1703   5.601   3.481   1.394 -0.8229  0.7377 -0.1660
  268SOL    HW2 1704   5.707   3.565   1.303 -0.5802  0.0849 -0.4909
  269SOL     OW 1705   5.881   0.964   6.520 -0.4136  0.2583  0.3373
  269SOL    HW1 1706   5.913   0.881   6.565 -0.1839  0.3149  0.2794
  269SOL    HW2 1707   5.945   0.990   6.448  1.3309  2.3314  2.4886
  270SOL     OW 1708   6.422   4.429   2.385  0.4091  0.0611  0.0361
  270SOL    HW1 1709   6.433   4.495   2.310  2.3028  0.8656  0.9654
  270SOL    HW2 1710   6.511   4.394   2.412 -0.3876 -1.3741  0.9395
  271SOL     OW 1711   6.284   1.516   2.641  0.4942  0.6123 -0.1607
  271SOL    HW1 1712   6.239   1.427   2.650  0.4765  0.3320 -2.4719
  271SOL    HW2 1713   6.258   1.574   2.717  0.8543 -1.4892  1.6743
  272SOL     OW 1714   0.364   3.956   4.686 -0.6914  0.5595  0.5244
  272SOL    HW1 1715   0.281   4.009   4.704 -1.6838 -0.8642  0.3454
  272SOL    HW2 1716   0.344   3.858   4.697  1.2136  0.2205  1.4489
  273SOL     OW 1717   3.435   2.852   2.576 -0.2113 -0.0848  0.1123
  273SOL    HW1 1718   3.477   2.838   2.665  1.6218  1.1634 -0.4852
  273SOL    HW2 1719   3.371   2.929   2.581 -0.9791 -0.7367  0.5797
  274SOL     OW 1720   2.182   2.794   0.100 -0.1757  0.3377  0.0804
  274SOL    HW1 1721   2.113   2.817   0.031 -0.6813 -0.3158  0.3492
  274SOL    HW2 1722   2.252   2.736   0.058 -0.5068 -0.0974  0.1202
  275SOL     OW 1723   5.910   5.774   0.408  0.3860 -0.9455  0.2124
  275SOL    HW1 1724   5.938   5.678   0.405 -1.3445 -1.6618  2.7649
  275SOL    HW2 1725   5.827   5.786   0.353  1.1815 -0.6391 -0.9478
  276SOL     OW 1726   2.140   1.692   5.496 -0.5090 -0.1328  0.1344
  276SOL    HW1 1727   2.102   1.684   5.404  0.1325  2.1167 -0.3910
  276SOL    HW2 1728   2.228   1.645   5.500 -0.8843 -0.8769 -0.1556
  277SOL     OW 1729   2.200   6.930   6.456 -0.1724  0.1248 -0.7076
  277SOL    HW1 1730   2.130   6.919   6.527  1.0465 -0.0334  0.5289
  277SOL    HW2 1731   2.240   7.021   6.462 -0.3105  0.2421 -1.4576
  278SOL     OW 1732   2.755   6.127   3.450 -0.2131  0.1858  0.2507
  278SOL    HW1 1733   2.698   6.159   3.526 -1.9458 -0.0656 -0.8777
  278SOL    HW2 1734   2.821   6.197   3.425 -1.2185  1.2397  0.4726
  279SOL     OW 1735   4.642   6.034   6.488 -0.0008  0.0228 -0.5996
  279SOL    HW1 1736   4.650   5.959   6.554 -0.3200 -1.2152 -1.9348
  279SOL    HW2 1737   4.672   6.119   6.532 -0.3485 -0.7207  1.1893
  280SOL     OW 1738   5.095   6.575   0.827 -0.2736 -0.4261 -0.3619
  280SOL    HW1 1739   5.013   6.631   0.817  1.2340  1.6795 -1.6936
  280SOL    HW2 1740   5.148   6.607   0.906  0.1262 -0.6247 -0.5484
  281SOL     OW 1741   0.418   6.585   5.287 -0.0407 -0.5956 -0.1987
  281SOL    HW1 1742   0.355   6.526   5.338  0.6447 -0.5698  0.7195
  281SOL    HW2 1743   0.404   6.572   5.189 -1.0722 -1.0092 -0.0144
  282SOL     OW 1744   2.259   4.626   6.384 -0.2142 -0.1529  0.3574
  282SOL    HW1 1745   2.245   4.592   6.477  1.6959 -2.5373 -0.1341
  282SOL    HW2 1746   2.334   4.693   6.384  0.8178 -1.2772  0.3699
  283SOL     OW 1747   3.335   4.933   3.594 -0.2129 -0.2517  0.5021
  283SOL    HW1 1748   3.373   5.021   3.621 -1.3212  0.2425  0.5315
  283SOL    HW2 1749   3.405   4.879   3.547  0.3816  0.7883  0.1585
  284SOL     OW 1750   2.308   1.854   0.373 -0.2339  0.2258 -0.1694
  284SOL    HW1 1751   2.359   1.782   0.326  0.2002 -0.0596  0.7235
  284SOL    HW2 1752   2.315   1.841   0.472 -0.6590  1.1469 -0.0074
  285SOL     OW 1753   4.122   1.478   1.082 -0.3142 -0.2608 -0.7113
  285SOL    HW1 1754   4.132   1.486   0.983  0.6499 -0.7008 -0.6608
  285SOL    HW2 1755   4.174   1.399   1.115  2.7398  2.0584  0.6139
  286SOL     OW 1756   3.351   6.460   6.129 -0.2244 -0.1409 -0.3469
  286SOL    HW1 1757   3.373   6.496   6.039 -0.5122 -0.6161 -0.6090
  286SOL    HW2 1758   3.413   6.385   6.151  1.7785  1.7941  1.0793
  287SOL     OW 1759   4.908   4.948   6.620 -0.0143 -0.0299  0.7027
  287SOL    HW1 1760   5.006   4.954   6.641  0.1059  0.1396  0.1144
  287SOL    HW2 1761   4.857   4.937   6.705  0.5840 -1.1286  0.9449
  288SOL     OW 1762   4.438   1.725   0.737 -0.1591 -0.3429 -0.0274
  288SOL    HW1 1763   4.404   1.803   0.685  0.1185 -0.2082 -0.0095
  288SOL    HW2 1764   4.392   1.721   0.826 -1.7106 -1.4261 -0.8403
  289SOL     OW 1765   4.908   3.496   2.245 -0.3269  0.2318  0.1817
  289SOL    HW1 1766   4.997   3.484   2.201  0.1900  1.5427  0.8059
  289SOL    HW2 1767   4.839   3.517   2.176 -0.1052 -0.5387 -0.2816
  290SOL     OW 1768   0.899   5.619   0.059 -0.5595  0.3306  0.2145
  290SOL    HW1 1769   0.872   5.524   0.078  1.5415 -0.3732 -0.0518
  290SOL    HW2 1770   0.842   5.681   0.112 -2.3977 -1.0393 -0.0743
  291SOL     OW 1771   6.058   4.429   4.347  0.2999 -0.0054  0.2499
  291SOL    HW1 1772   6.097   4.518   4.372 -0.7458 -0.3048  3.2505
  291SOL    HW2 1773   6.044   4.427   4.248 -0.2304  3.4362  0.1114
  292SOL     OW 1774   5.053   2.319   0.765  0.1565 -0.2066  0.5418
  292SOL    HW1 1775   4.975   2.277   0.812  0.8714  0.0301  1.9991
  292SOL    HW2 1776   5.064   2.276   0.675 -0.9927 -0.9901  0.7438
  293SOL     OW 1777   1.138   4.718   1.965 -0.3057 -0.0113  0.6074
  293SOL    HW1 1778   1.087   4.741   1.882  2.3426 -0.6177 -1.3066
  293SOL    HW2 1779   1.130   4.620   1.983  1.9586 -0.5628 -1.0728
  294SOL     OW 1780   3.622   3.204   4.333 -0.6892  0.3855  0.1808
  294SOL    HW1 1781   3.707   3.245   4.301 -0.4302  0.5693  1.0742
  294SOL    HW2 1782   3.642   3.139   4.406 -1.5326  3.3046  3.3009
  295SOL     OW 1783   1.039   0.300   6.135 -0.2353 -0.4763 -0.0637
  295SOL    HW1 1784   0.952   0.298   6.184  0.0379 -0.0704  0.4486
  295SOL    HW2 1785   1.059   0.209   6.100 -0.9150 -0.5506 -0.2820
  296SOL     OW 1786   0.358   1.625   5.821 -0.7029 -0.1314 -0.0759
  296SOL    HW1 1787   0.436   1.583   5.775 -0.2281 -0.2215  0.8027
  296SOL    HW2 1788   0.385   1.657   5.912 -2.3112 -2.7052  1.4565
  297SOL     OW 1789   2.965   6.824   4.664 -0.0574  0.5135  0.1298
  297SOL    HW1 1790   3.021   6.906   4.675 -0.0845  0.5290  0.1523
  297SOL    HW2 1791   3.006   6.749   4.717 -0.0553  0.5236  0.1431
  298SOL     OW 1792   3.109   2.247   0.818  0.3047 -0.3411  0.7180
  298SOL    HW1 1793   3.128   2.340   0.852 -1.4216  0.1630  0.3888
  298SOL    HW2 1794   3.179   2.185   0.853  1.8516  1.1664  0.4738
  299SOL     OW 1795   2.277   4.130   4.747 -0.1327 -0.2454  0.1849
  299SOL    HW1 1796   2.285   4.110   4.845  0.4572 -0.8612  0.0169
  299SOL    HW2 1797   2.317   4.220   4.728 -0.1491 -0.1724  0.4853
  300SOL     OW 1798   2.651   1.394   2.824 -0.4570  0.0599 -0.3952
  300SOL    HW1 1799   2.692   1.425   2.739  0.1378 -0.9792 -0.5070
  300SOL    HW2 1800   2.617   1.472   2.876  1.0717  0.9036 -0.6112
  301SOL     OW 1801   6.562   0.091   5.662 -0.6230 -0.6815  0.5564
  301SOL    HW1 1802   6.556   0.004   5.712 -1.3824  0.1684  2.0184
  301SOL    HW2 1803   6.471   0.129   5.651 -0.5021 -0.9333 -1.7477
  302SOL     OW 1804   1.072   6.357   3.396 -0.4464 -0.1169  0.2857
  302SOL    HW1 1805   1.093   6.342   3.300  1.1981  0.2290  0.5557
  302SOL    HW2 1806   0.989   6.412   3.405 -0.4196  0.1394 -0.9359
  303SOL     OW 1807   3.564   6.065   1.991 -0.1847 -0.3673 -0.0101
  303SOL    HW1 1808   3.638   6.131   2.005 -1.2588  0.8424  0.2165
  303SOL    HW2 1809   3.592   5.997   1.924  0.8842  0.4702 -0.4439
  304SOL     OW 1810   3.105   0.114   5.371 -0.0289 -0.0592  0.2897
  304SOL    HW1 1811   3.169   0.190   5.356 -1.2205  0.6336 -1.6829
  304SOL    HW2 1812   3.020   0.150   5.410  0.3752 -0.8311  1.9660
  305SOL     OW 1813   3.454   0.804   5.209 -0.3125 -0.0251 -0.5911
  305SOL    HW1 1814   3.478   0.728   5.149  4.4286 -0.7049  1.6519
  305SOL    HW2 1815   3.410   0.769   5.292  0.9824 -0.2927  0.0099
  306SOL     OW 1816   3.107   5.551   6.225 -0.2860 -0.1222  0.3209
  306SOL    HW1 1817   3.060   5.603   6.154 -1.3626 -0.6578  0.6117
  306SOL    HW2 1818   3.204   5.546   6.204 -0.2632  1.3944 -0.0735
  307SOL     OW 1819   0.688   0.377   6.307  0.0843  0.1798  0.3467
  307SOL    HW1 1820   0.589   0.389   6.306  0.1003  0.3705 -1.3534
  307SOL    HW2 1821   0.726   0.420   6.389 -0.9792  2.2990 -0.2104
  308SOL     OW 1822   1.502   3.706   3.584  0.5478  0.2288 -0.2370
  308SOL    HW1 1823   1.428   3.772   3.570 -1.4781 -1.1574  2.7743
  308SOL    HW2 1824   1.513   3.651   3.502 -0.8622  1.3629 -1.2444
  309SOL     OW 1825   4.071   1.920   1.787  0.6136 -0.3902  0.2059
  309SOL    HW1 1826   4.067   2.011   1.746 -2.5152  0.2805  1.6945
  309SOL    HW2 1827   4.003   1.861   1.744  0.0560 -0.8725  1.6822
  310SOL     OW 1828   1.658   5.729   2.922 -0.4017  0.0648 -0.2401
  310SOL    HW1 1829   1.684   5.754   3.015  2.3734 -1.8801 -0.3772
  310SOL    HW2 1830   1.706   5.789   2.857  1.1189 -1.3081 -0.4383
  311SOL     OW 1831   4.469   1.265   1.668 -0.5856 -0.0001  0.1435
  311SOL    HW1 1832   4.560   1.285   1.633 -1.0216  1.0309 -0.4608
  311SOL    HW2 1833   4.414   1.348   1.670 -1.7725 -0.7316 -0.2904
  312SOL     OW 1834   0.616   4.325   4.503 -0.3063 -0.2421  0.0982
  312SOL    HW1 1835   0.534   4.379   4.524  0.3731  0.9291 -0.1736
  312SOL    HW2 1836   0.648   4.280   4.587 -0.5749  0.2130  0.4520
  313SOL     OW 1837   2.485   6.958   1.205  0.1081  0.0417 -0.4169
  313SOL    HW1 1838   2.482   7.058   1.219 -1.9339  0.1933 -1.5679
  313SOL    HW2 1839   2.524   6.915   1.287  1.7356  1.7948 -0.1803
  314SOL     OW 1840   2.523   4.013   0.570  0.1266 -0.0018 -0.6073
  314SOL    HW1 1841   2.522   3.928   0.517 -0.6284  0.6243 -1.6337
  314SOL    HW2 1842   2.499   4.090   0.510  1.4850  1.0430  0.1297
  315SOL     OW 1843   2.931   3.381   0.588 -0.4639  0.1616 -0.2108
  315SOL    HW1 1844   2.917   3.430   0.502  1.9688  0.0734 -0.7124
  315SOL    HW2 1845   2.933   3.446   0.664  1.1440  0.6897 -0.6849
  316SOL     OW 1846   6.987   6.966   3.514  0.3027  0.2113 -0.3171
  316SOL    HW1 1847   7.027   6.880   3.548  0.0298  0.6186  1.0834
  316SOL    HW2 1848   6.890   6.953   3.495 -0.4714  0.8581  2.6374
  317SOL     OW 1849   6.050   0.505   4.072  0.1867 -0.1248  0.1488
  317SOL    HW1 1850   6.003   0.492   3.985  0.3822 -0.8272  0.1450
  317SOL    HW2 1851   6.071   0.416   4.113 -0.9053  0.1843  1.4626
  318SOL     OW 1852   3.619   5.841   1.835 -0.3267 -0.7309 -0.0139
  318SOL    HW1 1853   3.714   5.832   1.864 -0.2324 -0.8276 -0.3503
  318SOL    HW2 1854   3.564   5.772   1.881 -0.4922  0.2514  1.2910
  319SOL     OW 1855   0.776   6.746   7.005 -0.2675  0.8951 -0.2320
  319SOL    HW1 1856   0.852   6.804   7.036 -0.1423  0.5651  0.0863
  319SOL    HW2 1857   0.695   6.765   7.060  0.3380 -0.7069  1.3251
  320SOL     OW 1858   6.271   3.731   0.696  0.7285  0.4164  0.3343
  320SOL    HW1 1859   6.244   3.805   0.759 -1.7170  0.5400 -0.7343
  320SOL    HW2 1860   6.338   3.766   0.631  0.1982  1.4872  0.3321
  321SOL     OW 1861   0.377   1.215   1.146 -0.8643  0.1515  0.1399
  321SOL    HW1 1862   0.334   1.275   1.078 -0.1082  1.2372  0.5788
  321SOL    HW2 1863   0.439   1.152   1.099 -1.0900  0.2299 -0.2685
  322SOL     OW 1864   5.437   2.484   0.927  0.3550 -0.4665  0.0205
  322SOL    HW1 1865   5.480   2.404   0.886  1.4576  0.5278 -0.8246
  322SOL    HW2 1866   5.482   2.567   0.894 -1.3229  0.5623  0.1984
  323SOL     OW 1867   0.437   6.005   6.283  0.0766  0.0213 -0.2082
  323SOL    HW1 1868   0.537   6.012   6.281  0.1861  0.6383  2.9915
  323SOL    HW2 1869   0.398   6.082   6.232  1.1652 -0.5608 -2.0243
  324SOL     OW 1870   1.615   3.719   2.566  0.6690 -0.1495 -0.3207
  324SOL    HW1 1871   1.711   3.695   2.552  1.3696  1.3190  1.5982
  324SOL    HW2 1872   1.607   3.785   2.640 -1.8924 -0.6251 -0.0623
  325SOL     OW 1873   1.716   2.521   2.643 -0.1753  0.4622 -0.3472
  325SOL    HW1 1874   1.638   2.572   2.679  0.6491  0.1882  1.9549
  325SOL    HW2 1875   1.776   2.583   2.593 -0.0281  1.4157  0.9825
  326SOL     OW 1876   6.895   3.287   2.496 -0.3106  0.5470 -0.1326
  326SOL    HW1 1877   6.980   3.260   2.452 -0.4424  0.1537 -0.1475
  326SOL    HW2 1878   6.830   3.320   2.428 -0.8911 -1.0245 -0.3900
  327SOL     OW 1879   3.577   6.947   1.774  0.2424 -0.3765 -0.7234
  327SOL    HW1 1880   3.514   7.024   1.771  0.1178 -0.4991 -1.6410
  327SOL    HW2 1881   3.549   6.879   1.705  0.4987 -1.1217 -0.1086
  328SOL     OW 1882   2.012   2.358   3.954 -0.2496 -0.1969  0.0948
  328SOL    HW1 1883   1.958   2.338   3.873 -0.8869 -0.3409  0.5495
  328SOL    HW2 1884   1.979   2.441   3.998  1.7261  1.3619 -1.2037
  329SOL     OW 1885   3.984   1.394   5.162  0.6838 -0.5222 -0.7945
  329SOL    HW1 1886   3.917   1.403   5.088  1.1030  0.4241 -1.0728
  329SOL    HW2 1887   3.956   1.450   5.239  0.1735 -1.6187 -0.1565
  330SOL     OW 1888   0.759   4.395   0.827 -0.0790  0.2145  0.2742
  330SOL    HW1 1889   0.797   4.458   0.895  1.7918 -1.8102  1.2325
  330SOL    HW2 1890   0.832   4.359   0.769 -1.1101 -0.8855 -0.3932
  331SOL     OW 1891   1.198   3.127   3.832  0.2048  0.1978 -0.5980
  331SOL    HW1 1892   1.165   3.060   3.765 -0.8377  0.8832 -0.7940
  331SOL    HW2 1893   1.280   3.092   3.876  1.1399 -0.1234 -2.4868
  332SOL     OW 1894   5.895   1.176   3.971  0.0618  0.1075 -0.6892
  332SOL    HW1 1895   5.990   1.206   3.981 -0.6975  2.6205 -0.2945
  332SOL    HW2 1896   5.874   1.107   4.039  1.4938 -0.2110 -0.5412
  333SOL     OW 1897   4.985   1.993   5.836 -0.0777 -0.0876  0.4350
  333SOL    HW1 1898   4.993   1.935   5.917  0.7189 -1.2222 -0.4102
  333SOL    HW2 1899   4.914   1.956   5.776  0.3322 -0.1140 -0.0413
  334SOL     OW 1900   6.026   5.504   2.570 -0.6394  0.2503  0.2282
  334SOL    HW1 1901   6.048   5.478   2.664 -0.2672 -1.4666 -0.3005
  334SOL    HW2 1902   6.110   5.533   2.523 -0.4748 -0.7814 -0.1298
  335SOL     OW 1903   2.418   0.829   5.442  0.2566  0.0417  0.0467
  335SOL    HW1 1904   2.389   0.802   5.534  0.4839  0.2562  0.1789
  335SOL    HW2 1905   2.485   0.902   5.448 -2.2705  2.5859 -0.3586
  336SOL     OW 1906   6.631   3.117   2.261 -0.8639  0.5330  0.3783
  336SOL    HW1 1907   6.718   3.132   2.214  0.6558 -1.2563  2.4145
  336SOL    HW2 1908   6.599   3.024   2.242 -1.6365  0.7261  0.7018
  337SOL     OW 1909   5.226   5.480   1.267 -0.3021  0.0290 -0.6623
  337SOL    HW1 1910   5.203   5.385   1.286 -0.7155  0.0719 -0.9217
  337SOL    HW2 1911   5.259   5.488   1.173  1.2160 -0.0999 -0.1521
  338SOL     OW 1912   0.611   2.233   2.515  0.1015 -0.7727  0.5495
  338SOL    HW1 1913   0.669   2.248   2.435 -1.0376  0.3659 -0.0883
  338SOL    HW2 1914   0.617   2.311   2.577  0.5854 -1.4252  1.3540
  339SOL     OW 1915   0.534   4.746   6.364  0.4071 -0.2159  0.0240
  339SOL    HW1 1916   0.529   4.677   6.436  0.2257 -0.4463 -0.2086
  339SOL    HW2 1917   0.508   4.835   6.402  1.8234 -0.0318  0.6238
  340SOL     OW 1918   6.575   3.114   1.822 -0.0745 -0.2622 -0.7603
  340SOL    HW1 1919   6.490   3.123   1.874  0.2363 -1.2067 -0.0622
  340SOL    HW2 1920   6.565   3.040   1.756  0.9278 -1.9712  0.8925
  341SOL     OW 1921   6.236   2.994   1.359 -0.3999  0.1240 -0.3622
  341SOL    HW1 1922   6.234   3.093   1.341  2.1634  0.2560 -0.3583
  341SOL    HW2 1923   6.179   2.974   1.439 -0.7806  1.6401 -0.2139
  342SOL     OW 1924   4.928   2.167   4.258 -0.0593 -0.1637  0.5023
  342SOL    HW1 1925   4.852   2.153   4.321 -0.6478 -2.2179 -0.5836
  342SOL    HW2 1926   4.893   2.180   4.166  0.8606  0.8521  0.2789
  343SOL     OW 1927   6.256   6.210   6.497 -0.4671  0.1069  0.1440
  343SOL    HW1 1928   6.191   6.284   6.478 -1.9861 -0.6296  2.0570
  343SOL    HW2 1929   6.283   6.213   6.593  0.7516 -0.8508 -0.1413
  344SOL     OW 1930   4.050   1.192   5.313  0.5164  0.4593  0.4474
  344SOL    HW1 1931   4.078   1.219   5.221  1.1486 -1.1891  0.1166
  344SOL    HW2 1932   3.964   1.236   5.337 -1.3565 -1.5096 -2.2048
  345SOL     OW 1933   2.008   5.505   4.200  0.7538  0.4270 -0.5519
  345SOL    HW1 1934   2.020   5.415   4.244  0.4348 -0.4320 -2.1484
  345SOL    HW2 1935   2.070   5.513   4.123  1.0877  1.7869 -0.1620
  346SOL     OW 1936   2.849   5.061   5.218  0.2508 -0.2567 -0.2147
  346SOL    HW1 1937   2.849   5.004   5.300 -1.7151 -0.5520 -0.3642
  346SOL    HW2 1938   2.826   5.155   5.244  0.4471 -0.1724 -0.3412
  347SOL     OW 1939   6.734   0.707   5.644  0.4192  0.1670 -0.2546
  347SOL    HW1 1940   6.770   0.771   5.712  0.8667 -0.0107 -0.3221
  347SOL    HW2 1941   6.809   0.669   5.591  0.1510 -0.4316 -0.2077
  348SOL     OW 1942   5.989   2.906   5.848  0.5770  0.2034  0.0722
  348SOL    HW1 1943   6.037   2.922   5.934 -1.9832  0.5386  1.5422
  348SOL    HW2 1944   5.891   2.891   5.866  0.1425 -0.9904 -2.6843
  349SOL     OW 1945   3.208   5.721   2.779  0.2976  0.4350 -0.2336
  349SOL    HW1 1946   3.272   5.793   2.803  0.6414  0.3142 -0.7859
  349SOL    HW2 1947   3.119   5.741   2.820  0.8875  0.1810  1.2326
  350SOL     OW 1948   6.058   0.032   2.214  0.0657 -0.3547  0.2630
  350SOL    HW1 1949   6.066   0.132   2.210 -2.0253 -0.0231  2.3404
  350SOL    HW2 1950   5.991   0.001   2.146  0.5659 -0.3402 -0.2437
  351SOL     OW 1951   1.958   3.292   3.584 -0.5507  0.2354 -0.0997
  351SOL    HW1 1952   1.882   3.318   3.645  1.1911  0.8887  1.9458
  351SOL    HW2 1953   1.962   3.355   3.507 -2.1230  0.1082 -0.3261
  352SOL     OW 1954   0.431   4.974   4.105 -0.3635 -0.2390 -0.0579
  352SOL    HW1 1955   0.432   5.037   4.027  0.2100  0.4838  0.5207
  352SOL    HW2 1956   0.360   5.002   4.169 -0.8337 -0.8339 -0.3008
  353SOL     OW 1957   7.006   4.246   6.104 -0.0655 -0.1052 -0.0248
  353SOL    HW1 1958   7.063   4.226   6.025  0.0121  1.2279 -0.3351
  353SOL    HW2 1959   6.960   4.334   6.091 -1.5275 -0.7263  0.5971
  354SOL     OW 1960   2.196   0.243   1.945 -0.2553  0.7423 -0.2628
  354SOL    HW1 1961   2.200   0.335   1.984 -0.3431  2.1941 -3.3391
  354SOL    HW2 1962   2.100   0.216   1.933 -0.2912 -0.8613  2.7625
  355SOL     OW 1963   3.561   2.280   0.782  0.1264 -0.0848 -0.9141
  355SOL    HW1 1964   3.648   2.231   0.778  0.9066  1.0680  0.7913
  355SOL    HW2 1965   3.535   2.294   0.878 -0.8396  1.4756 -1.3710
  356SOL     OW 1966   2.609   5.693   4.911 -0.5108  0.0606 -0.5570
  356SOL    HW1 1967   2.614   5.784   4.952  0.2691  0.3774 -1.3394
  356SOL    HW2 1968   2.555   5.697   4.827  0.3573 -0.0030 -1.1181
  357SOL     OW 1969   4.089   2.153   0.400  0.4157 -0.1035  0.4844
  357SOL    HW1 1970   4.165   2.110   0.449 -0.6602 -2.1646  0.4522
  357SOL    HW2 1971   4.032   2.082   0.359  0.8449  1.4377 -3.2044
  358SOL     OW 1972   5.821   0.662   4.123  0.4751  0.1064  0.0561
  358SOL    HW1 1973   5.789   0.624   4.210 -1.5764 -4.4978 -2.3446
  358SOL    HW2 1974   5.912   0.625   4.102  0.9409  1.1585  0.1437
  359SOL     OW 1975   4.435   1.933   2.937 -0.5124 -0.1596 -0.1634
  359SOL    HW1 1976   4.396   1.944   3.028  1.4108  0.6480  0.6266
  359SOL    HW2 1977   4.397   2.001   2.875  0.6081  1.5601  0.9510
  360SOL     OW 1978   5.644   0.536   1.231  0.2046  0.0289  0.2294
  360SOL    HW1 1979   5.629   0.465   1.163  0.1713  0.2668 -0.0147
  360SOL    HW2 1980   5.721   0.593   1.203  0.3554 -0.0333  0.5232
  361SOL     OW 1981   3.878   0.212   3.251 -0.1295  0.0908 -0.2313
  361SOL    HW1 1982   3.821   0.225   3.332 -0.8746 -0.6739 -0.6181
  361SOL    HW2 1983   3.975   0.224   3.275 -0.4629  1.9307  0.3244
  362SOL     OW 1984   6.703   2.898   0.251 -0.1350 -0.2223  0.3912
  362SOL    HW1 1985   6.717   2.984   0.299 -0.8065 -0.0080  0.2240
  362SOL    HW2 1986   6.660   2.832   0.313  2.2133 -1.1354  1.1435
  363SOL     OW 1987   5.030   0.468   1.038 -0.5620  0.4172  0.0120
  363SOL    HW1 1988   5.052   0.426   0.950  1.1863  0.7949  0.2201
  363SOL    HW2 1989   4.992   0.400   1.100  0.1822 -0.3517 -0.3597
  364SOL     OW 1990   3.650   2.979   4.707 -0.3378  0.2124 -0.4425
  364SOL    HW1 1991   3.716   2.940   4.770 -0.2019  2.2974  0.7983
  364SOL    HW2 1992   3.682   2.968   4.613  1.2304  0.2299  0.0702
  365SOL     OW 1993   1.862   1.685   2.192  0.7865  0.1221  0.2563
  365SOL    HW1 1994   1.820   1.605   2.236 -0.2388  1.3103  1.5181
  365SOL    HW2 1995   1.962   1.679   2.201  0.7501 -1.1949 -0.0216
  366SOL     OW 1996   6.758   0.268   5.641 -0.5123  0.1222 -0.2388
  366SOL    HW1 1997   6.767   0.344   5.706 -1.1277  0.5255 -0.6139
  366SOL    HW2 1998   6.691   0.202   5.675 -0.2343 -0.0797 -0.0795
  367SOL     OW 1999   1.905   0.492   6.996  0.0212  0.6942  0.3192
  367SOL    HW1 2000   1.904   0.529   6.903  2.0408  0.4011  0.1519
  367SOL    HW2 2001   1.908   0.568   7.062  0.9523  0.8883  0.0640
  368SOL     OW 2002   6.521   4.659   5.851 -0.2165 -0.2804 -0.4418
  368SOL    HW1 2003   6.450   4.613   5.797  0.0534  0.5281 -1.5220
  368SOL    HW2 2004   6.599   4.597   5.862  0.3150 -0.0035 -2.2405
  369SOL     OW 2005   6.303   0.011   5.381 -0.2480 -0.4662 -0.1220
  369SOL    HW1 2006   6.300   0.064   5.296  0.6515 -0.3092 -0.0641
  369SOL    HW2 2007   6.312   0.073   5.459  1.0746 -0.7106 -0.0717
  370SOL     OW 2008   5.662   2.732   3.546  0.2322 -0.2581 -0.3890
  370SOL    HW1 2009   5.625   2.680   3.469  1.4938 -0.5884 -0.8064
  370SOL    HW2 2010   5.667   2.674   3.627  0.8290 -0.5509 -0.6257
  371SOL     OW 2011   0.314   2.542   0.447  0.1115  0.3324  0.8628
  371SOL    HW1 2012   0.310   2.467   0.514 -0.5135 -1.5643 -1.1876
  371SOL    HW2 2013   0.265   2.516   0.364 -0.5219  3.2541  0.2177
  372SOL     OW 2014   0.546   5.057   5.114 -0.5356  0.3264 -0.4811
  372SOL    HW1 2015   0.605   5.130   5.080  0.7783 -0.1345  0.6838
  372SOL    HW2 2016   0.512   5.081   5.205  1.3165 -1.1508  0.6953
  373SOL     OW 2017   1.566   5.500   4.463 -0.0711 -0.4275  0.8331
  373SOL    HW1 2018   1.570   5.447   4.378  0.9231 -0.7523  1.0630
  373SOL    HW2 2019   1.474   5.497   4.501 -0.2970 -1.0524  0.2451
  374SOL     OW 2020   5.856   3.899   1.404  0.1835 -0.1365 -0.3598
  374SOL    HW1 2021   5.759   3.920   1.417 -0.3424 -1.7429 -1.3476
  374SOL    HW2 2022   5.888   3.843   1.481  0.2988  0.2687 -0.1090
  375SOL     OW 2023   6.606   2.048   0.209  0.6385  0.2505  0.1079
  375SOL    HW1 2024   6.659   2.042   0.294  1.3403 -0.9144 -0.3880
  375SOL    HW2 2025   6.668   2.041   0.131 -0.1777 -0.4920 -0.4896
  376SOL     OW 2026   0.644   3.357   5.795  0.0734 -0.6724 -0.1688
  376SOL    HW1 2027   0.669   3.272   5.748  0.2550 -0.3822 -0.6021
  376SOL    HW2 2028   0.574   3.337   5.863 -1.0888 -0.9027 -1.3876
  377SOL     OW 2029   3.004   3.163   4.093  0.5266 -0.0477  0.6471
  377SOL    HW1 2030   2.955   3.235   4.043  2.5948  1.7830  1.1010
  377SOL    HW2 2031   2.943   3.122   4.160 -1.5284 -0.7254 -1.5057
  378SOL     OW 2032   5.880   2.853   6.633  0.4630 -0.6322  0.1167
  378SOL    HW1 2033   5.784   2.853   6.604  0.8942  0.4805 -1.4318
  378SOL    HW2 2034   5.939   2.844   6.554  1.7283  3.9453  0.2501
  379SOL     OW 2035   0.760   6.245   2.421  0.1881 -0.0705  0.1285
  379SOL    HW1 2036   0.696   6.308   2.378 -0.1662 -0.2890  0.3343
  379SOL    HW2 2037   0.805   6.190   2.351 -1.0788 -1.0902  0.0811
  380SOL     OW 2038   5.461   2.882   1.654 -0.2157 -0.3583  0.2507
  380SOL    HW1 2039   5.496   2.961   1.704 -1.5829 -0.1184  0.8784
  380SOL    HW2 2040   5.504   2.878   1.564  1.1017  0.1305  0.8318
  381SOL     OW 2041   6.883   3.652   1.714 -0.2091 -0.0119 -0.0488
  381SOL    HW1 2042   6.968   3.631   1.763  0.3767 -0.5162 -1.2378
  381SOL    HW2 2043   6.892   3.742   1.671  0.5553 -0.9177 -1.8723
  382SOL     OW 2044   4.119   0.178   5.296  0.5398  0.0109 -0.0857
  382SOL    HW1 2045   4.160   0.096   5.335  1.0635  0.8029  1.1049
  382SOL    HW2 2046   4.186   0.225   5.239  0.3497 -0.1936 -0.4842
  383SOL     OW 2047   5.210   1.432   1.164  0.1536 -0.0672  0.4227
  383SOL    HW1 2048   5.196   1.523   1.202  1.6559  0.5413 -0.3816
  383SOL    HW2 2049   5.299   1.396   1.195  0.5191 -0.3655 -0.8963
  384SOL     OW 2050   4.047   3.093   2.289 -0.9694  0.0705  0.0317
  384SOL    HW1 2051   4.140   3.058   2.295 -1.2582 -0.5511  1.0310
  384SOL    HW2 2052   4.032   3.131   2.197  0.5497  1.0234  0.1445
  385SOL     OW 2053   4.212   3.978   6.207  0.5083 -0.1467  0.7455
  385SOL    HW1 2054   4.122   3.999   6.167  0.7430 -2.8881 -1.5640
  385SOL    HW2 2055   4.282   3.986   6.136  1.6407 -0.8786  1.7466
  386SOL     OW 2056   3.795   5.717   3.111 -0.2005 -0.0886 -0.4911
  386SOL    HW1 2057   3.794   5.773   3.194 -1.0015 -3.0195  1.6479
  386SOL    HW2 2058   3.702   5.709   3.075 -0.4347 -1.5542  0.3785
  387SOL     OW 2059   3.318   0.064   4.631 -0.6757  0.0422 -0.4113
  387SOL    HW1 2060   3.337   0.082   4.535  1.2089 -0.5986 -0.1998
  387SOL    HW2 2061   3.351   0.141   4.686  1.3113 -1.0190 -0.0443
  388SOL     OW 2062   4.478   1.770   4.424 -0.3143 -0.0494 -0.1500
  388SOL    HW1 2063   4.456   1.672   4.431 -0.2107 -0.0566  0.0863
  388SOL    HW2 2064   4.568   1.787   4.465  0.6185 -0.1936 -1.9897
  389SOL     OW 2065   1.474   2.018   6.947  0.1386 -0.8435  0.0003
  389SOL    HW1 2066   1.443   2.057   6.860  0.9903  0.8256  0.3914
  389SOL    HW2 2067   1.451   1.921   6.951  1.6091 -1.4154 -2.8458
  390SOL     OW 2068   2.972   4.655   6.714  0.2901  0.3444 -1.1156
  390SOL    HW1 2069   3.041   4.665   6.786 -0.2226 -0.1037 -0.5481
  390SOL    HW2 2070   2.928   4.743   6.697  0.5034  0.4786 -0.9699
  391SOL     OW 2071   1.288   1.078   6.629 -0.7387  0.0228  0.0095
  391SOL    HW1 2072   1.362   1.143   6.609  0.8977 -1.6354  0.4222
  391SOL    HW2 2073   1.204   1.109   6.584 -0.4152  3.1179  1.2757
  392SOL     OW 2074   5.128   0.095   0.411  0.6062  0.1343  0.4026
  392SOL    HW1 2075   5.035   0.122   0.385  0.1628 -0.3285  1.4373
  392SOL    HW2 2076   5.186   0.090   0.330  0.1399  1.9976 -0.0909
  393SOL     OW 2077   0.248   5.713   3.012  0.3863 -0.3056  0.4596
  393SOL    HW1 2078   0.291   5.803   3.017  0.9241 -0.4071 -1.4992
  393SOL    HW2 2079   0.172   5.715   2.947  0.1855 -1.2047  0.6400
  394SOL     OW 2080   3.205   2.570   1.205  0.1430 -0.0698  0.1025
  394SOL    HW1 2081   3.184   2.586   1.302  0.4301  2.3754 -0.1790
  394SOL    HW2 2082   3.264   2.490   1.197 -0.9056 -1.0809  1.8106
  395SOL     OW 2083   1.098   2.031   6.722  0.6140 -0.0085  0.6167
  395SOL    HW1 2084   1.006   2.010   6.756 -0.0016 -0.4196 -1.1580
  395SOL    HW2 2085   1.125   2.121   6.754 -0.3747  0.0811  1.2612
  396SOL     OW 2086   4.433   0.609   2.713  0.6901 -0.7318  0.2540
  396SOL    HW1 2087   4.339   0.582   2.690  0.5110 -0.9121  1.1849
  396SOL    HW2 2088   4.493   0.585   2.637  0.0567 -1.0068 -0.1738
  397SOL     OW 2089   2.829   5.315   1.796  0.2399 -0.5685 -0.1863
  397SOL    HW1 2090   2.788   5.284   1.882 -0.8813 -0.5075 -0.6779
  397SOL    HW2 2091   2.768   5.380   1.752  1.5508  0.6545 -0.2589
  398SOL     OW 2092   2.101   3.539   3.471 -0.0160  0.5043 -0.5066
  398SOL    HW1 2093   2.176   3.475   3.486 -0.4015 -0.0020 -0.7056
  398SOL    HW2 2094   2.118   3.623   3.522 -0.5183 -0.5690  1.5430
  399SOL     OW 2095   5.846   5.217   4.846 -0.7960 -0.5435  0.2005
  399SOL    HW1 2096   5.786   5.169   4.910  0.2438 -2.2630 -0.0573
  399SOL    HW2 2097   5.940   5.182   4.855 -0.4321 -0.1184 -1.5607
  400SOL     OW 2098   4.832   1.508   2.398 -0.2985 -0.1437  0.3576
  400SOL    HW1 2099   4.854   1.532   2.304  2.3646  0.7964  1.1295
  400SOL    HW2 2100   4.821   1.409   2.406  1.3996 -0.4411 -0.6186
  401SOL     OW 2101   4.047   2.533   1.141  0.3667 -0.3663  0.3066
  401SOL    HW1 2102   3.971   2.467   1.144  1.0991 -1.1904  1.7623
  401SOL    HW2 2103   4.114   2.503   1.073 -0.1862 -0.1008 -0.3677
  402SOL     OW 2104   3.649   5.152   3.059  0.3291  0.1252  0.2593
  402SOL    HW1 2105   3.647   5.115   3.152  1.5086 -0.0388  0.2315
  402SOL    HW2 2106   3.642   5.251   3.062  0.4815  0.1268  0.5253
  403SOL     OW 2107   5.197   6.642   1.088  0.3536 -0.4201 -0.5384
  403SOL    HW1 2108   5.289   6.683   1.089  1.0107 -1.8438 -1.2394
  403SOL    HW2 2109   5.135   6.700   1.142  1.8583  0.0897  0.7167
  404SOL     OW 2110   4.782   4.814   6.863  0.3259 -0.1103  0.6813
  404SOL    HW1 2111   4.707   4.765   6.908 -1.5086  0.4783 -1.5209
  404SOL    HW2 2112   4.852   4.749   6.835 -0.8604 -1.1720  0.0588
  405SOL     OW 2113   3.663   6.489   1.455 -0.4907 -0.2706  0.1394
  405SOL    HW1 2114   3.581   6.469   1.400 -1.1740  1.9222  0.2453
  405SOL    HW2 2115   3.642   6.475   1.551 -0.3181 -0.9544  0.0832
  406SOL     OW 2116   0.005   0.737   5.103 -0.4276 -0.6578 -0.4962
  406SOL    HW1 2117   0.055   0.787   5.173  1.1404 -3.3281  0.4478
  406SOL    HW2 2118  -0.089   0.772   5.098  0.2004  1.4537  0.9222
  407SOL     OW 2119   1.938   1.848   1.384  0.2903  0.2479  0.2010
  407SOL    HW1 2120   1.878   1.848   1.304  1.3924 -1.1775 -0.6872
  407SOL    HW2 2121   2.012   1.782   1.369  1.2030  0.8418  1.9044
  408SOL     OW 2122   3.746   6.690   3.956  0.6087 -0.0387 -0.1808
  408SOL    HW1 2123   3.653   6.721   3.938  0.4880 -0.1767  0.2039
  408SOL    HW2 2124   3.746   6.626   4.033  1.0484  0.1098 -0.0563
  409SOL     OW 2125   1.074   0.829   1.339 -1.1447 -0.4759  0.4210
  409SOL    HW1 2126   0.985   0.798   1.372 -1.8910  1.5947  0.5600
  409SOL    HW2 2127   1.064   0.922   1.302  1.1278  0.1488  1.2274
  410SOL     OW 2128   4.034   0.950   0.136  0.1300  0.1326 -0.1590
  410SOL    HW1 2129   3.968   0.901   0.079 -0.6199 -0.2419  0.9923
  410SOL    HW2 2130   3.991   1.032   0.173 -0.0752 -0.6507  1.4358
  411SOL     OW 2131   3.594   1.390   4.861 -0.4236  0.3218  0.0382
  411SOL    HW1 2132   3.657   1.320   4.894 -0.7520 -0.0812 -0.1765
  411SOL    HW2 2133   3.561   1.365   4.769  2.1513  2.4747 -1.6192
  412SOL     OW 2134   1.555   4.370   2.872  0.0909  0.5068  0.1866
  412SOL    HW1 2135   1.623   4.410   2.933  1.3125 -2.4526  0.9499
  412SOL    HW2 2136   1.598   4.345   2.786 -0.4868  0.3287 -0.0581
  413SOL     OW 2137   5.226   5.134   6.597  0.6654 -0.0018 -0.2193
  413SOL    HW1 2138   5.264   5.041   6.593 -0.2097 -0.3918  0.1849
  413SOL    HW2 2139   5.178   5.154   6.512  0.6858  0.0120 -0.2279
  414SOL     OW 2140   4.362   7.012   0.801  0.2301  0.1710  0.4231
  414SOL    HW1 2141   4.443   6.954   0.814  0.3567  0.0747 -0.6881
  414SOL    HW2 2142   4.333   7.007   0.705 -0.5678  0.8963  0.6193
  415SOL     OW 2143   4.502   0.960   0.495 -0.0112  0.2968 -0.1317
  415SOL    HW1 2144   4.570   0.994   0.561 -0.8755 -0.1485  1.0300
  415SOL    HW2 2145   4.424   1.022   0.492  1.2491  1.9442 -3.0170
  416SOL     OW 2146   4.601   0.717   3.125 -0.0014  0.1079 -0.0432
  416SOL    HW1 2147   4.523   0.741   3.067 -1.7035 -2.9393  0.7940
  416SOL    HW2 2148   4.676   0.683   3.069  0.7880  2.9123 -0.8447
  417SOL     OW 2149   4.890   2.335   2.297 -0.0400  0.5246 -0.4400
  417SOL    HW1 2150   4.947   2.411   2.268 -0.4732  0.1785 -2.3550
  417SOL    HW2 2151   4.796   2.367   2.308  0.0837  0.6073  0.4177
  418SOL     OW 2152   4.847   3.116   5.645 -0.3712 -0.2858  0.0991
  418SOL    HW1 2153   4.817   3.021   5.643 -0.6801 -0.1953  0.3707
  418SOL    HW2 2154   4.768   3.176   5.658 -0.1348 -0.0116  0.2834
  419SOL     OW 2155   0.294   2.769   3.904  0.0553  0.3973 -0.1572
  419SOL    HW1 2156   0.309   2.810   3.814  1.6820 -0.9245 -0.5418
  419SOL    HW2 2157   0.267   2.673   3.893  0.7376  0.0849  0.7602
  420SOL     OW 2158   3.254   1.097   3.949 -0.3442 -0.1415  0.1527
  420SOL    HW1 2159   3.311   1.171   3.985  2.2753 -2.5575  1.3669
  420SOL    HW2 2160   3.166   1.096   3.998  0.4751  0.8002  1.7193
  421SOL     OW 2161   1.237   5.610   5.576  0.4594 -0.5770  0.7043
  421SOL    HW1 2162   1.158   5.550   5.593 -0.0390 -0.2988 -0.5207
  421SOL    HW2 2163   1.231   5.646   5.483  3.0880 -2.1051 -0.1463
  422SOL     OW 2164   5.747   6.065   2.654 -0.2518  0.1197  0.0581
  422SOL    HW1 2165   5.722   6.046   2.749 -0.7952  1.2120  0.1536
  422SOL    HW2 2166   5.690   6.012   2.592  0.1481 -0.6478  0.3298
  423SOL     OW 2167   4.731   2.268   0.478  0.1109  0.4322  0.0273
  423SOL    HW1 2168   4.715   2.244   0.573  1.0601  0.5030  0.2179
  423SOL    HW2 2169   4.693   2.197   0.418 -1.2449  0.8073  0.4155
  424SOL     OW 2170   0.918   5.655   3.670 -0.3089 -0.2451 -0.0475
  424SOL    HW1 2171   0.819   5.674   3.668 -0.3728 -0.4154  0.9923
  424SOL    HW2 2172   0.968   5.742   3.675 -0.3491 -0.1096 -1.3915
  425SOL     OW 2173   3.811   1.969   1.325 -0.4428  0.3564  0.8234
  425SOL    HW1 2174   3.815   2.067   1.346 -1.4357  1.2599 -2.6214
  425SOL    HW2 2175   3.899   1.938   1.291 -0.6018  0.4887  0.2871
  426SOL     OW 2176   2.904   1.032   6.760  0.7085 -0.1146 -0.5499
  426SOL    HW1 2177   2.988   0.995   6.721  1.2189  0.9040 -0.4366
  426SOL    HW2 2178   2.889   1.125   6.727  0.2420  0.1430  0.3372
  427SOL     OW 2179   0.330   4.562   2.421  0.1915  0.0788 -0.1799
  427SOL    HW1 2180   0.366   4.603   2.337  0.8073 -0.1952 -0.0533
  427SOL    HW2 2181   0.248   4.612   2.450  1.9577  2.4732  1.0078
  428SOL     OW 2182   1.022   2.386   4.451  0.5231  0.1926  0.0673
  428SOL    HW1 2183   1.084   2.454   4.412  2.5097 -0.7126  1.4845
  428SOL    HW2 2184   0.998   2.413   4.544 -0.3450 -0.0359 -0.0841
  429SOL     OW 2185   6.327   0.223   6.993  0.3149  0.2589  0.6922
  429SOL    HW1 2186   6.426   0.228   6.982  0.1874 -0.6072 -1.4367
  429SOL    HW2 2187   6.287   0.180   6.912 -1.6555 -1.0790  2.2729
  430SOL     OW 2188   5.434   3.308   4.613  0.4943  0.5710  0.0635
  430SOL    HW1 2189   5.531   3.330   4.608  0.6251  0.1511  0.6465
  430SOL    HW2 2190   5.399   3.333   4.704  0.2521 -0.0538  0.1424
  431SOL     OW 2191   6.295   1.188   1.313  0.3670 -0.0514  0.5686
  431SOL    HW1 2192   6.386   1.149   1.318  0.6510  0.5918  0.5872
  431SOL    HW2 2193   6.289   1.248   1.233 -0.1500 -0.3615  0.3665
  432SOL     OW 2194   3.593   0.747   2.868 -0.0939 -0.3636 -0.0617
  432SOL    HW1 2195   3.655   0.775   2.941 -1.7634  0.9316  0.9299
  432SOL    HW2 2196   3.520   0.815   2.858 -0.9444 -1.4446 -1.6902
  433SOL     OW 2197   5.372   3.324   1.370 -0.1813 -0.2038  0.2404
  433SOL    HW1 2198   5.371   3.410   1.318  1.2935  0.0964  0.6494
  433SOL    HW2 2199   5.422   3.254   1.318  0.0506 -0.3201  0.6148
  434SOL     OW 2200   6.643   0.524   1.232 -0.2726 -1.0531 -0.2590
  434SOL    HW1 2201   6.599   0.440   1.263 -0.7224 -0.6150  0.3051
  434SOL    HW2 2202   6.574   0.593   1.212  0.1318 -0.4714  0.3007
  435SOL     OW 2203   6.035   4.459   3.551 -0.3221  0.2487 -0.8839
  435SOL    HW1 2204   6.095   4.443   3.474 -1.5967 -0.7606 -1.7155
  435SOL    HW2 2205   6.055   4.548   3.592  1.9466 -0.2057 -0.8738
  436SOL     OW 2206   5.296   5.381   5.328 -0.0867  0.2839  0.2066
  436SOL    HW1 2207   5.212   5.362   5.377 -0.9826 -1.2713 -1.7932
  436SOL    HW2 2208   5.284   5.463   5.271 -0.1769  0.1768  0.0719
  437SOL     OW 2209   2.926   4.899   6.403  0.3578  0.4993  0.4180
  437SOL    HW1 2210   2.898   4.809   6.370 -1.3720  0.2953  2.2814
  437SOL    HW2 2211   2.875   4.969   6.354  0.9732  0.4475 -0.3243
  438SOL     OW 2212   6.532   2.929   5.004  0.4304  0.2556 -0.2712
  438SOL    HW1 2213   6.596   2.853   4.993  0.9598  0.3539  1.7247
  438SOL    HW2 2214   6.438   2.894   5.004  0.6499 -0.3492  0.1947
  439SOL     OW 2215   2.500   2.552   3.420  0.3077  0.3932 -0.1111
  439SOL    HW1 2216   2.441   2.545   3.500 -0.2929 -1.0837 -0.6618
  439SOL    HW2 2217   2.461   2.617   3.355 -0.4729 -0.2150 -0.2581
  440SOL     OW 2218   4.666   4.762   5.215 -0.2054  0.2047 -0.2711
  440SOL    HW1 2219   4.707   4.671   5.213 -1.8399 -0.5803 -0.3040
  440SOL    HW2 2220   4.669   4.802   5.123  0.3917  0.1208 -0.2891
  441SOL     OW 2221   0.727   6.392   5.184  0.1472 -0.5345  0.1035
  441SOL    HW1 2222   0.700   6.306   5.228  3.0795 -0.6750  1.8993
  441SOL    HW2 2223   0.712   6.468   5.247 -0.2038 -0.0359 -0.5703
  442SOL     OW 2224   1.741   5.070   6.107  0.7044  0.1136  0.5574
  442SOL    HW1 2225   1.719   5.166   6.089  1.9132  0.3009 -0.0424
  442SOL    HW2 2226   1.658   5.015   6.098 -0.3781  1.2899  2.6338
  443SOL     OW 2227   5.177   6.141   0.780 -0.0372  0.6248  0.6420
  443SOL    HW1 2228   5.262   6.129   0.728 -0.4025 -0.6555  0.3006
  443SOL    HW2 2229   5.108   6.078   0.746 -0.2818 -0.3225  2.6985
  444SOL     OW 2230   1.113   4.847   0.751 -0.1730 -0.6459 -0.0929
  444SOL    HW1 2231   1.096   4.884   0.660  1.0432 -1.3837 -0.6454
  444SOL    HW2 2232   1.124   4.748   0.746 -0.2854 -0.7249  0.8927
  445SOL     OW 2233   4.596   6.288   4.451  0.3578 -0.4480  0.2243
  445SOL    HW1 2234   4.638   6.362   4.398 -1.4962  1.0633  0.7277
  445SOL    HW2 2235   4.503   6.315   4.477  0.1701 -2.3594  1.7479
  446SOL     OW 2236   2.951   4.789   2.458 -0.1743 -0.1708  0.3646
  446SOL    HW1 2237   2.862   4.748   2.475 -1.1238  2.0368  1.0255
  446SOL    HW2 2238   2.989   4.825   2.543  0.6441  0.2839 -0.1693
  447SOL     OW 2239   0.160   5.828   5.826  0.2245 -0.1534  0.2480
  447SOL    HW1 2240   0.092   5.800   5.759 -1.2598  1.0586  1.1969
  447SOL    HW2 2241   0.143   5.782   5.913  0.1373  0.7276  0.7073
  448SOL     OW 2242   3.552   1.633   3.714  0.5420  0.3355  0.2383
  448SOL    HW1 2243   3.587   1.716   3.758  0.7107  0.4141 -0.0388
  448SOL    HW2 2244   3.467   1.654   3.665  0.3742  0.2566  0.4980
  449SOL     OW 2245   2.193   0.796   4.247 -0.2291  0.1679 -0.3969
  449SOL    HW1 2246   2.114   0.765   4.300 -0.6778 -0.6880 -1.5181
  449SOL    HW2 2247   2.165   0.871   4.186  0.0753  0.5577 -0.0617
  450SOL     OW 2248   2.929   1.060   5.202  0.8914 -0.6443  0.4918
  450SOL    HW1 2249   2.997   1.004   5.156 -1.1234 -1.1010 -2.1678
  450SOL    HW2 2250   2.869   1.002   5.256  0.1370 -0.8170 -0.5050
  451SOL     OW 2251   4.316   0.330   1.846 -0.5981 -0.2822  0.1514
  451SOL    HW1 2252   4.270   0.348   1.759 -0.4204 -2.9876 -0.5925
  451SOL    HW2 2253   4.412   0.309   1.829 -0.4481 -0.3627  1.0586
  452SOL     OW 2254   1.757   1.382   3.885 -0.0546  0.1490  0.6375
  452SOL    HW1 2255   1.775   1.382   3.983 -2.3685  1.2342  1.1378
  452SOL    HW2 2256   1.823   1.324   3.839 -0.1025 -2.0075  3.0695
  453SOL     OW 2257   1.463   0.200   6.368 -0.5072  0.6624 -0.2016
  453SOL    HW1 2258   1.448   0.200   6.467 -2.7434  0.6927 -0.4721
  453SOL    HW2 2259   1.470   0.106   6.336  0.1794  0.6512 -0.0324
  454SOL     OW 2260   5.084   1.171   4.486 -0.4214 -0.5688  0.1810
  454SOL    HW1 2261   5.067   1.162   4.388  0.9893 -1.9691  0.0323
  454SOL    HW2 2262   5.004   1.212   4.530 -1.7007 -1.3598 -1.3157
  455SOL     OW 2263   1.698   4.553   6.822 -0.6792 -0.3054 -0.1844
  455SOL    HW1 2264   1.713   4.516   6.913  0.7335 -1.6121 -0.9079
  455SOL    HW2 2265   1.651   4.485   6.766 -0.9001  0.2125 -0.6396
  456SOL     OW 2266   5.481   2.890   5.768  0.0037  0.0632  0.3416
  456SOL    HW1 2267   5.414   2.840   5.823  0.7049 -0.6417  0.5741
  456SOL    HW2 2268   5.480   2.987   5.793 -0.5240 -0.0458  0.7474
  457SOL     OW 2269   5.660   1.424   0.884 -0.3582  0.3815  0.1632
  457SOL    HW1 2270   5.687   1.341   0.834  0.0491  0.6289 -0.0262
  457SOL    HW2 2271   5.568   1.411   0.920 -0.3563 -0.1016  0.0103
  458SOL     OW 2272   0.884   0.002   2.304  0.6762 -0.0442 -0.0375
  458SOL    HW1 2273   0.854   0.097   2.315  2.7651  0.7834 -0.8467
  458SOL    HW2 2274   0.981  -0.005   2.329  0.9797 -1.6150 -1.4843
  459SOL     OW 2275   5.986   5.723   1.493  0.7142 -0.1940 -0.5776
  459SOL    HW1 2276   6.027   5.632   1.489  3.3088  0.9231 -2.1115
  459SOL    HW2 2277   5.979   5.760   1.400  0.1302  1.3473  0.0545
  460SOL     OW 2278   0.441   3.056   2.760 -0.0461 -0.5453  0.0296
  460SOL    HW1 2279   0.348   3.087   2.782  0.0270  1.0951 -1.6929
  460SOL    HW2 2280   0.437   2.991   2.685  0.2976  1.8418 -2.1874
  461SOL     OW 2281   0.811   1.891   2.521  0.0840 -0.6270 -0.6544
  461SOL    HW1 2282   0.847   1.977   2.558 -1.7411  0.2929 -0.9107
  461SOL    HW2 2283   0.863   1.865   2.440  0.7312  0.1540 -0.5023
  462SOL     OW 2284   0.307   4.308   5.156 -0.0124 -0.0343  0.1106
  462SOL    HW1 2285   0.360   4.388   5.130 -0.1491  0.3754  1.0635
  462SOL    HW2 2286   0.269   4.266   5.074  2.6902 -1.0327 -0.7353
  463SOL     OW 2287   3.073   4.101   0.263  0.2016  0.2235 -0.5516
  463SOL    HW1 2288   3.136   4.025   0.245  1.2573  0.6689  1.0156
  463SOL    HW2 2289   3.028   4.128   0.178  1.7843 -0.4137 -1.6463
  464SOL     OW 2290   5.252   2.595   2.513  0.1526  0.0429  0.0664
  464SOL    HW1 2291   5.341   2.620   2.550  0.7382  0.9068 -1.8408
  464SOL    HW2 2292   5.218   2.514   2.561  1.5820  0.1494  1.3407
  465SOL     OW 2293   5.995   5.595   3.835  0.2358  0.1474  0.2611
  465SOL    HW1 2294   5.903   5.559   3.821  0.2063 -0.1149  1.0968
  465SOL    HW2 2295   6.048   5.531   3.890  0.9624  0.2427 -0.3151
  466SOL     OW 2296   4.741   3.439   6.757  0.5936 -0.2673  0.1189
  466SOL    HW1 2297   4.669   3.409   6.820 -1.1787  0.1895 -1.5952
  466SOL    HW2 2298   4.762   3.364   6.693  0.4302  0.1424 -0.4231
  467SOL     OW 2299   4.768   1.630   0.133 -0.3697 -0.3667  0.1566
  467SOL    HW1 2300   4.670   1.620   0.151 -0.3545  0.8500  1.0677
  467SOL    HW2 2301   4.786   1.612   0.037 -1.8037  1.3076 -0.4791
  468SOL     OW 2302   6.082   1.071   6.716  0.6076  0.3282  0.2949
  468SOL    HW1 2303   6.177   1.065   6.684  0.5478 -0.1545  0.1900
  468SOL    HW2 2304   6.024   1.017   6.655  0.4001 -0.0822  0.8476
  469SOL     OW 2305   2.002   2.075   3.564  0.0857 -0.5805  0.2462
  469SOL    HW1 2306   2.074   2.109   3.624 -0.1633 -1.2661  0.9459
  469SOL    HW2 2307   1.913   2.098   3.603 -0.1836  2.5315 -1.8418
  470SOL     OW 2308   6.515   2.242   1.635  0.0453 -0.1946 -0.3376
  470SOL    HW1 2309   6.580   2.270   1.705  0.0966  0.2089 -0.5455
  470SOL    HW2 2310   6.531   2.146   1.611  0.8122  0.0026 -0.6563
  471SOL     OW 2311   5.693   5.178   6.291 -0.3078 -0.2082 -0.0198
  471SOL    HW1 2312   5.596   5.194   6.308 -0.4757 -1.2510  0.0591
  471SOL    HW2 2313   5.713   5.198   6.195 -0.6024  0.0138 -0.0380
  472SOL     OW 2314   0.223   3.563   6.898  0.0678 -0.4188  0.0127
  472SOL    HW1 2315   0.298   3.541   6.835 -0.8049  0.3493 -1.3607
  472SOL    HW2 2316   0.204   3.485   6.956  0.9101 -1.1703 -0.6871
  473SOL     OW 2317   4.837   0.463   4.591  0.0077  0.7082 -0.2667
  473SOL    HW1 2318   4.862   0.550   4.632  1.6458  1.0740 -1.9165
  473SOL    HW2 2319   4.786   0.479   4.506 -1.1224  0.0138  0.2564
  474SOL     OW 2320   5.157   3.274   3.837 -0.8022  0.4844  0.3339
  474SOL    HW1 2321   5.170   3.213   3.916  0.0671 -0.8777 -0.8198
  474SOL    HW2 2322   5.179   3.368   3.864  2.1303 -0.2995  1.1002
  475SOL     OW 2323   3.944   2.247   5.893 -0.8285  0.0519 -0.0030
  475SOL    HW1 2324   3.946   2.177   5.822  0.4650  0.3388 -0.2623
  475SOL    HW2 2325   4.036   2.281   5.911 -1.5895  3.7591 -1.9522
  476SOL     OW 2326   2.679   5.432   0.121  0.3839  0.5892 -0.3897
  476SOL    HW1 2327   2.764   5.390   0.088  1.6005  0.8688  2.0790
  476SOL    HW2 2328   2.647   5.499   0.055  0.7484 -1.1799 -2.4696
  477SOL     OW 2329   2.753   4.804   1.043  0.2832 -0.6824 -0.3710
  477SOL    HW1 2330   2.689   4.843   0.977 -2.9285 -3.1001  1.0782
  477SOL    HW2 2331   2.838   4.780   0.996 -0.8768  0.0180 -3.0185
  478SOL     OW 2332   5.281   1.174   2.390 -0.1779 -0.0124 -0.0255
  478SOL    HW1 2333   5.252   1.090   2.437 -0.5170  0.5973  0.8730
  478SOL    HW2 2334   5.290   1.248   2.457 -0.4628  0.8202 -0.9014
  479SOL     OW 2335   4.094   3.653   2.494  0.2481  0.4798 -0.6655
  479SOL    HW1 2336   4.021   3.621   2.556  1.5117 -0.5441  0.3501
  479SOL    HW2 2337   4.093   3.753   2.491  0.2456  0.5712  1.1787
  480SOL     OW 2338   6.253   4.191   3.418 -0.3952 -0.6611  0.1586
  480SOL    HW1 2339   6.240   4.113   3.480  0.5292 -0.5281  0.5386
  480SOL    HW2 2340   6.350   4.205   3.403 -0.5720 -1.7170 -2.6551
  481SOL     OW 2341   6.594   5.942   0.018 -0.7683 -0.0144  0.2532
  481SOL    HW1 2342   6.508   5.909   0.057 -0.8856  0.1341  0.1220
  481SOL    HW2 2343   6.576   5.983  -0.072 -0.7676  1.2284  0.7984
  482SOL     OW 2344   5.359   0.418   6.100 -0.3019  0.0780  0.4098
  482SOL    HW1 2345   5.320   0.371   6.021  0.6952 -0.2054  0.0719
  482SOL    HW2 2346   5.337   0.515   6.096  1.1232  0.3675 -1.1077
  483SOL     OW 2347   3.859   1.932   5.270 -0.2728 -0.2404 -0.0161
  483SOL    HW1 2348   3.759   1.933   5.274 -0.2695  1.2938  2.3909
  483SOL    HW2 2349   3.892   2.020   5.234  0.2504 -1.2071 -2.0081
  484SOL     OW 2350   5.217   0.836   1.729 -0.1460  0.0220  0.7492
  484SOL    HW1 2351   5.238   0.922   1.776  0.3498  0.0544  0.4733
  484SOL    HW2 2352   5.302   0.792   1.699 -0.4696  0.2488 -0.5595
  485SOL     OW 2353   1.017   3.430   2.217  0.0207 -0.5317 -1.0072
  485SOL    HW1 2354   1.055   3.338   2.215  2.1890  0.2721  0.0953
  485SOL    HW2 2355   0.982   3.449   2.309 -0.9540 -0.4224 -1.3856
  486SOL     OW 2356   3.199   0.402   5.889  0.0614  0.3565 -0.2971
  486SOL    HW1 2357   3.212   0.318   5.942 -1.0520  0.0217 -0.5296
  486SOL    HW2 2358   3.106   0.405   5.853  0.5293  1.0015 -1.5194
  487SOL     OW 2359   5.331   2.662   4.305  0.1354 -0.0598 -0.0621
  487SOL    HW1 2360   5.430   2.659   4.289 -0.0386  0.4173 -1.4143
  487SOL    HW2 2361   5.283   2.657   4.217 -0.9846  1.7892  0.3863
  488SOL     OW 2362   4.329   4.228   1.025 -0.2146 -0.7264  0.1585
  488SOL    HW1 2363   4.297   4.189   0.939 -1.3531 -0.6848  0.5485
  488SOL    HW2 2364   4.271   4.305   1.051 -0.6794 -1.5208  1.5950
  489SOL     OW 2365   1.863   5.910   2.820 -0.2832 -0.4990  0.2094
  489SOL    HW1 2366   1.885   6.007   2.806 -0.8350 -0.6023 -1.6751
  489SOL    HW2 2367   1.925   5.871   2.888  0.4910  0.9706  0.3836
  490SOL     OW 2368   5.004   0.968   2.714  0.1553 -0.2688  0.3500
  490SOL    HW1 2369   5.017   0.873   2.685 -2.1730 -0.2794 -0.8520
  490SOL    HW2 2370   4.971   0.970   2.809 -1.8140 -0.8408 -0.2767
  491SOL     OW 2371   0.823   2.214   5.039 -0.1459 -0.1709 -0.2042
  491SOL    HW1 2372   0.922   2.218   5.030 -0.2237 -0.1760 -1.1111
  491SOL    HW2 2373   0.795   2.261   5.123  0.7082 -1.1229  0.6445
  492SOL     OW 2374   1.497   6.209   0.670  0.1007  0.6905 -0.0766
  492SOL    HW1 2375   1.491   6.189   0.572  0.0693  2.0791 -0.3695
  492SOL    HW2 2376   1.443   6.142   0.721 -0.0816  0.1033 -1.0224
  493SOL     OW 2377   1.463   5.295   3.197 -0.0600  0.1227  0.2330
  493SOL    HW1 2378   1.497   5.235   3.125  0.3807  1.1152 -0.4057
  493SOL    HW2 2379   1.498   5.387   3.183  1.0510  0.1028  2.4211
  494SOL     OW 2380   1.726   1.693   5.184 -0.0462 -0.7472 -0.3460
  494SOL    HW1 2381   1.794   1.635   5.139  0.9045  0.8052 -1.0343
  494SOL    HW2 2382   1.655   1.718   5.118  0.7218  0.5867 -0.7086
  495SOL     OW 2383   5.310   1.459   2.945 -0.0671  1.0305  0.1973
  495SOL    HW1 2384   5.253   1.430   3.022  0.1391  0.1099  0.0177
  495SOL    HW2 2385   5.272   1.542   2.904 -1.2704  0.4498  0.0921
  496SOL     OW 2386   0.888   5.223   6.715 -0.1107  0.2440 -0.4911
  496SOL    HW1 2387   0.821   5.151   6.699 -0.9498  0.7969  0.3997
  496SOL    HW2 2388   0.944   5.199   6.795 -0.6329  0.7453  0.0263
  497SOL     OW 2389   3.179   5.153   1.313 -0.1608  0.7204 -0.2913
  497SOL    HW1 2390   3.250   5.217   1.285  0.6162 -0.1891 -0.4266
  497SOL    HW2 2391   3.165   5.085   1.242 -1.2608  0.9459 -0.3160
  498SOL     OW 2392   5.475   3.449   1.575 -0.4989  0.2440  0.0832
  498SOL    HW1 2393   5.429   3.389   1.509 -0.8197 -0.6776  1.1249
  498SOL    HW2 2394   5.469   3.409   1.666  1.9811  0.3251  0.3371
  499SOL     OW 2395   6.288   3.506   3.067 -0.2340 -0.0171  0.1472
  499SOL    HW1 2396   6.331   3.450   2.997  0.2997  0.6997 -0.1055
  499SOL    HW2 2397   6.283   3.455   3.153 -0.8095 -0.8621 -0.3826
  500SOL     OW 2398   1.833   5.486   3.047  0.5388 -0.1635 -0.0974
  500SOL    HW1 2399   1.918   5.536   3.064 -0.5556  1.3946  1.0987
  500SOL    HW2 2400   1.817   5.480   2.948  2.5935 -1.5441 -0.4058
  501SOL     OW 2401   0.439   3.435   1.953 -0.5905 -0.7818 -0.2128
  501SOL    HW1 2402   0.516   3.430   2.017 -0.4008 -2.6904 -0.5218
  501SOL    HW2 2403   0.365   3.377   1.986 -0.9421 -0.8697 -1.1327
  502SOL     OW 2404   3.718   3.248   3.484  0.0561 -0.3091 -0.4900
  502SOL    HW1 2405   3.786   3.322   3.490  0.5516 -0.7184 -0.9111
  502SOL    HW2 2406   3.751   3.179   3.419  0.6429 -1.9824  1.4797
  503SOL     OW 2407   1.903   0.797   3.169  0.1539 -0.4384 -0.1426
  503SOL    HW1 2408   1.849   0.792   3.085  0.6540  0.7034 -0.5652
  503SOL    HW2 2409   1.887   0.716   3.225 -0.6673 -0.9193 -1.0507
  504SOL     OW 2410   3.099   3.784   5.952 -0.3791  0.1812  0.7434
  504SOL    HW1 2411   3.106   3.883   5.940  0.2716  0.1017  0.4431
  504SOL    HW2 2412   3.014   3.751   5.911  0.8749  0.1720 -2.0691
  505SOL     OW 2413   1.789   4.381   4.188 -0.1156 -0.3156 -0.0513
  505SOL    HW1 2414   1.707   4.325   4.189  0.1203 -0.7469 -1.7577
  505SOL    HW2 2415   1.780   4.455   4.255 -0.4119 -2.3485  2.2663
  506SOL     OW 2416   4.803   2.775   2.133  0.3753  0.4886 -0.2239
  506SOL    HW1 2417   4.734   2.723   2.082 -2.3299  1.1962  2.4301
  506SOL    HW2 2418   4.790   2.873   2.119  0.9265  0.6375  0.2169
  507SOL     OW 2419   4.802   1.184   0.104  0.4524 -0.0212  0.3130
  507SOL    HW1 2420   4.831   1.279   0.096 -0.9553  0.3813 -0.3550
  507SOL    HW2 2421   4.879   1.127   0.133  1.5534  1.1702 -0.2108
  508SOL     OW 2422   1.098   0.418   0.294 -0.6185  0.2008  0.3397
  508SOL    HW1 2423   1.193   0.401   0.266 -0.4010 -0.1464  1.2723
  508SOL    HW2 2424   1.061   0.494   0.241  0.4054  0.7870  0.4520
  509SOL     OW 2425   4.644   0.369   2.212  0.3428  0.4806  0.3958
  509SOL    HW1 2426   4.555   0.326   2.195 -0.5614  1.6915  1.7754
  509SOL    HW2 2427   4.714   0.298   2.223 -0.1777 -0.4721 -1.8753
  510SOL     OW 2428   2.213   2.790   2.842  0.7420  0.1876  0.4206
  510SOL    HW1 2429   2.215   2.699   2.801  1.6623 -0.1293  1.1479
  510SOL    HW2 2430   2.228   2.782   2.940  0.3443  1.0950  0.5634
  511SOL     OW 2431   2.326   3.757   5.291 -0.1893 -0.7176  0.5797
  511SOL    HW1 2432   2.364   3.840   5.250  0.1933 -0.5576  1.2431
  511SOL    HW2 2433   2.226   3.761   5.287 -0.1679 -0.4697  0.1417
  512SOL     OW 2434   6.608   4.185   4.659 -0.3479  0.1884  0.0124
  512SOL    HW1 2435   6.658   4.250   4.716 -0.4994 -0.0478  0.4214
  512SOL    HW2 2436   6.536   4.142   4.714 -0.7336  0.2280 -0.4591
  513SOL     OW 2437   3.456   6.513   0.482  0.3603  0.0874 -0.1805
  513SOL    HW1 2438   3.556   6.515   0.475  0.3287 -1.6906 -1.9090
  513SOL    HW2 2439   3.427   6.429   0.528 -0.3409  1.1572  1.4116
  514SOL     OW 2440   3.949   0.504   1.824 -0.2064 -0.2888 -0.0470
  514SOL    HW1 2441   3.995   0.497   1.736 -0.8322  0.7077 -0.4641
  514SOL    HW2 2442   4.011   0.546   1.891  0.1326 -0.6865 -0.1082
  515SOL     OW 2443   4.946   1.302   3.195 -0.0241  0.3103  0.2127
  515SOL    HW1 2444   4.887   1.381   3.214  0.3644  0.8042 -0.5842
  515SOL    HW2 2445   4.892   1.218   3.204 -0.5385  0.6805  0.6954
  516SOL     OW 2446   1.216   1.349   6.504 -0.2954  0.5545 -0.0728
  516SOL    HW1 2447   1.249   1.357   6.410 -0.5239  2.2568 -0.0430
  516SOL    HW2 2448   1.131   1.296   6.506  1.4425 -2.4450 -0.3579
  517SOL     OW 2449   1.320   5.717   3.049 -0.5965 -0.6065 -0.5856
  517SOL    HW1 2450   1.293   5.787   3.116  0.7257  0.2483 -0.9042
  517SOL    HW2 2451   1.240   5.662   3.025 -1.2279 -0.6087  1.2952
  518SOL     OW 2452   6.235   6.307   5.746  0.1590  0.8067  0.5315
  518SOL    HW1 2453   6.181   6.275   5.668  0.8743  0.2739  0.2459
  518SOL    HW2 2454   6.321   6.346   5.714  0.6687  0.1476  1.0787
  519SOL     OW 2455   4.752   5.346   6.558 -0.1157  0.1226  0.7355
  519SOL    HW1 2456   4.723   5.250   6.561 -1.8453  0.6321  1.4724
  519SOL    HW2 2457   4.825   5.357   6.491  0.0510 -1.6871  0.5757
  520SOL     OW 2458   1.976   0.824   2.662 -0.0026 -0.2206  0.3499
  520SOL    HW1 2459   1.996   0.817   2.564  1.2520  0.9760  0.4892
  520SOL    HW2 2460   1.889   0.873   2.675 -0.4494 -0.8528 -0.1528
  521SOL     OW 2461   0.346   3.359   1.191 -0.4472  0.1321  0.2783
  521SOL    HW1 2462   0.419   3.389   1.130 -0.6312  0.5882  0.2803
  521SOL    HW2 2463   0.318   3.435   1.250 -1.2922  0.1205 -0.0947
  522SOL     OW 2464   0.545   6.752   6.285  0.1916  0.7154  0.7928
  522SOL    HW1 2465   0.555   6.652   6.288 -0.9950  0.3779 -2.6536
  522SOL    HW2 2466   0.493   6.782   6.365 -2.1466 -1.8577  0.3815
  523SOL     OW 2467   5.709   1.458   1.366  0.0507  0.5093  0.0477
  523SOL    HW1 2468   5.711   1.533   1.432 -1.2643  0.5153  0.1021
  523SOL    HW2 2469   5.738   1.492   1.277  1.5406  0.5731  0.5223
  524SOL     OW 2470   2.487   6.106   4.422 -0.3472 -0.3451  0.6408
  524SOL    HW1 2471   2.426   6.175   4.461  0.0483  0.8292 -0.7490
  524SOL    HW2 2472   2.557   6.150   4.367 -0.3182 -1.8674 -0.6138
  525SOL     OW 2473   2.833   5.169   3.316 -0.1436 -0.2778  0.0144
  525SOL    HW1 2474   2.750   5.125   3.351  0.2063 -1.1815 -0.2625
  525SOL    HW2 2475   2.906   5.101   3.308  0.5290  0.4401 -0.0672
  526SOL     OW 2476   1.699   2.085   4.276  0.3343 -0.3884 -0.0300
  526SOL    HW1 2477   1.689   2.128   4.366 -0.8087  0.5331 -0.5708
  526SOL    HW2 2478   1.784   2.115   4.234  0.7532 -0.6280  0.6270
  527SOL     OW 2479   0.413   5.410   0.451  0.2169 -0.2080  0.1342
  527SOL    HW1 2480   0.399   5.441   0.357 -1.0963 -1.0342  0.0321
  527SOL    HW2 2481   0.351   5.335   0.471  0.3929  0.0324  1.7170
  528SOL     OW 2482   4.053   1.569   3.262  0.0475 -0.2492 -0.0049
  528SOL    HW1 2483   3.987   1.496   3.246 -0.9542  0.3322  1.2936
  528SOL    HW2 2484   4.059   1.627   3.181 -0.6828 -0.5758 -0.3019
  529SOL     OW 2485   6.602   1.594   0.819 -0.0234 -0.2497  0.1896
  529SOL    HW1 2486   6.627   1.629   0.910 -0.7842 -1.2563  0.8035
  529SOL    HW2 2487   6.678   1.609   0.756  0.1024  1.4940  0.6875
  530SOL     OW 2488   4.198   5.914   6.929  0.1716 -0.4446 -0.2935
  530SOL    HW1 2489   4.284   5.862   6.924  0.4830 -0.0049  0.3611
  530SOL    HW2 2490   4.209   6.001   6.881  0.9742  0.7775  1.9232
  531SOL     OW 2491   0.356   4.236   1.317  0.6720  0.3674  0.2455
  531SOL    HW1 2492   0.309   4.307   1.370 -1.8175 -0.7192 -0.3702
  531SOL    HW2 2493   0.365   4.266   1.222  1.1625  0.5278  0.3390
  532SOL     OW 2494   4.074   6.205   2.312  0.1730  0.4249  0.7427
  532SOL    HW1 2495   3.976   6.223   2.307  0.2919  1.3213  1.4502
  532SOL    HW2 2496   4.089   6.107   2.327 -0.6061  0.2865  0.6590
  533SOL     OW 2497   2.480   6.818   6.455  0.3478  0.2201  0.1770
  533SOL    HW1 2498   2.389   6.809   6.416  1.0591  2.6747 -2.4363
  533SOL    HW2 2499   2.534   6.737   6.433 -1.0337 -1.0828  1.4256
  534SOL     OW 2500   0.795   2.047   6.725 -0.0446  0.4889  0.7572
  534SOL    HW1 2501   0.738   2.123   6.760 -1.0413  0.3587 -0.5175
  534SOL    HW2 2502   0.822   2.066   6.631  0.5516 -0.2922  0.7592
  535SOL     OW 2503   6.635   0.502   6.141  0.4027  0.3228 -0.2877
  535SOL    HW1 2504   6.681   0.556   6.212  0.1371  0.4781 -0.2316
  535SOL    HW2 2505   6.565   0.558   6.098  0.2716  0.0890 -0.3777
  536SOL     OW 2506   6.728   6.233   3.068 -0.0593  0.4141  0.2440
  536SOL    HW1 2507   6.805   6.204   3.125  1.2294  1.0567 -1.0734
  536SOL    HW2 2508   6.756   6.230   2.972 -1.8068  0.3783 -0.2861
  537SOL     OW 2509   6.296   2.987   6.524  0.3271  0.0245  0.7866
  537SOL    HW1 2510   6.389   2.984   6.487 -0.7479  0.0177 -2.2368
  537SOL    HW2 2511   6.239   2.920   6.476 -2.3848  3.4324 -1.2958
  538SOL     OW 2512   1.640   6.534   1.922  0.4481  0.2400 -0.1659
  538SOL    HW1 2513   1.648   6.634   1.930 -0.2459  0.2666  0.2784
  538SOL    HW2 2514   1.627   6.494   2.013 -0.8612 -0.0984 -0.4801
  539SOL     OW 2515   6.584   2.002   1.534  0.1011 -0.0469 -0.0656
  539SOL    HW1 2516   6.504   1.942   1.528  0.4675 -0.5393 -0.1532
  539SOL    HW2 2517   6.664   1.954   1.498  0.2816  0.7385 -0.7371
  540SOL     OW 2518   3.473   4.948   3.914 -0.3325 -0.1385 -0.1160
  540SOL    HW1 2519   3.387   4.902   3.890 -2.1555  3.3693 -0.9150
  540SOL    HW2 2520   3.493   5.019   3.846  2.1639  0.5057  1.1649
  541SOL     OW 2521   3.139   5.392   4.362 -1.1628  0.4015 -0.2047
  541SOL    HW1 2522   3.216   5.398   4.299 -0.2563  1.0551  0.9225
  541SOL    HW2 2523   3.075   5.322   4.330  0.4650 -1.0010 -0.5823
  542SOL     OW 2524   1.036   6.226   6.529 -0.4052  0.0555 -0.2421
  542SOL    HW1 2525   1.009   6.298   6.465 -0.0257  0.2824 -0.1519
  542SOL    HW2 2526   1.043   6.264   6.621  1.5895  0.3392 -0.4808
  543SOL     OW 2527   1.060   0.352   4.107 -0.8870  0.5463  0.1386
  543SOL    HW1 2528   1.002   0.330   4.185  0.3787 -0.2109  0.8901
  543SOL    HW2 2529   1.014   0.420   4.049 -2.5999 -0.1902  0.5858
  544SOL     OW 2530   1.888   2.637   3.533 -0.3523 -0.5960 -0.4517
  544SOL    HW1 2531   1.958   2.658   3.602  1.3763  0.6483 -2.4471
  544SOL    HW2 2532   1.853   2.722   3.494 -0.1784 -1.2287 -2.1031
  545SOL     OW 2533   6.697   1.756   4.209 -0.0701  0.1790 -0.4460
  545SOL    HW1 2534   6.681   1.658   4.204  0.4474  0.0342  0.4927
  545SOL    HW2 2535   6.632   1.804   4.151  1.2346 -0.8570 -2.9255
  546SOL     OW 2536   1.798   0.890   4.502 -0.7417  0.1128 -0.1150
  546SOL    HW1 2537   1.859   0.944   4.560  0.4990  0.2015 -1.4621
  546SOL    HW2 2538   1.742   0.952   4.446 -0.8920  0.0161 -0.0728
  547SOL     OW 2539   4.751   0.728   4.742  0.2107  0.0235  0.8457
  547SOL    HW1 2540   4.765   0.813   4.692 -0.6565  0.2346  0.9405
  547SOL    HW2 2541   4.660   0.692   4.722  0.0556 -0.1756  1.8419
  548SOL     OW 2542   3.867   5.247   4.825 -0.7560 -0.2023 -0.0135
  548SOL    HW1 2543   3.792   5.285   4.770  0.4561  2.0630 -0.1992
  548SOL    HW2 2544   3.891   5.157   4.789 -2.7346 -0.5722 -0.5448
  549SOL     OW 2545   6.620   3.102   4.259 -0.0830 -0.1499 -0.3080
  549SOL    HW1 2546   6.671   3.184   4.233  0.9645 -0.2086  1.4329
  549SOL    HW2 2547   6.675   3.021   4.241 -0.2778 -0.3379 -0.0695
  550SOL     OW 2548   4.708   3.955   5.299 -0.2524 -0.1647  0.1267
  550SOL    HW1 2549   4.743   4.032   5.245  1.3535  0.4472  1.8895
  550SOL    HW2 2550   4.608   3.957   5.301 -0.3036  0.5483 -1.6723
  551SOL     OW 2551   0.716   2.482   3.558 -0.0399  0.4654 -0.0122
  551SOL    HW1 2552   0.748   2.476   3.653 -0.3159 -1.1064  0.0056
  551SOL    HW2 2553   0.616   2.486   3.557 -0.3492 -3.4590 -0.2587
  552SOL     OW 2554   5.882   3.781   2.690  0.0008  0.2362 -0.1707
  552SOL    HW1 2555   5.851   3.691   2.721 -1.0116 -0.0046 -1.7652
  552SOL    HW2 2556   5.976   3.796   2.719 -0.1512 -0.9151  0.9665
  553SOL     OW 2557   3.017   6.894   1.809 -0.2881 -0.4741  0.0051
  553SOL    HW1 2558   3.071   6.842   1.744  2.4170  1.9368  0.1162
  553SOL    HW2 2559   2.965   6.832   1.868  2.5813 -3.0338  0.0637
  554SOL     OW 2560   0.846   2.504   3.820  0.4784  0.4178  0.5383
  554SOL    HW1 2561   0.903   2.432   3.781  0.0494 -0.7973  2.0515
  554SOL    HW2 2562   0.902   2.584   3.840  0.8296  0.8390 -1.8468
  555SOL     OW 2563   0.553   3.583   2.744 -0.3950  0.0288  0.1165
  555SOL    HW1 2564   0.598   3.670   2.721  1.2181 -0.2474  1.9768
  555SOL    HW2 2565   0.583   3.553   2.834 -2.6811 -1.3451  0.4944
  556SOL     OW 2566   4.708   1.799   4.576 -0.1707 -0.1256 -0.2804
  556SOL    HW1 2567   4.783   1.734   4.577 -0.4607 -0.4931 -1.2814
  556SOL    HW2 2568   4.645   1.778   4.651  1.4481  1.1172  1.5501
  557SOL     OW 2569   4.828   0.814   4.335 -0.2389  0.8384 -0.1771
  557SOL    HW1 2570   4.773   0.869   4.271  0.8236 -0.0047 -1.8989
  557SOL    HW2 2571   4.874   0.875   4.400 -1.5024  1.7141 -0.0609
  558SOL     OW 2572   5.594   1.950   0.388  0.0950  0.3686 -0.2551
  558SOL    HW1 2573   5.551   1.919   0.304  1.2236 -1.7248 -0.1362
  558SOL    HW2 2574   5.675   1.894   0.407  2.2989  3.4071  0.0753
  559SOL     OW 2575   5.152   4.101   4.170 -0.3803 -0.5475 -0.3365
  559SOL    HW1 2576   5.135   4.020   4.114  1.4369 -1.3423  0.1686
  559SOL    HW2 2577   5.155   4.074   4.267 -2.4470  0.6282  0.1020
  560SOL     OW 2578   6.499   6.947   4.176  0.6199  0.4404 -0.2344
  560SOL    HW1 2579   6.584   6.959   4.125  0.7507 -0.9563 -0.3789
  560SOL    HW2 2580   6.517   6.891   4.258  0.3208  2.2456  1.1392
  561SOL     OW 2581   1.874   0.254   1.380 -0.7217  0.3692  0.2500
  561SOL    HW1 2582   1.883   0.171   1.324 -1.2700  0.9722 -0.7788
  561SOL    HW2 2583   1.961   0.276   1.423 -0.8892 -1.5092  1.6891
  562SOL     OW 2584   5.902   0.371   0.205  0.4152  0.5121  0.2882
  562SOL    HW1 2585   5.880   0.337   0.113 -2.2908  1.3786  0.5197
  562SOL    HW2 2586   5.966   0.447   0.198  0.4918  0.3618 -0.8398
  563SOL     OW 2587   6.093   3.924   0.201 -0.0540  0.3884 -0.2280
  563SOL    HW1 2588   6.177   3.920   0.255 -0.1105 -1.6619 -0.2246
  563SOL    HW2 2589   6.108   3.983   0.121  0.7433  1.5996  0.7695
  564SOL     OW 2590   5.029   0.936   3.549 -0.0576  0.1452 -0.2650
  564SOL    HW1 2591   4.990   1.015   3.596  0.6488 -0.9096  2.2066
  564SOL    HW2 2592   4.964   0.860   3.553  0.0470  0.0092 -0.9774
  565SOL     OW 2593   0.214   6.337   3.176 -0.6365  0.3711 -0.0452
  565SOL    HW1 2594   0.183   6.413   3.119 -1.6828 -1.3009 -1.8259
  565SOL    HW2 2595   0.307   6.312   3.149 -0.5074  0.6467  0.1404
  566SOL     OW 2596   5.156   6.516   1.925 -0.1119 -0.0606 -0.2112
  566SOL    HW1 2597   5.067   6.537   1.885 -0.3810 -0.5227  0.1318
  566SOL    HW2 2598   5.228   6.540   1.860 -0.4665  0.6101 -0.3715
  567SOL     OW 2599   3.698   2.960   0.327  0.6587  0.6064 -0.2718
  567SOL    HW1 2600   3.713   2.944   0.425  0.9887  1.0378 -0.2467
  567SOL    HW2 2601   3.778   2.930   0.276  0.8806  1.2408 -0.3135
  568SOL     OW 2602   3.883   1.645   6.735  0.2649 -0.3837  0.0764
  568SOL    HW1 2603   3.967   1.641   6.788 -0.6738  2.5479  2.0674
  568SOL    HW2 2604   3.903   1.626   6.638  3.0074 -0.6203  0.6156
  569SOL     OW 2605   0.139   3.805   3.984 -0.1876 -0.5100  0.5422
  569SOL    HW1 2606   0.076   3.849   4.048 -1.8620 -2.6749  0.5103
  569SOL    HW2 2607   0.227   3.853   3.986 -1.3975  1.8485  1.5406
  570SOL     OW 2608   6.556   1.706   6.531 -0.4797 -0.4195 -0.2344
  570SOL    HW1 2609   6.545   1.606   6.527  0.3443 -0.4861 -1.0940
  570SOL    HW2 2610   6.611   1.736   6.454 -0.1376  0.6335  0.4071
  571SOL     OW 2611   3.782   2.536   0.414  0.2441  0.2311  1.0833
  571SOL    HW1 2612   3.871   2.490   0.409 -0.5336 -1.3534  0.9749
  571SOL    HW2 2613   3.796   2.634   0.424  1.9941  0.2070 -0.5762
  572SOL     OW 2614   1.960   1.609   3.463 -0.5066 -0.3480 -0.4903
  572SOL    HW1 2615   1.872   1.563   3.475 -1.0346  1.0930  1.7763
  572SOL    HW2 2616   1.946   1.699   3.422  0.0737 -0.5659 -1.2023
  573SOL     OW 2617   0.898   6.609   2.670 -0.5486  0.5426 -0.4296
  573SOL    HW1 2618   0.977   6.556   2.700 -0.9250 -0.1887 -0.7109
  573SOL    HW2 2619   0.901   6.622   2.571 -1.0786  0.0006 -0.5232
  574SOL     OW 2620   0.177   2.949   5.618  0.5351 -0.5048  0.1536
  574SOL    HW1 2621   0.143   2.962   5.525 -0.3766 -0.6238  0.4570
  574SOL    HW2 2622   0.099   2.934   5.680  1.2221 -2.9371  0.5458
  575SOL     OW 2623   1.844   4.809   0.328  0.0689 -0.0365  0.0724
  575SOL    HW1 2624   1.787   4.834   0.407  1.3600  0.1640  0.9763
  575SOL    HW2 2625   1.919   4.874   0.319 -0.2345  0.1247 -1.5423
  576SOL     OW 2626   6.604   2.961   6.574 -0.4622  0.3254 -0.0208
  576SOL    HW1 2627   6.702   2.952   6.558 -0.6403  1.1347 -1.8143
  576SOL    HW2 2628   6.587   2.974   6.672  1.2187  0.2358  0.3062
  577SOL     OW 2629   3.518   4.156   2.386  0.6035  0.1508  0.6546
  577SOL    HW1 2630   3.423   4.188   2.394 -0.2097 -2.3468  2.1063
  577SOL    HW2 2631   3.563   4.203   2.310 -1.8013  1.3762 -0.1097
  578SOL     OW 2632   6.098   6.205   3.898  0.2210 -0.2117 -0.1590
  578SOL    HW1 2633   6.074   6.156   3.814 -0.4591  0.5697 -0.4229
  578SOL    HW2 2634   6.075   6.301   3.889 -2.6872 -0.5839  1.9829
  579SOL     OW 2635   6.415   1.319   3.691 -0.5974  0.6421  0.8428
  579SOL    HW1 2636   6.420   1.219   3.693 -1.6983  0.5729  0.4661
  579SOL    HW2 2637   6.320   1.348   3.689 -0.2936  1.6511 -1.0393
  580SOL     OW 2638   5.877   3.689   1.002  0.2050 -0.1559  0.1126
  580SOL    HW1 2639   5.824   3.762   0.959  0.3977 -1.1598 -1.9424
  580SOL    HW2 2640   5.969   3.688   0.964  0.2456 -1.3818  0.2233
  581SOL     OW 2641   6.097   5.307   4.428  0.0976  0.5245 -0.2210
  581SOL    HW1 2642   6.128   5.384   4.372 -0.8986  0.5168 -0.8039
  581SOL    HW2 2643   6.015   5.333   4.479  0.8474  0.4506  1.0689
  582SOL     OW 2644   3.966   0.946   2.853 -0.5714 -0.6342  0.3887
  582SOL    HW1 2645   3.899   0.902   2.912 -0.1397 -0.5359  0.9606
  582SOL    HW2 2646   3.922   1.016   2.797 -0.7738  0.1415  1.4952
  583SOL     OW 2647   3.456   5.206   5.618 -0.9759 -0.0308 -0.1117
  583SOL    HW1 2648   3.498   5.116   5.609 -2.4882 -0.6450 -1.5338
  583SOL    HW2 2649   3.412   5.231   5.531 -2.5832  1.0321  0.9490
  584SOL     OW 2650   5.949   6.922   4.974  0.2180  0.5888  0.3243
  584SOL    HW1 2651   5.943   6.822   4.979 -0.5899  0.6418  0.6035
  584SOL    HW2 2652   5.941   6.951   4.879 -2.3079  0.5133  0.4439
  585SOL     OW 2653   1.399   4.598   6.751  0.2639 -0.3916  0.0742
  585SOL    HW1 2654   1.358   4.689   6.750 -0.9406 -0.9028 -1.4563
  585SOL    HW2 2655   1.497   4.605   6.733  0.8818  0.8193  3.2797
  586SOL     OW 2656   6.300   0.488   1.483 -0.0223  0.5678  0.0106
  586SOL    HW1 2657   6.202   0.506   1.470  0.3193  2.3999 -0.1605
  586SOL    HW2 2658   6.344   0.566   1.526  1.0740 -0.9388  1.7778
  587SOL     OW 2659   0.287   4.481   3.467  0.2468  0.3782 -0.4693
  587SOL    HW1 2660   0.236   4.567   3.469 -0.1315  0.1526 -0.3564
  587SOL    HW2 2661   0.320   4.460   3.559  0.8677  0.7132 -0.6102
  588SOL     OW 2662   2.012   0.214   3.849  0.4525  0.7192  0.0011
  588SOL    HW1 2663   2.021   0.241   3.945 -0.8403  0.4204  0.2334
  588SOL    HW2 2664   1.933   0.153   3.839  2.6787 -2.2536 -0.6584
  589SOL     OW 2665   3.380   6.312   3.556 -0.1345  0.2367 -1.1139
  589SOL    HW1 2666   3.473   6.275   3.561  0.1540  0.9922 -0.7028
  589SOL    HW2 2667   3.316   6.239   3.529  0.7405 -0.0151 -2.6237
  590SOL     OW 2668   4.978   5.253   2.885  0.3027 -0.4913  0.2402
  590SOL    HW1 2669   5.062   5.264   2.832 -0.7230  1.7966 -1.0996
  590SOL    HW2 2670   4.973   5.325   2.955 -0.6645 -0.3820  0.0717
  591SOL     OW 2671   5.116   2.102   3.919 -0.2648  1.0826 -0.0050
  591SOL    HW1 2672   5.187   2.134   3.982  0.0355 -0.1343  0.2987
  591SOL    HW2 2673   5.110   2.002   3.924 -0.2767  0.9597 -1.8657
  592SOL     OW 2674   3.496   6.303   3.137 -0.1606 -0.5561  0.4770
  592SOL    HW1 2675   3.498   6.315   3.037  1.7034  1.2755  0.6527
  592SOL    HW2 2676   3.537   6.215   3.161 -0.2767 -0.8466 -0.3576
  593SOL     OW 2677   1.025   1.762   5.333  0.2983 -0.3080  0.5688
  593SOL    HW1 2678   1.099   1.775   5.398  0.2248  1.2093  0.3890
  593SOL    HW2 2679   0.961   1.839   5.339  1.2921  0.9189 -2.5905
  594SOL     OW 2680   6.392   2.625   6.022 -0.1580  0.0343 -0.4238
  594SOL    HW1 2681   6.405   2.630   5.922 -2.4385  0.3737 -0.7616
  594SOL    HW2 2682   6.406   2.716   6.062 -0.9359  0.2970 -0.7145
  595SOL     OW 2683   2.216   5.111   2.660  0.1111  0.6530 -0.0342
  595SOL    HW1 2684   2.304   5.128   2.705 -1.2655  1.1897  2.6657
  595SOL    HW2 2685   2.196   5.013   2.661 -0.3527  0.7232  1.6216
  596SOL     OW 2686   2.679   2.664   6.043  0.0382 -0.2826  0.0643
  596SOL    HW1 2687   2.770   2.641   6.077  0.0020 -1.0607 -0.3321
  596SOL    HW2 2688   2.687   2.725   5.964  0.2449 -0.7812 -0.3032
  597SOL     OW 2689   6.328   3.920   1.668 -0.0470 -0.2990  0.3399
  597SOL    HW1 2690   6.315   3.822   1.659 -1.1020 -0.2740  1.2722
  597SOL    HW2 2691   6.425   3.941   1.674  0.1810 -1.3047  0.2957
  598SOL     OW 2692   2.224   2.989   4.156  0.1381  0.4281 -0.3612
  598SOL    HW1 2693   2.284   3.012   4.079 -0.1015  2.8588  0.0989
  598SOL    HW2 2694   2.270   2.922   4.215  0.6969 -0.7701 -2.0998
  599SOL     OW 2695   1.984   0.056   0.225  0.2008  0.2106 -0.0591
  599SOL    HW1 2696   1.987   0.118   0.304  0.0444  0.3183 -0.1362
  599SOL    HW2 2697   1.942   0.103   0.148 -0.4944 -0.1918  0.0656
  600SOL     OW 2698   1.138   1.169   3.871  0.7648  0.0130  0.0559
  600SOL    HW1 2699   1.100   1.104   3.936  2.3956 -0.9890  0.0548
  600SOL    HW2 2700   1.098   1.154   3.781 -0.2332  0.2580  0.4548
  601SOL     OW 2701   4.077   1.330   1.329  0.4222 -0.6145 -0.3217
  601SOL    HW1 2702   3.998   1.276   1.359  0.2622 -0.9503 -1.3101
  601SOL    HW2 2703   4.048   1.394   1.257  0.6412  0.6982  0.7332
  602SOL     OW 2704   3.055   0.523   0.117 -0.4859  0.7333 -0.1625
  602SOL    HW1 2705   2.959   0.540   0.096 -0.7392  0.1223  0.4566
  602SOL    HW2 2706   3.100   0.609   0.140 -0.5551  1.2088 -1.6888
  603SOL     OW 2707   1.047   1.606   6.751 -0.2279  0.4902  0.2181
  603SOL    HW1 2708   1.002   1.520   6.776  0.4983  0.3417  1.0856
  603SOL    HW2 2709   1.003   1.644   6.670  0.2968 -1.3714 -0.9961
  604SOL     OW 2710   1.461   5.872   4.670 -0.5224 -0.2824  0.8830
  604SOL    HW1 2711   1.493   5.964   4.651  0.6813 -0.8905 -0.1591
  604SOL    HW2 2712   1.521   5.805   4.626 -0.1329 -1.6675  3.3288
  605SOL     OW 2713   0.697   0.874   6.680 -0.0484  0.1244 -0.3874
  605SOL    HW1 2714   0.785   0.910   6.712 -0.5949  1.6856 -0.5401
  605SOL    HW2 2715   0.684   0.781   6.715  0.7824  0.5900  1.2708
  606SOL     OW 2716   1.747   0.588   1.587  0.1023 -0.1592  0.3696
  606SOL    HW1 2717   1.841   0.558   1.601  0.0492 -0.0636  0.9357
  606SOL    HW2 2718   1.685   0.509   1.597  0.1395 -0.2762 -0.2687
  607SOL     OW 2719   4.678   1.550   3.452 -0.2409  0.4080  0.4343
  607SOL    HW1 2720   4.668   1.605   3.535 -1.1748  1.3986 -0.3111
  607SOL    HW2 2721   4.589   1.536   3.410  0.4062  1.5185 -1.4076
  608SOL     OW 2722   3.175   1.445   5.014  0.0395  0.0287  0.1976
  608SOL    HW1 2723   3.114   1.524   5.027  1.5340  0.9988  1.7534
  608SOL    HW2 2724   3.125   1.371   4.969 -1.4235  1.8485 -1.3350
  609SOL     OW 2725   4.325   3.458   1.440  0.8906 -0.7940  0.8099
  609SOL    HW1 2726   4.254   3.491   1.378  0.4334 -1.1523  1.1347
  609SOL    HW2 2727   4.306   3.363   1.464  0.7880 -0.5132  1.8890
  610SOL     OW 2728   5.908   0.305   5.238  0.2417  0.2050  0.0022
  610SOL    HW1 2729   5.817   0.276   5.267  0.3013 -0.5202 -0.5067
  610SOL    HW2 2730   5.944   0.240   5.172  1.0269  0.6282  0.0012
  611SOL     OW 2731   2.640   0.693   1.363 -0.1085 -0.3911  0.4355
  611SOL    HW1 2732   2.708   0.732   1.426  0.0268  0.8844 -0.4680
  611SOL    HW2 2733   2.643   0.742   1.276 -1.2398 -1.2333 -0.1021
  612SOL     OW 2734   3.136   2.929   0.823 -0.0786  0.2968  0.0057
  612SOL    HW1 2735   3.139   3.022   0.786 -0.9696  0.7111  0.9296
  612SOL    HW2 2736   3.230   2.897   0.837  0.2636  0.4628 -1.7141
  613SOL     OW 2737   4.174   2.652   6.643  0.0043 -0.2229 -0.0565
  613SOL    HW1 2738   4.183   2.743   6.685  0.3275  0.8270 -2.2189
  613SOL    HW2 2739   4.246   2.592   6.676  1.5135  1.2038 -0.6238
  614SOL     OW 2740   6.685   4.977   2.444  0.5774 -0.2349 -0.0674
  614SOL    HW1 2741   6.619   5.000   2.373  0.8254  0.6825 -0.0128
  614SOL    HW2 2742   6.639   4.971   2.532  0.5973  0.6973  0.0179
  615SOL     OW 2743   4.535   5.724   2.468  0.1137 -0.5320  0.6333
  615SOL    HW1 2744   4.630   5.694   2.472 -0.1743 -1.6000  0.0505
  615SOL    HW2 2745   4.518   5.793   2.538  1.6498  0.6958 -0.1536
  616SOL     OW 2746   2.717   6.113   0.678 -0.0508  0.2128 -0.4408
  616SOL    HW1 2747   2.669   6.090   0.762  0.9434  0.8494  0.3212
  616SOL    HW2 2748   2.807   6.069   0.677 -0.4261 -0.5869 -1.6327
  617SOL     OW 2749   1.509   2.904   5.984  0.2281 -0.1370  0.2839
  617SOL    HW1 2750   1.607   2.885   5.990  0.3178 -0.2959 -1.2290
  617SOL    HW2 2751   1.472   2.860   5.902 -0.6521  1.7655 -0.4024
  618SOL     OW 2752   3.495   3.249   4.629 -0.3749 -0.2169  0.2625
  618SOL    HW1 2753   3.539   3.335   4.606  0.4929 -0.7307 -0.0807
  618SOL    HW2 2754   3.427   3.226   4.560  0.7056 -0.6988 -0.6714
  619SOL     OW 2755   4.678   0.255   1.938 -0.6023 -0.5640 -0.7481
  619SOL    HW1 2756   4.714   0.163   1.949  1.7811  0.2305 -1.2128
  619SOL    HW2 2757   4.717   0.315   2.008 -1.7574  0.1830 -0.7191
  620SOL     OW 2758   3.959   4.800   3.461  0.1839  0.1795  0.0288
  620SOL    HW1 2759   4.002   4.773   3.547 -0.4110  0.6190  0.4704
  620SOL    HW2 2760   3.904   4.725   3.425  0.7248 -0.1308 -0.1625
  621SOL     OW 2761   6.364   4.279   2.029 -0.0659 -0.4955  0.5407
  621SOL    HW1 2762   6.298   4.269   2.103 -1.7302 -1.5822 -1.0107
  621SOL    HW2 2763   6.335   4.225   1.950  1.9497  0.1375 -0.7281
  622SOL     OW 2764   2.925   3.860   1.672 -0.1625 -0.6219 -0.0016
  622SOL    HW1 2765   2.970   3.926   1.731  0.2302 -0.2333 -0.7132
  622SOL    HW2 2766   2.965   3.769   1.687 -0.3379 -0.6029  0.6007
  623SOL     OW 2767   4.100   5.185   2.644  0.7812 -0.1872 -0.1041
  623SOL    HW1 2768   4.000   5.185   2.645  0.7599 -1.9621 -0.3942
  623SOL    HW2 2769   4.133   5.238   2.722 -0.3651  0.8542 -0.2838
  624SOL     OW 2770   5.564   0.135   3.530 -0.5941  0.4048  0.1870
  624SOL    HW1 2771   5.605   0.124   3.620  1.3852 -0.5574 -0.7660
  624SOL    HW2 2772   5.587   0.226   3.495  1.5183 -0.3620 -0.6264
  625SOL     OW 2773   6.167   5.722   1.800 -0.0872 -0.0201  0.7799
  625SOL    HW1 2774   6.188   5.728   1.897 -0.4415  1.5933  0.7885
  625SOL    HW2 2775   6.144   5.813   1.765 -1.9847 -0.8839 -0.3723
  626SOL     OW 2776   2.966   6.349   4.859 -0.7777  0.1231  0.1827
  626SOL    HW1 2777   2.892   6.355   4.926  1.0880 -1.1000  2.5293
  626SOL    HW2 2778   3.020   6.266   4.876  1.0969  0.9162 -1.4448
  627SOL     OW 2779   2.714   6.790   6.037  0.9420  0.3984  0.0764
  627SOL    HW1 2780   2.744   6.808   5.943  1.5887  0.7402  0.3395
  627SOL    HW2 2781   2.783   6.825   6.101 -0.1285  1.4339  0.7113
  628SOL     OW 2782   5.139   0.643   6.733 -0.0920 -0.7195 -0.4278
  628SOL    HW1 2783   5.175   0.628   6.640  1.1762  1.5721 -0.3783
  628SOL    HW2 2784   5.210   0.622   6.800 -0.4996 -0.8822 -0.0391
  629SOL     OW 2785   0.309   3.161   6.425  0.0141  0.2815 -0.4139
  629SOL    HW1 2786   0.287   3.189   6.518  0.9743  1.2823 -0.4636
  629SOL    HW2 2787   0.259   3.077   6.402  0.9907 -0.9007  1.5528
  630SOL     OW 2788   2.020   5.219   1.000  0.5564  0.1560  0.7548
  630SOL    HW1 2789   1.942   5.277   1.025  0.9912  1.3955 -0.6093
  630SOL    HW2 2790   2.048   5.239   0.906  0.6375 -2.4160  0.1481
  631SOL     OW 2791   3.493   4.077   0.179 -0.3117 -0.1187 -0.2368
  631SOL    HW1 2792   3.502   4.162   0.127  0.5540 -1.5131 -2.5774
  631SOL    HW2 2793   3.425   4.019   0.134  1.4646 -1.9425 -0.7141
  632SOL     OW 2794   3.173   5.396   5.062 -0.5919 -0.1073 -1.1810
  632SOL    HW1 2795   3.080   5.433   5.063  0.2132  2.0773 -0.7073
  632SOL    HW2 2796   3.199   5.368   5.154 -0.6420 -0.3694 -1.2453
  633SOL     OW 2797   6.294   2.414   1.906 -0.4608 -0.1118  0.4227
  633SOL    HW1 2798   6.297   2.370   1.817  1.2190  0.2135  0.2922
  633SOL    HW2 2799   6.219   2.481   1.908 -0.3360  0.0800 -0.8339
  634SOL     OW 2800   2.463   3.918   1.418  0.2913 -0.1600  0.1982
  634SOL    HW1 2801   2.492   4.002   1.371 -1.5034 -0.2373 -1.1387
  634SOL    HW2 2802   2.433   3.941   1.511  0.2679  0.6155  0.0068
  635SOL     OW 2803   4.838   4.056   4.366 -0.2010  0.2850 -0.5003
  635SOL    HW1 2804   4.848   4.149   4.402  1.0968  0.0096 -0.0898
  635SOL    HW2 2805   4.839   4.059   4.266 -0.1637  0.7189 -0.4904
  636SOL     OW 2806   3.437   4.663   1.307 -0.1973 -0.3632 -0.1032
  636SOL    HW1 2807   3.349   4.642   1.349 -0.4678  0.8295 -0.0347
  636SOL    HW2 2808   3.459   4.760   1.322  0.6603 -0.4069 -0.9668
  637SOL     OW 2809   4.416   4.888   0.626 -0.1214  0.1320 -0.0975
  637SOL    HW1 2810   4.489   4.868   0.560 -0.4715 -0.4536 -0.3136
  637SOL    HW2 2811   4.414   4.816   0.696 -1.4200 -0.6470 -0.9027
  638SOL     OW 2812   4.028   4.676   1.804 -0.2582 -0.5158  0.1198
  638SOL    HW1 2813   4.072   4.587   1.794  1.6507  0.4978 -1.1256
  638SOL    HW2 2814   3.936   4.673   1.766 -0.6875 -2.2566  1.2260
  639SOL     OW 2815   0.493   2.072   5.834 -0.3535  0.3871 -0.8068
  639SOL    HW1 2816   0.582   2.099   5.872 -0.4081 -0.9513  0.3356
  639SOL    HW2 2817   0.507   2.005   5.761 -0.3468  1.7384 -2.1081
  640SOL     OW 2818   1.547   5.986   6.940 -0.2359 -0.2944  0.1920
  640SOL    HW1 2819   1.525   6.057   6.873  2.2364  0.7948  0.4398
  640SOL    HW2 2820   1.465   5.966   6.994 -1.0403  2.4046  0.1333
  641SOL     OW 2821   3.208   0.189   0.420 -0.2555  0.1091  0.3586
  641SOL    HW1 2822   3.236   0.119   0.354 -0.0913  1.0321 -0.5853
  641SOL    HW2 2823   3.258   0.274   0.402  1.3473 -0.1624  3.0001
  642SOL     OW 2824   4.486   0.416   6.212  0.5299  0.4320  0.3519
  642SOL    HW1 2825   4.532   0.378   6.292 -0.5023  0.3158  0.9169
  642SOL    HW2 2826   4.441   0.502   6.237  1.8840  1.4827 -0.6286
  643SOL     OW 2827   4.265   6.442   6.290  0.0676 -0.3815 -0.6808
  643SOL    HW1 2828   4.338   6.432   6.222  1.3591 -0.8238  0.7222
  643SOL    HW2 2829   4.305   6.455   6.381 -1.6199  0.1813  0.0241
  644SOL     OW 2830   0.956   2.168   1.735  0.1645 -0.1148 -0.0014
  644SOL    HW1 2831   0.944   2.164   1.834  1.4188 -1.2487  0.1408
  644SOL    HW2 2832   0.893   2.104   1.691 -0.2873  0.2790  0.0604
  645SOL     OW 2833   5.230   4.266   2.458 -0.3711  0.3806 -0.5011
  645SOL    HW1 2834   5.294   4.304   2.391 -0.0678 -0.2944 -0.6080
  645SOL    HW2 2835   5.183   4.340   2.505 -0.5031  0.8675 -1.3819
  646SOL     OW 2836   1.336   1.827   1.780 -0.1388 -0.4885  0.1304
  646SOL    HW1 2837   1.316   1.835   1.877  0.2839 -0.4419  0.2138
  646SOL    HW2 2838   1.428   1.791   1.767  0.5213  1.2476 -0.2541
  647SOL     OW 2839   4.332   1.988   1.035 -0.4589  0.0218 -0.0166
  647SOL    HW1 2840   4.264   1.951   1.098 -1.4196  1.8318  0.0641
  647SOL    HW2 2841   4.424   1.968   1.071 -0.7867 -3.5835 -0.7848
  648SOL     OW 2842   2.246   3.532   1.184 -0.1698  0.2443 -0.3538
  648SOL    HW1 2843   2.281   3.439   1.189  0.2865  0.4347  0.1178
  648SOL    HW2 2844   2.214   3.551   1.092  0.8040 -0.0021 -0.7521
  649SOL     OW 2845   0.885   3.054   2.048  0.0511 -0.1387  0.0600
  649SOL    HW1 2846   0.860   3.114   1.973  1.1414  0.2205 -0.0343
  649SOL    HW2 2847   0.830   2.970   2.044  1.3175 -0.9390 -2.2208
  650SOL     OW 2848   4.734   0.027   4.548  0.2932 -0.2134  0.0224
  650SOL    HW1 2849   4.653   0.010   4.493 -0.7942  0.8111  1.2217
  650SOL    HW2 2850   4.735   0.124   4.576  1.5382 -0.3828  0.6303
  651SOL     OW 2851   1.849   2.055   1.113  0.1600 -0.5288 -0.2979
  651SOL    HW1 2852   1.861   2.138   1.167  0.4496 -0.5096 -0.3868
  651SOL    HW2 2853   1.766   2.063   1.058 -0.1350 -0.5526  0.1454
  652SOL     OW 2854   5.392   5.075   1.062  0.0028  0.2577 -0.0801
  652SOL    HW1 2855   5.366   5.016   0.985  1.4267 -1.3916  0.6206
  652SOL    HW2 2856   5.340   5.048   1.143 -2.2081  2.6314 -0.6065
  653SOL     OW 2857   1.654   4.838   0.650  0.0010  0.6331  0.0248
  653SOL    HW1 2858   1.645   4.888   0.563  2.0719  0.0895 -0.5672
  653SOL    HW2 2859   1.739   4.865   0.695  1.0788 -2.0868 -0.1923
  654SOL     OW 2860   1.688   3.467   2.960 -0.0643  0.4481  0.3375
  654SOL    HW1 2861   1.729   3.455   2.870 -2.2712 -0.9843 -0.5405
  654SOL    HW2 2862   1.759   3.455   3.030  1.9783  2.8364 -1.1204
  655SOL     OW 2863   1.922   4.874   0.787 -0.2842  0.6818 -0.2711
  655SOL    HW1 2864   1.944   4.919   0.874  1.1735  0.3880 -0.4627
  655SOL    HW2 2865   1.963   4.783   0.785  0.5102  1.0374 -1.6190
  656SOL     OW 2866   0.257   0.396   6.437  0.2351  0.5216  0.0708
  656SOL    HW1 2867   0.296   0.308   6.464  0.3875  0.4107 -0.5036
  656SOL    HW2 2868   0.168   0.382   6.394 -0.5087  0.7821  1.4694
  657SOL     OW 2869   3.300   1.039   3.273 -0.1785 -0.5445 -0.2771
  657SOL    HW1 2870   3.373   1.107   3.266  1.2945 -2.0575 -0.4000
  657SOL    HW2 2871   3.291   1.011   3.369 -0.1081 -0.8451 -0.3562
  658SOL     OW 2872   0.331   1.754   0.129  0.2480  0.3810  0.0048
  658SOL    HW1 2873   0.231   1.751   0.130  0.2295  0.9374  0.5474
  658SOL    HW2 2874   0.366   1.667   0.095 -0.4094 -0.2600  0.9135
  659SOL     OW 2875   0.476   1.890   5.578 -0.1859  0.1360  0.2371
  659SOL    HW1 2876   0.443   1.969   5.527 -0.3742 -0.0701  0.0339
  659SOL    HW2 2877   0.400   1.826   5.593  0.1450 -0.4061 -0.3506
  660SOL     OW 2878   0.386   3.941   0.817  0.3357 -0.3463  0.0965
  660SOL    HW1 2879   0.355   3.913   0.908  1.1078  0.2789  0.5708
  660SOL    HW2 2880   0.482   3.971   0.822  0.4124 -0.3750 -0.9405
  661SOL     OW 2881   1.888   6.542   6.973  0.4519  0.9893  0.3129
  661SOL    HW1 2882   1.983   6.570   6.961 -0.1522  2.1910 -2.7408
  661SOL    HW2 2883   1.851   6.511   6.885 -1.1923 -2.3489  1.9897
  662SOL     OW 2884   2.624   2.017   1.535  0.3732  0.1174  0.7001
  662SOL    HW1 2885   2.537   1.993   1.579  0.1211  0.9606  0.6757
  662SOL    HW2 2886   2.632   1.967   1.449 -0.3102  0.3781  0.4736
  663SOL     OW 2887   4.412   3.481   0.142 -0.4606 -0.1974  0.1159
  663SOL    HW1 2888   4.358   3.558   0.109 -1.7890 -0.9241  0.5030
  663SOL    HW2 2889   4.475   3.511   0.213  1.1900  1.0638 -1.7736
  664SOL     OW 2890   4.157   1.438   0.323 -0.5205  0.4747  0.7015
  664SOL    HW1 2891   4.254   1.416   0.322 -0.2736  1.4916 -1.0938
  664SOL    HW2 2892   4.105   1.354   0.342  0.5930 -0.7394 -1.2353
  665SOL     OW 2893   5.900   4.758   2.644 -0.0938  0.3915 -0.4001
  665SOL    HW1 2894   5.860   4.842   2.606  0.3001  1.3125  1.1180
  665SOL    HW2 2895   5.939   4.778   2.734  1.1324 -1.1588 -0.5535
  666SOL     OW 2896   4.946   2.935   1.880  0.4781 -0.2470  0.2630
  666SOL    HW1 2897   4.891   2.907   1.802  1.4016 -1.2835 -0.0393
  666SOL    HW2 2898   4.887   2.979   1.948 -0.4549  0.0209 -0.6911
  667SOL     OW 2899   2.501   4.120   0.159 -0.0319 -0.7279 -0.1313
  667SOL    HW1 2900   2.576   4.055   0.171 -0.6870 -1.2676  1.2045
  667SOL    HW2 2901   2.485   4.169   0.244  1.0025  1.8628 -1.3169
  668SOL     OW 2902   1.400   6.766   5.943 -0.5786 -0.9798  0.6065
  668SOL    HW1 2903   1.462   6.843   5.955  0.9708 -2.3630  1.9130
  668SOL    HW2 2904   1.306   6.800   5.935  0.2336  1.1227 -0.8188
  669SOL     OW 2905   2.645   5.541   2.143  0.1722  0.1294 -0.7876
  669SOL    HW1 2906   2.672   5.581   2.230 -1.2170  1.0412 -0.7431
  669SOL    HW2 2907   2.697   5.457   2.127  0.4519 -0.0569  0.9169
  670SOL     OW 2908   2.574   6.057   3.216  0.3295  0.1192  0.0167
  670SOL    HW1 2909   2.516   5.976   3.215  0.8913 -0.3293  1.3646
  670SOL    HW2 2910   2.656   6.039   3.271  0.7210  1.4236 -0.1052
  671SOL     OW 2911   0.856   4.675   0.761 -0.1267  0.3555 -0.3787
  671SOL    HW1 2912   0.909   4.756   0.786  0.3529 -0.4545  1.3474
  671SOL    HW2 2913   0.763   4.683   0.796 -0.4519  0.6786 -1.2766
  672SOL     OW 2914   5.725   3.304   5.270 -0.0421  0.1140 -0.1621
  672SOL    HW1 2915   5.663   3.245   5.323  0.0532 -1.1022 -1.3657
  672SOL    HW2 2916   5.810   3.316   5.321 -0.2239 -0.4362  0.2861
  673SOL     OW 2917   5.481   5.170   2.780  0.1424  0.2258  0.2991
  673SOL    HW1 2918   5.521   5.225   2.706  1.4419  1.9710  2.2051
  673SOL    HW2 2919   5.548   5.102   2.811  1.1113  2.0037  2.3284
  674SOL     OW 2920   5.422   1.569   2.235 -0.2958  0.2664 -0.0986
  674SOL    HW1 2921   5.512   1.543   2.268 -0.1442  2.3486  1.3295
  674SOL    HW2 2922   5.383   1.494   2.181  2.2619 -0.6787 -0.7912
  675SOL     OW 2923   1.926   0.853   0.029  0.1204  0.7050 -0.0638
  675SOL    HW1 2924   1.902   0.807  -0.056 -0.0964  0.8167 -0.0618
  675SOL    HW2 2925   1.963   0.786   0.094  1.5863  0.8277 -0.7250
  676SOL     OW 2926   3.545   5.122   3.704  0.1103  0.5393 -0.2136
  676SOL    HW1 2927   3.568   5.207   3.752  2.2073 -1.0107  1.6856
  676SOL    HW2 2928   3.628   5.080   3.669 -0.7793 -1.2129 -0.3020
  677SOL     OW 2929   6.277   5.524   0.456 -0.0572 -0.0046 -0.4501
  677SOL    HW1 2930   6.363   5.473   0.456 -1.0598 -1.8349 -2.5569
  677SOL    HW2 2931   6.254   5.551   0.362 -2.4727 -0.8352 -0.1709
  678SOL     OW 2932   1.354   4.102   0.657  0.7846  0.2961  0.1777
  678SOL    HW1 2933   1.307   4.015   0.639 -0.0706  1.0128 -1.1715
  678SOL    HW2 2934   1.388   4.140   0.571  0.3772  1.7339  0.6248
  679SOL     OW 2935   1.708   5.032   5.669  0.0933 -0.0459  0.2540
  679SOL    HW1 2936   1.693   5.118   5.620 -1.3637 -0.0613  0.6352
  679SOL    HW2 2937   1.762   5.050   5.751  1.2864  0.2095 -0.5524
  680SOL     OW 2938   3.278   1.072   3.623  0.5277  0.2189 -0.1594
  680SOL    HW1 2939   3.312   0.978   3.628  0.5259  0.2468  0.3496
  680SOL    HW2 2940   3.271   1.111   3.715 -2.3571 -0.3168 -0.0344
  681SOL     OW 2941   6.214   5.704   6.184 -0.4891  0.6598 -0.0670
  681SOL    HW1 2942   6.168   5.691   6.096 -0.8695  0.7555  0.1176
  681SOL    HW2 2943   6.268   5.623   6.206  1.4817  1.5047 -1.5010
  682SOL     OW 2944   6.034   3.812   3.967 -0.3132  0.6219 -0.1779
  682SOL    HW1 2945   6.127   3.815   3.931 -0.7261 -0.8577 -1.4426
  682SOL    HW2 2946   6.013   3.720   3.999 -1.5588  0.7931 -0.4716
  683SOL     OW 2947   3.766   3.608   5.727 -0.2439  0.2872  0.0078
  683SOL    HW1 2948   3.690   3.615   5.663 -1.4441  0.2672  1.3808
  683SOL    HW2 2949   3.731   3.603   5.820  1.4209 -0.4612  0.6398
  684SOL     OW 2950   4.297   2.073   4.082  0.7039  0.4106 -0.1269
  684SOL    HW1 2951   4.346   2.007   4.025 -1.1897  0.1150 -1.5440
  684SOL    HW2 2952   4.277   2.033   4.171 -1.5851 -1.6055 -1.4050
  685SOL     OW 2953   6.393   5.449   4.113 -0.3253 -0.1757 -0.1027
  685SOL    HW1 2954   6.466   5.509   4.080 -1.0628  1.3092  0.8752
  685SOL    HW2 2955   6.427   5.393   4.189 -0.6123  1.7713  1.5425
  686SOL     OW 2956   4.669   4.683   1.679  0.9212  0.2914  0.5367
  686SOL    HW1 2957   4.699   4.637   1.596  1.3724  1.5229  0.0032
  686SOL    HW2 2958   4.698   4.630   1.759  2.4405  0.2153 -0.0289
  687SOL     OW 2959   4.406   6.466   3.731  0.2398 -0.3426 -0.9195
  687SOL    HW1 2960   4.336   6.427   3.790  0.1308  3.5347  1.8397
  687SOL    HW2 2961   4.494   6.422   3.750 -0.0216  0.0320  1.3882
  688SOL     OW 2962   2.905   6.952   2.148 -1.0762  0.4770 -0.0799
  688SOL    HW1 2963   2.936   6.873   2.094 -0.3924  0.8636 -0.2656
  688SOL    HW2 2964   2.976   6.977   2.213 -0.7067  1.7786 -0.9400
  689SOL     OW 2965   5.362   6.442   3.743  0.1218  0.0229 -0.1208
  689SOL    HW1 2966   5.315   6.394   3.818 -0.6102  2.4604  1.0989
  689SOL    HW2 2967   5.335   6.402   3.656  0.4095 -2.4294  0.8357
  690SOL     OW 2968   4.916   3.876   4.554  0.5522  0.2620  0.4483
  690SOL    HW1 2969   4.871   3.931   4.483  1.2837  1.1668  0.6661
  690SOL    HW2 2970   4.913   3.925   4.641  2.8164  0.8625  0.2648
  691SOL     OW 2971   1.860   4.966   0.007 -0.0677  0.0577 -0.4191
  691SOL    HW1 2972   1.775   4.926   0.040 -0.1062  0.8132  0.4485
  691SOL    HW2 2973   1.853   4.982  -0.091 -0.6004 -0.6644 -0.5059
  692SOL     OW 2974   5.465   2.280   4.280  0.0135  0.2050 -0.3458
  692SOL    HW1 2975   5.518   2.344   4.225  1.0979 -0.0937  0.3240
  692SOL    HW2 2976   5.368   2.306   4.279 -0.1785 -0.3374 -3.1762
  693SOL     OW 2977   6.136   1.811   5.332  0.0392  0.7604 -0.5130
  693SOL    HW1 2978   6.108   1.755   5.254 -0.1367  1.0069 -0.6278
  693SOL    HW2 2979   6.091   1.900   5.327 -0.6323  0.4865  0.3086
  694SOL     OW 2980   1.990   3.250   6.675  0.4037  0.4266  0.3619
  694SOL    HW1 2981   1.897   3.215   6.669  0.5166  0.0637  0.6862
  694SOL    HW2 2982   2.020   3.283   6.586  0.6008 -1.0665 -0.1448
  695SOL     OW 2983   0.147   4.890   5.977  0.0750  0.1396 -0.2244
  695SOL    HW1 2984   0.204   4.860   6.053  0.2046  1.5796  0.2913
  695SOL    HW2 2985   0.170   4.839   5.894  1.7434  0.3203  0.1057
  696SOL     OW 2986   5.734   3.735   4.856 -0.0302 -0.2025  0.3068
  696SOL    HW1 2987   5.751   3.818   4.803 -0.4481 -0.9368 -1.0380
  696SOL    HW2 2988   5.645   3.697   4.831 -0.1302 -0.7082  1.3818
  697SOL     OW 2989   6.493   6.104   6.849  0.1079  0.1043  0.5153
  697SOL    HW1 2990   6.484   6.153   6.936 -0.1598  0.8982  0.0557
  697SOL    HW2 2991   6.466   6.165   6.774 -0.0915 -0.7116 -0.0871
  698SOL     OW 2992   6.616   2.456   0.064 -0.2009 -0.4203 -0.2252
  698SOL    HW1 2993   6.520   2.470   0.087 -0.1735  1.1774 -0.8916
  698SOL    HW2 2994   6.663   2.412   0.140 -1.0961  0.3898  0.8417
  699SOL     OW 2995   3.852   3.823   6.283 -0.4895 -0.0134 -1.1154
  699SOL    HW1 2996   3.757   3.845   6.304 -0.6137 -0.3245 -1.3535
  699SOL    HW2 2997   3.896   3.903   6.241 -0.3954  0.4259 -0.2153
  700SOL     OW 2998   3.539   2.001   6.071  0.2226  0.9041  0.2233
  700SOL    HW1 2999   3.567   2.024   5.978  1.7642  1.3217  0.7654
  700SOL    HW2 3000   3.447   1.962   6.069 -0.5359  2.5940 -1.2800
  701SOL     OW 3001   4.841   3.501   1.948 -0.6265  0.5369  0.4570
  701SOL    HW1 3002   4.861   3.569   1.878  0.1115 -0.2297 -0.1071
  701SOL    HW2 3003   4.845   3.410   1.907 -1.2700  0.1346  1.2653
  702SOL     OW 3004   5.113   3.608   1.266 -0.5588  0.0938  0.6861
  702SOL    HW1 3005   5.021   3.632   1.296 -0.5090  0.4673  0.5409
  702SOL    HW2 3006   5.113   3.514   1.232 -1.0011  0.2562  0.2204
  703SOL     OW 3007   2.133   6.688   4.263 -0.3683 -0.2511 -0.3932
  703SOL    HW1 3008   2.201   6.738   4.316 -0.3609  1.1146 -1.6094
  703SOL    HW2 3009   2.129   6.593   4.294  0.7923  0.0940  0.8982
  704SOL     OW 3010   3.963   1.523   2.643  0.0181 -0.6624 -0.3279
  704SOL    HW1 3011   3.937   1.603   2.590  1.8972 -0.1159 -0.5020
  704SOL    HW2 3012   4.027   1.550   2.714 -0.7198 -1.7527  0.7815
  705SOL     OW 3013   6.326   6.956   3.937 -0.5592 -0.2354 -0.2097
  705SOL    HW1 3014   6.395   6.995   3.998  0.3955  1.1415 -2.0657
  705SOL    HW2 3015   6.250   7.021   3.929 -0.5138 -0.2488 -0.7408
  706SOL     OW 3016   5.204   2.644   4.053  1.0245 -0.1799 -0.0732
  706SOL    HW1 3017   5.221   2.700   3.973 -0.1105  1.0303  0.5050
  706SOL    HW2 3018   5.134   2.576   4.032  1.5092 -0.5957 -0.3997
  707SOL     OW 3019   0.818   5.365   4.158  0.0391  0.2973 -0.0179
  707SOL    HW1 3020   0.823   5.399   4.064 -0.3590 -1.7985 -0.8505
  707SOL    HW2 3021   0.845   5.269   4.160  0.2420  0.3455  2.0736
  708SOL     OW 3022   4.813   2.528   3.491  0.0577  0.1193 -0.3515
  708SOL    HW1 3023   4.801   2.625   3.471  1.2242 -0.0324 -1.9220
  708SOL    HW2 3024   4.773   2.473   3.418  0.5357 -0.5632 -0.1103
  709SOL     OW 3025   4.126   2.389   0.751 -0.0869  0.3023  0.2631
  709SOL    HW1 3026   4.167   2.344   0.830  1.0034  1.0675  0.1555
  709SOL    HW2 3027   4.198   2.413   0.686 -0.8161  0.9425 -0.3171
  710SOL     OW 3028   3.332   2.124   6.956  0.1367  0.3029  0.2020
  710SOL    HW1 3029   3.395   2.165   7.021  0.5780 -0.1615  0.0742
  710SOL    HW2 3030   3.323   2.026   6.977 -0.1307  0.2612 -0.1096
  711SOL     OW 3031   4.804   2.035   5.107 -0.5564  0.3291  0.0372
  711SOL    HW1 3032   4.890   2.081   5.128  0.5780 -1.5451 -0.2521
  711SOL    HW2 3033   4.747   2.029   5.189  1.1718 -1.5307  1.1849
  712SOL     OW 3034   2.382   4.431   3.588  0.2596 -0.3976  0.2198
  712SOL    HW1 3035   2.333   4.503   3.638  0.3656 -1.2772  1.6577
  712SOL    HW2 3036   2.477   4.460   3.573 -0.1640  0.5035 -0.8493
  713SOL     OW 3037   4.070   3.778   3.159 -0.1977 -0.3570  0.1271
  713SOL    HW1 3038   3.993   3.825   3.116 -0.0226 -1.2473 -1.2336
  713SOL    HW2 3039   4.120   3.726   3.089  1.0699 -0.5587  1.1566
  714SOL     OW 3040   5.057   6.673   3.413  0.3416  0.0492  0.0091
  714SOL    HW1 3041   5.088   6.765   3.439 -0.5943 -0.0063  1.4643
  714SOL    HW2 3042   5.134   6.621   3.378  1.5464  0.4817  1.8596
  715SOL     OW 3043   0.341   3.180   1.566 -0.1000  0.1765 -0.1295
  715SOL    HW1 3044   0.382   3.096   1.603 -0.6770  0.7370  1.9122
  715SOL    HW2 3045   0.386   3.259   1.607 -0.0642  0.8706 -1.4744
  716SOL     OW 3046   4.927   2.419   5.389  0.0360  0.2426 -0.5399
  716SOL    HW1 3047   4.829   2.435   5.375 -0.3799 -0.8036  0.8909
  716SOL    HW2 3048   4.965   2.493   5.444 -0.1417  0.2265 -0.3929
  717SOL     OW 3049   2.438   5.478   0.914  0.1587  0.3768  0.0805
  717SOL    HW1 3050   2.477   5.468   1.006  0.8771  2.1887  0.0038
  717SOL    HW2 3051   2.340   5.495   0.921  0.2380  0.6707  0.5298
  718SOL     OW 3052   5.713   4.845   0.297 -0.0862  0.0377 -0.6962
  718SOL    HW1 3053   5.812   4.854   0.286 -0.1353  1.0927 -0.4033
  718SOL    HW2 3054   5.680   4.911   0.365 -1.1420  0.4780 -1.6032
  719SOL     OW 3055   4.303   5.811   2.846  0.3597  0.7047  0.3156
  719SOL    HW1 3056   4.360   5.736   2.880 -0.2392 -0.6479 -1.5359
  719SOL    HW2 3057   4.241   5.841   2.919 -0.5115 -1.7086  0.6428
  720SOL     OW 3058   5.837   4.428   1.096  0.1399  0.8583  0.5606
  720SOL    HW1 3059   5.857   4.361   1.167 -1.8869  1.7545  2.0732
  720SOL    HW2 3060   5.921   4.448   1.044  1.7085  0.2079  2.7165
  721SOL     OW 3061   6.459   1.601   2.946 -0.2283  0.2493  0.3423
  721SOL    HW1 3062   6.363   1.625   2.932 -0.2377 -0.8835 -1.9853
  721SOL    HW2 3063   6.467   1.539   3.024 -1.0437  2.1684  2.0321
  722SOL     OW 3064   6.083   5.963   1.610 -0.1977 -0.6473  0.3480
  722SOL    HW1 3065   6.068   5.876   1.565 -0.5684 -0.5868  0.3539
  722SOL    HW2 3066   5.996   5.999   1.644 -0.6657  1.3359 -2.5999
  723SOL     OW 3067   0.671   0.923   5.145 -0.0213 -0.1600  0.3957
  723SOL    HW1 3068   0.586   0.882   5.180  0.4555 -0.2763  1.4636
  723SOL    HW2 3069   0.749   0.876   5.186  0.5511  0.7888  0.4226
  724SOL     OW 3070   4.873   5.830   3.617 -0.1817  0.0453  0.4629
  724SOL    HW1 3071   4.933   5.770   3.671  0.5353  0.7343  0.4452
  724SOL    HW2 3072   4.832   5.899   3.677  0.5973  0.7977  0.1498
  725SOL     OW 3073   1.880   0.859   1.370 -0.0447  0.0301  0.7800
  725SOL    HW1 3074   1.855   0.883   1.464 -1.3651  0.2714  0.3769
  725SOL    HW2 3075   1.849   0.931   1.308  0.6766 -0.2080  0.1304
  726SOL     OW 3076   1.638   4.904   5.399 -0.2280 -0.1672  0.2651
  726SOL    HW1 3077   1.702   4.887   5.324 -0.9524  1.0080 -0.6533
  726SOL    HW2 3078   1.690   4.921   5.483  0.7539  1.6355 -0.6351
  727SOL     OW 3079   1.663   4.955   3.452 -0.0530  0.6238  0.6306
  727SOL    HW1 3080   1.733   4.928   3.386 -0.4622 -1.0836  0.8599
  727SOL    HW2 3081   1.639   5.051   3.437  0.2622  0.4342 -1.3391
  728SOL     OW 3082   5.651   0.882   0.256  0.8084  0.1557 -0.3803
  728SOL    HW1 3083   5.716   0.863   0.182  2.4097 -1.2089  1.2671
  728SOL    HW2 3084   5.610   0.796   0.287  1.8207  0.3479  1.6941
  729SOL     OW 3085   0.440   3.037   0.218 -0.5170 -0.2493  0.5511
  729SOL    HW1 3086   0.342   3.024   0.231 -0.6325  1.7293  2.1707
  729SOL    HW2 3087   0.487   2.949   0.229 -1.9489 -0.9490  1.4045
  730SOL     OW 3088   6.758   0.703   0.150  0.2555  0.6573 -1.0819
  730SOL    HW1 3089   6.683   0.732   0.091 -1.8546 -0.5375  0.8497
  730SOL    HW2 3090   6.756   0.755   0.235  1.0164 -0.0626 -0.6058
  731SOL     OW 3091   6.747   3.409   2.319 -0.1919 -0.1733 -0.1413
  731SOL    HW1 3092   6.791   3.498   2.313 -1.6062  0.5202 -0.7041
  731SOL    HW2 3093   6.655   3.414   2.280 -0.3440 -1.8584 -0.0914
  732SOL     OW 3094   2.621   2.023   0.366  0.1562  0.5973 -0.6882
  732SOL    HW1 3095   2.572   2.054   0.448 -1.5068 -0.0176 -1.4039
  732SOL    HW2 3096   2.720   2.023   0.384 -0.0513  2.2176  0.6940
  733SOL     OW 3097   0.652   0.540   2.890 -0.0434  0.2956  0.1056
  733SOL    HW1 3098   0.711   0.490   2.954  1.6830  0.1342 -1.5490
  733SOL    HW2 3099   0.636   0.632   2.925 -1.3889 -0.5931  2.0609
  734SOL     OW 3100   2.380   6.850   3.810  0.1942 -0.3562 -0.1324
  734SOL    HW1 3101   2.322   6.913   3.759 -2.3970 -1.8501  0.8001
  734SOL    HW2 3102   2.416   6.896   3.891  1.7638  1.0683 -1.5494
  735SOL     OW 3103   2.661   1.423   4.996 -0.1969 -0.7573  0.5706
  735SOL    HW1 3104   2.708   1.340   4.968  0.0532 -0.0630 -1.2031
  735SOL    HW2 3105   2.728   1.496   5.013 -0.5084 -0.2417 -0.3199
  736SOL     OW 3106   5.959   0.418   6.840 -0.2835  0.4943  0.0164
  736SOL    HW1 3107   5.861   0.435   6.824 -0.5053 -1.2142 -0.6647
  736SOL    HW2 3108   5.981   0.324   6.814  1.6124  0.9270 -0.0854
  737SOL     OW 3109   4.390   0.779   6.606 -0.6734  0.0138 -0.2431
  737SOL    HW1 3110   4.406   0.687   6.570 -1.9350  0.5060 -2.1699
  737SOL    HW2 3111   4.382   0.844   6.531  1.3235  1.9586  1.0962
  738SOL     OW 3112   5.357   2.306   5.359 -0.4617 -0.0800 -0.1765
  738SOL    HW1 3113   5.305   2.358   5.290 -2.2694 -0.9273  0.4864
  738SOL    HW2 3114   5.299   2.288   5.438  1.3190  0.1491  1.2605
  739SOL     OW 3115   6.918   2.526   3.947 -0.7598  0.7246  0.5382
  739SOL    HW1 3116   6.928   2.461   4.023 -0.4056  1.1277  0.8425
  739SOL    HW2 3117   6.907   2.475   3.861  3.4505  0.0769  0.1415
  740SOL     OW 3118   0.512   3.133   0.681 -0.1154 -0.2445  0.0762
  740SOL    HW1 3119   0.514   3.232   0.690 -0.7638 -0.2688  0.5205
  740SOL    HW2 3120   0.601   3.096   0.707  0.1022  0.2051 -0.0079
  741SOL     OW 3121   4.832   5.579   3.169 -0.0124  0.7023 -0.3705
  741SOL    HW1 3122   4.859   5.674   3.152 -0.4429  0.9453  0.2732
  741SOL    HW2 3123   4.888   5.541   3.243 -0.3239  0.6875 -0.1396
  742SOL     OW 3124   0.289   1.466   3.990  0.1605 -0.3979 -0.8361
  742SOL    HW1 3125   0.189   1.463   3.987  0.1243  0.6859 -0.9948
  742SOL    HW2 3126   0.323   1.531   3.922  0.8816  0.7142  0.5325
  743SOL     OW 3127   2.301   1.582   4.741 -0.1817 -0.3627  0.3207
  743SOL    HW1 3128   2.299   1.635   4.655 -1.7365 -1.3486 -0.2972
  743SOL    HW2 3129   2.372   1.512   4.736  1.0249  0.7955  0.6338
  744SOL     OW 3130   4.633   4.132   0.718  0.2310  0.1596 -0.2628
  744SOL    HW1 3131   4.614   4.161   0.625  0.2988 -0.3422 -0.4335
  744SOL    HW2 3132   4.579   4.051   0.740 -0.3373  0.6986  0.3850
  745SOL     OW 3133   3.063   3.955   2.935  0.1353 -0.2283 -0.2185
  745SOL    HW1 3134   3.090   4.013   2.859 -0.2514  1.5816  0.9353
  745SOL    HW2 3135   2.994   3.889   2.904 -1.3586  1.6421 -1.1076
  746SOL     OW 3136   4.784   1.103   1.863  0.6000  0.4853 -0.7198
  746SOL    HW1 3137   4.775   1.178   1.929 -1.5524 -1.2274  1.0939
  746SOL    HW2 3138   4.812   1.020   1.910  0.4539 -0.4550 -2.2362
  747SOL     OW 3139   1.584   3.471   0.181  0.0316 -0.5537  0.3114
  747SOL    HW1 3140   1.629   3.552   0.218  0.2222 -0.9661  0.9997
  747SOL    HW2 3141   1.572   3.403   0.254 -1.7115 -0.4582  0.1513
  748SOL     OW 3142   6.711   0.354   0.549  0.5344 -0.2790 -0.2812
  748SOL    HW1 3143   6.772   0.433   0.555  0.6881 -0.2045 -2.1515
  748SOL    HW2 3144   6.765   0.270   0.543  0.3767 -0.5141  1.2044
  749SOL     OW 3145   0.665   5.540   1.598 -0.0220 -0.1630 -0.4726
  749SOL    HW1 3146   0.590   5.481   1.627 -1.0033  1.4863  0.5336
  749SOL    HW2 3147   0.729   5.553   1.675  0.0098  0.3326 -0.5798
  750SOL     OW 3148   4.120   5.251   0.503  0.0275 -0.1374 -0.3269
  750SOL    HW1 3149   4.164   5.291   0.422  0.0517 -0.7368 -0.6117
  750SOL    HW2 3150   4.188   5.205   0.559 -0.2744 -1.3447 -0.9327
  751SOL     OW 3151   3.454   1.755   1.607 -0.2127  0.1473  0.6795
  751SOL    HW1 3152   3.462   1.855   1.599  0.7118  0.0785  0.6369
  751SOL    HW2 3153   3.535   1.719   1.654 -0.6155 -0.5695  0.8321
  752SOL     OW 3154   5.112   2.076   5.419 -0.1834 -0.2844 -0.5624
  752SOL    HW1 3155   5.064   2.135   5.354  2.3786  0.0796 -2.2669
  752SOL    HW2 3156   5.151   2.133   5.493 -0.5138 -0.2899 -0.3833
  753SOL     OW 3157   3.879   5.088   6.033  0.1068 -0.0536 -0.2943
  753SOL    HW1 3158   3.881   5.062   5.936 -1.0821 -0.0503 -0.3308
  753SOL    HW2 3159   3.918   5.179   6.044 -2.4537  1.2706 -1.2463
  754SOL     OW 3160   0.171   5.147   2.465 -0.0592 -0.1041 -0.5770
  754SOL    HW1 3161   0.187   5.207   2.543 -1.0467  1.6979 -1.6792
  754SOL    HW2 3162   0.197   5.054   2.488  1.2759  0.6832  1.3124
  755SOL     OW 3163   3.409   2.094   4.993 -0.1713  0.0551  0.1089
  755SOL    HW1 3164   3.394   2.014   5.051 -0.6603  0.7693  0.9930
  755SOL    HW2 3165   3.337   2.161   5.009  0.1102  0.5888 -0.7821
  756SOL     OW 3166   1.886   3.244   1.777  0.2002  0.8119  0.5030
  756SOL    HW1 3167   1.974   3.268   1.737 -0.6474  1.1194 -1.2729
  756SOL    HW2 3168   1.884   3.273   1.873  1.9410  0.9562  0.5220
  757SOL     OW 3169   0.883   0.149   6.659  0.3070  0.2831 -0.1130
  757SOL    HW1 3170   0.895   0.247   6.676  0.1553 -0.1635  3.0203
  757SOL    HW2 3171   0.970   0.102   6.673  0.2034 -0.1554 -0.8814
  758SOL     OW 3172   0.279   6.950   4.774  0.0214 -0.2938  0.0211
  758SOL    HW1 3173   0.196   7.002   4.793  0.3730  1.0099 -1.7286
  758SOL    HW2 3174   0.259   6.852   4.778 -2.0316 -0.0373 -1.9116
  759SOL     OW 3175   6.545   6.884   5.797 -0.6117  0.9908  0.1680
  759SOL    HW1 3176   6.487   6.842   5.867  0.5602 -0.3089  0.4118
  759SOL    HW2 3177   6.641   6.874   5.823 -0.1813  1.1127 -1.2861
  760SOL     OW 3178   6.647   4.691   2.532 -0.1606  0.3623 -0.1157
  760SOL    HW1 3179   6.554   4.702   2.567  0.0669  0.8830  0.3451
  760SOL    HW2 3180   6.712   4.720   2.602  0.3846 -0.8661 -0.1007
  761SOL     OW 3181   5.057   0.357   0.787  0.0623  0.6458  0.4033
  761SOL    HW1 3182   5.090   0.269   0.752  1.0435  0.8594  0.7586
  761SOL    HW2 3183   5.110   0.431   0.747  0.7036  0.9416  1.7309
  762SOL     OW 3184   0.520   6.284   0.554  0.4051  0.1391  0.2142
  762SOL    HW1 3185   0.505   6.199   0.504  2.3188 -0.8294  1.1759
  762SOL    HW2 3186   0.609   6.281   0.599  1.2732  3.3218 -1.0281
  763SOL     OW 3187   6.834   1.161   2.931 -0.3382  0.2841 -0.0261
  763SOL    HW1 3188   6.734   1.162   2.939 -0.3221 -1.3594  0.7864
  763SOL    HW2 3189   6.859   1.176   2.835 -1.2618  2.2768 -0.0141
  764SOL     OW 3190   6.456   1.608   6.218 -0.1484  0.7431  0.1898
  764SOL    HW1 3191   6.391   1.681   6.197 -0.0354  0.4461 -1.3434
  764SOL    HW2 3192   6.440   1.530   6.157  0.3379 -0.1461  1.1650
  765SOL     OW 3193   7.013   2.740   5.269 -1.0885  0.6373 -0.6799
  765SOL    HW1 3194   7.067   2.662   5.299 -2.1077 -0.1640 -0.9033
  765SOL    HW2 3195   7.057   2.824   5.301 -0.1084 -0.0240 -0.2372
  766SOL     OW 3196   3.691   4.925   2.854  0.1330 -0.1800 -0.0918
  766SOL    HW1 3197   3.740   4.894   2.936 -1.3615  2.1953  1.8240
  766SOL    HW2 3198   3.711   5.021   2.838  1.2571 -0.8179 -3.3051
  767SOL     OW 3199   1.183   6.846   3.659 -0.2002  0.7105  0.4489
  767SOL    HW1 3200   1.258   6.875   3.600 -0.3686 -0.6538 -0.4770
  767SOL    HW2 3201   1.101   6.899   3.636 -0.1559  0.4771 -0.2584
  768SOL     OW 3202   1.874   2.048   1.717 -0.1260  0.1532  0.0667
  768SOL    HW1 3203   1.948   2.028   1.781  0.5353  1.1118 -0.3890
  768SOL    HW2 3204   1.912   2.080   1.630 -0.9808 -1.7524 -1.0682
  769SOL     OW 3205   2.441   6.084   5.673 -0.8563 -0.8909 -0.1409
  769SOL    HW1 3206   2.536   6.114   5.664 -1.0196 -0.8965 -2.7230
  769SOL    HW2 3207   2.439   5.986   5.696 -0.2130 -1.0495 -0.7205
  770SOL     OW 3208   1.985   4.044   6.742  1.3521 -0.1372  0.0118
  770SOL    HW1 3209   1.977   4.142   6.722  4.1154  0.2738  0.4119
  770SOL    HW2 3210   2.010   3.995   6.658  0.2987 -0.4681 -0.1185
  771SOL     OW 3211   6.305   4.326   1.564  0.0967 -0.0434  0.1003
  771SOL    HW1 3212   6.301   4.306   1.466 -0.1108  0.0781  0.0829
  771SOL    HW2 3213   6.301   4.425   1.578 -2.8859 -0.1004  0.3431
  772SOL     OW 3214   3.933   1.660   0.429 -0.4800  0.0670 -0.2176
  772SOL    HW1 3215   3.978   1.579   0.393  1.5828  1.3217 -0.6019
  772SOL    HW2 3216   3.907   1.720   0.352 -0.2364  0.6545  0.1559
  773SOL     OW 3217   6.153   0.613   0.977  0.1860 -0.1644 -0.2435
  773SOL    HW1 3218   6.220   0.581   0.910  0.8567  0.7859 -0.0362
  773SOL    HW2 3219   6.163   0.712   0.990 -0.4474 -0.2151  0.7012
  774SOL     OW 3220   6.309   0.528   0.795 -0.1055 -0.1271 -0.1962
  774SOL    HW1 3221   6.333   0.431   0.798  0.1085 -0.0559  0.3595
  774SOL    HW2 3222   6.373   0.575   0.734  1.1695  0.0480  1.2109
  775SOL     OW 3223   5.055   6.375   0.254  0.2572  0.2038  0.5599
  775SOL    HW1 3224   5.053   6.276   0.249  0.1091  0.1832  0.9870
  775SOL    HW2 3225   4.969   6.408   0.294  0.2234  0.5139  0.2373
  776SOL     OW 3226   4.545   0.363   4.889  0.1435 -0.0389  0.0714
  776SOL    HW1 3227   4.455   0.349   4.848 -0.2754  0.0654  0.9250
  776SOL    HW2 3228   4.615   0.327   4.828 -0.4992 -0.4314 -0.4548
  777SOL     OW 3229   1.036   5.942   5.879 -0.0466 -0.4335  0.2309
  777SOL    HW1 3230   1.076   5.854   5.904 -1.6130 -1.1739  0.2722
  777SOL    HW2 3231   0.938   5.930   5.861 -0.0056  1.0329 -1.2249
  778SOL     OW 3232   3.614   5.087   1.833  0.0862 -0.6052  0.0731
  778SOL    HW1 3233   3.555   5.090   1.752  1.6335 -1.8387 -1.1661
  778SOL    HW2 3234   3.578   5.149   1.903 -1.0349  0.8839 -1.7279
  779SOL     OW 3235   3.302   2.656   6.768  0.2629  0.8759  0.2068
  779SOL    HW1 3236   3.287   2.718   6.690  1.1825  0.9888  0.1044
  779SOL    HW2 3237   3.400   2.652   6.788  0.0617  0.6122  1.1726
  780SOL     OW 3238   4.197   5.796   4.300 -0.3102  0.3602  0.1850
  780SOL    HW1 3239   4.101   5.769   4.307 -0.4573  0.8522  0.0764
  780SOL    HW2 3240   4.255   5.720   4.328 -0.6132 -1.2531 -3.0285
  781SOL     OW 3241   1.052   0.177   1.569  0.0222  0.0968  0.2395
  781SOL    HW1 3242   0.993   0.101   1.595  0.4310  0.0931  1.2296
  781SOL    HW2 3243   1.146   0.156   1.596  0.6712 -0.3073 -2.1448
  782SOL     OW 3244   4.806   4.266   6.806  0.0490  0.1863  0.5448
  782SOL    HW1 3245   4.830   4.179   6.762 -0.7012 -0.6434  1.6926
  782SOL    HW2 3246   4.707   4.279   6.800  0.1303  0.8400  0.6066
  783SOL     OW 3247   6.213   4.074   5.974  0.7794  0.3173 -0.5085
  783SOL    HW1 3248   6.115   4.087   5.966  0.6718  0.0785  0.3029
  783SOL    HW2 3249   6.255   4.076   5.883 -0.0677 -0.3400 -0.9264
  784SOL     OW 3250   2.968   1.304   4.844 -0.3638 -0.1767 -0.2345
  784SOL    HW1 3251   2.910   1.248   4.903  1.2287 -0.6883  0.9023
  784SOL    HW2 3252   2.923   1.392   4.827 -1.5449 -0.6203  0.4539
  785SOL     OW 3253   5.237   1.332   4.664 -0.1379  0.3856  0.4768
  785SOL    HW1 3254   5.158   1.276   4.641 -0.3245  1.2639 -1.1669
  785SOL    HW2 3255   5.320   1.278   4.658 -0.4853 -0.2137  0.9457
  786SOL     OW 3256   5.336   6.236   2.738 -0.9740 -0.4208 -0.5817
  786SOL    HW1 3257   5.337   6.149   2.689  1.7585  0.2723 -1.9458
  786SOL    HW2 3258   5.300   6.308   2.679  1.7305  0.2932 -1.5026
  787SOL     OW 3259   0.088   5.658   4.591 -0.4318 -0.3814 -0.0274
  787SOL    HW1 3260   0.173   5.695   4.552  0.2147 -1.9439 -0.1846
  787SOL    HW2 3261   0.103   5.636   4.687 -0.7584 -0.3874  0.0227
  788SOL     OW 3262   2.069   3.624   6.553  0.1406 -0.6076 -0.2765
  788SOL    HW1 3263   2.137   3.606   6.624  1.3931 -1.3463 -1.6019
  788SOL    HW2 3264   1.977   3.604   6.588  0.6859 -0.5894  1.2257
  789SOL     OW 3265   5.961   4.957   4.809 -0.2323  0.9010 -0.2157
  789SOL    HW1 3266   6.036   4.905   4.851  0.7697  2.4034 -0.0636
  789SOL    HW2 3267   5.884   4.962   4.873 -0.3758 -0.4169 -0.2601
  790SOL     OW 3268   6.164   1.911   4.487  0.1450 -0.0526  0.0080
  790SOL    HW1 3269   6.200   1.830   4.534  1.4272  0.8051  0.5638
  790SOL    HW2 3270   6.221   1.990   4.509 -0.3380  0.7564 -1.5110
  791SOL     OW 3271   5.591   1.754   6.979 -0.3637  0.5047 -0.4678
  791SOL    HW1 3272   5.551   1.821   7.043  0.6707  0.2501  0.4724
  791SOL    HW2 3273   5.599   1.796   6.889 -0.3760  1.4222 -0.0583
  792SOL     OW 3274   3.906   4.845   4.529  0.2759  0.6515 -0.2532
  792SOL    HW1 3275   3.905   4.901   4.446  1.5797  1.3408  0.1696
  792SOL    HW2 3276   4.000   4.833   4.560 -0.2151  0.7570  1.3583
  793SOL     OW 3277   4.011   6.083   4.878  0.2676  0.4281 -0.5329
  793SOL    HW1 3278   4.026   6.095   4.976  0.5676  0.8462 -0.6273
  793SOL    HW2 3279   4.098   6.095   4.829  0.1883 -0.1243 -0.8208
  794SOL     OW 3280   1.695   3.492   5.246 -0.1181 -0.3300 -0.3539
  794SOL    HW1 3281   1.739   3.505   5.157 -1.6411  1.6499 -0.8792
  794SOL    HW2 3282   1.688   3.394   5.265  0.0120 -0.8133 -2.5257
  795SOL     OW 3283   6.861   1.227   1.732 -0.1182 -0.1976 -0.2224
  795SOL    HW1 3284   6.869   1.245   1.830 -0.0192  1.7017 -0.5575
  795SOL    HW2 3285   6.844   1.312   1.683 -2.1616 -1.3321 -1.6764
  796SOL     OW 3286   0.267   0.740   4.237 -0.6812 -0.1702 -0.3633
  796SOL    HW1 3287   0.167   0.746   4.228 -0.6525 -0.3072 -0.8098
  796SOL    HW2 3288   0.310   0.780   4.156 -0.3452  1.1680  0.4553
  797SOL     OW 3289   2.697   1.689   2.187 -0.2963  0.3935 -0.0398
  797SOL    HW1 3290   2.732   1.760   2.248 -0.2887  0.5408 -0.2157
  797SOL    HW2 3291   2.750   1.689   2.102 -0.3553  0.2386 -0.0767
  798SOL     OW 3292   6.119   3.214   5.887 -0.0877 -0.4283 -0.2714
  798SOL    HW1 3293   6.189   3.255   5.946  0.3930 -2.0096  0.3022
  798SOL    HW2 3294   6.159   3.192   5.799  0.4707 -2.3133  0.4163
  799SOL     OW 3295   6.529   3.933   5.605 -0.2882 -0.0433  0.0498
  799SOL    HW1 3296   6.624   3.907   5.621 -0.6003 -2.1108 -1.1418
  799SOL    HW2 3297   6.469   3.859   5.635 -1.6637  1.7080  1.9168
  800SOL     OW 3298   2.544   5.909   0.073  0.3337  0.0927 -0.1102
  800SOL    HW1 3299   2.570   5.975   0.144 -3.6296  1.6435  0.1563
  800SOL    HW2 3300   2.594   5.930  -0.011  0.7629  2.0964  0.5833
  801SOL     OW 3301   4.115   6.591   5.748 -0.2583 -0.6042  0.2084
  801SOL    HW1 3302   4.169   6.577   5.831 -1.5444  1.0001  1.3794
  801SOL    HW2 3303   4.026   6.629   5.773 -0.5168  0.2935 -1.9579
  802SOL     OW 3304   6.098   5.262   0.725  0.7638 -0.3033 -0.1659
  802SOL    HW1 3305   6.164   5.296   0.792  0.5474 -0.9722  0.3861
  802SOL    HW2 3306   6.128   5.173   0.690  0.0915 -0.6755  0.1899
  803SOL     OW 3307   6.366   0.319   5.313  0.1073  0.0133  0.0216
  803SOL    HW1 3308   6.279   0.351   5.351  1.2453  1.6211  1.4487
  803SOL    HW2 3309   6.401   0.387   5.249  1.1108  0.2141  0.7621
  804SOL     OW 3310   2.676   3.914   5.586 -0.1336  0.1498 -0.0428
  804SOL    HW1 3311   2.586   3.878   5.559  0.6038 -0.4908 -1.7737
  804SOL    HW2 3312   2.716   3.965   5.510  0.5622  1.3020  1.0565
  805SOL     OW 3313   3.776   2.032   6.925 -0.2830 -0.0287  0.0457
  805SOL    HW1 3314   3.850   2.088   6.887  1.0073  0.1638  2.5876
  805SOL    HW2 3315   3.704   2.091   6.961  1.0048  0.1116  2.5848
  806SOL     OW 3316   2.232   0.003   4.502 -0.3887  0.4036 -0.4783
  806SOL    HW1 3317   2.162  -0.063   4.529 -1.1864  0.5389 -2.1230
  806SOL    HW2 3318   2.296  -0.040   4.439 -0.3712  0.9338 -0.8330
  807SOL     OW 3319   4.262   1.523   6.639  0.1248 -0.1098 -0.1848
  807SOL    HW1 3320   4.345   1.532   6.695 -0.7339  1.7453  0.8816
  807SOL    HW2 3321   4.281   1.558   6.547  0.1118  2.0079  0.5555
  808SOL     OW 3322   1.865   1.444   5.949  0.0941 -0.4055 -0.6844
  808SOL    HW1 3323   1.803   1.415   6.022  0.3801  0.6151 -0.0130
  808SOL    HW2 3324   1.919   1.366   5.917 -0.9683 -1.1403 -0.7356
  809SOL     OW 3325   5.015   0.990   0.126 -0.5157 -0.2613 -0.1946
  809SOL    HW1 3326   5.088   0.954   0.067  0.1559  1.7173 -0.6388
  809SOL    HW2 3327   5.027   0.955   0.219 -0.9895 -2.6174 -0.9462
  810SOL     OW 3328   4.543   2.228   3.387  0.4547  0.0564 -0.3379
  810SOL    HW1 3329   4.542   2.244   3.485  1.3739  1.5750 -0.5476
  810SOL    HW2 3330   4.570   2.133   3.369 -0.1181 -0.3510  0.8601
  811SOL     OW 3331   6.294   5.410   3.132 -0.1228  0.0170  0.1327
  811SOL    HW1 3332   6.199   5.389   3.109 -0.5316  0.8934  0.9633
  811SOL    HW2 3333   6.347   5.325   3.135 -0.8082 -0.4473 -0.6153
  812SOL     OW 3334   6.123   4.314   5.597 -0.3547  0.3026 -0.2027
  812SOL    HW1 3335   6.050   4.305   5.665  0.2902  1.0751  0.6270
  812SOL    HW2 3336   6.085   4.349   5.512 -1.1728 -0.6366 -0.2348
  813SOL     OW 3337   4.681   0.442   3.562  0.2582  0.5194 -0.3100
  813SOL    HW1 3338   4.713   0.348   3.548  0.4032  0.5918 -0.4719
  813SOL    HW2 3339   4.582   0.445   3.556  0.2816  0.4553 -0.7721
  814SOL     OW 3340   5.266   6.263   2.005 -0.1805 -0.0553  0.2194
  814SOL    HW1 3341   5.219   6.234   2.087  0.5639  0.7345  0.9490
  814SOL    HW2 3342   5.244   6.359   1.985  0.6404  0.1523  0.2490
  815SOL     OW 3343   0.581   2.291   4.902  0.4234  0.0756 -0.0529
  815SOL    HW1 3344   0.666   2.275   4.951  0.6730 -0.2966 -0.5985
  815SOL    HW2 3345   0.583   2.381   4.859  0.4350  0.1717  0.1492
  816SOL     OW 3346   1.404   3.455   2.244 -0.0511 -0.2094  0.3166
  816SOL    HW1 3347   1.415   3.546   2.282  3.1695 -0.5654  0.5500
  816SOL    HW2 3348   1.342   3.401   2.301  0.1036  1.0353  1.6986
  817SOL     OW 3349   4.837   4.054   0.891  0.3486  0.5256 -0.0741
  817SOL    HW1 3350   4.774   4.095   0.825 -0.2128 -0.3313 -0.0921
  817SOL    HW2 3351   4.926   4.098   0.884  1.2217 -1.3291 -3.4336
  818SOL     OW 3352   6.400   0.188   2.656 -0.2645  0.1201  0.2237
  818SOL    HW1 3353   6.348   0.132   2.720  0.9757  0.1619  1.2992
  818SOL    HW2 3354   6.386   0.154   2.563 -2.8998  0.6841  0.3427
  819SOL     OW 3355   6.521   4.975   0.669  0.6546  0.2945 -0.7806
  819SOL    HW1 3356   6.560   4.957   0.760 -0.7884  0.0475 -0.1835
  819SOL    HW2 3357   6.531   4.893   0.612 -2.0305 -1.0877  0.5272
  820SOL     OW 3358   0.296   5.863   6.471  0.5148 -0.4023 -0.6407
  820SOL    HW1 3359   0.355   5.917   6.411  1.3751 -0.5341  0.0739
  820SOL    HW2 3360   0.346   5.836   6.553 -0.6874 -0.0653  0.2437
  821SOL     OW 3361   3.044   3.963   4.178  0.0301 -0.7060  0.2012
  821SOL    HW1 3362   3.073   3.936   4.086 -1.1104 -0.3392 -0.2847
  821SOL    HW2 3363   3.043   4.062   4.185 -1.0712 -0.7032  0.1945
  822SOL     OW 3364   2.006   6.894   4.761  0.7218  0.2389  0.1385
  822SOL    HW1 3365   1.928   6.843   4.796 -1.5075  0.3512 -4.0610
  822SOL    HW2 3366   2.077   6.830   4.732  0.6853 -0.0580  0.6814
  823SOL     OW 3367   1.048   5.856   2.523  0.1517 -0.0757 -0.8484
  823SOL    HW1 3368   0.952   5.848   2.550  0.3681 -0.4579 -0.1708
  823SOL    HW2 3369   1.104   5.869   2.605  0.6196  0.7262 -1.2867
  824SOL     OW 3370   0.281   3.288   3.147 -0.8454  0.1405 -0.0984
  824SOL    HW1 3371   0.279   3.359   3.218 -1.5096  0.7428 -0.6967
  824SOL    HW2 3372   0.276   3.198   3.189 -1.2607  0.4921  0.6149
  825SOL     OW 3373   1.329   3.497   0.040  0.2795 -0.4872 -0.3472
  825SOL    HW1 3374   1.409   3.503   0.099  0.4411  0.1612 -0.6280
  825SOL    HW2 3375   1.247   3.481   0.095 -0.0029  2.8148  0.4021
  826SOL     OW 3376   6.566   3.220   6.494  0.8197  0.5947  0.7419
  826SOL    HW1 3377   6.566   3.153   6.569  1.0760  2.1567  2.1919
  826SOL    HW2 3378   6.653   3.215   6.446  0.4219 -0.8482  0.1035
  827SOL     OW 3379   6.222   3.058   4.262 -0.4800  0.4439 -0.3566
  827SOL    HW1 3380   6.208   3.034   4.165  0.5310 -1.3956 -0.1021
  827SOL    HW2 3381   6.140   3.036   4.314 -1.0086  1.3899 -0.7741
  828SOL     OW 3382   4.774   0.098   2.535 -0.3076  0.1799 -0.3938
  828SOL    HW1 3383   4.682   0.067   2.511 -0.4679  0.7234 -0.4935
  828SOL    HW2 3384   4.776   0.122   2.632 -0.8121  2.0165 -0.7952
  829SOL     OW 3385   1.213   5.555   6.463 -0.1103  0.1907  0.0049
  829SOL    HW1 3386   1.264   5.481   6.507  0.4337  0.5266 -0.0434
  829SOL    HW2 3387   1.116   5.549   6.488 -0.0622 -0.5116  0.0262
  830SOL     OW 3388   2.120   0.898   3.674  0.8963  0.2734 -0.3249
  830SOL    HW1 3389   2.196   0.913   3.611  1.5494 -1.9899 -0.1943
  830SOL    HW2 3390   2.100   0.800   3.678  0.1629  0.4590  2.1778
  831SOL     OW 3391   1.067   3.169   2.256  0.9807 -0.7361 -0.6737
  831SOL    HW1 3392   1.142   3.111   2.224  0.1502 -0.9369 -2.3648
  831SOL    HW2 3393   0.981   3.134   2.220  0.1574 -0.0184  0.5460
  832SOL     OW 3394   3.714   5.776   6.415  0.2393  0.5403  0.6398
  832SOL    HW1 3395   3.722   5.874   6.430 -1.1839  0.5286  1.7814
  832SOL    HW2 3396   3.721   5.755   6.318 -1.5388  2.0416  0.1381
  833SOL     OW 3397   0.009   3.770   3.682 -0.3860 -0.4303 -0.6547
  833SOL    HW1 3398  -0.032   3.860   3.665  0.5180  0.3305  0.9223
  833SOL    HW2 3399  -0.058   3.711   3.727 -0.8253 -0.3787 -1.2352
  834SOL     OW 3400   2.694   1.602   5.322  0.0588 -0.4735 -0.0855
  834SOL    HW1 3401   2.622   1.580   5.255 -0.4247 -0.5795  0.4623
  834SOL    HW2 3402   2.656   1.662   5.393  0.4336 -0.7804  0.3771
  835SOL     OW 3403   1.622   2.414   1.326 -0.6859  0.5141  0.2860
  835SOL    HW1 3404   1.687   2.338   1.320 -0.7967  0.4785 -0.5870
  835SOL    HW2 3405   1.642   2.469   1.407  0.4190  0.4926  0.0426
  836SOL     OW 3406   2.104   0.465   5.479  0.6210  0.5193 -0.7003
  836SOL    HW1 3407   2.057   0.500   5.398  0.7941 -1.3944 -1.6700
  836SOL    HW2 3408   2.152   0.381   5.456  2.7774  1.2611  0.7934
  837SOL     OW 3409   3.389   1.643   1.366  0.3019  0.5396 -0.3102
  837SOL    HW1 3410   3.411   1.671   1.459  0.0923  0.6426 -0.2893
  837SOL    HW2 3411   3.371   1.724   1.310 -1.1426  0.4362 -0.0346
  838SOL     OW 3412   7.017   1.630   4.740  0.0137 -0.7981 -0.4862
  838SOL    HW1 3413   7.012   1.665   4.646  3.2183 -3.7281 -1.9574
  838SOL    HW2 3414   6.935   1.576   4.760 -1.7002  1.5399 -0.6715
  839SOL     OW 3415   4.746   4.124   1.211 -0.1112  0.6415 -0.2235
  839SOL    HW1 3416   4.712   4.031   1.228  3.6081 -0.7282  0.7203
  839SOL    HW2 3417   4.782   4.130   1.118 -1.6537  1.6509 -0.7824
  840SOL     OW 3418   1.671   6.295   5.560 -0.3577 -0.6683 -0.0113
  840SOL    HW1 3419   1.705   6.265   5.471 -0.8541 -1.2763  0.0007
  840SOL    HW2 3420   1.679   6.220   5.626  0.4737 -0.0701  0.5956
  841SOL     OW 3421   3.915   4.075   4.934 -0.1881  0.0416  0.4556
  841SOL    HW1 3422   3.924   3.977   4.918 -0.3363 -0.0795  1.0764
  841SOL    HW2 3423   4.006   4.115   4.943 -0.0709  0.2114 -1.1323
  842SOL     OW 3424   3.606   5.487   1.698 -0.1831  0.3767  0.0637
  842SOL    HW1 3425   3.697   5.466   1.736 -0.2407 -0.5409 -0.2843
  842SOL    HW2 3426   3.560   5.554   1.757  0.8188  1.0617  0.0969
  843SOL     OW 3427   1.575   5.762   0.170 -0.2559 -0.2683  0.3953
  843SOL    HW1 3428   1.479   5.761   0.145 -0.0951  0.0857 -0.2664
  843SOL    HW2 3429   1.626   5.698   0.112  0.0344  0.1680  0.1593
  844SOL     OW 3430   2.480   2.225   6.667  0.1359  0.0897 -0.5936
  844SOL    HW1 3431   2.552   2.293   6.660  0.5336 -0.4045 -1.5104
  844SOL    HW2 3432   2.521   2.134   6.677 -0.3809 -0.0591  0.2444
  845SOL     OW 3433   0.126   1.246   4.982  0.3563  0.1786  0.3162
  845SOL    HW1 3434   0.212   1.199   5.004  0.9213  1.3414  0.7094
  845SOL    HW2 3435   0.091   1.291   5.065  0.8400  2.0046 -0.4185
  846SOL     OW 3436   1.271   6.507   3.546  0.6490 -0.4627 -0.3453
  846SOL    HW1 3437   1.211   6.433   3.517  1.2454 -0.2454 -2.2420
  846SOL    HW2 3438   1.273   6.578   3.477 -0.9788  2.0588  2.0198
  847SOL     OW 3439   5.073   3.913   3.981  0.2998  0.0246 -0.0345
  847SOL    HW1 3440   5.018   3.982   3.933  1.0639 -0.2925 -1.4277
  847SOL    HW2 3441   5.014   3.835   4.004 -0.0139  0.0007 -0.8577
  848SOL     OW 3442   2.054   2.823   5.528  0.5834 -0.1610  0.0614
  848SOL    HW1 3443   2.092   2.730   5.522 -1.2508 -0.8649 -1.6106
  848SOL    HW2 3444   2.037   2.845   5.624  2.5015 -0.9023  0.6255
  849SOL     OW 3445   5.132   1.707   6.234 -0.1419 -0.5649  0.3821
  849SOL    HW1 3446   5.188   1.775   6.187 -0.8838 -0.9514 -1.1356
  849SOL    HW2 3447   5.125   1.731   6.331  2.5224 -0.4465  0.6325
  850SOL     OW 3448   4.708   3.164   6.929  0.0040  0.1504 -0.4052
  850SOL    HW1 3449   4.806   3.155   6.948  0.0818  2.0488  0.3166
  850SOL    HW2 3450   4.692   3.151   6.831  1.0740  0.4227 -0.6346
  851SOL     OW 3451   5.425   1.837   3.191 -0.1270 -0.1738 -0.4099
  851SOL    HW1 3452   5.491   1.910   3.211 -0.4068  0.0589 -0.3299
  851SOL    HW2 3453   5.361   1.869   3.121 -2.0340  0.7270  1.6490
  852SOL     OW 3454   1.872   1.241   6.716 -0.3697 -0.1995 -1.0151
  852SOL    HW1 3455   1.825   1.155   6.735 -2.4495  1.1414  0.3192
  852SOL    HW2 3456   1.893   1.288   6.802  1.5064  0.2778 -1.6761
  853SOL     OW 3457   0.934   5.222   0.448  0.0009  0.0484 -0.5070
  853SOL    HW1 3458   0.950   5.229   0.547 -1.1071 -0.2349 -0.3000
  853SOL    HW2 3459   0.838   5.199   0.431  0.3654 -0.7247 -1.6285
  854SOL     OW 3460   3.934   6.802   2.008 -0.4557 -0.4393 -0.4247
  854SOL    HW1 3461   3.875   6.874   1.972 -1.6676 -0.7141  0.9241
  854SOL    HW2 3462   4.021   6.803   1.959 -0.9060  1.1297 -1.2676
  855SOL     OW 3463   2.409   5.439   2.690 -0.6619 -0.1321 -0.2624
  855SOL    HW1 3464   2.338   5.381   2.730 -1.1855  0.7044  0.0347
  855SOL    HW2 3465   2.481   5.455   2.758 -0.5657 -0.3424 -0.3126
  856SOL     OW 3466   5.910   1.654   4.115 -0.2293  0.0429  0.6096
  856SOL    HW1 3467   5.976   1.725   4.138  1.6791 -1.5878  0.4352
  856SOL    HW2 3468   5.844   1.645   4.190 -0.5583  1.9877  0.6009
  857SOL     OW 3469   6.055   6.495   3.857  0.0483 -0.1582  0.0763
  857SOL    HW1 3470   6.148   6.521   3.829  0.1955 -0.1190  0.5881
  857SOL    HW2 3471   6.027   6.551   3.935 -0.1026 -0.7036  0.4169
  858SOL     OW 3472   1.718   0.783   2.967 -0.2755 -0.5485  0.1032
  858SOL    HW1 3473   1.745   0.834   2.886  0.6026 -1.4468 -0.1921
  858SOL    HW2 3474   1.667   0.842   3.029 -0.9095  0.1661 -1.0747
  859SOL     OW 3475   5.934   6.224   4.467  0.1933 -0.8133 -0.4819
  859SOL    HW1 3476   5.952   6.126   4.468 -2.5322 -1.4038  1.0434
  859SOL    HW2 3477   5.841   6.240   4.432 -0.4295  0.9691  1.7728
  860SOL     OW 3478   2.636   5.007   2.132 -0.3497  0.2344  0.1516
  860SOL    HW1 3479   2.641   4.985   2.034 -2.6207  1.4276 -0.2952
  860SOL    HW2 3480   2.608   4.925   2.182  0.8170 -0.3847 -0.1810
  861SOL     OW 3481   3.387   0.086   6.969  0.5735 -0.2536  0.3295
  861SOL    HW1 3482   3.387   0.142   6.886  1.6571  0.7308  0.9614
  861SOL    HW2 3483   3.475   0.038   6.977  0.6863  0.0649  1.1468
  862SOL     OW 3484   0.930   1.551   2.600 -0.4118  0.2251  0.3102
  862SOL    HW1 3485   1.015   1.560   2.651 -0.9730 -0.6801  1.4545
  862SOL    HW2 3486   0.934   1.608   2.518  0.2441  2.2805  1.6959
  863SOL     OW 3487   4.094   6.173   6.094 -0.4993  0.0313 -0.3544
  863SOL    HW1 3488   4.082   6.263   6.135  0.3305 -1.1462  2.7773
  863SOL    HW2 3489   4.174   6.128   6.134  0.3661 -1.3507 -3.3590
  864SOL     OW 3490   3.853   6.303   5.908  0.1016 -0.4030  0.5557
  864SOL    HW1 3491   3.866   6.392   5.863 -0.0898 -0.6666 -0.0326
  864SOL    HW2 3492   3.893   6.306   5.999  0.8729  0.0130  0.2133
  865SOL     OW 3493   3.415   1.031   0.095  0.2674 -0.1201  0.1757
  865SOL    HW1 3494   3.408   0.941   0.052  2.8739 -0.7731  0.9038
  865SOL    HW2 3495   3.381   1.101   0.032  1.4343 -1.3022 -1.8798
  866SOL     OW 3496   4.961   3.834   2.621 -0.1178 -0.0330  0.0990
  866SOL    HW1 3497   4.930   3.924   2.650  0.4647  0.0019  0.6293
  866SOL    HW2 3498   4.911   3.807   2.538  1.2121  1.6942 -1.3486
  867SOL     OW 3499   0.840   5.517   6.828  0.6634 -0.1050 -0.5549
  867SOL    HW1 3500   0.756   5.463   6.836  0.3819  0.1334 -1.7310
  867SOL    HW2 3501   0.878   5.532   6.920 -0.1394 -0.8825 -0.0670
  868SOL     OW 3502   6.774   3.861   3.396  0.0283 -0.1566  0.4846
  868SOL    HW1 3503   6.714   3.936   3.425 -0.5094 -0.4311  0.1029
  868SOL    HW2 3504   6.861   3.899   3.365 -0.1275  0.2901  0.5859
  869SOL     OW 3505   0.560   2.625   2.570 -0.0977 -0.3863  0.0003
  869SOL    HW1 3506   0.627   2.649   2.501 -0.2197 -0.0628 -0.0095
  869SOL    HW2 3507   0.603   2.624   2.660  0.2610 -1.6710 -0.1710
  870SOL     OW 3508   5.966   1.944   1.008 -0.1939  0.5100  0.0931
  870SOL    HW1 3509   6.021   1.998   0.945 -0.6377 -0.2437 -0.9731
  870SOL    HW2 3510   6.023   1.871   1.048  0.0645  0.9350  0.5149
  871SOL     OW 3511   5.596   0.649   0.336 -0.3630 -0.4606 -0.3387
  871SOL    HW1 3512   5.575   0.563   0.289  2.5784 -1.4726 -0.0563
  871SOL    HW2 3513   5.686   0.641   0.379 -1.1648  1.8937  1.9673
  872SOL     OW 3514   4.402   4.320   1.325 -0.1352 -0.2522  0.2333
  872SOL    HW1 3515   4.344   4.259   1.271 -2.2660  0.0781  2.0222
  872SOL    HW2 3516   4.411   4.283   1.418  1.6523  0.2902  0.3036
  873SOL     OW 3517   3.445   0.397   1.438 -0.4533 -0.0832  0.1309
  873SOL    HW1 3518   3.358   0.391   1.389 -0.7043 -3.3668  0.7608
  873SOL    HW2 3519   3.428   0.398   1.536  0.1881  2.8023  0.2937
  874SOL     OW 3520   6.593   1.378   0.053 -0.1916  0.0459  0.4218
  874SOL    HW1 3521   6.543   1.292   0.048  0.1161 -0.0563 -2.5738
  874SOL    HW2 3522   6.529   1.454   0.044 -0.2071  0.0562  0.6107
  875SOL     OW 3523   0.874   2.514   0.389  0.1364  0.5662  0.2055
  875SOL    HW1 3524   0.956   2.506   0.445 -1.3002 -0.0296  2.4039
  875SOL    HW2 3525   0.799   2.548   0.447 -2.1472 -2.6513 -0.5891
  876SOL     OW 3526   6.462   4.296   2.738  0.0098  0.1267 -0.1934
  876SOL    HW1 3527   6.521   4.276   2.660  0.0215 -1.0185  0.0880
  876SOL    HW2 3528   6.512   4.277   2.823 -0.7961 -1.0547  0.0469
  877SOL     OW 3529   1.421   3.645   6.597 -0.5742 -0.2037 -0.0012
  877SOL    HW1 3530   1.321   3.654   6.595 -0.8253 -2.1720  1.3046
  877SOL    HW2 3531   1.450   3.619   6.689  1.1254 -0.0605 -0.4670
  878SOL     OW 3532   5.420   1.125   3.657  0.0127  0.3362 -0.6393
  878SOL    HW1 3533   5.444   1.181   3.578  1.4155  0.2674 -0.2853
  878SOL    HW2 3534   5.388   1.036   3.626  0.4369  0.3516 -1.1331
  879SOL     OW 3535   5.258   4.461   5.897 -0.0952  0.3129  0.4852
  879SOL    HW1 3536   5.214   4.400   5.963 -1.0167  0.8337  0.3633
  879SOL    HW2 3537   5.192   4.529   5.865  0.4181  0.2774 -0.7203
  880SOL     OW 3538   3.292   3.401   6.162  0.0823  0.1337  0.7912
  880SOL    HW1 3539   3.309   3.496   6.135 -0.5996 -0.2689 -1.2645
  880SOL    HW2 3540   3.336   3.382   6.250  0.1506  2.3565  1.2785
  881SOL     OW 3541   4.622   1.015   3.427  0.5782 -0.3917 -0.2949
  881SOL    HW1 3542   4.620   1.097   3.485  0.9631  0.3700 -1.3300
  881SOL    HW2 3543   4.544   0.956   3.450 -1.0080  1.3147 -0.9994
  882SOL     OW 3544   6.807   0.280   6.168 -0.0535  0.3040 -0.3827
  882SOL    HW1 3545   6.760   0.198   6.202 -0.4675  0.6099 -0.2053
  882SOL    HW2 3546   6.742   0.355   6.163  0.6702  1.0591  1.0070
  883SOL     OW 3547   6.056   2.219   3.126 -0.0877  0.4470  0.2072
  883SOL    HW1 3548   6.087   2.184   3.038  1.2713  3.6074 -0.6984
  883SOL    HW2 3549   5.968   2.267   3.114 -0.2283  0.3264  0.7165
  884SOL     OW 3550   3.090   6.198   0.542  0.0781  0.1813  0.1091
  884SOL    HW1 3551   3.025   6.180   0.616 -0.4707 -0.3651 -0.4886
  884SOL    HW2 3552   3.083   6.125   0.474  1.0815  0.3062 -0.1346
  885SOL     OW 3553   3.816   2.040   3.526  0.1362 -0.2143 -0.0893
  885SOL    HW1 3554   3.739   2.080   3.576  0.1450  1.7802 -1.5390
  885SOL    HW2 3555   3.822   2.082   3.435  2.7360 -0.5566 -0.1486
  886SOL     OW 3556   1.456   3.214   6.832  0.0976  0.1205  0.2418
  886SOL    HW1 3557   1.516   3.278   6.784  1.6986 -1.4610 -0.0032
  886SOL    HW2 3558   1.478   3.121   6.804 -1.7991 -0.6089  0.9630
  887SOL     OW 3559   5.994   4.329   2.727  0.0735 -0.0389  0.0039
  887SOL    HW1 3560   6.067   4.378   2.679 -0.1664  1.2991  0.9232
  887SOL    HW2 3561   5.931   4.396   2.767 -1.7596 -1.1550 -0.8887
  888SOL     OW 3562   3.370   6.224   5.380  0.1253 -0.1856 -0.2115
  888SOL    HW1 3563   3.332   6.252   5.292  0.3403 -1.8513 -0.8893
  888SOL    HW2 3564   3.469   6.220   5.373  0.3149  1.8460  0.8242
  889SOL     OW 3565   4.819   0.200   1.377 -0.5029 -0.0260 -0.1249
  889SOL    HW1 3566   4.839   0.279   1.319  1.8446  1.5823  2.6020
  889SOL    HW2 3567   4.905   0.163   1.413 -1.7779 -1.6912  1.3742
  890SOL     OW 3568   6.991   6.942   0.549  0.1798  0.1256  0.0938
  890SOL    HW1 3569   6.999   6.850   0.510  0.2637 -0.1033  0.6330
  890SOL    HW2 3570   6.982   6.935   0.649  0.2614  0.7077  0.1464
  891SOL     OW 3571   3.443   5.481   2.815 -0.2366  0.0540 -0.1685
  891SOL    HW1 3572   3.349   5.463   2.845 -0.2826  0.5933  0.0280
  891SOL    HW2 3573   3.443   5.560   2.754  0.0320 -0.2391 -0.5487
  892SOL     OW 3574   3.849   1.429   1.969 -0.2658 -0.3373 -0.0069
  892SOL    HW1 3575   3.877   1.352   2.025  1.4570  0.1097 -0.2125
  892SOL    HW2 3576   3.862   1.514   2.020  0.1845 -0.0133 -0.6382
  893SOL     OW 3577   3.992   0.508   4.130 -0.4990 -0.6547 -0.9623
  893SOL    HW1 3578   3.937   0.457   4.196 -0.3706  0.6858  0.2230
  893SOL    HW2 3579   3.947   0.595   4.110  0.4395 -0.2023 -1.1521
  894SOL     OW 3580   4.113   2.657   6.384  0.3136  0.0500  0.1369
  894SOL    HW1 3581   4.158   2.656   6.474  0.6584 -1.0846 -0.0335
  894SOL    HW2 3582   4.136   2.742   6.337  1.0052  0.1850  0.6971
  895SOL     OW 3583   4.997   2.530   5.950 -0.3755  0.5625 -0.1668
  895SOL    HW1 3584   4.988   2.457   6.018  1.2281 -1.3699 -1.9139
  895SOL    HW2 3585   4.908   2.547   5.907 -0.4033 -2.1061 -1.3682
  896SOL     OW 3586   5.591   5.630   0.760 -0.0622 -0.6971 -0.3394
  896SOL    HW1 3587   5.545   5.619   0.672 -0.0777 -1.3656 -0.2542
  896SOL    HW2 3588   5.685   5.660   0.745 -0.6862  1.3957 -0.4957
  897SOL     OW 3589   0.818   4.878   2.757  0.1025 -0.0689  0.3730
  897SOL    HW1 3590   0.751   4.830   2.814  0.5292 -1.4587 -0.2311
  897SOL    HW2 3591   0.904   4.826   2.757  0.5154  0.5928 -0.5031
  898SOL     OW 3592   0.104   6.162   6.698 -0.4320  0.9890 -0.3549
  898SOL    HW1 3593   0.118   6.073   6.741 -0.0781 -0.0479 -2.4938
  898SOL    HW2 3594   0.155   6.232   6.748  0.9934 -0.3697  0.1406
  899SOL     OW 3595   6.758   1.510   2.412  0.0242 -0.1878 -0.4830
  899SOL    HW1 3596   6.804   1.594   2.438 -0.1798 -0.8561  2.2724
  899SOL    HW2 3597   6.660   1.527   2.402  0.2591  0.3537 -2.3636
  900SOL     OW 3598   6.210   3.644   2.587  0.2983  0.5814 -0.1681
  900SOL    HW1 3599   6.298   3.658   2.540  0.5193  0.8775  0.3268
  900SOL    HW2 3600   6.143   3.609   2.521  0.7341  0.5316 -0.5948
  901SOL     OW 3601   2.442   4.354   2.757 -0.1388 -0.4871  0.2556
  901SOL    HW1 3602   2.360   4.355   2.813 -0.1272  2.0888  0.3072
  901SOL    HW2 3603   2.521   4.331   2.814 -0.4558 -0.3619  0.7463
  902SOL     OW 3604   0.261   6.969   2.222  0.1348 -1.0124  0.4294
  902SOL    HW1 3605   0.169   6.990   2.189 -0.2240 -2.4436  0.4441
  902SOL    HW2 3606   0.299   6.893   2.170  2.0609  0.6690 -0.7637
  903SOL     OW 3607   0.192   6.716   2.561 -0.4719  0.4446  0.6780
  903SOL    HW1 3608   0.141   6.800   2.545 -1.6017 -0.1037  1.2459
  903SOL    HW2 3609   0.160   6.673   2.646 -0.5842 -1.0310 -0.0693
  904SOL     OW 3610   3.254   2.753   1.720  0.4836 -0.8147  0.6846
  904SOL    HW1 3611   3.319   2.781   1.650 -1.6498  2.8773 -0.0935
  904SOL    HW2 3612   3.192   2.684   1.682 -0.1528  0.5555 -0.8868
  905SOL     OW 3613   6.981   3.692   4.881  0.7315 -0.1232  0.2583
  905SOL    HW1 3614   6.983   3.751   4.962 -0.0098  0.2739  0.0007
  905SOL    HW2 3615   6.902   3.717   4.824 -1.1455 -2.9983  1.3740
  906SOL     OW 3616   3.468   0.189   3.138  0.2320 -0.5728 -1.4612
  906SOL    HW1 3617   3.491   0.281   3.106 -0.2293 -0.2723 -0.9351
  906SOL    HW2 3618   3.482   0.124   3.063 -1.4502  0.2112 -2.5025
  907SOL     OW 3619   6.661   4.642   6.743 -0.1839  0.1100  0.1356
  907SOL    HW1 3620   6.745   4.684   6.707  0.2730 -0.9945 -0.1176
  907SOL    HW2 3621   6.642   4.678   6.834  0.8227  0.0361  0.3849
  908SOL     OW 3622   1.866   6.900   1.647 -0.1404 -0.4184  0.2689
  908SOL    HW1 3623   1.795   6.917   1.716  0.6166  3.1701  0.3439
  908SOL    HW2 3624   1.955   6.893   1.693  0.0862 -0.3681 -0.1636
  909SOL     OW 3625   0.890   2.918   4.407  0.3763 -0.0783  0.5901
  909SOL    HW1 3626   0.918   2.976   4.331 -0.4518 -1.4119 -0.8019
  909SOL    HW2 3627   0.926   2.955   4.493  1.1083  1.6234 -0.3987
  910SOL     OW 3628   4.469   1.546   0.135  0.8239  0.0449  0.3418
  910SOL    HW1 3629   4.419   1.623   0.094 -1.5224 -2.1238 -1.1436
  910SOL    HW2 3630   4.492   1.479   0.064  1.0284 -1.5487  1.8517
  911SOL     OW 3631   0.663   6.673   0.628 -0.3445  0.1424 -0.0859
  911SOL    HW1 3632   0.665   6.622   0.713  1.5198  0.0554 -0.1248
  911SOL    HW2 3633   0.624   6.617   0.555  0.2866 -0.6940  0.2033
  912SOL     OW 3634   0.781   2.596   5.879 -0.2066  0.0265 -0.5187
  912SOL    HW1 3635   0.786   2.601   5.780  2.0203  1.1542 -0.4200
  912SOL    HW2 3636   0.796   2.687   5.918  0.6862 -0.6666  0.8564
  913SOL     OW 3637   5.668   5.264   5.615  1.0333  0.6270  0.1417
  913SOL    HW1 3638   5.628   5.205   5.545  0.9067 -1.3170  1.7635
  913SOL    HW2 3639   5.760   5.232   5.638  0.4815  0.2311  1.9537
  914SOL     OW 3640   2.458   3.672   6.129  0.1039  0.1010  0.5952
  914SOL    HW1 3641   2.390   3.745   6.121 -0.7898 -0.5687  1.7918
  914SOL    HW2 3642   2.421   3.598   6.184  0.8803 -1.4065 -0.8240
  915SOL     OW 3643   1.528   0.603   0.243 -0.2389  0.1694  0.2926
  915SOL    HW1 3644   1.519   0.670   0.170 -2.1220  0.1309  0.4465
  915SOL    HW2 3645   1.580   0.642   0.319  4.0892 -0.6124 -1.9502
  916SOL     OW 3646   4.730   4.005   6.612 -0.2358  0.5796 -0.3321
  916SOL    HW1 3647   4.731   3.910   6.643  0.7534  1.4929  2.7109
  916SOL    HW2 3648   4.651   4.052   6.651  0.4447  1.5259 -0.0750
  917SOL     OW 3649   0.100   1.759   5.266 -0.3824  0.1710  0.2190
  917SOL    HW1 3650   0.150   1.711   5.339 -2.2683  0.6224  1.8860
  917SOL    HW2 3651   0.036   1.696   5.223 -0.9322  0.4963  0.5565
  918SOL     OW 3652   6.486   6.750   2.425 -0.1187  0.1090 -0.7248
  918SOL    HW1 3653   6.439   6.751   2.514  1.0287 -0.8510 -0.0801
  918SOL    HW2 3654   6.470   6.663   2.380 -0.1424  0.3369 -1.1586
  919SOL     OW 3655   0.214   3.544   1.350  0.4282  0.6443 -0.1464
  919SOL    HW1 3656   0.197   3.540   1.448  1.3296  2.1263  0.1049
  919SOL    HW2 3657   0.135   3.583   1.303 -0.3111 -0.7731 -0.1369
  920SOL     OW 3658   4.054   1.408   1.763 -0.0401 -0.2937 -0.0863
  920SOL    HW1 3659   4.000   1.395   1.846  0.6372 -1.4691  0.1982
  920SOL    HW2 3660   4.000   1.380   1.683 -0.3262 -0.1803  0.0699
  921SOL     OW 3661   2.448   2.133   5.695 -0.1108  0.5786 -0.1254
  921SOL    HW1 3662   2.386   2.056   5.681  0.2396  0.3033 -0.1948
  921SOL    HW2 3663   2.480   2.166   5.606  1.1355 -0.3588 -0.0594
  922SOL     OW 3664   5.171   4.380   4.296 -0.2358  0.3213 -0.7907
  922SOL    HW1 3665   5.252   4.326   4.317  0.4720  1.7575  0.3619
  922SOL    HW2 3666   5.146   4.435   4.376 -2.9534 -0.7681 -0.7589
  923SOL     OW 3667   0.397   2.108   5.404  0.5750  0.0677 -0.4104
  923SOL    HW1 3668   0.367   2.062   5.320  1.4350 -0.0604 -0.6544
  923SOL    HW2 3669   0.414   2.204   5.385  0.0898  0.1947 -0.2139
  924SOL     OW 3670   0.476   3.065   3.495  0.2494 -0.3019  0.1787
  924SOL    HW1 3671   0.437   3.157   3.492  0.7177 -0.1228 -1.6193
  924SOL    HW2 3672   0.506   3.038   3.403  2.3153 -1.3091  1.0768
  925SOL     OW 3673   4.883   2.329   2.588 -0.5053  0.3550  0.6782
  925SOL    HW1 3674   4.856   2.314   2.493  0.6759  1.2365  0.1725
  925SOL    HW2 3675   4.887   2.427   2.607  1.2300  0.2653  1.0034
  926SOL     OW 3676   0.457   1.117   3.971 -0.6077  0.3216 -0.5422
  926SOL    HW1 3677   0.552   1.088   3.955 -0.6434 -1.1632  1.4372
  926SOL    HW2 3678   0.455   1.186   4.043 -1.0895 -0.8544  0.6224
  927SOL     OW 3679   4.373   0.640   6.330  0.6260  0.2669  0.5867
  927SOL    HW1 3680   4.274   0.641   6.317  0.5500 -0.7568  1.0421
  927SOL    HW2 3681   4.397   0.578   6.404  1.6312  0.3404  0.3411
  928SOL     OW 3682   1.868   3.513   2.770  0.2954 -0.3785  0.6256
  928SOL    HW1 3683   1.861   3.592   2.831 -0.0734  0.8480 -0.9424
  928SOL    HW2 3684   1.961   3.476   2.775  0.3174 -0.2194  1.7932
  929SOL     OW 3685   4.273   1.269   2.978  0.2087  0.3547 -0.4050
  929SOL    HW1 3686   4.264   1.336   2.904 -0.1465  0.5271 -0.2068
  929SOL    HW2 3687   4.351   1.294   3.035  1.1277 -0.3619 -1.3163
  930SOL     OW 3688   6.674   6.578   3.542  0.4605 -0.5405 -0.4911
  930SOL    HW1 3689   6.627   6.581   3.454  0.6892  1.2213 -0.5883
  930SOL    HW2 3690   6.670   6.486   3.579 -1.8580 -0.7595 -1.1500
  931SOL     OW 3691   6.064   6.247   3.442  0.7000  1.0412 -0.6216
  931SOL    HW1 3692   6.025   6.328   3.487  3.8175  1.0790  2.4028
  931SOL    HW2 3693   6.090   6.271   3.348 -1.0410  2.6376 -0.7694
  932SOL     OW 3694   5.405   1.881   2.521  0.4483  0.2767 -0.4836
  932SOL    HW1 3695   5.414   1.790   2.563  0.0461 -0.1829 -1.3532
  932SOL    HW2 3696   5.466   1.945   2.566 -0.0934 -0.1562  0.9005
  933SOL     OW 3697   6.080   4.278   6.800 -0.1368  0.4478  0.3071
  933SOL    HW1 3698   6.118   4.362   6.839 -0.2977  1.2921 -1.3039
  933SOL    HW2 3699   6.152   4.228   6.752  0.6990 -1.8940  3.6133
  934SOL     OW 3700   0.607   3.783   2.478  0.1094 -0.2802  0.0996
  934SOL    HW1 3701   0.622   3.826   2.567  0.0835 -1.8549  0.9134
  934SOL    HW2 3702   0.692   3.743   2.445 -0.5607 -2.7922  1.1760
  935SOL     OW 3703   2.951   5.589   0.518 -0.9001  0.1020 -0.1405
  935SOL    HW1 3704   2.983   5.566   0.610 -1.5133  2.2786  0.6821
  935SOL    HW2 3705   2.857   5.556   0.506 -0.5829 -0.7857 -0.2662
  936SOL     OW 3706   2.442   4.766   6.155  0.1317  0.1581  0.4202
  936SOL    HW1 3707   2.483   4.779   6.246 -0.9679  0.5461  0.8754
  936SOL    HW2 3708   2.468   4.676   6.120 -0.8660 -0.7438  1.9001
  937SOL     OW 3709   0.034   2.247   0.824 -0.2107  0.2009 -0.4088
  937SOL    HW1 3710   0.120   2.280   0.863 -1.4844  1.2899  1.6965
  937SOL    HW2 3711  -0.008   2.320   0.771 -1.4046  0.9256  1.4227
  938SOL     OW 3712   3.289   0.442   0.317  0.1426 -0.5238  0.2312
  938SOL    HW1 3713   3.220   0.482   0.378  0.5896 -1.3460  1.3110
  938SOL    HW2 3714   3.293   0.495   0.232  0.3586  1.4398  1.3884
  939SOL     OW 3715   0.777   4.642   5.187  0.3285  0.1819 -0.1189
  939SOL    HW1 3716   0.823   4.713   5.241 -1.8227  0.1869  1.8453
  939SOL    HW2 3717   0.710   4.685   5.125  0.5597 -0.0242 -0.5182
  940SOL     OW 3718   0.561   0.606   4.984  0.6248 -0.1198  0.4984
  940SOL    HW1 3719   0.489   0.659   5.029  1.2920  0.6473  0.6863
  940SOL    HW2 3720   0.622   0.668   4.934  1.0300 -0.7749  0.1714
  941SOL     OW 3721   1.504   2.225   0.420  0.3119  0.0785  0.2054
  941SOL    HW1 3722   1.432   2.284   0.457  0.5619  2.3197 -2.5904
  941SOL    HW2 3723   1.470   2.175   0.341  1.0726 -0.9917  0.5316
  942SOL     OW 3724   2.405   4.109   1.645 -0.2769 -0.0238 -0.4405
  942SOL    HW1 3725   2.350   4.132   1.565  0.9847  0.0976 -1.2956
  942SOL    HW2 3726   2.345   4.101   1.725 -1.6231 -0.6025 -1.4631
  943SOL     OW 3727   5.988   2.389   4.592  0.0236  1.0102  0.6668
  943SOL    HW1 3728   5.894   2.422   4.605  0.0126  0.6838  1.5154
  943SOL    HW2 3729   5.989   2.318   4.522 -0.2641  1.4290  0.2333
  944SOL     OW 3730   5.476   2.017   4.349  0.4704  0.0476 -0.0170
  944SOL    HW1 3731   5.489   2.116   4.342  1.8164  0.0991  2.2697
  944SOL    HW2 3732   5.413   1.997   4.423  2.0450 -0.8282  1.1447
  945SOL     OW 3733   5.830   2.096   2.496  0.3156  0.7047 -0.1055
  945SOL    HW1 3734   5.740   2.083   2.537  0.1450 -0.7508 -0.8999
  945SOL    HW2 3735   5.820   2.146   2.410  0.2303  0.1929 -0.3902
  946SOL     OW 3736   0.022   6.158   5.285  0.5814 -0.7378 -0.4274
  946SOL    HW1 3737  -0.072   6.164   5.251  0.4785 -1.3024 -0.2486
  946SOL    HW2 3738   0.086   6.157   5.208  0.4654 -0.0070 -0.5410
  947SOL     OW 3739   5.879   1.573   6.294  0.3473 -0.3270  0.2795
  947SOL    HW1 3740   5.904   1.494   6.350 -1.5137  0.0495  1.7470
  947SOL    HW2 3741   5.924   1.655   6.329  0.0788 -0.2837  0.5288
  948SOL     OW 3742   0.212   4.512   5.341  0.3656  0.1645 -0.3854
  948SOL    HW1 3743   0.212   4.426   5.290  0.6606 -0.1324  0.1073
  948SOL    HW2 3744   0.305   4.533   5.371  0.0703 -0.1360  0.8052
  949SOL     OW 3745   1.830   6.693   4.790  0.2787 -0.3389 -0.4345
  949SOL    HW1 3746   1.802   6.598   4.778  1.3007 -0.8097  0.6346
  949SOL    HW2 3747   1.749   6.750   4.803 -0.3153 -1.2442 -0.0005
  950SOL     OW 3748   2.595   1.707   0.515  0.0404 -0.5838 -0.6912
  950SOL    HW1 3749   2.575   1.644   0.590  1.1915 -1.2191 -0.8933
  950SOL    HW2 3750   2.692   1.732   0.518 -0.1602  0.2975 -1.2877
  951SOL     OW 3751   0.578   6.163   1.186  0.7113  0.2518 -0.2570
  951SOL    HW1 3752   0.529   6.124   1.108 -1.1513 -1.9764  1.8701
  951SOL    HW2 3753   0.655   6.103   1.209  0.3365  0.0432  0.4913
  952SOL     OW 3754   4.498   5.318   6.643 -0.1732  0.1554  0.8159
  952SOL    HW1 3755   4.477   5.222   6.665  1.9071 -0.4377  0.3991
  952SOL    HW2 3756   4.594   5.326   6.619 -0.6375  2.1341 -0.5782
  953SOL     OW 3757   2.586   4.804   2.295 -0.2342 -0.1815 -0.3340
  953SOL    HW1 3758   2.624   4.769   2.381  1.6765 -0.4539 -1.2315
  953SOL    HW2 3759   2.560   4.728   2.236  0.0300 -0.0408 -0.6410
  954SOL     OW 3760   4.828   5.058   4.503 -0.4097 -0.4540  0.3818
  954SOL    HW1 3761   4.777   4.977   4.528 -0.5406 -0.3651  0.4008
  954SOL    HW2 3762   4.868   5.099   4.585 -1.2960  0.1483  0.5236
  955SOL     OW 3763   4.121   5.908   3.803 -0.5550  0.2321  0.1241
  955SOL    HW1 3764   4.125   6.008   3.805  0.8635  0.2119 -0.4469
  955SOL    HW2 3765   4.172   5.871   3.881 -2.3857 -0.0728  1.2438
  956SOL     OW 3766   0.219   5.112   5.447  0.0697  0.3728  0.0146
  956SOL    HW1 3767   0.247   5.155   5.361 -0.5733  1.1759  0.1939
  956SOL    HW2 3768   0.206   5.014   5.433  0.1096  0.4772 -0.7703
  957SOL     OW 3769   5.813   6.627   4.643  0.0020 -0.1599 -0.3058
  957SOL    HW1 3770   5.848   6.629   4.550  2.4381  1.0215  0.5532
  957SOL    HW2 3771   5.850   6.547   4.691  0.0049  0.0720  0.0810
  958SOL     OW 3772   1.132   4.411   2.688  0.1693  0.3684  0.2209
  958SOL    HW1 3773   1.092   4.502   2.692  0.1451  0.3681  0.0094
  958SOL    HW2 3774   1.105   4.366   2.602  1.5917  0.8237 -0.4965
  959SOL     OW 3775   3.718   2.896   1.937  0.1458  0.0816 -0.5854
  959SOL    HW1 3776   3.767   2.854   2.014  0.5856  0.2373 -0.7796
  959SOL    HW2 3777   3.621   2.871   1.943  0.0668  0.5579  0.3445
  960SOL     OW 3778   1.797   5.999   6.658 -0.1216  0.3378  0.2576
  960SOL    HW1 3779   1.816   5.908   6.622 -0.7016  0.2880  0.0728
  960SOL    HW2 3780   1.705   6.028   6.632  0.1801  1.1225  0.0199
  961SOL     OW 3781   0.894   5.759   6.503  0.3661 -0.1961 -0.6158
  961SOL    HW1 3782   0.924   5.679   6.556  1.6949  1.6149  1.5251
  961SOL    HW2 3783   0.969   5.825   6.497 -1.1031  1.4968 -1.1050
  962SOL     OW 3784   6.042   5.949   3.289 -0.5153  0.1259 -0.2532
  962SOL    HW1 3785   5.974   5.980   3.355 -0.5410  0.1575 -0.2943
  962SOL    HW2 3786   6.072   5.856   3.312  0.1120  0.4620  0.3048
  963SOL     OW 3787   1.188   2.883   2.685  0.0836 -0.1778  0.7583
  963SOL    HW1 3788   1.261   2.950   2.701 -0.6004  0.4837  1.1937
  963SOL    HW2 3789   1.144   2.861   2.772 -0.3286 -0.4567  0.4796
  964SOL     OW 3790   0.120   1.081   3.175 -0.0871 -0.7336 -0.2103
  964SOL    HW1 3791   0.128   1.129   3.088  1.8948 -0.6528 -0.0156
  964SOL    HW2 3792   0.151   0.987   3.165  0.4745 -0.6286  0.4791
  965SOL     OW 3793   3.408   2.120   2.836 -0.4778  0.5782  0.5630
  965SOL    HW1 3794   3.429   2.164   2.748 -0.3684  2.1324  1.3311
  965SOL    HW2 3795   3.326   2.064   2.826  0.9668 -1.3932 -1.1646
  966SOL     OW 3796   2.129   5.832   4.728  0.2316 -0.0243  0.4749
  966SOL    HW1 3797   2.056   5.833   4.796  0.0562  1.4565  0.2941
  966SOL    HW2 3798   2.189   5.754   4.745 -0.5230 -0.3854  1.5618
  967SOL     OW 3799   3.905   3.064   3.321  0.1019  0.5813 -0.8458
  967SOL    HW1 3800   3.817   3.043   3.276 -0.2589  0.7211 -0.2173
  967SOL    HW2 3801   3.967   3.103   3.254  0.0123 -0.3912 -1.5211
  968SOL     OW 3802   5.808   6.127   5.903 -0.4341 -0.0378  0.0079
  968SOL    HW1 3803   5.816   6.097   5.808 -0.9205 -0.6996  0.1701
  968SOL    HW2 3804   5.746   6.205   5.909  0.1376  0.4510 -0.3003
  969SOL     OW 3805   3.268   5.916   1.205 -0.3673  0.1851  0.5510
  969SOL    HW1 3806   3.200   5.890   1.274 -0.3374  0.2920  0.6205
  969SOL    HW2 3807   3.357   5.931   1.249 -0.6446  1.5477  0.6872
  970SOL     OW 3808   4.335   3.811   1.677 -0.1563 -0.1739 -0.0173
  970SOL    HW1 3809   4.274   3.732   1.687 -0.4522 -0.1179 -1.2926
  970SOL    HW2 3810   4.289   3.893   1.712 -0.1103 -0.4420  0.6811
  971SOL     OW 3811   1.877   6.457   0.431  0.1438  0.0418 -0.2059
  971SOL    HW1 3812   1.848   6.421   0.342  0.0959 -0.4985  0.0232
  971SOL    HW2 3813   1.948   6.526   0.418  0.5448 -0.4485 -0.6284
  972SOL     OW 3814   3.287   1.480   0.178  0.2960 -0.1048  0.5546
  972SOL    HW1 3815   3.357   1.425   0.223 -0.8357  0.3609  3.0167
  972SOL    HW2 3816   3.211   1.497   0.241 -0.7235  1.8468 -1.0664
  973SOL     OW 3817   5.615   1.344   2.487  0.3300 -0.3482  0.2208
  973SOL    HW1 3818   5.595   1.257   2.441  1.0171 -0.3379 -0.1019
  973SOL    HW2 3819   5.544   1.362   2.556 -2.0220  0.7039 -2.2929
  974SOL     OW 3820   1.892   3.057   2.336  0.0286 -0.1540 -0.2548
  974SOL    HW1 3821   1.909   2.959   2.347  1.7349  0.0936 -0.3842
  974SOL    HW2 3822   1.881   3.078   2.239 -0.0428 -0.1742 -0.2511
  975SOL     OW 3823   5.586   1.119   0.435 -0.1293  0.3539  0.2441
  975SOL    HW1 3824   5.549   1.172   0.358  2.7265  0.2833 -1.3242
  975SOL    HW2 3825   5.616   1.030   0.402  1.4383  0.4287  1.3675
  976SOL     OW 3826   6.694   0.250   4.693  0.3120  0.1772  0.5536
  976SOL    HW1 3827   6.776   0.216   4.646 -1.7847 -2.3319 -1.5397
  976SOL    HW2 3828   6.635   0.173   4.717 -0.7528  1.7738  3.5416
  977SOL     OW 3829   3.065   6.125   4.968 -0.4751  0.3456 -0.0341
  977SOL    HW1 3830   3.025   6.038   4.940 -0.8769  0.2689  0.7487
  977SOL    HW2 3831   3.050   6.139   5.066  1.4338  0.2958  0.3230
  978SOL     OW 3832   0.296   5.423   4.721 -0.3339 -0.6121 -0.3579
  978SOL    HW1 3833   0.237   5.380   4.653 -2.3995  1.7505 -0.2053
  978SOL    HW2 3834   0.266   5.396   4.813 -1.6830  1.0848 -0.2595
  979SOL     OW 3835   3.569   6.515   0.835 -0.0760 -0.4855 -0.1255
  979SOL    HW1 3836   3.523   6.595   0.874 -0.6662 -1.0914  0.4307
  979SOL    HW2 3837   3.656   6.501   0.880  0.6776  0.6438 -1.1544
  980SOL     OW 3838   3.893   2.718   5.281 -0.5106 -0.2233  0.0480
  980SOL    HW1 3839   3.816   2.667   5.319  0.4527 -1.0381  0.9769
  980SOL    HW2 3840   3.964   2.655   5.252 -0.9533  0.4094 -2.6686
  981SOL     OW 3841   3.308   6.592   4.246  0.3988 -0.0599 -0.0874
  981SOL    HW1 3842   3.232   6.613   4.308  0.2546  0.1358 -0.3322
  981SOL    HW2 3843   3.365   6.520   4.287  0.9275  0.8375  0.7944
  982SOL     OW 3844   6.961   2.025   3.323 -0.2880 -0.1411 -0.4006
  982SOL    HW1 3845   6.989   2.115   3.357  2.0290 -0.9357  0.0273
  982SOL    HW2 3846   6.874   2.032   3.275  0.1285  2.4416 -0.9023
  983SOL     OW 3847   6.804   3.172   6.365 -0.0723 -0.1800  0.3899
  983SOL    HW1 3848   6.834   3.265   6.386 -2.3354  0.7442 -0.2506
  983SOL    HW2 3849   6.812   3.156   6.267 -1.1505 -0.0844  0.2760
  984SOL     OW 3850   1.332   6.576   2.886  0.5469 -0.2199  0.0091
  984SOL    HW1 3851   1.332   6.487   2.932 -0.6151  0.1938  0.8714
  984SOL    HW2 3852   1.408   6.631   2.920  0.2751 -0.2778  0.7340
  985SOL     OW 3853   6.045   1.384   2.016  0.0181  0.2494 -0.3905
  985SOL    HW1 3854   5.971   1.354   1.955  0.3293 -0.5877 -0.3700
  985SOL    HW2 3855   6.133   1.350   1.982  0.1986 -0.2355  0.5067
  986SOL     OW 3856   5.385   0.457   5.492  0.2082 -0.7965  0.1973
  986SOL    HW1 3857   5.473   0.441   5.447  0.1714 -0.9850  0.1930
  986SOL    HW2 3858   5.345   0.541   5.456  0.1175 -1.0169 -0.2171
  987SOL     OW 3859   0.784   1.302   1.350  0.2575 -0.2821  0.3101
  987SOL    HW1 3860   0.792   1.379   1.413  0.7864  0.0521 -0.1501
  987SOL    HW2 3861   0.687   1.278   1.338  0.0294  0.7891 -0.1048
  988SOL     OW 3862   4.422   0.383   5.346  0.6851 -0.2420  0.2675
  988SOL    HW1 3863   4.383   0.352   5.259  0.1567  1.1580 -0.0126
  988SOL    HW2 3864   4.400   0.479   5.360 -0.0388 -0.6559  2.3918
  989SOL     OW 3865   4.029   3.088   0.618 -0.2525 -0.5545  0.5039
  989SOL    HW1 3866   3.929   3.091   0.612 -0.1528  0.1408 -0.9919
  989SOL    HW2 3867   4.056   3.086   0.715 -1.6823 -0.2451  0.9321
  990SOL     OW 3868   1.044   2.668   7.001 -0.0474 -0.4291  0.1102
  990SOL    HW1 3869   0.970   2.715   6.952  1.5093  1.6995 -0.3556
  990SOL    HW2 3870   1.078   2.592   6.945 -1.0107 -0.6238 -0.2334
  991SOL     OW 3871   1.025   6.338   1.213  0.1648  0.1956 -0.2735
  991SOL    HW1 3872   1.121   6.357   1.191  0.5029 -0.1577  0.8485
  991SOL    HW2 3873   1.010   6.240   1.216  0.5093  0.1521  2.4371
  992SOL     OW 3874   5.226   6.916   2.666 -0.1162 -0.0056  0.2764
  992SOL    HW1 3875   5.152   6.940   2.603 -0.1798  1.1037  0.7491
  992SOL    HW2 3876   5.211   6.824   2.702 -0.3970 -0.4238 -0.8598
  993SOL     OW 3877   6.068   5.082   1.503  0.3492 -0.1209  0.6349
  993SOL    HW1 3878   6.135   5.012   1.478 -0.8366 -1.4218  0.9707
  993SOL    HW2 3879   6.038   5.131   1.421  1.4512  0.2653  0.4447
  994SOL     OW 3880   1.972   2.880   4.961  0.3208  0.4760  0.0606
  994SOL    HW1 3881   1.878   2.879   4.926 -0.0194  1.1329  0.9041
  994SOL    HW2 3882   2.014   2.791   4.947 -0.2078  0.3589 -0.9012
  995SOL     OW 3883   0.785   3.193   4.956 -0.9450 -0.5063 -0.2390
  995SOL    HW1 3884   0.806   3.230   4.865 -1.6558 -1.3920 -0.7947
  995SOL    HW2 3885   0.686   3.198   4.971 -0.7564  0.3367  0.8203
  996SOL     OW 3886   1.366   6.863   3.472 -1.1056 -0.2709 -0.3028
  996SOL    HW1 3887   1.314   6.806   3.407 -1.6483  3.4778 -3.5182
  996SOL    HW2 3888   1.445   6.903   3.425  0.3274  0.2369  2.3442
  997SOL     OW 3889   1.687   5.825   1.345  0.3189  0.1735 -0.0613
  997SOL    HW1 3890   1.652   5.732   1.359 -2.4369  0.9703 -1.0349
  997SOL    HW2 3891   1.675   5.851   1.250 -0.0928  1.9371  0.4341
  998SOL     OW 3892   1.885   2.121   0.634 -0.3631  0.2062  0.0450
  998SOL    HW1 3893   1.944   2.123   0.715 -2.2244  1.5029  1.4620
  998SOL    HW2 3894   1.848   2.212   0.617 -1.9882 -0.5564 -0.7420
  999SOL     OW 3895   0.768   5.984   1.254  0.3845  0.0001  0.3062
  999SOL    HW1 3896   0.763   5.945   1.346  0.8821 -0.6273  0.0732
  999SOL    HW2 3897   0.859   6.021   1.239 -0.2415  1.8302  0.7349
 1000SOL     OW 3898   3.004   4.007   4.936  0.6711  0.3788  0.5221
 1000SOL    HW1 3899   3.023   3.999   4.838 -0.3031 -0.2191  0.3661
 1000SOL    HW2 3900   2.909   4.038   4.948  0.9686  1.0317  1.2751
 1001SOL     OW 3901   5.253   6.192   5.179  0.2881  0.2044  0.0273
 1001SOL    HW1 3902   5.217   6.206   5.087 -0.5039  0.9101  0.4328
 1001SOL    HW2 3903   5.311   6.269   5.204  1.0313 -0.2959 -0.1158
 1002SOL     OW 3904   1.593   1.142   0.967 -0.2185 -0.3779 -0.6400
 1002SOL    HW1 3905   1.571   1.074   0.897 -1.6321 -0.6396  0.0215
 1002SOL    HW2 3906   1.513   1.198   0.986  0.3985  0.2744  0.1479
 1003SOL     OW 3907   5.734   2.614   3.793 -0.1393 -0.5573 -0.4905
 1003SOL    HW1 3908   5.786   2.568   3.865 -1.2363 -0.8007  0.1750
 1003SOL    HW2 3909   5.642   2.633   3.827 -0.7552 -0.9085 -1.9328
 1004SOL     OW 3910   4.641   4.659   3.592  0.8782 -0.5859  0.0996
 1004SOL    HW1 3911   4.706   4.667   3.517 -0.4330  2.0482 -0.9019
 1004SOL    HW2 3912   4.688   4.678   3.679  1.5040  1.4424 -0.6190
 1005SOL     OW 3913   4.046   3.193   4.104 -0.3730 -0.6049  0.2362
 1005SOL    HW1 3914   4.096   3.128   4.162 -0.4461 -1.4067 -0.5854
 1005SOL    HW2 3915   4.064   3.286   4.137 -1.8075 -1.0865  2.6547
 1006SOL     OW 3916   5.807   0.075   2.483  0.0716 -0.0225 -0.4892
 1006SOL    HW1 3917   5.777  -0.020   2.484 -0.7093  0.1970 -1.7006
 1006SOL    HW2 3918   5.768   0.123   2.561  0.9752 -0.8184  0.4929
 1007SOL     OW 3919   6.827   1.020   5.628  0.1500  0.1850  0.6064
 1007SOL    HW1 3920   6.813   1.106   5.677  0.1079 -0.3125  1.4955
 1007SOL    HW2 3921   6.780   1.023   5.540  1.0046  1.4566  0.1611
 1008SOL     OW 3922   6.942   0.948   4.611  0.2218  0.1867 -0.0337
 1008SOL    HW1 3923   7.021   1.009   4.608 -0.1309  0.6894  0.5340
 1008SOL    HW2 3924   6.967   0.859   4.573  0.8331  0.5816 -0.5846
 1009SOL     OW 3925   0.601   4.193   6.863 -0.2250  0.3497 -0.1052
 1009SOL    HW1 3926   0.628   4.281   6.901  1.8870 -0.4833  0.4750
 1009SOL    HW2 3927   0.627   4.190   6.766 -1.2946  0.7295 -0.4216
 1010SOL     OW 3928   4.683   2.898   6.931 -0.0854  0.0216 -0.0151
 1010SOL    HW1 3929   4.709   2.994   6.947 -2.4926  0.7282  0.1267
 1010SOL    HW2 3930   4.591   2.883   6.968 -0.3306 -1.9744 -1.3252
 1011SOL     OW 3931   1.809   5.493   4.609  0.3778  0.1808 -0.2256
 1011SOL    HW1 3932   1.805   5.571   4.671  0.0896 -0.4152  0.5113
 1011SOL    HW2 3933   1.716   5.462   4.590  0.5283 -0.4839  0.1206
 1012SOL     OW 3934   2.964   2.837   6.750 -0.4081 -0.3661  0.1058
 1012SOL    HW1 3935   3.004   2.808   6.837 -0.0501 -3.1564 -0.8822
 1012SOL    HW2 3936   2.998   2.928   6.726 -1.6906  1.1624  3.5244
 1013SOL     OW 3937   0.732   4.930   2.483  0.2016  0.7779  0.3617
 1013SOL    HW1 3938   0.764   5.011   2.435 -0.3237  0.5349 -0.4197
 1013SOL    HW2 3939   0.758   4.936   2.579 -3.5183  4.0430  1.4343
 1014SOL     OW 3940   0.896   1.101   4.346 -0.1204 -0.2596 -0.1016
 1014SOL    HW1 3941   0.851   1.050   4.419 -1.6661  0.2776 -0.6301
 1014SOL    HW2 3942   0.831   1.119   4.273  1.0522  0.3279 -1.0433
 1015SOL     OW 3943   3.391   5.793   6.247 -0.3472  0.2667  0.2264
 1015SOL    HW1 3944   3.483   5.807   6.211 -0.7593 -0.9673 -1.4111
 1015SOL    HW2 3945   3.394   5.723   6.318  0.0978  0.9550  0.9127
 1016SOL     OW 3946   4.933   3.941   3.328 -0.6909 -0.1435 -0.1906
 1016SOL    HW1 3947   4.863   4.001   3.368 -1.2900 -0.7169 -0.3561
 1016SOL    HW2 3948   4.895   3.894   3.248 -1.0252 -2.4459  1.2168
 1017SOL     OW 3949   3.117   2.289   1.444 -0.5930 -0.4484  0.0700
 1017SOL    HW1 3950   3.024   2.258   1.465 -0.7948  1.1917  1.8845
 1017SOL    HW2 3951   3.174   2.280   1.525  0.6075 -0.5377 -0.7605
 1018SOL     OW 3952   1.529   2.651   0.968  0.0521  0.0910  0.0861
 1018SOL    HW1 3953   1.487   2.741   0.963  0.2903  0.2485  0.8115
 1018SOL    HW2 3954   1.547   2.617   0.876 -0.5262  0.5527 -0.1990
 1019SOL     OW 3955   1.286   4.625   0.923  0.3720 -0.2165 -0.1597
 1019SOL    HW1 3956   1.369   4.680   0.910 -0.4150  1.2033  0.6194
 1019SOL    HW2 3957   1.253   4.593   0.835  0.5291  1.0751 -0.7108
 1020SOL     OW 3958   2.290   4.194   2.541  0.3152  0.4129  0.1167
 1020SOL    HW1 3959   2.298   4.230   2.448  2.6636 -0.4884 -0.0797
 1020SOL    HW2 3960   2.346   4.248   2.603  0.3155 -0.1966  0.6535
 1021SOL     OW 3961   2.759   4.030   6.213  0.0757 -0.2514 -0.0959
 1021SOL    HW1 3962   2.694   3.983   6.153 -0.0183  0.2639 -0.4009
 1021SOL    HW2 3963   2.816   4.091   6.158  2.6853 -2.6521 -0.3354
 1022SOL     OW 3964   3.683   1.546   0.414 -0.1924  0.6468 -0.4988
 1022SOL    HW1 3965   3.699   1.483   0.490 -0.9240 -0.1240 -0.9692
 1022SOL    HW2 3966   3.747   1.622   0.420  1.5448 -0.7608 -0.6140
 1023SOL     OW 3967   5.871   5.519   5.365 -0.3254  0.1010 -0.1591
 1023SOL    HW1 3968   5.859   5.485   5.272 -2.5070 -1.7162  0.7173
 1023SOL    HW2 3969   5.835   5.612   5.372 -0.7926 -0.0129 -0.9681
 1024SOL     OW 3970   6.404   2.890   1.186 -0.5409  0.0005  0.2952
 1024SOL    HW1 3971   6.354   2.943   1.255  1.1732  2.2104 -0.0354
 1024SOL    HW2 3972   6.500   2.885   1.211 -0.5955 -3.0563  0.2578
 1025SOL     OW 3973   4.840   1.840   3.491 -0.1986  0.0246 -0.4051
 1025SOL    HW1 3974   4.759   1.781   3.498 -0.2670  0.2897  1.6426
 1025SOL    HW2 3975   4.920   1.792   3.528 -0.0705  0.8587  0.4446
 1026SOL     OW 3976   6.952   4.055   3.653  0.3050 -1.1841 -0.7548
 1026SOL    HW1 3977   6.861   4.051   3.612  0.6869 -1.8357 -1.5478
 1026SOL    HW2 3978   7.011   4.113   3.598  0.6076 -1.4490 -0.7124
 1027SOL     OW 3979   3.642   2.297   0.417 -0.4449 -0.1402 -0.2063
 1027SOL    HW1 3980   3.560   2.287   0.473  0.1540 -0.2441  0.6875
 1027SOL    HW2 3981   3.682   2.387   0.433 -0.7270  0.1551 -1.1238
 1028SOL     OW 3982   1.981   3.646   1.685  0.4863 -0.0546  0.0461
 1028SOL    HW1 3983   2.027   3.623   1.599 -0.1233 -0.0481 -0.2857
 1028SOL    HW2 3984   1.902   3.586   1.698  0.3432  0.2086  0.4074
 1029SOL     OW 3985   2.378   6.768   4.978  0.1298 -0.5116 -0.3450
 1029SOL    HW1 3986   2.432   6.847   5.008  1.0282 -0.2153 -2.5510
 1029SOL    HW2 3987   2.303   6.799   4.920  1.4584 -1.2785 -2.6274
 1030SOL     OW 3988   6.847   5.390   4.178  0.5534  0.4418 -0.1235
 1030SOL    HW1 3989   6.775   5.456   4.158  0.7334  0.4150 -0.9237
 1030SOL    HW2 3990   6.922   5.402   4.112  1.6531  1.0108  1.1814
 1031SOL     OW 3991   6.818   5.158   2.587  0.0733  0.1455 -0.8119
 1031SOL    HW1 3992   6.791   5.247   2.551 -0.5794  0.6638  0.8362
 1031SOL    HW2 3993   6.796   5.086   2.521 -2.1997  0.9094 -0.9446
 1032SOL     OW 3994   3.003   3.389   0.204  0.4857 -0.1176 -0.3322
 1032SOL    HW1 3995   2.912   3.379   0.245  0.0092 -0.2677 -1.3981
 1032SOL    HW2 3996   3.065   3.320   0.244  0.4819  0.7495  1.2742
 1033SOL     OW 3997   2.083   7.007   5.690 -0.0887 -0.1167 -0.1966
 1033SOL    HW1 3998   2.153   7.063   5.646 -0.8521  1.2860  0.2747
 1033SOL    HW2 3999   2.088   7.020   5.789  0.1824 -1.4757 -0.0259
 1034SOL     OW 4000   6.948   6.069   3.131 -0.0994 -0.3885  0.0305
 1034SOL    HW1 4001   7.040   6.051   3.094  0.2459  0.6686  0.3270
 1034SOL    HW2 4002   6.955   6.089   3.228 -0.9040 -2.2962  0.5310
 1035SOL     OW 4003   2.224   5.854   2.457  0.4719 -0.1410 -0.6020
 1035SOL    HW1 4004   2.242   5.802   2.373 -1.0515 -0.8430 -0.5402
 1035SOL    HW2 4005   2.199   5.791   2.530 -0.2884  0.6026 -0.2078
 1036SOL     OW 4006   2.018   5.090   3.298 -0.1529 -0.0437  0.4296
 1036SOL    HW1 4007   1.953   5.163   3.275 -0.4765  0.0260  1.5220
 1036SOL    HW2 4008   2.097   5.096   3.236  0.3576  1.9529  1.1769
 1037SOL     OW 4009   1.472   0.247   5.797  0.6173 -0.2378  0.5028
 1037SOL    HW1 4010   1.564   0.224   5.764  0.5953  0.0799  0.2148
 1037SOL    HW2 4011   1.473   0.339   5.836  0.7114 -0.7162  1.6701
 1038SOL     OW 4012   6.343   4.736   5.591  0.2900  0.1942 -0.1345
 1038SOL    HW1 4013   6.438   4.706   5.579  0.7106  1.2681  0.3707
 1038SOL    HW2 4014   6.301   4.748   5.501  0.0086 -2.1191 -0.3577
 1039SOL     OW 4015   6.975   2.782   4.864 -0.5585 -0.1863 -0.1024
 1039SOL    HW1 4016   6.934   2.753   4.777 -2.5058  0.5260  0.5433
 1039SOL    HW2 4017   6.913   2.760   4.939 -0.3168  2.0141  0.8018
 1040SOL     OW 4018   6.901   5.523   4.847  0.4715  0.3482 -0.2985
 1040SOL    HW1 4019   6.861   5.469   4.921  0.8955  2.1149  1.2935
 1040SOL    HW2 4020   6.989   5.560   4.876  1.2027  0.1647 -2.1383
 1041SOL     OW 4021   2.247   1.300   3.198 -0.4441  0.5644 -0.2323
 1041SOL    HW1 4022   2.219   1.262   3.286 -0.3743  1.9483  0.4145
 1041SOL    HW2 4023   2.222   1.237   3.125 -3.1537  0.6670  0.5057
 1042SOL     OW 4024   6.215   3.175   2.975  0.2674  0.1432  0.0626
 1042SOL    HW1 4025   6.251   3.082   2.984  0.5108  0.1679 -0.5620
 1042SOL    HW2 4026   6.265   3.222   2.903  1.0359  1.1974  1.2443
 1043SOL     OW 4027   2.807   4.780   1.788 -0.1892  0.1636 -0.4988
 1043SOL    HW1 4028   2.754   4.762   1.705  0.7004 -1.8295 -0.7003
 1043SOL    HW2 4029   2.798   4.702   1.851  0.8034  0.7276  0.3723
 1044SOL     OW 4030   3.639   1.085   5.811 -0.3613  0.1876  0.4677
 1044SOL    HW1 4031   3.712   1.152   5.814  1.5801 -1.8373  3.3405
 1044SOL    HW2 4032   3.594   1.080   5.900  0.5662 -3.2365  0.8808
 1045SOL     OW 4033   2.648   2.149   5.202 -0.4470 -0.1977  0.3564
 1045SOL    HW1 4034   2.670   2.127   5.107  0.6577  1.1603  0.2762
 1045SOL    HW2 4035   2.709   2.099   5.263  0.4477  0.7689  0.2610
 1046SOL     OW 4036   2.072   2.891   6.877 -0.3506 -0.5063 -0.3319
 1046SOL    HW1 4037   2.081   2.986   6.904 -1.3631  0.1766 -2.2423
 1046SOL    HW2 4038   2.120   2.875   6.791 -0.6357 -1.5984 -0.3135
 1047SOL     OW 4039   6.469   1.119   0.093  0.2271 -0.2888  0.6864
 1047SOL    HW1 4040   6.420   1.045   0.139 -0.2605 -0.1491  0.4056
 1047SOL    HW2 4041   6.544   1.082   0.039  1.2041 -0.4059  2.0733
 1048SOL     OW 4042   4.405   0.818   1.583 -0.0053 -0.1429 -0.0038
 1048SOL    HW1 4043   4.399   0.738   1.644  1.4125  0.3393  0.8018
 1048SOL    HW2 4044   4.388   0.901   1.635 -3.3551  0.0599 -1.1861
 1049SOL     OW 4045   4.704   2.693   4.290  0.3773  0.1793 -0.7175
 1049SOL    HW1 4046   4.691   2.705   4.192 -0.1770  1.7502 -0.4800
 1049SOL    HW2 4047   4.745   2.776   4.329 -1.4476  0.4749  0.7168
 1050SOL     OW 4048   1.950   6.816   0.132 -0.3101  0.1450 -0.5304
 1050SOL    HW1 4049   1.945   6.810   0.032  0.4000 -1.1298 -0.5192
 1050SOL    HW2 4050   1.972   6.909   0.159  2.4558 -0.0638 -1.7248
 1051SOL     OW 4051   0.276   3.839   1.030  0.4217 -0.5900  0.2197
 1051SOL    HW1 4052   0.261   3.901   1.107  1.6837  0.2890 -0.2090
 1051SOL    HW2 4053   0.210   3.764   1.034 -1.2015  0.8247  0.6840
 1052SOL     OW 4054   2.044   5.520   5.690 -0.4349 -0.0742 -0.3392
 1052SOL    HW1 4055   1.960   5.547   5.737  0.1075 -1.3462  1.4552
 1052SOL    HW2 4056   2.109   5.597   5.692 -0.2042 -0.2612  1.6042
 1053SOL     OW 4057   5.056   4.856   6.111  0.2470 -0.2843 -0.3713
 1053SOL    HW1 4058   5.021   4.873   6.203 -0.2380  0.4438 -0.6792
 1053SOL    HW2 4059   5.141   4.804   6.117  0.6119  0.3773  0.5257
 1054SOL     OW 4060   5.424   1.375   1.534 -0.1513  0.1593 -0.2294
 1054SOL    HW1 4061   5.494   1.398   1.602 -0.7627 -0.4188  0.6113
 1054SOL    HW2 4062   5.360   1.451   1.524 -0.4117  0.0108  0.2954
 1055SOL     OW 4063   5.540   4.343   4.898 -0.4803  0.2472  0.9225
 1055SOL    HW1 4064   5.575   4.298   4.816 -2.5438  0.9433 -0.4093
 1055SOL    HW2 4065   5.593   4.314   4.978  1.4334 -0.6286 -0.6006
 1056SOL     OW 4066   1.840   2.470   2.984 -0.8424  0.3281  0.2088
 1056SOL    HW1 4067   1.827   2.374   3.012  0.5804  0.6008  1.9875
 1056SOL    HW2 4068   1.815   2.530   3.060  3.3615  1.1080  1.2156
 1057SOL     OW 4069   4.652   0.622   1.574 -0.0779  0.3998  0.3034
 1057SOL    HW1 4070   4.742   0.658   1.550 -0.8138  1.5509 -0.9135
 1057SOL    HW2 4071   4.645   0.612   1.673  0.0310  4.3060  0.8794
 1058SOL     OW 4072   0.588   3.537   3.462 -0.3481 -0.1314 -0.0131
 1058SOL    HW1 4073   0.678   3.579   3.460 -0.8700  1.0288 -1.6243
 1058SOL    HW2 4074   0.573   3.493   3.551  1.2901  0.7550  0.7395
 1059SOL     OW 4075   5.127   3.487   0.278  0.4190 -0.2629 -0.5214
 1059SOL    HW1 4076   5.127   3.567   0.218  1.9474 -1.0714 -1.6420
 1059SOL    HW2 4077   5.217   3.476   0.319 -0.3970 -0.1389  1.4159
 1060SOL     OW 4078   1.291   3.775   1.541  0.7909 -0.3513  0.0308
 1060SOL    HW1 4079   1.297   3.826   1.627 -0.5910 -3.1518  1.9406
 1060SOL    HW2 4080   1.345   3.691   1.549  2.7753  0.4983 -2.8857
 1061SOL     OW 4081   6.110   1.412   1.028 -0.5178 -0.2856  0.3067
 1061SOL    HW1 4082   6.119   1.315   1.005 -1.1440  0.0847 -1.6702
 1061SOL    HW2 4083   6.018   1.430   1.061 -0.2162 -0.4475  1.2796
 1062SOL     OW 4084   6.962   0.779   6.523  0.3218 -0.2230  0.3225
 1062SOL    HW1 4085   7.047   0.809   6.565 -0.8801  1.2977  1.7872
 1062SOL    HW2 4086   6.946   0.831   6.439  1.3779 -1.3752 -0.6492
 1063SOL     OW 4087   0.741   1.681   1.307 -0.0405  0.3815  0.2134
 1063SOL    HW1 4088   0.720   1.632   1.222  2.1206 -0.0657 -0.1278
 1063SOL    HW2 4089   0.806   1.755   1.287  1.4928 -0.5158  1.6171
 1064SOL     OW 4090   0.773   1.385   6.809  0.0401  0.4698  0.6923
 1064SOL    HW1 4091   0.743   1.325   6.735  0.5370  0.0151  0.8529
 1064SOL    HW2 4092   0.704   1.455   6.825  0.2668  1.0482 -0.7154
 1065SOL     OW 4093   5.911   6.703   4.043 -0.0078 -0.3606 -0.0808
 1065SOL    HW1 4094   5.869   6.729   3.957  2.2009  0.5013 -0.9698
 1065SOL    HW2 4095   5.894   6.774   4.112 -0.7351 -0.4631 -0.1467
 1066SOL     OW 4096   5.767   2.863   4.382  0.6628  0.6381  0.3808
 1066SOL    HW1 4097   5.757   2.768   4.409  0.4068  0.4653 -0.2993
 1066SOL    HW2 4098   5.684   2.914   4.406 -0.6267 -0.0575 -2.2331
 1067SOL     OW 4099   0.106   3.129   2.453  0.2698 -0.1620  0.2690
 1067SOL    HW1 4100   0.122   3.177   2.367  0.4922 -1.8222 -0.6621
 1067SOL    HW2 4101   0.135   3.034   2.444 -0.1004 -0.4859  2.0603
 1068SOL     OW 4102   3.078   4.976   4.720 -0.4278  0.7551  0.3702
 1068SOL    HW1 4103   3.093   5.055   4.780  1.1483 -1.1209  2.6068
 1068SOL    HW2 4104   3.028   4.905   4.769  0.8129 -0.8211 -0.5550
 1069SOL     OW 4105   6.463   1.771   4.780  0.4029 -0.3491 -0.7135
 1069SOL    HW1 4106   6.486   1.675   4.796 -0.3777 -0.1727  1.8876
 1069SOL    HW2 4107   6.524   1.829   4.833 -0.0861  0.5149 -1.0818
 1070SOL     OW 4108   4.235   4.732   1.969 -0.1893  0.3303 -0.3337
 1070SOL    HW1 4109   4.220   4.820   2.015 -1.5325  1.0120 -1.9607
 1070SOL    HW2 4110   4.150   4.702   1.927 -0.1767 -2.5879  1.4615
 1071SOL     OW 4111   3.876   2.744   1.168  0.2834  0.4739  0.3070
 1071SOL    HW1 4112   3.897   2.833   1.210 -0.5841 -0.1690  2.1998
 1071SOL    HW2 4113   3.959   2.689   1.164  1.4224  2.1281 -3.0999
 1072SOL     OW 4114   0.905   1.711   6.549 -0.9919  0.1770  0.3553
 1072SOL    HW1 4115   0.888   1.788   6.488 -0.4583  0.7976  0.9739
 1072SOL    HW2 4116   0.955   1.640   6.501  1.2198  1.4955  0.5716
 1073SOL     OW 4117   6.275   5.162   2.542  0.4917 -0.5201  0.7414
 1073SOL    HW1 4118   6.289   5.257   2.515 -0.7587 -0.7508 -0.9038
 1073SOL    HW2 4119   6.358   5.127   2.585  0.7553  1.4817  2.0174
 1074SOL     OW 4120   2.080   0.955   0.806 -0.5695  0.3283  0.5916
 1074SOL    HW1 4121   2.129   1.031   0.764 -1.5079 -0.3584 -1.9671
 1074SOL    HW2 4122   2.145   0.893   0.850  0.7317  0.2608 -1.3172
 1075SOL     OW 4123   5.313   2.787   0.474  0.1671 -0.5959  0.6675
 1075SOL    HW1 4124   5.220   2.761   0.452  0.5145 -1.6029  0.3582
 1075SOL    HW2 4125   5.374   2.763   0.399  0.5676  0.8119  0.5114
 1076SOL     OW 4126   1.766   3.053   6.112 -0.2549 -0.4723  0.4403
 1076SOL    HW1 4127   1.840   3.117   6.132  0.0508 -0.7785  0.2993
 1076SOL    HW2 4128   1.787   3.002   6.029 -2.2463  1.9097 -1.6830
 1077SOL     OW 4129   6.251   3.935   2.641 -0.1114 -0.1553  0.4342
 1077SOL    HW1 4130   6.214   3.940   2.734  0.2241  1.0293  0.5240
 1077SOL    HW2 4131   6.210   3.858   2.593 -0.3164 -0.7649  1.5491
 1078SOL     OW 4132   6.318   2.069   3.782 -0.0174 -0.4074 -0.4959
 1078SOL    HW1 4133   6.368   1.984   3.765  1.7140  0.2232  1.0996
 1078SOL    HW2 4134   6.276   2.066   3.873 -2.5009 -0.6736 -1.5595
 1079SOL     OW 4135   4.822   5.015   5.688  0.6079 -0.2964 -0.1426
 1079SOL    HW1 4136   4.795   4.946   5.621 -0.3462 -0.2028  0.1186
 1079SOL    HW2 4137   4.865   4.971   5.766  0.7692 -0.5121 -0.3536
 1080SOL     OW 4138   6.880   3.384   6.960  0.0107  0.5627  0.2180
 1080SOL    HW1 4139   6.809   3.384   7.031  0.1018 -0.6802  0.3347
 1080SOL    HW2 4140   6.970   3.377   7.004  0.0068 -1.6735 -0.0155
 1081SOL     OW 4141   6.070   4.390   4.785  0.0911 -0.0128  0.3283
 1081SOL    HW1 4142   6.163   4.427   4.784  0.0783  0.0135  0.0545
 1081SOL    HW2 4143   6.005   4.461   4.759  0.0649 -0.2183 -0.1778
 1082SOL     OW 4144   0.760   4.643   4.588 -0.4772  0.6164  0.0954
 1082SOL    HW1 4145   0.705   4.598   4.658 -0.3795  0.8858  0.3519
 1082SOL    HW2 4146   0.835   4.583   4.560 -0.3915  0.5863  0.3800
 1083SOL     OW 4147   5.073   5.539   6.819  0.3528 -0.2816 -0.0103
 1083SOL    HW1 4148   4.985   5.554   6.773 -0.0406 -0.8335  0.5494
 1083SOL    HW2 4149   5.096   5.442   6.817  0.6914 -0.2098  0.3075
 1084SOL     OW 4150   2.534   5.123   4.268 -0.8111  0.1222  0.3365
 1084SOL    HW1 4151   2.571   5.128   4.175  2.4183 -0.7184  1.4363
 1084SOL    HW2 4152   2.487   5.035   4.280 -2.4674  0.7979 -0.8246
 1085SOL     OW 4153   3.339   0.023   0.239  0.4023 -0.1341 -0.1568
 1085SOL    HW1 4154   3.362   0.059   0.149  1.4630  1.5728  0.7318
 1085SOL    HW2 4155   3.353  -0.076   0.241  1.2158 -0.0672 -1.5934
 1086SOL     OW 4156   4.555   4.500   5.977  0.1687 -0.0548 -0.4409
 1086SOL    HW1 4157   4.478   4.483   5.917 -0.1664 -2.1155  0.4955
 1086SOL    HW2 4158   4.576   4.417   6.030 -0.4641  1.9404  3.3076
 1087SOL     OW 4159   5.988   5.981   5.610 -0.2350 -0.2184 -0.1350
 1087SOL    HW1 4160   6.068   6.011   5.663  0.2648 -1.6416 -0.0373
 1087SOL    HW2 4161   6.003   6.003   5.513  0.7379 -1.3299 -0.2627
 1088SOL     OW 4162   6.301   5.224   5.325 -0.4914  0.7729 -0.1488
 1088SOL    HW1 4163   6.282   5.134   5.363 -0.3600  0.8561  0.1148
 1088SOL    HW2 4164   6.398   5.230   5.301 -0.2945  1.1698  0.7129
 1089SOL     OW 4165   3.366   5.633   4.273  0.4379  0.3728 -0.0537
 1089SOL    HW1 4166   3.296   5.633   4.344 -1.3128 -1.2439 -1.6762
 1089SOL    HW2 4167   3.323   5.645   4.183  2.2859 -0.1282 -1.0644
 1090SOL     OW 4168   1.040   5.831   2.020 -0.4223 -0.2568 -0.5393
 1090SOL    HW1 4169   0.992   5.870   1.942 -1.0959  0.9412  0.4404
 1090SOL    HW2 4170   0.974   5.792   2.085  0.1522 -1.7282 -0.7809
 1091SOL     OW 4171   5.471   1.006   1.943 -0.2772 -0.0322  0.1581
 1091SOL    HW1 4172   5.559   1.053   1.930 -0.1803 -0.2741 -0.0542
 1091SOL    HW2 4173   5.487   0.909   1.962 -0.4252  0.2116  1.7087
 1092SOL     OW 4174   3.850   3.496   1.361  0.2652 -0.0752 -0.1246
 1092SOL    HW1 4175   3.925   3.518   1.424 -0.5818 -1.2481  1.3605
 1092SOL    HW2 4176   3.816   3.404   1.381 -1.4963  0.3835 -0.8293
 1093SOL     OW 4177   2.186   2.947   1.781  0.4157  0.5437  0.0225
 1093SOL    HW1 4178   2.177   2.899   1.868 -0.2017  1.3556  0.4116
 1093SOL    HW2 4179   2.235   2.889   1.716 -0.4834 -0.6808  0.4217
 1094SOL     OW 4180   1.310   6.956   2.904  0.2928  0.0639  0.0996
 1094SOL    HW1 4181   1.295   6.863   2.871 -0.8437 -0.1636  1.1743
 1094SOL    HW2 4182   1.382   6.999   2.851 -0.0601 -0.9798 -1.2780
 1095SOL     OW 4183   1.815   5.666   0.725  0.0196  0.2563  0.4390
 1095SOL    HW1 4184   1.890   5.661   0.792 -0.1048 -0.8173  0.5077
 1095SOL    HW2 4185   1.845   5.625   0.639 -0.2047  0.6171  0.1891
 1096SOL     OW 4186   7.006   1.277   3.322  0.2212  0.1229 -0.2021
 1096SOL    HW1 4187   7.060   1.205   3.278  1.8094  1.8075 -1.1700
 1096SOL    HW2 4188   6.935   1.309   3.259  2.0358  2.0392 -1.3882
 1097SOL     OW 4189   1.738   6.555   3.817 -0.1575  0.5019 -0.2808
 1097SOL    HW1 4190   1.718   6.638   3.869 -0.8417 -0.1796  0.5699
 1097SOL    HW2 4191   1.655   6.525   3.770  0.1995  0.5336 -0.9420
 1098SOL     OW 4192   4.554   1.780   3.331  0.5982  0.0882 -0.2422
 1098SOL    HW1 4193   4.484   1.768   3.260 -0.0601  0.5052  0.3308
 1098SOL    HW2 4194   4.581   1.876   3.335  0.3582  0.1363  0.3239
 1099SOL     OW 4195   3.656   1.170   3.838  0.5140  0.2806  0.3341
 1099SOL    HW1 4196   3.584   1.238   3.829 -0.1748 -0.4640  0.1713
 1099SOL    HW2 4197   3.663   1.140   3.934 -0.0948 -0.3970  0.1736
 1100SOL     OW 4198   5.583   4.194   0.239 -0.5344  0.4792 -0.2892
 1100SOL    HW1 4199   5.568   4.284   0.278  1.4218  0.8348 -0.2858
 1100SOL    HW2 4200   5.680   4.170   0.244 -1.0351 -1.7398 -0.0546
 1101SOL     OW 4201   6.928   6.221   6.300  0.0352  0.6357  0.1302
 1101SOL    HW1 4202   6.855   6.274   6.256  0.9946 -0.1815 -2.7117
 1101SOL    HW2 4203   6.965   6.156   6.234  1.4194 -0.9765  2.3773
 1102SOL     OW 4204   3.372   3.585   0.282 -0.4979 -0.9390 -0.0264
 1102SOL    HW1 4205   3.427   3.658   0.242 -1.5308 -0.1340 -0.0194
 1102SOL    HW2 4206   3.428   3.503   0.293  0.7263 -0.1076  0.1055
 1103SOL     OW 4207   5.750   6.219   6.349  0.9377 -0.3541 -0.4201
 1103SOL    HW1 4208   5.692   6.249   6.425  0.8728  0.0873 -0.6434
 1103SOL    HW2 4209   5.760   6.293   6.283  0.9479 -0.7567 -0.8724
 1104SOL     OW 4210   2.947   6.221   1.107  0.3738  0.2106  0.5681
 1104SOL    HW1 4211   3.013   6.289   1.074  1.0461 -1.2240 -1.1908
 1104SOL    HW2 4212   2.977   6.130   1.079 -2.2926 -0.5163 -0.1885
 1105SOL     OW 4213   2.580   4.829   4.443 -0.1487 -0.1497 -0.0221
 1105SOL    HW1 4214   2.555   4.819   4.347 -1.0398 -0.2518  0.2112
 1105SOL    HW2 4215   2.657   4.893   4.451  0.2983 -0.5804 -0.8401
 1106SOL     OW 4216   6.645   5.598   0.910  0.3847  0.2253  0.0713
 1106SOL    HW1 4217   6.675   5.682   0.955 -0.4062  1.5265 -1.6937
 1106SOL    HW2 4218   6.563   5.618   0.855  2.4063 -0.6819 -3.5591
 1107SOL     OW 4219   4.993   5.665   3.816  0.5051  0.1645  0.1480
 1107SOL    HW1 4220   4.967   5.606   3.892  0.7106 -0.1268 -0.0058
 1107SOL    HW2 4221   5.086   5.643   3.787  1.6113  2.3233  1.7980
 1108SOL     OW 4222   4.673   5.718   5.189 -0.0666 -0.3159 -0.3134
 1108SOL    HW1 4223   4.581   5.757   5.188 -0.6282 -1.6109 -1.0865
 1108SOL    HW2 4224   4.702   5.703   5.283 -1.6206 -2.0817 -0.0863
 1109SOL     OW 4225   6.414   0.128   3.140  0.1630 -0.7508  0.5689
 1109SOL    HW1 4226   6.344   0.176   3.088 -0.8582 -1.3790  1.3248
 1109SOL    HW2 4227   6.497   0.119   3.085  0.4387  1.9314  0.4379
 1110SOL     OW 4228   6.206   3.938   0.473  0.0738 -0.1533  0.1037
 1110SOL    HW1 4229   6.215   4.031   0.509  0.7766 -0.6897  1.4194
 1110SOL    HW2 4230   6.297   3.898   0.464 -0.2870 -1.2221  1.0110
 1111SOL     OW 4231   0.451   3.271   0.052 -0.1645  0.6523 -0.3056
 1111SOL    HW1 4232   0.451   3.186   0.106  1.9719 -0.0702 -1.3202
 1111SOL    HW2 4233   0.357   3.297   0.032 -0.9193 -1.9622 -0.6396
 1112SOL     OW 4234   5.132   2.809   1.376  0.6669  0.0374 -0.0531
 1112SOL    HW1 4235   5.167   2.758   1.455 -0.7879  0.1447  0.7017
 1112SOL    HW2 4236   5.158   2.763   1.292  1.0884 -0.8361  0.5372
 1113SOL     OW 4237   2.837   6.953   6.842 -0.1659 -0.7142 -0.0159
 1113SOL    HW1 4238   2.837   6.872   6.784  0.7325 -1.1205  0.5225
 1113SOL    HW2 4239   2.878   6.931   6.930 -1.6291 -0.1486  0.8473
 1114SOL     OW 4240   5.051   6.923   4.271 -0.2607  0.1589  0.1782
 1114SOL    HW1 4241   5.136   6.955   4.230 -0.5840  1.6495  0.6187
 1114SOL    HW2 4242   5.042   6.961   4.363 -1.1829 -0.3538  0.3062
 1115SOL     OW 4243   5.451   2.634   3.876 -0.1811 -0.0596 -0.5551
 1115SOL    HW1 4244   5.448   2.548   3.927 -0.2881 -0.4933 -1.2829
 1115SOL    HW2 4245   5.375   2.636   3.810 -0.4898  0.8169 -0.1914
 1116SOL     OW 4246   2.896   3.058   6.211  0.3460  0.1411  0.0879
 1116SOL    HW1 4247   2.974   3.008   6.249  0.7697  0.4441 -0.3687
 1116SOL    HW2 4248   2.899   3.052   6.111  0.9677  1.8826 -0.0265
 1117SOL     OW 4249   0.948   5.331   3.199  0.2466  0.0192  1.0484
 1117SOL    HW1 4250   0.991   5.420   3.192  0.4401 -0.0304  1.6036
 1117SOL    HW2 4251   0.887   5.317   3.121 -0.7336  1.1399  1.5860
 1118SOL     OW 4252   4.939   1.553   3.822  0.4014  0.0913  1.0935
 1118SOL    HW1 4253   4.980   1.619   3.759  1.0805 -0.8250  0.5493
 1118SOL    HW2 4254   5.000   1.539   3.900  0.5267 -0.2998  0.9294
 1119SOL     OW 4255   6.860   0.563   1.761 -0.2897  0.0300 -0.0551
 1119SOL    HW1 4256   6.831   0.495   1.694 -0.8374  2.0574 -2.0115
 1119SOL    HW2 4257   6.948   0.601   1.734 -2.1201  3.4340 -1.8313
 1120SOL     OW 4258   6.022   6.418   4.287  0.3231 -0.3056  0.5692
 1120SOL    HW1 4259   6.106   6.390   4.240 -0.9268 -1.5452 -1.0558
 1120SOL    HW2 4260   5.991   6.344   4.346  0.1104 -0.0578  0.7687
 1121SOL     OW 4261   4.890   5.922   5.932 -0.3219  0.0322  0.5278
 1121SOL    HW1 4262   4.940   5.862   5.870 -1.0029 -1.7827  1.6625
 1121SOL    HW2 4263   4.881   6.013   5.891  3.8443  0.5175  0.2213
 1122SOL     OW 4264   4.964   1.144   3.730 -0.1525 -0.2949 -0.6735
 1122SOL    HW1 4265   5.049   1.171   3.776 -0.8536 -0.4057  0.7671
 1122SOL    HW2 4266   4.917   1.226   3.697  0.8050 -0.2755 -2.0835
 1123SOL     OW 4267   1.704   1.988   2.718  0.1216 -0.7424  0.0834
 1123SOL    HW1 4268   1.644   1.975   2.639 -0.8974  0.6998  0.5765
 1123SOL    HW2 4269   1.798   2.001   2.687 -0.1166 -1.1354 -0.8218
 1124SOL     OW 4270   5.869   0.129   5.572 -0.2934  0.3039 -0.6066
 1124SOL    HW1 4271   5.825   0.176   5.495 -2.0067  0.9786  0.7193
 1124SOL    HW2 4272   5.853   0.181   5.656  3.1903  0.6311 -0.0115
 1125SOL     OW 4273   2.150   1.084   2.546  0.2956 -0.0826 -0.3991
 1125SOL    HW1 4274   2.133   1.063   2.643 -1.4277 -1.3569 -0.9161
 1125SOL    HW2 4275   2.239   1.046   2.519  0.1849 -0.9222  0.3682
 1126SOL     OW 4276   0.626   0.270   5.658  0.4853  0.3729  0.3208
 1126SOL    HW1 4277   0.542   0.229   5.695  0.2253  1.1226  0.5960
 1126SOL    HW2 4278   0.630   0.366   5.686  3.1630 -0.4542  3.2872
 1127SOL     OW 4279   1.995   4.284   5.375 -0.6172 -0.0048  0.1621
 1127SOL    HW1 4280   1.932   4.312   5.302  1.0095  2.4236 -0.4280
 1127SOL    HW2 4281   2.029   4.365   5.422  0.9957 -1.3305  1.3957
 1128SOL     OW 4282   3.960   3.770   5.593  0.2867 -0.1013  0.0559
 1128SOL    HW1 4283   4.026   3.728   5.530  1.1151  0.2426  0.6822
 1128SOL    HW2 4284   3.911   3.697   5.641  0.3191 -0.3612 -0.2954
 1129SOL     OW 4285   1.128   5.336   6.909  0.2364  0.2070  0.6663
 1129SOL    HW1 4286   1.180   5.420   6.891  1.2550 -0.7179 -1.0060
 1129SOL    HW2 4287   1.131   5.315   7.006 -0.2144  2.1917  1.1511
 1130SOL     OW 4288   6.912   1.618   3.815 -0.1602  0.7679  0.3677
 1130SOL    HW1 4289   6.826   1.661   3.843 -0.0928  0.7960  0.5321
 1130SOL    HW2 4290   6.936   1.546   3.880  0.1839  1.0770  0.5835
 1131SOL     OW 4291   1.674   3.983   1.106 -0.2020  0.1712  0.2779
 1131SOL    HW1 4292   1.607   4.027   1.047 -0.4751 -0.0627  0.4149
 1131SOL    HW2 4293   1.632   3.959   1.193 -0.2419 -0.9590 -0.0342
 1132SOL     OW 4294   2.562   6.158   4.723  0.1563 -0.4775  0.4336
 1132SOL    HW1 4295   2.490   6.218   4.689  1.4890  1.1238  0.3452
 1132SOL    HW2 4296   2.625   6.137   4.649  0.6454 -0.5855  0.8774
 1133SOL     OW 4297   0.193   3.415   6.081 -0.3762  0.2926  0.5286
 1133SOL    HW1 4298   0.108   3.421   6.132 -0.2931  0.1014  0.6929
 1133SOL    HW2 4299   0.184   3.348   6.007 -0.3574  0.2498  0.5653
 1134SOL     OW 4300   1.661   0.126   5.459  0.5458  0.0161 -0.4942
 1134SOL    HW1 4301   1.696   0.160   5.546 -1.2353 -0.6854  0.5400
 1134SOL    HW2 4302   1.618   0.201   5.408 -0.3566  0.0207  0.2473
 1135SOL     OW 4303   1.791   2.173   6.716  0.2858 -0.3486 -0.3298
 1135SOL    HW1 4304   1.747   2.109   6.780  1.8667 -1.0425  0.0968
 1135SOL    HW2 4305   1.836   2.122   6.643  0.7305  0.3347 -0.5383
 1136SOL     OW 4306   6.225   4.795   6.025  0.2691  0.3057  0.1109
 1136SOL    HW1 4307   6.207   4.740   5.944 -1.7196  1.0570 -0.0162
 1136SOL    HW2 4308   6.298   4.753   6.079  1.7084 -0.1661 -2.0704
 1137SOL     OW 4309   1.271   5.425   1.479 -0.0179  0.0057 -0.5516
 1137SOL    HW1 4310   1.342   5.357   1.499 -0.0362  0.3549  0.7968
 1137SOL    HW2 4311   1.189   5.404   1.532  0.4525  1.8534  0.9913
 1138SOL     OW 4312   6.191   5.055   5.504 -0.3188  0.3960 -0.0620
 1138SOL    HW1 4313   6.137   5.139   5.503 -1.1176 -0.1042 -1.5077
 1138SOL    HW2 4314   6.135   4.981   5.543  0.8145  0.7588  2.4330
 1139SOL     OW 4315   6.049   5.945   6.881  0.6127  0.3218  0.5817
 1139SOL    HW1 4316   5.972   5.888   6.913  0.9732 -1.3744 -1.3467
 1139SOL    HW2 4317   6.013   6.021   6.828  0.2254  0.1056  0.5224
 1140SOL     OW 4318   3.900   6.374   6.598  0.1084 -0.2341  0.2323
 1140SOL    HW1 4319   3.802   6.390   6.588  0.0858 -0.5909 -0.1356
 1140SOL    HW2 4320   3.935   6.328   6.517  0.0866 -2.3844  1.3631
 1141SOL     OW 4321   3.663   1.406   6.124 -0.0193 -0.1238 -0.4429
 1141SOL    HW1 4322   3.706   1.331   6.173  0.0206 -0.0402 -0.3488
 1141SOL    HW2 4323   3.564   1.403   6.139  0.2649  2.5224  3.4768
 1142SOL     OW 4324   2.116   1.060   6.982 -0.5591  0.2009 -0.8014
 1142SOL    HW1 4325   2.041   1.096   7.037 -0.3901  0.9574 -1.0610
 1142SOL    HW2 4326   2.109   0.960   6.978  1.3662 -0.3291  3.5449
 1143SOL     OW 4327   0.493   0.752   3.719  0.9785 -0.1604 -0.2911
 1143SOL    HW1 4328   0.458   0.819   3.654  2.7255 -2.0025 -3.4108
 1143SOL    HW2 4329   0.431   0.673   3.722  1.3539 -0.4661 -0.4463
 1144SOL     OW 4330   1.509   3.727   4.674 -0.2632 -0.1918 -0.4800
 1144SOL    HW1 4331   1.479   3.748   4.767  0.5552 -1.0779  0.0007
 1144SOL    HW2 4332   1.601   3.689   4.676 -0.3752 -0.5697 -1.6178
 1145SOL     OW 4333   0.014   6.322   0.250  0.0743  0.0602  0.2670
 1145SOL    HW1 4334   0.064   6.393   0.301 -1.7470 -0.2060  2.6112
 1145SOL    HW2 4335   0.046   6.232   0.280  1.1725 -0.1513 -1.4392
 1146SOL     OW 4336   2.239   0.556   2.129 -0.1686 -0.4961 -0.0414
 1146SOL    HW1 4337   2.222   0.544   2.227  1.0586  0.1013  0.2647
 1146SOL    HW2 4338   2.329   0.519   2.106 -0.3461 -0.4163 -0.9036
 1147SOL     OW 4339   5.011   4.027   6.949 -0.2506 -0.0287 -0.0119
 1147SOL    HW1 4340   5.093   3.979   6.980 -1.3678 -2.6034 -0.8073
 1147SOL    HW2 4341   4.970   4.075   7.027  1.8611  1.1813  0.4279
 1148SOL     OW 4342   2.556   6.909   6.705 -0.5400  0.6031 -0.2025
 1148SOL    HW1 4343   2.651   6.897   6.731 -0.5015 -0.4111 -0.7586
 1148SOL    HW2 4344   2.544   6.887   6.608 -0.8417  3.4104 -0.9147
 1149SOL     OW 4345   5.773   6.422   6.162  0.3846 -0.1549 -0.1365
 1149SOL    HW1 4346   5.843   6.480   6.204 -0.0844 -0.1961  0.7307
 1149SOL    HW2 4347   5.740   6.465   6.079  0.3275  0.6386  0.2861
 1150SOL     OW 4348   6.359   4.755   0.029 -0.7923 -0.1433  0.3646
 1150SOL    HW1 4349   6.330   4.713  -0.056 -0.3412  0.6703 -0.2055
 1150SOL    HW2 4350   6.359   4.687   0.102 -1.9609 -0.6669 -0.1050
 1151SOL     OW 4351   3.247   6.489   0.780  0.6768  0.1391 -0.3499
 1151SOL    HW1 4352   3.291   6.418   0.725  1.5566 -0.8969  1.5850
 1151SOL    HW2 4353   3.316   6.550   0.819  0.0617  0.9737 -0.5116
 1152SOL     OW 4354   5.639   5.110   0.380 -0.2002  0.5043  0.5780
 1152SOL    HW1 4355   5.688   5.196   0.394 -0.0602  0.5634 -0.2027
 1152SOL    HW2 4356   5.588   5.115   0.294  0.5939 -0.5435  0.0201
 1153SOL     OW 4357   3.780   3.141   5.334  0.3119 -0.0359  0.2802
 1153SOL    HW1 4358   3.822   3.189   5.257  1.1446 -1.6694 -0.3595
 1153SOL    HW2 4359   3.763   3.205   5.408  1.4550  1.2065 -0.4736
 1154SOL     OW 4360   4.367   0.343   0.694  0.2177 -1.2358 -0.3533
 1154SOL    HW1 4361   4.370   0.409   0.769  0.8355 -0.9565 -0.6168
 1154SOL    HW2 4362   4.349   0.390   0.608 -1.4380 -1.6630 -0.2729
 1155SOL     OW 4363   1.526   4.991   1.055 -0.1371  0.8627 -0.2324
 1155SOL    HW1 4364   1.477   4.913   1.017  0.2144  0.3058  0.4285
 1155SOL    HW2 4365   1.578   4.962   1.135 -0.5857  1.9344  0.4732
 1156SOL     OW 4366   0.095   6.644   4.111 -0.1383  0.6708  0.3378
 1156SOL    HW1 4367   0.118   6.739   4.091  0.0976  0.9301  1.7506
 1156SOL    HW2 4368   0.169   6.602   4.163 -0.3645 -0.2016 -0.0364
 1157SOL     OW 4369   3.616   2.271   1.600  0.4050  0.3509  0.7174
 1157SOL    HW1 4370   3.566   2.335   1.542  0.0816 -0.6671 -0.1575
 1157SOL    HW2 4371   3.608   2.300   1.696 -1.2573  0.6135  0.5292
 1158SOL     OW 4372   2.531   5.217   2.300  0.5379  0.2309  0.5257
 1158SOL    HW1 4373   2.444   5.260   2.279  1.1397  1.3456  0.2502
 1158SOL    HW2 4374   2.561   5.161   2.222  0.8816  1.2236 -0.0713
 1159SOL     OW 4375   0.881   3.761   5.739  0.3741  0.3529  0.7111
 1159SOL    HW1 4376   0.805   3.704   5.772  1.7397 -1.5522  0.7057
 1159SOL    HW2 4377   0.967   3.712   5.750  1.5365  2.0918 -0.1597
 1160SOL     OW 4378   1.094   4.439   1.954 -0.0839  0.4703  0.3265
 1160SOL    HW1 4379   1.002   4.408   1.930  0.8954 -3.5085  1.0212
 1160SOL    HW2 4380   1.154   4.431   1.874  0.7791 -2.4139  1.1388
 1161SOL     OW 4381   5.421   5.173   1.648  0.5796  0.3621  0.6688
 1161SOL    HW1 4382   5.468   5.246   1.600  0.5633  0.4956  0.8575
 1161SOL    HW2 4383   5.420   5.091   1.591 -1.7820  1.2554 -0.7377
 1162SOL     OW 4384   6.114   3.642   2.195  0.3712  0.1215  0.4919
 1162SOL    HW1 4385   6.102   3.699   2.276 -0.4513 -0.7550  1.0105
 1162SOL    HW2 4386   6.191   3.580   2.208 -0.2811 -0.6117  0.9821
 1163SOL     OW 4387   0.384   1.734   1.555  0.5091 -0.2838  0.2638
 1163SOL    HW1 4388   0.417   1.766   1.466  0.0752 -0.9104 -0.1328
 1163SOL    HW2 4389   0.444   1.660   1.587 -0.0821 -0.9503 -0.1326
 1164SOL     OW 4390   1.782   3.767   5.319 -0.7363  0.4555 -0.6561
 1164SOL    HW1 4391   1.687   3.746   5.345 -0.7656  1.6983  0.3595
 1164SOL    HW2 4392   1.843   3.742   5.394 -0.3331  0.3029 -1.0325
 1165SOL     OW 4393   4.149   4.782   3.698 -0.6379  0.5002 -0.0838
 1165SOL    HW1 4394   4.127   4.787   3.795  1.9153  0.4669  0.5601
 1165SOL    HW2 4395   4.194   4.695   3.678 -0.5006  0.8020 -1.1734
 1166SOL     OW 4396   3.076   6.120   6.741 -0.1924 -0.1882 -0.8295
 1166SOL    HW1 4397   3.078   6.131   6.642  1.9387 -0.4157 -0.8772
 1166SOL    HW2 4398   3.152   6.061   6.769  0.5393  1.5431  1.1071
 1167SOL     OW 4399   2.225   2.125   2.354 -0.0033 -0.6077  0.2144
 1167SOL    HW1 4400   2.258   2.049   2.410  0.9053 -0.2923  0.1342
 1167SOL    HW2 4401   2.274   2.124   2.266  0.4070  0.3784  0.4246
 1168SOL     OW 4402   4.093   0.256   1.322  0.4196  0.1447  0.3702
 1168SOL    HW1 4403   4.107   0.166   1.363  0.8103  0.4203  0.8544
 1168SOL    HW2 4404   3.995   0.274   1.315  0.3280  0.3885  1.8786
 1169SOL     OW 4405   5.155   5.812   1.605  0.4020 -0.0199  0.4931
 1169SOL    HW1 4406   5.195   5.724   1.577 -0.0567 -0.3407  0.8300
 1169SOL    HW2 4407   5.058   5.814   1.580  0.6823  0.8852 -0.6172
 1170SOL     OW 4408   6.708   0.437   5.418  0.2919 -0.3566 -0.2616
 1170SOL    HW1 4409   6.684   0.439   5.321 -0.4004 -3.0722 -0.2157
 1170SOL    HW2 4410   6.735   0.344   5.444  0.5956  0.3389  2.1346
 1171SOL     OW 4411   5.764   3.425   0.518 -0.3733 -0.0316 -0.2476
 1171SOL    HW1 4412   5.844   3.403   0.575 -0.8131 -1.2762 -0.0783
 1171SOL    HW2 4413   5.739   3.520   0.532  2.1530  0.9326 -1.6232
 1172SOL     OW 4414   1.506   0.741   3.355  0.1032 -0.8707  0.2082
 1172SOL    HW1 4415   1.513   0.721   3.453 -1.5042  0.8716  0.7376
 1172SOL    HW2 4416   1.475   0.659   3.307  0.2487 -1.5606  1.2510
 1173SOL     OW 4417   2.636   5.122   3.656 -0.7974  0.7564  0.1398
 1173SOL    HW1 4418   2.685   5.123   3.743 -0.5183  0.6600 -0.0152
 1173SOL    HW2 4419   2.565   5.050   3.658 -1.1249  1.0857  0.4669
 1174SOL     OW 4420   3.368   1.067   1.096 -0.3198  0.4599  0.2892
 1174SOL    HW1 4421   3.370   1.154   1.048  0.3457  0.1607 -0.2376
 1174SOL    HW2 4422   3.433   1.069   1.172  1.6254 -0.4141 -1.2501
 1175SOL     OW 4423   4.906   5.518   4.168 -0.7475  0.1774 -0.3411
 1175SOL    HW1 4424   4.870   5.425   4.175 -0.4170 -0.0333 -1.2985
 1175SOL    HW2 4425   4.842   5.575   4.115 -0.0096 -0.0298 -1.4804
 1176SOL     OW 4426   2.609   2.970   0.051 -0.0411 -0.0694  0.3452
 1176SOL    HW1 4427   2.619   3.058   0.097 -0.7101  1.1502 -1.6966
 1176SOL    HW2 4428   2.700   2.932   0.032  0.2624  0.4665  0.7074
 1177SOL     OW 4429   1.377   5.933   0.438 -0.5993  0.3518  0.4811
 1177SOL    HW1 4430   1.400   6.021   0.396 -0.9201  0.7667  1.1560
 1177SOL    HW2 4431   1.413   5.930   0.531  1.4725 -1.1727 -0.2835
 1178SOL     OW 4432   6.967   5.985   6.984  0.3953 -0.1359  0.1140
 1178SOL    HW1 4433   7.030   5.959   6.911  0.4344 -3.1165  1.0776
 1178SOL    HW2 4434   6.934   6.078   6.968  3.5592  0.8486 -1.4088
 1179SOL     OW 4435   6.194   0.007   2.757  0.2350  0.0982 -0.6846
 1179SOL    HW1 4436   6.159  -0.014   2.666  0.2950  2.6933 -1.4045
 1179SOL    HW2 4437   6.134   0.076   2.800  0.7507 -0.3681  0.8512
 1180SOL     OW 4438   3.172   0.680   1.553 -0.1187 -0.1220 -0.3374
 1180SOL    HW1 4439   3.128   0.675   1.463 -0.4740  3.1683 -0.4666
 1180SOL    HW2 4440   3.227   0.764   1.559  0.1588 -0.3988  2.4224
 1181SOL     OW 4441   7.015   0.157   5.983 -0.1659 -0.1244 -0.1568
 1181SOL    HW1 4442   7.099   0.158   6.038 -0.0241  2.1413 -0.3425
 1181SOL    HW2 4443   6.936   0.159   6.044 -0.0143  1.8407  0.0236
 1182SOL     OW 4444   2.674   0.082   0.729 -0.3451 -0.0855  0.0173
 1182SOL    HW1 4445   2.679   0.133   0.643  0.1543  0.0461  0.1179
 1182SOL    HW2 4446   2.607   0.124   0.790  0.9916  1.2621  0.6158
 1183SOL     OW 4447   0.559   6.976   4.680 -0.6182  0.0844  0.5644
 1183SOL    HW1 4448   0.606   7.055   4.719  0.6241  1.0189 -2.5250
 1183SOL    HW2 4449   0.462   6.980   4.702 -0.6018  2.5592  0.4291
 1184SOL     OW 4450   1.382   0.445   4.696 -0.1375  0.1554 -0.3263
 1184SOL    HW1 4451   1.466   0.499   4.687 -1.3019  2.0284 -0.4168
 1184SOL    HW2 4452   1.374   0.411   4.790 -0.2213  1.6336  0.2221
 1185SOL     OW 4453   5.859   3.463   3.279  0.4907  0.1934 -0.1787
 1185SOL    HW1 4454   5.791   3.389   3.278 -1.2925  1.7344 -1.4870
 1185SOL    HW2 4455   5.912   3.459   3.363 -1.0525 -1.2639  0.7855
 1186SOL     OW 4456   4.476   5.267   5.618 -0.2315  0.6107  0.3688
 1186SOL    HW1 4457   4.468   5.167   5.628 -0.7249  0.3691 -1.9260
 1186SOL    HW2 4458   4.564   5.289   5.575 -0.9295  0.9666 -0.9377
 1187SOL     OW 4459   1.834   1.831   0.481 -0.4216 -0.2236  0.5232
 1187SOL    HW1 4460   1.817   1.881   0.397 -0.2147 -0.2666  0.4571
 1187SOL    HW2 4461   1.802   1.886   0.559 -0.2808 -0.0287  0.4449
 1188SOL     OW 4462   2.610   0.596   3.430 -0.5859  0.2681 -0.0589
 1188SOL    HW1 4463   2.632   0.528   3.360  1.3486 -0.0233  0.7688
 1188SOL    HW2 4464   2.572   0.551   3.511 -1.1517  0.4125 -0.2363
 1189SOL     OW 4465   1.815   2.267   3.766 -0.0181 -0.0441 -0.1015
 1189SOL    HW1 4466   1.812   2.170   3.744  1.4587  0.2058 -1.5686
 1189SOL    HW2 4467   1.722   2.305   3.763 -0.6519 -1.4407  0.7908
 1190SOL     OW 4468   0.026   3.366   2.228 -0.3783  0.2885  0.5821
 1190SOL    HW1 4469  -0.060   3.387   2.273 -1.3428 -0.0076 -1.0229
 1190SOL    HW2 4470   0.088   3.444   2.236 -0.5944  0.3199  2.1704
 1191SOL     OW 4471   1.515   3.691   3.018  0.0250 -0.0789 -0.1843
 1191SOL    HW1 4472   1.580   3.616   3.009  0.3516  0.2821 -0.8877
 1191SOL    HW2 4473   1.560   3.771   3.056  0.3030  0.5447 -1.7612
 1192SOL     OW 4474   4.830   1.285   2.074  0.2699 -0.4460 -0.2662
 1192SOL    HW1 4475   4.856   1.195   2.107  1.6213 -0.0250 -0.1212
 1192SOL    HW2 4476   4.905   1.325   2.022 -0.8268  0.0247 -1.5587
 1193SOL     OW 4477   4.720   2.768   2.402  0.0143  0.4138  0.1764
 1193SOL    HW1 4478   4.753   2.768   2.308  0.2803  0.7696  0.2662
 1193SOL    HW2 4479   4.724   2.861   2.438 -0.4415  0.3455  0.4164
 1194SOL     OW 4480   1.299   1.743   1.015  0.2496 -0.8459  0.5740
 1194SOL    HW1 4481   1.392   1.778   1.020 -0.2580  0.8451 -0.9447
 1194SOL    HW2 4482   1.235   1.812   1.049 -0.6454 -0.9355 -0.8454
 1195SOL     OW 4483   1.036   4.760   1.713  0.4283  0.1155 -0.1205
 1195SOL    HW1 4484   1.030   4.797   1.620  0.1551 -0.0088 -0.1531
 1195SOL    HW2 4485   0.950   4.714   1.737 -0.3461  2.0545  1.0176
 1196SOL     OW 4486   1.215   5.240   3.291  0.2664  0.0675  0.0951
 1196SOL    HW1 4487   1.302   5.253   3.242  1.1106 -2.1016  0.9043
 1196SOL    HW2 4488   1.145   5.298   3.249  2.1333  2.1291 -0.3903
 1197SOL     OW 4489   4.252   6.639   3.140  0.1988 -0.1729 -1.2099
 1197SOL    HW1 4490   4.294   6.556   3.104  3.8067  0.6355  0.7134
 1197SOL    HW2 4491   4.162   6.616   3.179 -0.5519 -2.3546 -3.9259
 1198SOL     OW 4492   0.777   4.129   2.541 -0.2023 -0.0283 -0.0094
 1198SOL    HW1 4493   0.860   4.111   2.488  0.4080 -0.1674  0.9628
 1198SOL    HW2 4494   0.749   4.045   2.589  0.2903  0.5252  1.2893
 1199SOL     OW 4495   1.864   3.838   6.292 -0.3011 -0.3067  0.0204
 1199SOL    HW1 4496   1.784   3.824   6.350 -0.2304  1.0028  0.4634
 1199SOL    HW2 4497   1.845   3.803   6.200 -1.0477 -0.8085  0.3591
 1200SOL     OW 4498   5.355   4.585   1.704  0.1650 -0.2072  0.0429
 1200SOL    HW1 4499   5.373   4.516   1.775 -1.6489 -0.3422  0.4100
 1200SOL    HW2 4500   5.264   4.571   1.665  0.4945  0.8660 -1.1885
 1201SOL     OW 4501   0.227   2.868   4.807  0.6359 -0.5537 -0.4180
 1201SOL    HW1 4502   0.232   2.799   4.734  0.5552 -0.7392 -0.2493
 1201SOL    HW2 4503   0.131   2.893   4.821  0.3880 -2.2373  1.2198
 1202SOL     OW 4504   4.969   5.611   1.214  0.0842  0.4372 -0.3822
 1202SOL    HW1 4505   5.064   5.582   1.225  0.3860  2.0110  1.8899
 1202SOL    HW2 4506   4.911   5.559   1.278 -0.2966  0.6933 -0.5184
 1203SOL     OW 4507   5.761   6.774   2.823  0.2753 -0.1904 -0.5705
 1203SOL    HW1 4508   5.677   6.739   2.782  0.0671  1.8103 -2.0149
 1203SOL    HW2 4509   5.738   6.841   2.894  0.6640 -0.6695  0.0167
 1204SOL     OW 4510   0.917   0.756   2.006  0.9757 -0.5913 -0.3510
 1204SOL    HW1 4511   0.966   0.756   2.093  2.1712 -2.3693 -0.9434
 1204SOL    HW2 4512   0.832   0.704   2.015  1.0732 -0.7278 -0.2229
 1205SOL     OW 4513   6.457   1.933   5.979 -0.1292  0.0693  0.3387
 1205SOL    HW1 4514   6.457   2.027   5.944 -0.1106  0.1651  0.5937
 1205SOL    HW2 4515   6.455   1.869   5.902  1.7395  0.2471  0.1092
 1206SOL     OW 4516   0.901   4.610   3.484 -0.1330  0.4780 -0.3848
 1206SOL    HW1 4517   0.805   4.592   3.505 -0.2621  0.4995 -0.9452
 1206SOL    HW2 4518   0.926   4.702   3.514 -0.0025  0.0898  0.7120
 1207SOL     OW 4519   1.169   1.657   1.417  0.0468  0.4306 -0.4740
 1207SOL    HW1 4520   1.163   1.577   1.357  0.8065 -0.0239  0.0470
 1207SOL    HW2 4521   1.254   1.653   1.470 -0.5652  0.8870  0.5568
 1208SOL     OW 4522   5.629   4.800   1.008 -0.1713  0.5453 -0.6683
 1208SOL    HW1 4523   5.604   4.704   1.003  1.2105  0.2100 -1.9752
 1208SOL    HW2 4524   5.646   4.826   1.103  1.6747 -1.1301 -0.4828
 1209SOL     OW 4525   0.458   0.750   6.010  0.2375  0.0293 -0.1416
 1209SOL    HW1 4526   0.490   0.836   6.051 -0.3722  0.4662 -0.5544
 1209SOL    HW2 4527   0.443   0.683   6.082  1.3319  0.0503  0.1305
 1210SOL     OW 4528   5.764   4.983   0.852  0.0822  0.5141  0.1238
 1210SOL    HW1 4529   5.796   5.063   0.902 -1.1542  1.0371  0.1207
 1210SOL    HW2 4530   5.689   4.940   0.903 -0.0351  0.0454 -0.4327
 1211SOL     OW 4531   2.266   3.052   0.159 -0.3881  0.5209 -0.0709
 1211SOL    HW1 4532   2.260   2.954   0.139  0.8400  0.3041  0.4862
 1211SOL    HW2 4533   2.209   3.103   0.095  0.9041 -0.3590 -2.0286
 1212SOL     OW 4534   5.489   4.545   0.076 -0.1340  0.2007  0.0191
 1212SOL    HW1 4535   5.539   4.476   0.024  0.5307 -0.4974  1.5070
 1212SOL    HW2 4536   5.544   4.628   0.083  0.0129  0.1013  0.0589
 1213SOL     OW 4537   4.924   5.849   3.077 -0.0678 -0.0413  0.0322
 1213SOL    HW1 4538   4.925   5.800   2.990 -1.0498 -0.4306  0.2339
 1213SOL    HW2 4539   4.993   5.921   3.075  2.4490 -2.2651  0.2218
 1214SOL     OW 4540   3.715   1.458   5.797  0.7263  0.0102  0.1934
 1214SOL    HW1 4541   3.777   1.514   5.851 -0.1622 -0.1582  1.4425
 1214SOL    HW2 4542   3.639   1.427   5.855 -1.0270  0.9667 -1.4899
 1215SOL     OW 4543   3.717   2.879   4.185 -0.3526  0.0817  0.2573
 1215SOL    HW1 4544   3.741   2.936   4.106 -0.3632  0.2529  0.3751
 1215SOL    HW2 4545   3.654   2.807   4.157  0.6747 -0.6740 -0.1485
 1216SOL     OW 4546   3.347   6.270   0.644 -0.2091 -0.4799 -0.1779
 1216SOL    HW1 4547   3.251   6.262   0.617  0.3082  1.4063 -2.9180
 1216SOL    HW2 4548   3.387   6.178   0.651 -2.2327 -1.3206  1.3822
 1217SOL     OW 4549   1.673   1.776   0.062 -0.3127 -0.0151  0.2722
 1217SOL    HW1 4550   1.607   1.754  -0.010  0.8296 -3.4832  0.0960
 1217SOL    HW2 4551   1.761   1.801   0.021  0.4204 -2.2692  0.3679
 1218SOL     OW 4552   1.934   3.957   1.030  0.2644  0.1346  0.2054
 1218SOL    HW1 4553   1.948   3.867   0.989  0.2598  0.0438  0.3996
 1218SOL    HW2 4554   1.840   3.965   1.062  0.3995  0.0140  0.6484
 1219SOL     OW 4555   6.186   1.995   6.980 -0.1743 -0.2414  0.2977
 1219SOL    HW1 4556   6.092   1.967   6.998  0.1940 -0.5198  1.9443
 1219SOL    HW2 4557   6.247   1.918   6.993  0.2952 -0.1117 -0.9521
 1220SOL     OW 4558   0.326   4.503   3.763  0.2830 -0.0522  0.0603
 1220SOL    HW1 4559   0.356   4.484   3.857  2.3526  0.9447 -0.3254
 1220SOL    HW2 4560   0.277   4.591   3.761  1.3893  0.5862  0.0520
 1221SOL     OW 4561   1.885   2.278   1.276 -0.0173  0.0696 -0.6777
 1221SOL    HW1 4562   1.911   2.371   1.301 -0.7287  0.2360 -0.5439
 1221SOL    HW2 4563   1.919   2.214   1.346 -0.2537  0.3163 -0.3364
 1222SOL     OW 4564   3.387   4.831   6.242 -0.2173 -0.5175  0.4125
 1222SOL    HW1 4565   3.325   4.886   6.298  2.2031  1.5059  1.2794
 1222SOL    HW2 4566   3.349   4.823   6.150 -1.9813  0.1901  1.0187
 1223SOL     OW 4567   2.441   2.927   6.057  0.1128  0.1126  0.3511
 1223SOL    HW1 4568   2.445   3.024   6.083  0.2034  0.3906 -0.6658
 1223SOL    HW2 4569   2.413   2.919   5.962 -0.2390 -0.8863  0.5232
 1224SOL     OW 4570   3.281   0.481   1.706  0.9024 -1.1032 -0.6701
 1224SOL    HW1 4571   3.235   0.398   1.674 -0.3124 -0.6729 -0.0670
 1224SOL    HW2 4572   3.244   0.560   1.658  1.6592 -0.8403 -0.8318
 1225SOL     OW 4573   1.051   6.963   3.078 -0.0300  0.2630  0.4395
 1225SOL    HW1 4574   1.137   7.006   3.053  0.5399  0.3139  2.2835
 1225SOL    HW2 4575   0.994   6.951   2.997  1.8093 -0.0355 -0.8730
 1226SOL     OW 4576   4.270   3.093   6.910 -0.0855  0.1440  0.0611
 1226SOL    HW1 4577   4.191   3.154   6.922 -0.2442 -0.0870  0.1952
 1226SOL    HW2 4578   4.300   3.059   6.999  0.5415  0.6989  0.0677
 1227SOL     OW 4579   0.142   5.665   4.901 -0.2690 -0.5239  0.0776
 1227SOL    HW1 4580   0.232   5.703   4.880 -0.4701 -1.5300 -3.3194
 1227SOL    HW2 4581   0.114   5.693   4.992  3.0031  0.6795  0.8496
 1228SOL     OW 4582   4.847   0.728   2.378  0.0059 -0.3173  0.1832
 1228SOL    HW1 4583   4.893   0.685   2.455  1.0502 -0.2162 -0.3572
 1228SOL    HW2 4584   4.831   0.824   2.398  1.7733  0.1284 -0.3127
 1229SOL     OW 4585   0.621   5.404   2.364  0.2299 -0.4278  0.0405
 1229SOL    HW1 4586   0.548   5.336   2.372  0.2401 -0.3095  1.2698
 1229SOL    HW2 4587   0.598   5.468   2.290  0.4788 -2.0547 -1.5116
 1230SOL     OW 4588   0.455   4.710   4.408 -0.4174 -0.3139 -0.0156
 1230SOL    HW1 4589   0.530   4.773   4.429 -1.6832  1.2759 -0.0526
 1230SOL    HW2 4590   0.484   4.646   4.337  0.2981  1.5208 -1.4645
 1231SOL     OW 4591   4.932   3.478   4.280  0.3445  0.0949 -0.5566
 1231SOL    HW1 4592   4.871   3.398   4.279  0.2603  0.0381  2.1651
 1231SOL    HW2 4593   5.025   3.448   4.299  0.1561  0.6635  1.4419
 1232SOL     OW 4594   2.912   5.306   0.801  0.0825  0.9545  0.5112
 1232SOL    HW1 4595   2.815   5.323   0.783 -0.6911 -2.3381  0.9121
 1232SOL    HW2 4596   2.924   5.280   0.897  1.5067  2.0029  0.6424
 1233SOL     OW 4597   5.237   1.245   0.395  0.4771 -0.0502 -0.8116
 1233SOL    HW1 4598   5.226   1.245   0.494 -1.5666  0.4600 -0.9786
 1233SOL    HW2 4599   5.206   1.333   0.358 -0.5037 -0.8584 -2.0252
 1234SOL     OW 4600   0.591   1.238   0.264 -0.3349  0.6403  0.0230
 1234SOL    HW1 4601   0.571   1.231   0.362  0.5685 -2.7488  0.1017
 1234SOL    HW2 4602   0.680   1.282   0.251 -0.4931  1.1748  0.7081
 1235SOL     OW 4603   2.794   6.214   3.953 -0.0537  0.0170  0.2875
 1235SOL    HW1 4604   2.764   6.178   3.865 -0.4900  0.6051  0.1945
 1235SOL    HW2 4605   2.815   6.311   3.944 -1.2654  0.3734  1.1023
 1236SOL     OW 4606   6.851   5.691   3.310  0.1835  0.5362 -0.1770
 1236SOL    HW1 4607   6.874   5.754   3.384  1.1565 -0.3299  0.2942
 1236SOL    HW2 4608   6.754   5.699   3.287  0.1934  1.8598  0.1752
 1237SOL     OW 4609   2.104   1.312   0.923  0.4933 -0.4555 -0.4956
 1237SOL    HW1 4610   2.004   1.310   0.919  0.2850  3.3342 -2.8699
 1237SOL    HW2 4611   2.133   1.347   1.013 -0.4322  0.1689 -0.4276
 1238SOL     OW 4612   5.547   1.362   4.279  0.2798  0.0919  0.4350
 1238SOL    HW1 4613   5.544   1.415   4.363 -0.1182 -0.2032  0.6102
 1238SOL    HW2 4614   5.540   1.423   4.200  0.5013  0.3559  0.6172
 1239SOL     OW 4615   6.931   3.097   2.849  0.3704 -0.1684 -0.0382
 1239SOL    HW1 4616   6.906   3.000   2.851 -1.0307  0.1597 -0.3845
 1239SOL    HW2 4617   6.864   3.147   2.793  1.7132  0.8231 -0.8140
 1240SOL     OW 4618   4.648   1.114   3.966  0.5554 -0.4394 -0.0159
 1240SOL    HW1 4619   4.555   1.130   3.931  1.8770  1.1220 -3.2108
 1240SOL    HW2 4620   4.692   1.042   3.912  0.9786 -1.8221  2.0602
 1241SOL     OW 4621   2.885   1.806   4.327  0.3031 -0.8415  0.1598
 1241SOL    HW1 4622   2.859   1.888   4.277  2.8853  0.9996  1.5709
 1241SOL    HW2 4623   2.926   1.740   4.264 -0.2143 -0.3131 -0.7461
 1242SOL     OW 4624   5.857   4.976   0.599  0.4209  0.2661  0.7912
 1242SOL    HW1 4625   5.847   4.945   0.694 -1.2368  1.2876  0.9834
 1242SOL    HW2 4626   5.814   4.910   0.538  2.9765 -1.2848  0.5269
 1243SOL     OW 4627   3.786   4.196   6.753 -0.4880 -0.0472 -0.0629
 1243SOL    HW1 4628   3.790   4.101   6.723 -1.1286  0.3159 -1.3684
 1243SOL    HW2 4629   3.814   4.202   6.849  0.3502 -1.4296 -0.2006
 1244SOL     OW 4630   1.363   2.359   1.666  0.1737 -0.5113  0.1448
 1244SOL    HW1 4631   1.366   2.396   1.573  0.7374 -0.1170  0.3198
 1244SOL    HW2 4632   1.304   2.278   1.667 -2.2817  1.1544  0.0506
 1245SOL     OW 4633   0.250   3.931   1.555  0.3705 -0.1333  0.0403
 1245SOL    HW1 4634   0.264   3.880   1.470 -1.1980  0.1767 -0.4423
 1245SOL    HW2 4635   0.331   3.986   1.575  1.0759 -0.8318 -0.8198
 1246SOL     OW 4636   5.718   6.432   0.168 -0.0797  0.4490 -0.3144
 1246SOL    HW1 4637   5.810   6.399   0.189  0.8066  1.6142 -2.0737
 1246SOL    HW2 4638   5.654   6.356   0.166  1.1196 -0.5817 -0.3890
 1247SOL     OW 4639   0.624   0.779   3.021 -0.2700 -0.1964  1.0282
 1247SOL    HW1 4640   0.527   0.757   3.020 -0.7601  0.9378 -4.3436
 1247SOL    HW2 4641   0.638   0.872   2.988  2.6455 -0.6190  0.7924
 1248SOL     OW 4642   1.630   2.747   1.981 -0.4856  0.0568  0.4618
 1248SOL    HW1 4643   1.611   2.842   1.958  0.6248  0.2925  0.4250
 1248SOL    HW2 4644   1.597   2.688   1.908  0.4080  0.5710 -0.3847
 1249SOL     OW 4645   3.996   5.634   2.125  0.2839 -0.1762 -0.2674
 1249SOL    HW1 4646   3.940   5.551   2.127  0.8847 -0.5778  0.7823
 1249SOL    HW2 4647   4.093   5.609   2.125  0.4803  0.5205  0.8817
 1250SOL     OW 4648   2.771   1.891   3.057 -0.1107  0.2698  0.1136
 1250SOL    HW1 4649   2.758   1.976   3.107  0.1386  0.5280 -0.2534
 1250SOL    HW2 4650   2.683   1.857   3.025 -0.1494  0.7454 -0.3086
 1251SOL     OW 4651   3.427   4.061   3.568  0.3325 -0.5251 -0.6047
 1251SOL    HW1 4652   3.472   4.065   3.657 -1.6552  3.2027  0.4148
 1251SOL    HW2 4653   3.496   4.061   3.496  1.9499 -1.8111  0.8506
 1252SOL     OW 4654   5.739   2.966   2.293 -0.5616  0.3567 -0.3482
 1252SOL    HW1 4655   5.674   2.981   2.368 -1.3065 -1.5911 -0.5464
 1252SOL    HW2 4656   5.700   3.002   2.208 -0.3736  1.2260 -0.0692
 1253SOL     OW 4657   0.998   4.806   5.545 -0.1908  0.1352 -0.0242
 1253SOL    HW1 4658   0.944   4.846   5.619 -0.8657 -1.6654  0.4933
 1253SOL    HW2 4659   1.095   4.804   5.572  0.0310  2.2692 -0.4773
 1254SOL     OW 4660   0.561   5.085   4.646  0.9206  0.2650  0.3638
 1254SOL    HW1 4661   0.526   5.158   4.588  0.2602  1.7888  2.5687
 1254SOL    HW2 4662   0.618   5.124   4.718  1.1788 -1.4752  1.1525
 1255SOL     OW 4663   1.990   2.858   0.686  0.0078  0.3254 -0.2062
 1255SOL    HW1 4664   2.033   2.850   0.596 -0.1205 -1.0104 -0.1627
 1255SOL    HW2 4665   1.960   2.768   0.717  1.3946  0.5139  1.8563
 1256SOL     OW 4666   2.817   6.487   6.778 -0.1484  0.1431  0.3839
 1256SOL    HW1 4667   2.752   6.529   6.841 -1.2516 -1.1911  0.1613
 1256SOL    HW2 4668   2.860   6.408   6.822  0.7713  0.5343  0.2352
 1257SOL     OW 4669   0.468   3.458   4.274  0.5154 -0.5111 -0.0872
 1257SOL    HW1 4670   0.509   3.546   4.300  1.7202 -1.2158  0.5119
 1257SOL    HW2 4671   0.387   3.474   4.217 -0.2789  1.0204  1.3830
 1258SOL     OW 4672   0.363   6.036   0.875 -0.0234  0.3584  0.0881
 1258SOL    HW1 4673   0.450   6.082   0.893  0.3267 -0.0581 -0.4954
 1258SOL    HW2 4674   0.368   5.988   0.787 -0.9375  0.5582 -0.0846
 1259SOL     OW 4675   3.595   1.913   5.306  0.4889 -0.3763  0.7764
 1259SOL    HW1 4676   3.528   1.871   5.244 -0.6264  1.2358  0.8138
 1259SOL    HW2 4677   3.579   1.881   5.399 -1.7861  1.6428  1.1764
 1260SOL     OW 4678   6.727   1.621   3.251 -0.2469 -0.8593 -0.0900
 1260SOL    HW1 4679   6.818   1.607   3.290  0.6859  0.4699 -1.6442
 1260SOL    HW2 4680   6.716   1.562   3.171 -0.9931 -1.4256  0.4171
 1261SOL     OW 4681   3.107   2.788   0.367  0.4796 -0.1077 -0.4339
 1261SOL    HW1 4682   3.064   2.876   0.385 -1.5124 -0.6793 -1.9930
 1261SOL    HW2 4683   3.200   2.802   0.333  0.6840  1.2878  0.6044
 1262SOL     OW 4684   4.337   0.044   6.575  0.1630 -0.0093  0.4765
 1262SOL    HW1 4685   4.318  -0.036   6.631 -0.1807  0.9448  1.7743
 1262SOL    HW2 4686   4.274   0.046   6.497 -1.0306 -0.0741  1.4186
 1263SOL     OW 4687   5.018   0.180   5.946 -0.1229 -0.6054 -0.4806
 1263SOL    HW1 4688   5.016   0.114   5.871  1.5463 -2.0501  0.6615
 1263SOL    HW2 4689   4.947   0.156   6.013 -0.3910 -0.4222 -0.6957
 1264SOL     OW 4690   0.215   0.668   0.917 -0.1312 -0.4918  0.2212
 1264SOL    HW1 4691   0.260   0.591   0.871 -1.0085 -0.8352 -0.0668
 1264SOL    HW2 4692   0.275   0.703   0.989  0.6584 -0.8573 -0.2402
 1265SOL     OW 4693   1.721   4.161   2.220  0.1211 -0.1481  0.0161
 1265SOL    HW1 4694   1.744   4.248   2.263 -1.4015 -0.2858  1.1874
 1265SOL    HW2 4695   1.750   4.086   2.279 -0.7727 -0.3722  0.1794
 1266SOL     OW 4696   1.298   6.288   2.942  0.1536 -0.0562  0.0792
 1266SOL    HW1 4697   1.319   6.230   2.864 -0.2034 -1.5761  1.0596
 1266SOL    HW2 4698   1.310   6.236   3.027 -0.2720  1.2818  1.0046
 1267SOL     OW 4699   4.182   5.944   2.405  0.0126  0.1364 -0.1171
 1267SOL    HW1 4700   4.137   5.867   2.360 -0.4106 -0.5543  1.4014
 1267SOL    HW2 4701   4.142   5.957   2.496 -0.1289  2.3625 -0.4426
 1268SOL     OW 4702   1.384   0.252   2.188  0.1863  0.2831  0.7142
 1268SOL    HW1 4703   1.424   0.165   2.215  0.2543  0.1827  0.3102
 1268SOL    HW2 4704   1.292   0.236   2.151  1.7723 -0.3123 -3.6313
 1269SOL     OW 4705   3.615   4.667   0.795  0.4343 -0.1826  0.2857
 1269SOL    HW1 4706   3.564   4.647   0.878  0.5327  0.6414  0.5581
 1269SOL    HW2 4707   3.553   4.704   0.725  0.6878  1.0959  0.7173
 1270SOL     OW 4708   4.707   6.465   2.494 -0.1132 -0.0343  0.5126
 1270SOL    HW1 4709   4.622   6.412   2.496  0.2459 -0.7504  4.4869
 1270SOL    HW2 4710   4.689   6.559   2.523  0.0783  0.7159 -1.5961
 1271SOL     OW 4711   3.620   3.524   0.947 -0.3589 -0.2108 -1.1354
 1271SOL    HW1 4712   3.600   3.500   1.042  0.1170  0.1034 -0.9530
 1271SOL    HW2 4713   3.698   3.586   0.944 -1.6732  1.5148 -1.5649
 1272SOL     OW 4714   4.140   0.994   4.757 -0.2831 -0.1632  0.3507
 1272SOL    HW1 4715   4.194   1.074   4.730  0.1743  0.7551  3.5733
 1272SOL    HW2 4716   4.056   0.991   4.704  0.0524  2.0202 -0.3837
 1273SOL     OW 4717   0.981   6.998   1.264 -0.1760 -0.0140 -0.1180
 1273SOL    HW1 4718   0.928   6.920   1.233  0.1574 -1.0637  1.7730
 1273SOL    HW2 4719   0.966   7.012   1.362  1.0534  1.2612 -0.0742
 1274SOL     OW 4720   0.934   1.833   1.201 -0.0535 -0.4862  0.2872
 1274SOL    HW1 4721   0.945   1.830   1.102 -0.4636  2.0433  0.0913
 1274SOL    HW2 4722   1.023   1.839   1.245  0.0806  0.4805 -0.0890
 1275SOL     OW 4723   3.578   6.068   0.853  0.3505  0.4619 -0.5489
 1275SOL    HW1 4724   3.548   6.153   0.896  1.4955 -0.1362  1.6205
 1275SOL    HW2 4725   3.522   5.992   0.887  0.6007  0.1059 -0.9237
 1276SOL     OW 4726   4.426   2.337   4.080 -0.1037  0.1286  0.2210
 1276SOL    HW1 4727   4.341   2.369   4.037  0.4187  2.6069  0.8581
 1276SOL    HW2 4728   4.408   2.254   4.131 -2.1005  0.4417  0.1251
 1277SOL     OW 4729   2.666   0.281   6.360  0.2598  0.4771  0.2357
 1277SOL    HW1 4730   2.685   0.329   6.445  1.9386 -1.2576  0.9104
 1277SOL    HW2 4731   2.594   0.212   6.375  1.9872 -1.2750  0.8765
 1278SOL     OW 4732   6.405   3.405   1.686 -0.1362  0.1946  0.0868
 1278SOL    HW1 4733   6.488   3.362   1.652  1.1159 -0.8803  3.9762
 1278SOL    HW2 4734   6.347   3.336   1.729 -2.2360  1.2274 -0.9480
 1279SOL     OW 4735   5.229   5.827   0.279 -0.0273 -0.0897  0.0848
 1279SOL    HW1 4736   5.258   5.735   0.306  0.4682  0.6064  2.0569
 1279SOL    HW2 4737   5.155   5.858   0.339  2.0492  2.0487  1.7095
 1280SOL     OW 4738   6.464   6.595   6.376 -0.3282  0.2128  0.7822
 1280SOL    HW1 4739   6.559   6.563   6.376 -0.2650  0.0336 -2.6289
 1280SOL    HW2 4740   6.402   6.517   6.376 -0.4036  0.2732  0.8891
 1281SOL     OW 4741   3.094   4.948   2.298 -0.1571  0.0562  1.1120
 1281SOL    HW1 4742   3.115   4.912   2.207  1.6166 -1.0075  1.9072
 1281SOL    HW2 4743   3.033   4.885   2.346 -2.7039  1.5445  0.0252
 1282SOL     OW 4744   4.381   4.539   3.684  0.3134  0.2712  0.3128
 1282SOL    HW1 4745   4.386   4.460   3.746 -0.5328 -2.3454 -2.6540
 1282SOL    HW2 4746   4.470   4.584   3.681  1.3698 -1.6391  0.8889
 1283SOL     OW 4747   6.704   6.444   5.222  0.1100 -0.6537 -0.0190
 1283SOL    HW1 4748   6.775   6.438   5.292  2.2954  1.0998 -1.8890
 1283SOL    HW2 4749   6.710   6.533   5.177 -1.7572 -1.3800 -1.8693
 1284SOL     OW 4750   6.274   1.062   2.518  0.2241  0.5831  0.3721
 1284SOL    HW1 4751   6.292   1.149   2.563 -2.1050  2.2890 -1.7325
 1284SOL    HW2 4752   6.238   1.078   2.426  0.7359 -2.6571 -0.5488
 1285SOL     OW 4753   4.505   4.165   1.586  0.2033 -0.0254 -0.5983
 1285SOL    HW1 4754   4.503   4.208   1.677  1.2051 -0.5121 -0.3313
 1285SOL    HW2 4755   4.575   4.094   1.585 -0.3514 -0.5651 -1.5210
 1286SOL     OW 4756   0.596   3.913   4.523 -0.3623  0.1484  0.1486
 1286SOL    HW1 4757   0.522   3.930   4.588 -0.9672  2.3824 -1.0139
 1286SOL    HW2 4758   0.651   3.996   4.512  1.2537 -0.9339 -0.3485
 1287SOL     OW 4759   5.613   1.347   6.147  0.2404 -0.4177 -0.0906
 1287SOL    HW1 4760   5.593   1.383   6.238  1.8832 -1.5522  0.7630
 1287SOL    HW2 4761   5.564   1.261   6.133  2.0622 -1.6686  0.8481
 1288SOL     OW 4762   6.845   2.120   4.286 -0.4311  0.3728 -0.5021
 1288SOL    HW1 4763   6.885   2.130   4.195  0.0594  0.0311 -0.3323
 1288SOL    HW2 4764   6.918   2.117   4.354 -0.5883 -2.1119 -0.3462
 1289SOL     OW 4765   5.458   3.371   6.964  0.5343  0.4042 -0.2530
 1289SOL    HW1 4766   5.524   3.382   6.890 -1.2050 -2.3282 -2.4094
 1289SOL    HW2 4767   5.483   3.292   7.020  0.2263  0.6324  0.2103
 1290SOL     OW 4768   6.025   6.802   3.074  0.3616  0.6586  0.2274
 1290SOL    HW1 4769   5.972   6.887   3.066 -1.8988 -0.6184  0.6963
 1290SOL    HW2 4770   6.122   6.822   3.059 -0.1008  3.2740  0.1487
 1291SOL     OW 4771   0.117   6.931   5.063  0.3385 -0.1955 -0.2169
 1291SOL    HW1 4772   0.076   6.917   4.972 -0.1029  2.8651 -0.5987
 1291SOL    HW2 4773   0.057   6.892   5.133 -1.5218  1.1040 -1.0067
 1292SOL     OW 4774   0.300   6.875   4.495  0.2078 -1.0231  0.2918
 1292SOL    HW1 4775   0.387   6.910   4.461 -0.2481  0.6997  0.8381
 1292SOL    HW2 4776   0.286   6.907   4.589 -1.5715 -0.2557 -0.2106
 1293SOL     OW 4777   4.191   6.048   0.436 -0.2656  0.1909  0.1471
 1293SOL    HW1 4778   4.262   6.011   0.497 -1.0575  1.2611  1.7611
 1293SOL    HW2 4779   4.194   5.998   0.349  0.4405 -1.8655  1.2796
 1294SOL     OW 4780   4.182   6.619   5.169  0.8431  0.2097 -0.0241
 1294SOL    HW1 4781   4.280   6.619   5.191  1.0403  1.4723 -0.7747
 1294SOL    HW2 4782   4.157   6.708   5.132 -0.5022 -0.2567 -0.2765
 1295SOL     OW 4783   0.512   5.801   2.116  1.0642 -0.0597 -0.2657
 1295SOL    HW1 4784   0.584   5.777   2.051  1.8511  3.0118 -0.6914
 1295SOL    HW2 4785   0.516   5.899   2.135 -1.5762 -0.2019  1.5220
 1296SOL     OW 4786   5.293   6.642   1.707  0.1665  0.3860 -0.1794
 1296SOL    HW1 4787   5.292   6.584   1.626 -0.0288 -0.8744  0.7036
 1296SOL    HW2 4788   5.387   6.657   1.736  0.1748 -0.4387  0.2417
 1297SOL     OW 4789   0.813   1.098   5.424  0.4069 -0.7102 -0.5056
 1297SOL    HW1 4790   0.722   1.133   5.401  0.7066 -0.2308 -0.9767
 1297SOL    HW2 4791   0.815   0.999   5.411 -0.6393 -1.0370  1.4355
 1298SOL     OW 4792   5.404   1.231   0.958  0.4866  0.1801  0.1536
 1298SOL    HW1 4793   5.358   1.217   1.045  0.4772  0.5234  0.2028
 1298SOL    HW2 4794   5.407   1.144   0.908  1.5210 -0.2824  0.9862
 1299SOL     OW 4795   1.121   0.916   4.289 -0.0716  0.3534 -0.0683
 1299SOL    HW1 4796   1.082   0.826   4.274  0.8266 -0.0523 -0.0339
 1299SOL    HW2 4797   1.047   0.982   4.306 -0.7809 -0.1936 -0.9540
 1300SOL     OW 4798   5.457   4.140   2.678 -0.2227 -0.4672  0.8504
 1300SOL    HW1 4799   5.365   4.100   2.677 -0.1058 -0.7563 -0.9155
 1300SOL    HW2 4800   5.451   4.236   2.650  0.0947 -0.7366 -0.1901
 1301SOL     OW 4801   4.214   1.749   3.411  0.2671  0.1282  0.0282
 1301SOL    HW1 4802   4.169   1.679   3.355 -0.2872  0.0294  0.5781
 1301SOL    HW2 4803   4.158   1.832   3.410  0.0877  0.0204  0.6802
 1302SOL     OW 4804   0.893   4.935   3.863 -0.5146  0.1149  0.2564
 1302SOL    HW1 4805   0.873   4.846   3.904  1.3321 -0.4498  0.0160
 1302SOL    HW2 4806   0.811   4.992   3.867 -1.6996 -1.5210  0.5665
 1303SOL     OW 4807   5.734   5.455   4.188  0.1905 -0.4088 -0.0532
 1303SOL    HW1 4808   5.735   5.425   4.284 -3.7171  0.3443  0.3602
 1303SOL    HW2 4809   5.696   5.383   4.131 -0.1201  0.1752 -0.5891
 1304SOL     OW 4810   6.071   0.329   2.150  0.6106 -0.3777  0.1057
 1304SOL    HW1 4811   6.148   0.380   2.111  0.3327 -0.5781 -0.7147
 1304SOL    HW2 4812   6.000   0.317   2.081  0.2189 -0.9695  0.5985
 1305SOL     OW 4813   1.626   3.815   6.519  0.1156 -0.0562  0.3458
 1305SOL    HW1 4814   1.532   3.793   6.546  0.0226  0.4805  0.4807
 1305SOL    HW2 4815   1.667   3.875   6.587  0.6601 -0.5247  0.4286
 1306SOL     OW 4816   4.847   6.439   4.313  0.2237 -0.0358 -0.2090
 1306SOL    HW1 4817   4.907   6.377   4.262  0.2963 -0.4783  0.3969
 1306SOL    HW2 4818   4.861   6.533   4.282  0.1647 -0.3103 -1.0954
 1307SOL     OW 4819   5.230   0.924   6.380 -0.0972  0.2665  0.0506
 1307SOL    HW1 4820   5.160   0.896   6.315 -0.5101  2.9624 -0.7745
 1307SOL    HW2 4821   5.187   0.965   6.460  0.4931  1.4145 -0.1953
 1308SOL     OW 4822   6.861   6.054   0.767 -0.8189 -0.4363  0.1529
 1308SOL    HW1 4823   6.933   6.122   0.751 -1.4731 -0.1982 -2.1353
 1308SOL    HW2 4824   6.817   6.031   0.680 -2.3803 -1.8498  1.2536
 1309SOL     OW 4825   0.927   2.896   6.830  0.3154 -0.0631 -0.2114
 1309SOL    HW1 4826   1.002   2.941   6.879  0.4988 -1.1285  0.5217
 1309SOL    HW2 4827   0.953   2.883   6.735  0.3130  1.2215 -0.4097
 1310SOL     OW 4828   1.942   4.336   2.727  0.0554 -0.3845 -0.1282
 1310SOL    HW1 4829   1.962   4.285   2.811 -0.6375 -0.6040 -0.0891
 1310SOL    HW2 4830   1.843   4.340   2.713  0.0174  1.9016  0.4440
 1311SOL     OW 4831   0.143   2.379   3.602 -0.6920  0.6333 -0.1280
 1311SOL    HW1 4832   0.194   2.298   3.574  0.1955  1.1126  0.0646
 1311SOL    HW2 4833   0.094   2.417   3.523 -0.7698  0.1523 -0.3114
 1312SOL     OW 4834   3.416   2.966   4.388 -0.2739 -0.0063 -0.2546
 1312SOL    HW1 4835   3.381   2.934   4.300 -1.0252 -0.2225  0.1104
 1312SOL    HW2 4836   3.500   2.917   4.411 -1.6419 -2.1364  0.5115
 1313SOL     OW 4837   5.460   6.155   6.399 -0.1059  0.4574 -0.1750
 1313SOL    HW1 4838   5.488   6.075   6.452  1.0929  0.9448 -0.0225
 1313SOL    HW2 4839   5.425   6.226   6.461 -2.5220 -0.4315 -0.4316
 1314SOL     OW 4840   0.342   6.671   2.931  0.5128  0.0282 -0.1391
 1314SOL    HW1 4841   0.433   6.708   2.913 -0.5153  2.0153 -1.6539
 1314SOL    HW2 4842   0.290   6.734   2.989  0.8291 -2.2435  2.8438
 1315SOL     OW 4843   1.537   2.882   2.448  0.6088 -0.4754 -0.2538
 1315SOL    HW1 4844   1.511   2.795   2.407  0.3724 -0.4280 -0.2015
 1315SOL    HW2 4845   1.630   2.875   2.485 -0.3084 -1.5274  2.0573
 1316SOL     OW 4846   7.015   6.721   5.952  0.0910  0.4173 -0.1377
 1316SOL    HW1 4847   7.097   6.766   5.919  0.4484  1.2156  1.7198
 1316SOL    HW2 4848   7.039   6.657   6.025 -0.9315  0.7192  0.4871
 1317SOL     OW 4849   3.823   1.109   2.668 -0.3695 -0.4051  0.0653
 1317SOL    HW1 4850   3.785   1.025   2.630  0.6428 -1.9839  2.3310
 1317SOL    HW2 4851   3.750   1.162   2.710 -0.8862 -0.5701 -0.6033
 1318SOL     OW 4852   4.714   0.127   1.082  0.1901 -0.3065 -0.9590
 1318SOL    HW1 4853   4.660   0.121   0.999  0.0523  1.6140 -1.0596
 1318SOL    HW2 4854   4.679   0.202   1.139  0.8211 -1.0243  0.4336
 1319SOL     OW 4855   4.990   5.471   2.420 -0.1370 -0.1729  0.4173
 1319SOL    HW1 4856   5.011   5.499   2.327  0.2471  0.4144  0.6751
 1319SOL    HW2 4857   4.936   5.386   2.419 -1.4118  0.6256 -0.3771
 1320SOL     OW 4858   4.065   1.675   1.486 -0.7787  0.5840  0.8238
 1320SOL    HW1 4859   4.011   1.743   1.437  0.4085  1.6205  0.9071
 1320SOL    HW2 4860   4.008   1.629   1.554 -1.6875  1.2521  0.5240
 1321SOL     OW 4861   2.324   1.999   4.471 -0.1910 -0.2920  0.3679
 1321SOL    HW1 4862   2.355   2.048   4.552 -1.0127  2.0905 -0.6729
 1321SOL    HW2 4863   2.235   1.957   4.490 -0.6935  0.8091  0.5319
 1322SOL     OW 4864   6.950   0.900   2.236 -0.4545 -0.4186  0.0306
 1322SOL    HW1 4865   6.914   0.903   2.143 -2.0486 -0.1260  0.6197
 1322SOL    HW2 4866   7.021   0.970   2.247 -1.2579  0.5255 -0.5837
 1323SOL     OW 4867   3.747   2.911   5.162  0.0949 -0.6290  0.3112
 1323SOL    HW1 4868   3.761   2.996   5.214 -3.0422 -0.3937  0.9787
 1323SOL    HW2 4869   3.806   2.839   5.200  0.7124  0.5277  1.6453
 1324SOL     OW 4870   1.952   5.025   5.079  0.0896  0.3144 -0.0975
 1324SOL    HW1 4871   1.867   5.060   5.040 -0.1082  0.8526  0.7883
 1324SOL    HW2 4872   2.005   5.100   5.117  0.7443 -0.0762 -0.2175
 1325SOL     OW 4873   0.824   5.963   5.116  0.3844 -0.0833 -0.2529
 1325SOL    HW1 4874   0.879   5.951   5.033  0.1103  0.5014 -0.5271
 1325SOL    HW2 4875   0.731   5.992   5.090  0.1861 -0.2773  0.2409
 1326SOL     OW 4876   3.769   1.231   3.537  0.7024 -0.1444  0.7201
 1326SOL    HW1 4877   3.851   1.191   3.497 -0.6749 -1.3731 -1.0053
 1326SOL    HW2 4878   3.737   1.307   3.480 -0.3553 -0.8369  0.3749
 1327SOL     OW 4879   2.946   6.093   2.821  0.4991 -0.5767 -0.1502
 1327SOL    HW1 4880   2.944   6.004   2.776  2.5039  0.7848 -3.3257
 1327SOL    HW2 4881   2.866   6.147   2.793  0.5715 -0.5192 -0.2468
 1328SOL     OW 4882   5.977   0.854   4.531  0.4045  0.1962  0.2496
 1328SOL    HW1 4883   5.946   0.931   4.586 -0.5708  0.4776 -0.6663
 1328SOL    HW2 4884   6.034   0.887   4.456 -0.4285  0.1015 -0.4420
 1329SOL     OW 4885   4.610   2.360   5.319 -0.0213  0.0052 -0.4579
 1329SOL    HW1 4886   4.625   2.458   5.307  0.2176 -0.0924 -0.9621
 1329SOL    HW2 4887   4.513   2.340   5.305 -0.3567  0.3778  1.1028
 1330SOL     OW 4888   3.566   5.985   3.050  0.8941  0.5195 -0.9708
 1330SOL    HW1 4889   3.642   6.020   2.994  2.9234 -1.2403  0.4928
 1330SOL    HW2 4890   3.567   6.031   3.139 -0.4598  1.2016 -1.2795
 1331SOL     OW 4891   6.807   5.914   6.753 -0.3954  0.0385 -0.2961
 1331SOL    HW1 4892   6.855   5.870   6.828 -0.5664  1.2013  0.5170
 1331SOL    HW2 4893   6.770   6.002   6.783 -1.3335  0.0764 -1.4554
 1332SOL     OW 4894   0.280   2.459   6.117  0.0981 -0.4374  0.2669
 1332SOL    HW1 4895   0.380   2.453   6.116  0.1831  0.7753 -0.0338
 1332SOL    HW2 4896   0.249   2.513   6.038 -0.6923  0.4833  1.1739
 1333SOL     OW 4897   1.906   1.213   2.439 -0.0386 -0.1937 -0.1994
 1333SOL    HW1 4898   1.989   1.193   2.492 -0.1740  0.8182  0.4254
 1333SOL    HW2 4899   1.868   1.128   2.403  0.8928 -0.7418  0.0778
 1334SOL     OW 4900   3.650   3.502   6.771 -1.0382  0.5803  0.8428
 1334SOL    HW1 4901   3.592   3.448   6.832 -0.5047 -2.2777 -0.9789
 1334SOL    HW2 4902   3.647   3.463   6.679  4.4200 -0.5088  0.7784
 1335SOL     OW 4903   2.031   0.540   0.439 -0.2191  0.5071 -0.1268
 1335SOL    HW1 4904   2.085   0.525   0.522 -1.0598  0.5982  0.4459
 1335SOL    HW2 4905   1.941   0.575   0.464 -0.4063  0.7419 -1.0959
 1336SOL     OW 4906   5.664   2.438   5.593 -0.0670 -0.3153  0.0932
 1336SOL    HW1 4907   5.584   2.493   5.617 -0.1596 -0.7700  0.8531
 1336SOL    HW2 4908   5.648   2.392   5.506  0.6066  2.0293 -1.3681
 1337SOL     OW 4909   4.712   4.839   5.517  0.1804 -0.2264  0.3354
 1337SOL    HW1 4910   4.653   4.791   5.582  0.4101 -0.4406  0.3898
 1337SOL    HW2 4911   4.665   4.848   5.429  0.4420 -1.2843  0.0771
 1338SOL     OW 4912   4.307   2.982   5.323 -0.7006  0.3304  0.1486
 1338SOL    HW1 4913   4.359   2.916   5.268  0.0108  0.8771  0.1475
 1338SOL    HW2 4914   4.365   3.018   5.396 -0.9191  1.3020 -0.1331
 1339SOL     OW 4915   5.318   6.641   3.358  0.1237  0.2506  0.3126
 1339SOL    HW1 4916   5.352   6.667   3.268  0.1647 -0.1144  0.2226
 1339SOL    HW2 4917   5.332   6.543   3.372  3.3545  0.7917  2.0454
 1340SOL     OW 4918   0.742   0.583   5.235  0.3795  0.3956  0.0196
 1340SOL    HW1 4919   0.711   0.585   5.140  0.9793 -0.9607 -0.2322
 1340SOL    HW2 4920   0.842   0.582   5.237  0.3645  0.0351  0.6551
 1341SOL     OW 4921   0.463   6.529   0.145  0.8106  0.2451 -0.3304
 1341SOL    HW1 4922   0.451   6.483   0.233 -0.6276  0.8690 -0.1659
 1341SOL    HW2 4923   0.509   6.617   0.160 -1.0628  1.1905  0.0813
 1342SOL     OW 4924   6.506   4.913   5.773 -0.6316  0.0857  0.3990
 1342SOL    HW1 4925   6.516   4.822   5.813 -2.4636 -0.1040  0.4953
 1342SOL    HW2 4926   6.415   4.949   5.795 -0.2684  1.5650 -0.4112
 1343SOL     OW 4927   4.456   4.913   2.839  0.1639 -0.0991  0.3896
 1343SOL    HW1 4928   4.399   4.883   2.763 -0.1766  0.3545  0.4605
 1343SOL    HW2 4929   4.398   4.938   2.916  0.5013 -0.4944  0.7849
 1344SOL     OW 4930   0.007   0.792   4.210 -0.0311 -0.1692 -0.1242
 1344SOL    HW1 4931  -0.029   0.755   4.124 -0.2778 -3.2896  1.1857
 1344SOL    HW2 4932  -0.054   0.863   4.243 -0.2008  0.7545 -2.2308
 1345SOL     OW 4933   2.838   2.734   0.282  0.3321  0.3021  0.8495
 1345SOL    HW1 4934   2.911   2.751   0.348 -0.4009 -0.2921  1.8356
 1345SOL    HW2 4935   2.752   2.771   0.317 -0.0548  0.0461  0.1921
 1346SOL     OW 4936   5.599   2.570   6.707 -0.3654 -0.2197  0.0137
 1346SOL    HW1 4937   5.696   2.566   6.681 -0.4548  1.9778 -0.8521
 1346SOL    HW2 4938   5.585   2.642   6.775 -1.4246 -0.3498 -0.0490
 1347SOL     OW 4939   5.302   6.617   2.688 -0.4444  0.3108  0.1349
 1347SOL    HW1 4940   5.289   6.532   2.636  1.6715 -0.4873  0.8208
 1347SOL    HW2 4941   5.256   6.608   2.777  1.2062 -0.8935  0.9303
 1348SOL     OW 4942   4.617   6.616   5.876 -0.3680  0.7008 -0.4906
 1348SOL    HW1 4943   4.617   6.675   5.796 -0.5341  1.3911  0.0076
 1348SOL    HW2 4944   4.542   6.549   5.868  0.1671  0.1814 -1.3157
 1349SOL     OW 4945   5.376   6.356   6.548 -0.0452  0.6010  0.5856
 1349SOL    HW1 4946   5.282   6.374   6.577 -0.4411  0.4860 -0.5456
 1349SOL    HW2 4947   5.413   6.438   6.504 -0.7001 -0.2241 -1.6511
 1350SOL     OW 4948   2.969   1.081   1.361 -0.1427  0.3908  0.6608
 1350SOL    HW1 4949   2.918   1.048   1.281 -2.2165  1.0619  1.6561
 1350SOL    HW2 4950   3.061   1.040   1.360 -0.8581 -1.3538 -0.8677
 1351SOL     OW 4951   1.387   5.422   4.794  0.4982 -0.1829 -0.0558
 1351SOL    HW1 4952   1.407   5.324   4.803 -1.0150 -0.5819 -0.6601
 1351SOL    HW2 4953   1.386   5.447   4.697  0.5516  0.3646  0.0794
 1352SOL     OW 4954   2.154   1.602   2.969  0.4784  0.0913 -0.6985
 1352SOL    HW1 4955   2.194   1.535   3.032  0.8306 -0.1789 -1.2005
 1352SOL    HW2 4956   2.098   1.667   3.020  1.2494  0.2439 -0.0188
 1353SOL     OW 4957   3.136   0.985   3.067 -0.3457 -0.4242 -0.2953
 1353SOL    HW1 4958   3.039   0.999   3.085 -0.2141  0.1528  0.0027
 1353SOL    HW2 4959   3.190   1.024   3.142  0.0918 -1.6006  0.0177
 1354SOL     OW 4960   5.883   1.037   0.725 -0.3520 -0.1893  0.6402
 1354SOL    HW1 4961   5.954   1.105   0.710 -1.4716  0.9527  0.3389
 1354SOL    HW2 4962   5.925   0.949   0.748  1.1788  0.2085 -0.4632
 1355SOL     OW 4963   3.740   5.845   1.253  0.9714 -0.5619  1.1915
 1355SOL    HW1 4964   3.738   5.756   1.209  3.6762 -0.1540  0.1072
 1355SOL    HW2 4965   3.646   5.874   1.273 -0.0961 -2.6188 -0.4658
 1356SOL     OW 4966   1.316   4.205   5.139 -0.1873  0.2932 -0.3987
 1356SOL    HW1 4967   1.353   4.211   5.046 -2.2278 -2.2490 -1.4893
 1356SOL    HW2 4968   1.392   4.189   5.203  1.0146 -1.1158 -2.0551
 1357SOL     OW 4969   5.024   0.250   4.429 -0.0432 -0.4855  0.4368
 1357SOL    HW1 4970   4.971   0.319   4.480 -1.6533 -1.1231 -0.2968
 1357SOL    HW2 4971   4.995   0.251   4.334  1.7220 -0.4796 -0.1291
 1358SOL     OW 4972   0.624   1.297   2.468 -0.1321 -0.2110 -0.4669
 1358SOL    HW1 4973   0.700   1.287   2.532 -0.2202  1.7716 -0.0180
 1358SOL    HW2 4974   0.660   1.309   2.376  0.0640 -0.4102 -0.4188
 1359SOL     OW 4975   5.232   4.423   4.898  0.1051  0.5181 -0.5132
 1359SOL    HW1 4976   5.282   4.501   4.936  0.3569  0.5834 -0.9808
 1359SOL    HW2 4977   5.293   4.345   4.888  0.3123  0.8375 -1.8296
 1360SOL     OW 4978   6.386   5.198   2.813 -0.3398  0.3615 -0.2773
 1360SOL    HW1 4979   6.425   5.204   2.905 -1.3763 -1.3904  0.3413
 1360SOL    HW2 4980   6.288   5.218   2.817 -0.6754 -1.0360 -0.7103
 1361SOL     OW 4981   6.239   0.321   4.864  0.1734  0.1789  0.1768
 1361SOL    HW1 4982   6.204   0.384   4.795  1.8911  0.8771 -0.1139
 1361SOL    HW2 4983   6.256   0.232   4.822 -1.8635 -0.4099  0.4940
 1362SOL     OW 4984   4.380   3.625   5.336  0.5392 -0.2472  0.1497
 1362SOL    HW1 4985   4.469   3.592   5.306  0.1376 -1.5747  0.3690
 1362SOL    HW2 4986   4.352   3.703   5.279  2.1960  0.7469  0.6213
 1363SOL     OW 4987   1.235   1.147   0.082  0.1016 -0.7884 -0.0358
 1363SOL    HW1 4988   1.323   1.111   0.113  0.9787 -0.6924 -2.2531
 1363SOL    HW2 4989   1.215   1.232   0.131  1.0129 -1.0319  0.7975
 1364SOL     OW 4990   0.560   6.365   5.562  0.0351 -0.3045 -0.2492
 1364SOL    HW1 4991   0.529   6.409   5.646  1.2346  1.4090 -0.6631
 1364SOL    HW2 4992   0.584   6.435   5.494  0.0575 -1.6365 -1.6690
 1365SOL     OW 4993   0.627   5.205   3.626  0.3010 -0.2523  0.2064
 1365SOL    HW1 4994   0.598   5.134   3.563  0.3399 -0.7309  0.7179
 1365SOL    HW2 4995   0.699   5.261   3.584 -0.4504  0.1339 -0.5817
 1366SOL     OW 4996   2.908   1.598   3.713  0.9301  0.3273 -0.2654
 1366SOL    HW1 4997   2.892   1.647   3.627 -1.7582 -0.3442 -0.2453
 1366SOL    HW2 4998   2.991   1.543   3.706  2.1812  2.2657 -1.4626
 1367SOL     OW 4999   4.271   0.528   2.367 -0.5728  0.7055  0.2114
 1367SOL    HW1 5000   4.342   0.483   2.312 -0.4819 -0.1024  0.9602
 1367SOL    HW2 5001   4.218   0.459   2.416 -0.5874  1.4029  1.2090
 1368SOL     OW 5002   6.464   0.898   2.907  0.6800 -0.1274 -0.0954
 1368SOL    HW1 5003   6.365   0.915   2.910  0.4032 -1.0653 -2.1893
 1368SOL    HW2 5004   6.483   0.818   2.851  2.6746  0.4109 -0.2855
 1369SOL     OW 5005   2.565   4.961   2.569 -0.5897  0.3186  0.6313
 1369SOL    HW1 5006   2.629   5.038   2.571  0.8364 -0.8390  1.6308
 1369SOL    HW2 5007   2.606   4.886   2.516 -3.2390  1.2223 -3.1120
 1370SOL     OW 5008   6.400   6.131   4.481 -0.3462  0.1408  0.1524
 1370SOL    HW1 5009   6.409   6.207   4.416 -0.9085  1.0642  1.1117
 1370SOL    HW2 5010   6.308   6.094   4.477 -0.1031 -0.4263 -0.2372
 1371SOL     OW 5011   6.744   1.534   4.596  0.3303  0.3082  0.2229
 1371SOL    HW1 5012   6.767   1.604   4.529  0.5208  0.8473  0.8434
 1371SOL    HW2 5013   6.802   1.454   4.582 -0.4988 -0.0956 -1.0648
 1372SOL     OW 5014   5.686   2.391   3.583 -0.9073  0.1762 -0.3423
 1372SOL    HW1 5015   5.723   2.446   3.658 -0.9175  1.1694 -1.0450
 1372SOL    HW2 5016   5.751   2.391   3.507 -0.6241 -1.3189 -0.1311
 1373SOL     OW 5017   2.856   6.654   4.442  0.1868  0.8529  0.0264
 1373SOL    HW1 5018   2.951   6.659   4.474 -0.2583 -0.1673  1.6738
 1373SOL    HW2 5019   2.807   6.736   4.470  0.7321  1.7146 -1.4604
 1374SOL     OW 5020   2.430   1.309   5.791 -0.3564  0.5515  0.6171
 1374SOL    HW1 5021   2.445   1.306   5.890  0.5562 -1.1115  0.4736
 1374SOL    HW2 5022   2.368   1.235   5.765  0.5719  0.0403 -0.1964
 1375SOL     OW 5023   0.164   3.325   0.994  0.5615  0.3229 -0.2755
 1375SOL    HW1 5024   0.157   3.225   0.988  0.9075  0.3614 -1.5696
 1375SOL    HW2 5025   0.216   3.349   1.076  1.1039 -0.5925 -0.3334
 1376SOL     OW 5026   6.859   0.116   2.529  0.0907  0.2839  0.1369
 1376SOL    HW1 5027   6.781   0.166   2.490 -1.0647 -1.2247  0.3756
 1376SOL    HW2 5028   6.868   0.137   2.626 -0.9257 -0.5500  0.4354
 1377SOL     OW 5029   0.255   5.517   1.477  0.5300  0.0226  0.0837
 1377SOL    HW1 5030   0.176   5.456   1.486  0.4049  0.2767  0.7832
 1377SOL    HW2 5031   0.250   5.566   1.390 -0.7246  0.9392  0.6505
 1378SOL     OW 5032   6.359   0.832   4.257 -0.6340 -1.0489 -0.3189
 1378SOL    HW1 5033   6.357   0.733   4.244  2.0890 -1.4690  1.7110
 1378SOL    HW2 5034   6.449   0.867   4.234  0.3968 -0.0257  4.2634
 1379SOL     OW 5035   2.901   3.791   6.862 -0.7662 -0.8297 -0.0212
 1379SOL    HW1 5036   2.845   3.732   6.920  1.6812 -0.7819  2.5753
 1379SOL    HW2 5037   2.937   3.737   6.785 -0.3244 -2.1815  1.0963
 1380SOL     OW 5038   5.202   6.478   6.181  0.0724 -0.0548 -0.1330
 1380SOL    HW1 5039   5.217   6.527   6.267  2.2308 -0.8169 -0.0096
 1380SOL    HW2 5040   5.133   6.407   6.195 -2.1497  2.0130  0.0120
 1381SOL     OW 5041   0.737   5.995   6.007  0.0877 -0.1124 -0.0210
 1381SOL    HW1 5042   0.725   6.074   5.947 -1.4230 -0.1824  0.1374
 1381SOL    HW2 5043   0.806   6.016   6.076 -0.3610  1.1334  0.0781
 1382SOL     OW 5044   0.036   0.420   1.103 -0.6395  0.2573  0.1217
 1382SOL    HW1 5045   0.131   0.410   1.074 -0.2954  0.4281  1.1628
 1382SOL    HW2 5046   0.033   0.449   1.199 -1.7283  1.5508 -0.2745
 1383SOL     OW 5047   3.081   2.598   0.575 -0.2796 -0.3037  0.4828
 1383SOL    HW1 5048   3.160   2.596   0.635 -0.5351 -0.7887  0.8135
 1383SOL    HW2 5049   3.108   2.632   0.485  0.2141 -0.0798  0.7137
 1384SOL     OW 5050   1.932   5.741   4.118  0.4889  0.4223 -0.3304
 1384SOL    HW1 5051   2.028   5.770   4.111  0.7575 -0.6283 -1.2128
 1384SOL    HW2 5052   1.928   5.647   4.151 -0.2869  0.6840  0.3539
 1385SOL     OW 5053   5.859   0.702   0.424 -0.7477  0.2336 -0.8089
 1385SOL    HW1 5054   5.896   0.790   0.452 -0.1490 -0.1611 -0.3329
 1385SOL    HW2 5055   5.928   0.652   0.371  0.0116 -1.1246  1.3338
 1386SOL     OW 5056   0.127   1.748   0.900 -0.1051  0.0842 -0.1569
 1386SOL    HW1 5057   0.120   1.844   0.874 -0.7144 -0.2074 -1.1125
 1386SOL    HW2 5058   0.220   1.728   0.930  0.4370  0.6185 -1.4259
 1387SOL     OW 5059   4.938   4.566   4.463  0.1566  0.0170 -0.1516
 1387SOL    HW1 5060   4.910   4.471   4.455 -2.2049  0.4379  1.9842
 1387SOL    HW2 5061   4.857   4.625   4.458  1.2954  1.7562  0.8468
 1388SOL     OW 5062   2.241   2.564   2.693  0.7588 -0.4123  0.1558
 1388SOL    HW1 5063   2.322   2.533   2.643  1.0188 -0.2956  0.4996
 1388SOL    HW2 5064   2.165   2.502   2.674  1.0841 -0.8589  0.2816
 1389SOL     OW 5065   6.681   3.661   0.093  0.1937 -0.1075  0.3161
 1389SOL    HW1 5066   6.751   3.699   0.033  0.7316 -0.6599  0.5908
 1389SOL    HW2 5067   6.699   3.564   0.108 -0.8027 -0.3320  0.1394
 1390SOL     OW 5068   1.550   4.069   6.426 -0.1504  0.0370 -0.1447
 1390SOL    HW1 5069   1.611   3.996   6.458 -1.0141 -0.5156  0.2499
 1390SOL    HW2 5070   1.522   4.050   6.332  0.2707  0.2881 -0.3240
 1391SOL     OW 5071   5.438   4.706   3.145  0.2585 -0.9046 -0.1902
 1391SOL    HW1 5072   5.399   4.796   3.126  1.5050  0.4170  2.8693
 1391SOL    HW2 5073   5.388   4.637   3.093 -1.5762  1.3810 -1.6875
 1392SOL     OW 5074   5.978   6.433   0.477  0.2614 -0.1325 -0.3323
 1392SOL    HW1 5075   5.976   6.394   0.385 -1.6431  0.6909 -0.6949
 1392SOL    HW2 5076   6.068   6.472   0.494  0.1304  1.3908 -2.6369
 1393SOL     OW 5077   4.558   2.642   3.110  0.2646  0.2546 -0.4331
 1393SOL    HW1 5078   4.593   2.565   3.057 -0.1466 -0.1048 -0.1799
 1393SOL    HW2 5079   4.492   2.610   3.177  0.7032  0.7192  0.2301
 1394SOL     OW 5080   3.575   5.882   4.252 -0.4329  0.4666 -0.2852
 1394SOL    HW1 5081   3.516   5.912   4.178  0.1780  2.0038 -0.1692
 1394SOL    HW2 5082   3.657   5.838   4.215 -1.1383 -0.7685 -0.4551
 1395SOL     OW 5083   5.816   3.137   2.630  0.3151 -0.6930 -0.2409
 1395SOL    HW1 5084   5.803   3.235   2.615  0.1618 -0.8588 -1.2357
 1395SOL    HW2 5085   5.905   3.109   2.593  0.2174 -0.9903 -0.2551
 1396SOL     OW 5086   2.654   4.437   1.515  0.2524  0.0930  0.3469
 1396SOL    HW1 5087   2.660   4.357   1.574  0.6353  0.1472  0.3850
 1396SOL    HW2 5088   2.746   4.466   1.488  0.0923  0.1898 -0.1106
 1397SOL     OW 5089   3.445   2.113   1.880  0.5822  0.1320 -0.1103
 1397SOL    HW1 5090   3.513   2.143   1.946 -0.1989 -1.8909  1.7066
 1397SOL    HW2 5091   3.358   2.095   1.926 -0.1644 -0.7975 -1.7726
 1398SOL     OW 5092   4.338   0.956   6.827 -0.0773  0.0480  0.3407
 1398SOL    HW1 5093   4.340   0.927   6.731  0.6830  1.7554 -0.1998
 1398SOL    HW2 5094   4.262   1.019   6.841 -1.1074 -1.3267  1.2639
 1399SOL     OW 5095   5.617   4.417   5.595 -0.3875 -0.4678  0.0556
 1399SOL    HW1 5096   5.559   4.498   5.588 -0.1563 -0.1031  1.8826
 1399SOL    HW2 5097   5.560   4.335   5.604 -0.6797 -0.1305  1.6448
 1400SOL     OW 5098   4.851   5.811   2.714 -0.3721 -0.4126 -0.8856
 1400SOL    HW1 5099   4.915   5.886   2.700  0.6423 -1.1150 -0.1340
 1400SOL    HW2 5100   4.787   5.836   2.787  1.3621 -1.0911  0.9644
 1401SOL     OW 5101   1.193   0.646   3.278  0.1829 -0.1427 -0.5661
 1401SOL    HW1 5102   1.275   0.659   3.223 -0.4341  2.3826 -1.0164
 1401SOL    HW2 5103   1.130   0.584   3.230  0.5975  0.2431 -1.6380
 1402SOL     OW 5104   1.183   6.875   6.305 -0.5812  0.0161 -0.3999
 1402SOL    HW1 5105   1.092   6.879   6.346  0.0187 -1.3234  1.1999
 1402SOL    HW2 5106   1.214   6.779   6.301  0.8386  0.4521 -0.7182
 1403SOL     OW 5107   6.588   6.464   1.067 -0.5716  1.0374  0.2659
 1403SOL    HW1 5108   6.590   6.411   0.983 -0.1254  0.8155  0.4117
 1403SOL    HW2 5109   6.585   6.403   1.146  2.5848  1.0502  0.5535
 1404SOL     OW 5110   4.022   2.407   0.446 -0.4595  0.0204 -0.3053
 1404SOL    HW1 5111   4.041   2.315   0.413 -0.7691 -0.0717 -0.2328
 1404SOL    HW2 5112   4.095   2.469   0.417  0.1091 -0.3854  0.2397
 1405SOL     OW 5113   4.570   0.587   6.840  0.1647  0.2353  0.3362
 1405SOL    HW1 5114   4.533   0.667   6.887  0.2976 -0.2682  1.3208
 1405SOL    HW2 5115   4.590   0.610   6.745  1.8303  1.8921  1.0234
 1406SOL     OW 5116   0.156   3.240   6.698  0.2128  0.2997 -0.6066
 1406SOL    HW1 5117   0.089   3.167   6.712  0.5958  0.3768  2.1408
 1406SOL    HW2 5118   0.238   3.221   6.751  1.8767  0.9292 -2.7845
 1407SOL     OW 5119   0.382   2.501   6.558  0.2235  0.1946 -0.6308
 1407SOL    HW1 5120   0.357   2.405   6.562  1.1179 -0.0124  0.4546
 1407SOL    HW2 5121   0.478   2.512   6.587 -0.0583  1.4695 -0.1014
 1408SOL     OW 5122   3.008   4.031   6.544  1.2897  0.1819 -0.3766
 1408SOL    HW1 5123   3.082   3.966   6.558 -0.5953 -1.9030  0.6609
 1408SOL    HW2 5124   2.928   3.983   6.507  0.5781  2.4281 -1.9576
 1409SOL     OW 5125   6.305   3.391   2.807 -0.4964  0.1248 -0.1481
 1409SOL    HW1 5126   6.394   3.405   2.765 -0.5126  0.8863  0.0649
 1409SOL    HW2 5127   6.233   3.417   2.742 -0.5090  2.4205  0.6933
 1410SOL     OW 5128   5.598   5.538   1.871  0.9632  0.1338 -0.6679
 1410SOL    HW1 5129   5.558   5.572   1.786  1.1750 -0.9483 -1.2184
 1410SOL    HW2 5130   5.531   5.481   1.919  0.9438  0.5030 -0.2505
 1411SOL     OW 5131   1.964   2.950   5.766 -0.1043  0.2768  0.7543
 1411SOL    HW1 5132   1.918   3.035   5.740 -0.0346  0.3056  0.7259
 1411SOL    HW2 5133   2.033   2.969   5.835  1.2676  0.5499 -0.6403
 1412SOL     OW 5134   2.105   5.741   6.679 -0.3987  0.3449  0.5109
 1412SOL    HW1 5135   2.080   5.699   6.592  0.1879  0.4695  0.2732
 1412SOL    HW2 5136   2.184   5.801   6.665  0.8694 -1.0335  1.4482
 1413SOL     OW 5137   2.481   6.597   1.508  0.0908 -0.4479  0.2614
 1413SOL    HW1 5138   2.422   6.616   1.587 -1.5113  0.1429 -1.0381
 1413SOL    HW2 5139   2.452   6.511   1.466  1.3261 -1.0679  0.6329
 1414SOL     OW 5140   6.053   6.996   4.169  0.5324 -0.4676 -0.7377
 1414SOL    HW1 5141   6.098   6.907   4.176  1.6721  0.1770  0.9139
 1414SOL    HW2 5142   5.963   6.991   4.213  1.9104 -0.0868  2.4649
 1415SOL     OW 5143   1.735   5.745   0.416  0.8528 -0.6223  0.3262
 1415SOL    HW1 5144   1.810   5.797   0.375  0.5074 -0.4489 -0.1006
 1415SOL    HW2 5145   1.658   5.742   0.351  0.0413  0.2280  1.2217
 1416SOL     OW 5146   4.716   6.005   3.332  0.2213  0.1119  0.1973
 1416SOL    HW1 5147   4.679   5.915   3.355  0.2441  0.5954  2.3226
 1416SOL    HW2 5148   4.717   6.016   3.232  1.6018 -2.7837 -0.2039
 1417SOL     OW 5149   6.373   5.208   1.114 -0.2232 -0.1733  0.4137
 1417SOL    HW1 5150   6.327   5.222   1.027  0.1609  0.4146  0.3008
 1417SOL    HW2 5151   6.443   5.278   1.126 -1.7752  1.2004  2.2076
 1418SOL     OW 5152   4.309   1.776   4.198  0.2447 -0.2766  0.0326
 1418SOL    HW1 5153   4.376   1.779   4.272 -0.0354  0.6845  0.2648
 1418SOL    HW2 5154   4.224   1.820   4.227 -0.3302 -1.0324 -0.4287
 1419SOL     OW 5155   1.466   5.241   1.509 -0.3524 -0.4272  0.2228
 1419SOL    HW1 5156   1.505   5.151   1.487  0.2988 -0.0466 -0.2162
 1419SOL    HW2 5157   1.431   5.240   1.602  0.7049 -0.7996  0.6383
 1420SOL     OW 5158   5.736   4.324   2.175  0.5128  0.2928  0.3321
 1420SOL    HW1 5159   5.776   4.403   2.224 -1.4035  1.1385  0.6111
 1420SOL    HW2 5160   5.717   4.350   2.080 -3.0150  1.3388  1.1717
 1421SOL     OW 5161   4.090   6.337   0.875 -0.4152 -0.3527  0.1175
 1421SOL    HW1 5162   4.174   6.387   0.898  0.6796 -1.9775 -0.2012
 1421SOL    HW2 5163   4.040   6.315   0.959 -1.0616  1.4504  0.2491
 1422SOL     OW 5164   5.705   3.018   3.751  0.6135  0.0342 -0.1476
 1422SOL    HW1 5165   5.762   3.068   3.816  0.7456  0.6011 -0.6886
 1422SOL    HW2 5166   5.655   2.946   3.799 -0.0336  1.0547  0.7552
 1423SOL     OW 5167   3.783   5.668   6.755  0.2554  0.3307 -0.2488
 1423SOL    HW1 5168   3.825   5.624   6.676  1.4589  0.9179  0.0337
 1423SOL    HW2 5169   3.729   5.602   6.806  1.9912 -0.8467  0.1590
 1424SOL     OW 5170   0.274   2.985   2.164  0.3951  0.7742  0.7079
 1424SOL    HW1 5171   0.272   2.939   2.253  1.0777  1.1751  0.9341
 1424SOL    HW2 5172   0.237   2.924   2.094 -1.1382  0.8241  1.4253
 1425SOL     OW 5173   1.459   4.143   5.741  0.7692 -0.3092  0.1731
 1425SOL    HW1 5174   1.504   4.197   5.811  1.2847 -2.0208  1.2316
 1425SOL    HW2 5175   1.518   4.068   5.713  0.0780 -0.3691 -1.2216
 1426SOL     OW 5176   0.957   3.252   6.333 -0.1577  0.0709 -0.4097
 1426SOL    HW1 5177   0.956   3.336   6.279 -0.0055 -0.9186 -2.0330
 1426SOL    HW2 5178   0.934   3.273   6.428  2.3125  2.3149 -0.1619
 1427SOL     OW 5179   1.222   2.012   4.472  0.6511 -0.3189  0.3808
 1427SOL    HW1 5180   1.173   1.938   4.426  0.5540 -0.0928  0.1160
 1427SOL    HW2 5181   1.314   2.019   4.435 -0.1077  1.2793 -1.3805
 1428SOL     OW 5182   3.098   2.861   1.911  0.2000  0.2528 -0.0790
 1428SOL    HW1 5183   3.043   2.916   1.849  1.3322  1.1357 -0.3312
 1428SOL    HW2 5184   3.169   2.814   1.859 -0.1405 -0.6791  0.2755
 1429SOL     OW 5185   1.679   3.693   4.055  0.2146  0.1713  0.5804
 1429SOL    HW1 5186   1.658   3.689   3.957 -1.8273 -0.4990  0.9989
 1429SOL    HW2 5187   1.741   3.769   4.072 -0.2379  0.9750 -1.1130
 1430SOL     OW 5188   6.014   6.134   4.918 -0.1884 -0.0424  0.3453
 1430SOL    HW1 5189   6.099   6.093   4.884 -0.1675 -1.3977  1.9112
 1430SOL    HW2 5190   6.036   6.215   4.973 -0.1165  1.1030 -1.2894
 1431SOL     OW 5191   6.068   1.519   5.061 -0.2032  0.0645 -0.3037
 1431SOL    HW1 5192   6.134   1.594   5.057 -0.1701  0.2257  2.1057
 1431SOL    HW2 5193   5.980   1.550   5.025  0.5879  0.2801 -2.1819
 1432SOL     OW 5194   4.491   1.116   0.181  0.1899  0.1563 -0.3002
 1432SOL    HW1 5195   4.587   1.093   0.193 -0.1064 -0.8113  0.3449
 1432SOL    HW2 5196   4.466   1.110   0.084  0.8977  0.9289 -0.5337
 1433SOL     OW 5197   4.369   5.268   4.025 -0.4347 -0.0173 -0.3821
 1433SOL    HW1 5198   4.389   5.359   4.063  2.0102 -0.5571 -0.2433
 1433SOL    HW2 5199   4.397   5.266   3.929  2.1066 -1.3248  0.2858
 1434SOL     OW 5200   4.572   5.968   5.900  0.5193 -0.1521  0.2085
 1434SOL    HW1 5201   4.618   5.891   5.856 -1.8565 -0.6394 -1.6470
 1434SOL    HW2 5202   4.504   5.935   5.964 -1.5824  0.2152 -1.6987
 1435SOL     OW 5203   2.300   1.957   3.875  0.0728  0.3640 -0.2172
 1435SOL    HW1 5204   2.287   1.894   3.798 -2.3673  3.0324 -2.1848
 1435SOL    HW2 5205   2.225   1.948   3.939  0.8617 -0.2009  0.6428
 1436SOL     OW 5206   3.566   5.525   4.122  0.3690 -0.4401  0.1630
 1436SOL    HW1 5207   3.504   5.568   4.187  0.5101  1.8059 -1.0893
 1436SOL    HW2 5208   3.599   5.593   4.057  1.6100 -2.2407 -1.2058
 1437SOL     OW 5209   5.412   2.465   1.510  0.5679  0.6610 -0.3307
 1437SOL    HW1 5210   5.332   2.521   1.532  0.0636 -0.7923  1.9669
 1437SOL    HW2 5211   5.493   2.505   1.553  0.3374  0.0847  0.6810
 1438SOL     OW 5212   3.290   2.833   2.123 -0.0445  1.2150 -0.0515
 1438SOL    HW1 5213   3.266   2.918   2.168  1.0120  1.5705 -0.1272
 1438SOL    HW2 5214   3.221   2.811   2.053 -1.8484  0.5106  1.8615
 1439SOL     OW 5215   3.937   3.728   4.651  0.9135  0.4682  0.3763
 1439SOL    HW1 5216   3.925   3.788   4.730  0.9198  1.4302 -0.3239
 1439SOL    HW2 5217   3.984   3.644   4.679  0.9219  0.7950  1.3818
 1440SOL     OW 5218   3.536   3.233   3.710  0.5587  0.2122  0.2974
 1440SOL    HW1 5219   3.465   3.162   3.711  0.2540  0.5159  0.3880
 1440SOL    HW2 5220   3.603   3.211   3.639 -0.3246  0.5878 -0.6773
 1441SOL     OW 5221   0.138   2.946   6.413  0.0457  0.4050 -0.0657
 1441SOL    HW1 5222   0.149   2.847   6.405  0.5526  0.2283  2.0380
 1441SOL    HW2 5223   0.066   2.978   6.351 -1.2197 -1.5204  0.3511
 1442SOL     OW 5224   1.571   1.260   0.533 -0.0603  0.1104  0.1103
 1442SOL    HW1 5225   1.527   1.236   0.619 -0.5155  0.2931 -0.0674
 1442SOL    HW2 5226   1.542   1.352   0.506 -0.5147 -0.2355 -0.6120
 1443SOL     OW 5227   5.117   0.817   1.275 -0.1343  0.5852  0.2399
 1443SOL    HW1 5228   5.092   0.890   1.339  3.6845  2.4709 -0.1599
 1443SOL    HW2 5229   5.198   0.769   1.309 -0.5434 -1.2294 -1.1837
 1444SOL     OW 5230   1.156   2.089   2.158 -0.5371 -0.2190 -0.6800
 1444SOL    HW1 5231   1.086   2.104   2.228  0.3863 -0.7865  0.3826
 1444SOL    HW2 5232   1.243   2.127   2.189  0.2164 -1.6992 -0.9159
 1445SOL     OW 5233   2.218   6.647   0.676 -0.1989 -0.0645  0.0124
 1445SOL    HW1 5234   2.234   6.548   0.672  2.1092  0.2125  0.6013
 1445SOL    HW2 5235   2.143   6.671   0.615  0.2887 -1.9888 -1.4772
 1446SOL     OW 5236   6.258   4.440   2.632  0.0214 -0.0698  0.0111
 1446SOL    HW1 5237   6.291   4.446   2.538  3.4488  0.7152  1.1231
 1446SOL    HW2 5238   6.313   4.375   2.683 -1.1221  0.2376  1.7364
 1447SOL     OW 5239   6.089   1.153   1.793  0.3746 -0.0669 -0.3090
 1447SOL    HW1 5240   6.165   1.162   1.857  1.8856 -0.6565 -1.9297
 1447SOL    HW2 5241   6.072   1.241   1.748  1.6895 -0.4169 -1.5886
 1448SOL     OW 5242   0.229   6.407   1.998  0.5418  0.3987 -0.0100
 1448SOL    HW1 5243   0.129   6.408   2.008  0.3037 -0.6808 -1.7033
 1448SOL    HW2 5244   0.255   6.470   1.924  1.1918  1.1329  0.8320
 1449SOL     OW 5245   2.799   6.736   6.656 -0.7952 -0.3565  0.1669
 1449SOL    HW1 5246   2.756   6.707   6.570  0.3060 -0.9293 -0.2132
 1449SOL    HW2 5247   2.825   6.655   6.708 -0.9355 -0.0077  0.7855
 1450SOL     OW 5248   5.316   2.849   3.594 -0.6311  0.4020 -0.3234
 1450SOL    HW1 5249   5.406   2.866   3.634 -0.4930  0.3164 -0.5977
 1450SOL    HW2 5250   5.254   2.923   3.620 -0.8237 -0.1602  0.9041
 1451SOL     OW 5251   1.464   0.676   5.509  0.2762 -0.1037  0.0408
 1451SOL    HW1 5252   1.401   0.602   5.484  0.4646 -0.1997 -0.1545
 1451SOL    HW2 5253   1.424   0.764   5.484  1.3476 -0.2721 -2.6529
 1452SOL     OW 5254   5.249   3.635   4.453  0.2709  0.5759  0.2143
 1452SOL    HW1 5255   5.234   3.623   4.551  0.8422 -1.4711  0.0952
 1452SOL    HW2 5256   5.233   3.548   4.406 -0.2692  1.5939 -1.5583
 1453SOL     OW 5257   4.797   0.794   3.595 -0.0358 -0.7026  0.8733
 1453SOL    HW1 5258   4.770   0.809   3.500  2.8330  0.7152  0.1583
 1453SOL    HW2 5259   4.833   0.702   3.605  3.1528  0.2504 -0.5002
 1454SOL     OW 5260   2.629   3.201   5.573 -0.4159 -0.4427 -0.0285
 1454SOL    HW1 5261   2.598   3.239   5.486 -0.7621 -0.6468  0.0037
 1454SOL    HW2 5262   2.729   3.212   5.580 -0.6637  1.7987  0.6504
 1455SOL     OW 5263   6.608   5.699   3.167  0.4985  0.4096 -0.3727
 1455SOL    HW1 5264   6.591   5.610   3.126 -2.2801  0.1741  1.0545
 1455SOL    HW2 5265   6.603   5.770   3.097 -0.2463 -0.3115 -1.0661
 1456SOL     OW 5266   2.947   0.534   5.939  0.0748  0.2351 -0.6488
 1456SOL    HW1 5267   2.977   0.615   5.890 -1.4751  1.2899  0.0718
 1456SOL    HW2 5268   2.861   0.501   5.899 -0.9349  0.8045  0.9683
 1457SOL     OW 5269   4.676   6.747   2.583  0.6449  0.2474 -0.1136
 1457SOL    HW1 5270   4.648   6.830   2.535  1.8323  0.6236 -0.1889
 1457SOL    HW2 5271   4.625   6.738   2.668 -1.8677 -0.6801 -1.5951
 1458SOL     OW 5272   1.072   1.596   4.667 -0.2239  0.3799  0.7943
 1458SOL    HW1 5273   0.999   1.652   4.627 -0.5716  0.1713  1.1302
 1458SOL    HW2 5274   1.112   1.539   4.596 -1.2594 -0.4444  0.8523
 1459SOL     OW 5275   0.926   0.615   0.657  0.2898  1.1617 -0.6831
 1459SOL    HW1 5276   0.875   0.700   0.664 -1.3968  0.3358 -2.1971
 1459SOL    HW2 5277   0.875   0.541   0.701  2.4014  1.0850  1.9475
 1460SOL     OW 5278   2.535   1.158   6.780  0.1074 -0.1949  0.4439
 1460SOL    HW1 5279   2.484   1.072   6.788  0.5845 -0.6051 -0.7721
 1460SOL    HW2 5280   2.621   1.150   6.829 -0.6393  0.2596  1.9095
 1461SOL     OW 5281   5.136   0.970   3.262 -0.3614  0.4540  0.6706
 1461SOL    HW1 5282   5.050   0.991   3.308 -0.2951  0.0034  1.0091
 1461SOL    HW2 5283   5.158   0.873   3.275  0.1501  0.5459  0.5140
 1462SOL     OW 5284   1.956   4.169   5.946  0.0918 -0.0872  0.0254
 1462SOL    HW1 5285   1.998   4.128   6.027  3.7079 -0.0921 -1.6533
 1462SOL    HW2 5286   1.949   4.268   5.958  1.0802 -0.0265  0.1962
 1463SOL     OW 5287   1.122   6.438   6.671  0.3353  0.0097 -0.3796
 1463SOL    HW1 5288   1.107   6.513   6.607  0.3227  0.4702  0.1528
 1463SOL    HW2 5289   1.219   6.412   6.669  0.4447  0.3847 -0.2079
 1464SOL     OW 5290   1.314   6.812   0.931  0.2384  0.1012  0.1962
 1464SOL    HW1 5291   1.363   6.870   0.996  0.8523 -1.9867  1.7335
 1464SOL    HW2 5292   1.221   6.796   0.964  0.1012  0.1550 -0.1647
 1465SOL     OW 5293   2.936   5.830   2.236 -0.7764  0.6091  0.3526
 1465SOL    HW1 5294   2.913   5.741   2.276  0.2699  0.4162  0.5539
 1465SOL    HW2 5295   3.033   5.850   2.253 -0.6948  1.2231 -0.7681
 1466SOL     OW 5296   1.238   3.761   5.859 -0.6747  0.3363  0.3136
 1466SOL    HW1 5297   1.232   3.742   5.957  1.2880 -0.6930  0.2818
 1466SOL    HW2 5298   1.170   3.706   5.810  0.4099 -1.5754  0.8538
 1467SOL     OW 5299   2.380   5.873   5.322 -0.2426 -0.7271  0.0931
 1467SOL    HW1 5300   2.383   5.799   5.255 -1.6937 -0.3430 -0.4476
 1467SOL    HW2 5301   2.389   5.961   5.276 -1.8820 -0.4253  0.2864
 1468SOL     OW 5302   6.957   2.138   1.831  1.0217  0.5767 -0.3406
 1468SOL    HW1 5303   7.003   2.214   1.876  0.2813  0.2952  0.9565
 1468SOL    HW2 5304   6.982   2.052   1.877  1.0611  0.1483 -1.1415
 1469SOL     OW 5305   4.203   6.147   6.768 -0.7039  0.3797  0.0903
 1469SOL    HW1 5306   4.112   6.180   6.794 -0.8670  0.5909 -0.7251
 1469SOL    HW2 5307   4.272   6.204   6.813 -0.9639  2.8020 -2.3347
 1470SOL     OW 5308   6.849   2.374   2.253 -0.1084 -0.1569  0.1936
 1470SOL    HW1 5309   6.890   2.459   2.285 -0.3397  0.2568 -0.5719
 1470SOL    HW2 5310   6.918   2.318   2.208  0.0769 -0.4449  0.8363
 1471SOL     OW 5311   3.708   0.524   6.609  0.1025  0.3606 -0.2768
 1471SOL    HW1 5312   3.740   0.434   6.638  1.6968  1.4393  1.5733
 1471SOL    HW2 5313   3.641   0.558   6.675  0.8718  1.2649  0.0563
 1472SOL     OW 5314   6.010   4.615   6.613 -0.1129 -0.5969  0.0780
 1472SOL    HW1 5315   6.009   4.696   6.672  0.5675 -0.7049  0.2472
 1472SOL    HW2 5316   5.959   4.635   6.529 -2.0372 -0.8239  1.1612
 1473SOL     OW 5317   3.329   4.999   0.388 -0.6706  0.0963 -0.4705
 1473SOL    HW1 5318   3.275   5.069   0.340 -2.2128 -0.7100  0.0046
 1473SOL    HW2 5319   3.308   4.909   0.350 -1.5824 -0.5122  1.3568
 1474SOL     OW 5320   4.661   1.032   4.246 -0.0960  0.0858  1.0857
 1474SOL    HW1 5321   4.574   1.052   4.289 -0.9850 -0.8891 -0.1864
 1474SOL    HW2 5322   4.666   1.078   4.157  0.4620 -0.2891  0.9142
 1475SOL     OW 5323   1.619   5.801   1.081 -0.4068  0.4402 -0.1946
 1475SOL    HW1 5324   1.538   5.749   1.056 -1.4580  1.4314  1.0213
 1475SOL    HW2 5325   1.608   5.897   1.053  0.0266  0.7321  0.5957
 1476SOL     OW 5326   4.488   4.481   4.057  0.1387  0.4877 -0.2747
 1476SOL    HW1 5327   4.391   4.508   4.063 -0.3542 -0.2122 -3.2938
 1476SOL    HW2 5328   4.543   4.540   4.116 -1.9284  2.0744  0.1727
 1477SOL     OW 5329   6.343   1.920   2.809  0.1908 -0.5442 -0.1286
 1477SOL    HW1 5330   6.347   1.999   2.748 -1.5641  0.1525  0.5898
 1477SOL    HW2 5331   6.436   1.890   2.832  0.8728  0.4759 -1.4550
 1478SOL     OW 5332   4.741   0.459   5.180 -0.4744 -0.3456 -0.3640
 1478SOL    HW1 5333   4.651   0.471   5.136 -1.3991 -0.8180  1.3190
 1478SOL    HW2 5334   4.728   0.437   5.277  1.5030  0.8024  0.2034
 1479SOL     OW 5335   3.499   0.126   5.257  0.7173 -0.5004 -0.4508
 1479SOL    HW1 5336   3.488   0.130   5.357  1.8146 -0.7028 -0.3104
 1479SOL    HW2 5337   3.414   0.092   5.216 -0.9376  2.5781  0.1122
 1480SOL     OW 5338   4.245   4.311   6.011 -0.2190 -0.1883  0.2490
 1480SOL    HW1 5339   4.250   4.241   5.940 -0.8901 -0.7830  0.7715
 1480SOL    HW2 5340   4.235   4.401   5.969  1.0923 -0.3400 -0.4520
 1481SOL     OW 5341   6.086   3.778   4.745  0.0971 -0.2522  0.0543
 1481SOL    HW1 5342   6.037   3.692   4.731 -0.9001  0.4572 -1.0125
 1481SOL    HW2 5343   6.083   3.832   4.661  0.0762  1.1404  0.9114
 1482SOL     OW 5344   0.665   2.528   2.251 -0.0491 -0.0468 -0.0051
 1482SOL    HW1 5345   0.680   2.621   2.287  0.8200  0.0895 -0.6834
 1482SOL    HW2 5346   0.688   2.526   2.154 -1.2889 -0.6814 -0.3003
 1483SOL     OW 5347   2.158   3.043   5.914  0.8598 -0.0739 -0.5031
 1483SOL    HW1 5348   2.118   3.132   5.890 -0.3585 -0.4696 -0.0449
 1483SOL    HW2 5349   2.256   3.053   5.930  0.6081  1.3578  0.3393
 1484SOL     OW 5350   1.703   3.676   3.749 -0.3147  0.9365  0.4006
 1484SOL    HW1 5351   1.756   3.757   3.724 -0.9063  0.9895 -0.7480
 1484SOL    HW2 5352   1.616   3.677   3.700  0.2452 -1.1099 -0.7389
 1485SOL     OW 5353   5.151   3.888   2.136  0.5715  0.3483  0.5787
 1485SOL    HW1 5354   5.169   3.906   2.233 -0.8313  0.1837  0.9014
 1485SOL    HW2 5355   5.126   3.792   2.125 -0.7579  0.7068  0.3140
 1486SOL     OW 5356   3.092   5.924   4.446  0.7541  0.0831  0.0542
 1486SOL    HW1 5357   3.139   5.836   4.458  1.7316  0.3783 -1.3208
 1486SOL    HW2 5358   3.000   5.918   4.485  0.8971 -1.4547  0.2431
 1487SOL     OW 5359   5.376   3.291   3.467  0.4027  0.1007 -0.3434
 1487SOL    HW1 5360   5.351   3.387   3.458 -0.1320 -0.1034 -1.2535
 1487SOL    HW2 5361   5.400   3.255   3.377 -0.0070 -0.7692 -0.1138
 1488SOL     OW 5362   1.462   2.873   3.857 -0.0501 -0.1319  0.4018
 1488SOL    HW1 5363   1.453   2.944   3.927 -0.7653  0.3066 -0.1150
 1488SOL    HW2 5364   1.384   2.811   3.862  0.9741 -1.3987  1.3858
 1489SOL     OW 5365   3.215   2.007   3.888  0.2204  0.0228  0.0256
 1489SOL    HW1 5366   3.118   1.995   3.907  0.2239 -1.4145 -0.7099
 1489SOL    HW2 5367   3.257   1.918   3.871  1.9196  0.4805  1.4437
 1490SOL     OW 5368   2.074   5.287   2.852  0.0700  0.8192 -0.0545
 1490SOL    HW1 5369   2.115   5.230   2.781  1.4255 -0.6610  1.8024
 1490SOL    HW2 5370   2.044   5.373   2.812  2.3530  0.7827 -2.1088
 1491SOL     OW 5371   1.567   6.047   6.548  0.0132  0.0139 -0.5916
 1491SOL    HW1 5372   1.475   6.061   6.585 -0.0808  0.4994 -1.0026
 1491SOL    HW2 5373   1.578   6.101   6.465  0.8557  0.3796 -0.2497
 1492SOL     OW 5374   7.000   3.174   5.763  0.4312 -0.1094  0.2165
 1492SOL    HW1 5375   6.991   3.207   5.857 -0.8226 -0.9775  0.4273
 1492SOL    HW2 5376   7.001   3.074   5.763 -0.8807 -0.1467 -0.7799
 1493SOL     OW 5377   3.826   6.501   4.512 -0.3665 -0.5501  0.2945
 1493SOL    HW1 5378   3.833   6.596   4.483  2.5730 -0.2975  1.4720
 1493SOL    HW2 5379   3.820   6.497   4.612  0.1848 -1.6177  0.2951
 1494SOL     OW 5380   6.878   2.960   6.523 -0.0533 -0.5229 -0.4447
 1494SOL    HW1 5381   6.862   3.018   6.444 -1.8772 -1.3391 -0.7187
 1494SOL    HW2 5382   6.912   2.871   6.492 -0.2360 -0.6530 -0.2719
 1495SOL     OW 5383   2.091   3.343   2.830 -0.1867 -0.1750  0.0171
 1495SOL    HW1 5384   2.150   3.348   2.750 -1.6896  1.1414 -1.0764
 1495SOL    HW2 5385   2.072   3.248   2.852  1.0206 -0.5710 -0.5887
 1496SOL     OW 5386   4.390   6.382   4.107 -0.6820  0.2887 -0.6038
 1496SOL    HW1 5387   4.462   6.449   4.120 -0.6665  0.4669 -1.5337
 1496SOL    HW2 5388   4.426   6.290   4.124 -0.0028  0.3056 -1.8340
 1497SOL     OW 5389   1.209   0.650   5.353 -0.5884 -0.4617  0.0310
 1497SOL    HW1 5390   1.193   0.722   5.286  0.0955  0.0818  0.4334
 1497SOL    HW2 5391   1.166   0.675   5.440 -1.3341 -1.0870 -0.1505
 1498SOL     OW 5392   3.271   6.977   6.411  0.3874 -0.4410  0.2519
 1498SOL    HW1 5393   3.317   7.010   6.328 -0.7116 -0.3616 -0.3503
 1498SOL    HW2 5394   3.239   7.055   6.464  1.6373 -0.4743  1.0991
 1499SOL     OW 5395   1.117   0.304   2.778  0.4178  0.1223 -0.4084
 1499SOL    HW1 5396   1.107   0.356   2.863  0.3906  1.7479 -1.3687
 1499SOL    HW2 5397   1.174   0.356   2.714  2.2499 -2.0259 -0.6454
 1500SOL     OW 5398   4.725   1.638   2.961  0.2854 -0.1245  0.6148
 1500SOL    HW1 5399   4.757   1.636   2.866 -1.2627 -0.8816  0.0767
 1500SOL    HW2 5400   4.752   1.725   3.003  2.0615 -0.2828 -0.1098
 1501SOL     OW 5401   2.196   0.523   2.392 -0.0317  0.3595  0.4672
 1501SOL    HW1 5402   2.178   0.428   2.417  1.0346 -0.5160 -1.8312
 1501SOL    HW2 5403   2.265   0.561   2.455  1.2166 -1.1394  0.0650
 1502SOL     OW 5404   2.049   4.040   6.281 -0.4308 -0.6392  0.0942
 1502SOL    HW1 5405   1.977   3.973   6.298 -0.7258 -0.3106  0.1519
 1502SOL    HW2 5406   2.021   4.129   6.317  0.8793 -0.9527  2.0081
 1503SOL     OW 5407   5.623   3.168   0.522  1.0210 -0.6145  0.4236
 1503SOL    HW1 5408   5.678   3.252   0.518 -0.0516  0.1059  0.1543
 1503SOL    HW2 5409   5.526   3.192   0.513  0.5144 -1.6789  2.5691
 1504SOL     OW 5410   1.117   4.884   6.049  0.3898  0.1034 -0.0974
 1504SOL    HW1 5411   1.094   4.981   6.042 -0.9038 -0.2070 -0.5418
 1504SOL    HW2 5412   1.048   4.830   6.001 -0.2900 -1.2032  2.1863
 1505SOL     OW 5413   4.218   5.894   6.597 -0.0716  0.3371 -0.2162
 1505SOL    HW1 5414   4.262   5.984   6.608 -1.3736  0.8777  1.0001
 1505SOL    HW2 5415   4.231   5.841   6.681 -2.3707  0.8459  0.5325
 1506SOL     OW 5416   2.877   6.256   1.862 -0.1324  0.2384  0.2197
 1506SOL    HW1 5417   2.796   6.198   1.870 -0.0907  0.2121  0.4596
 1506SOL    HW2 5418   2.958   6.198   1.854 -0.2698  0.2460 -1.5731
 1507SOL     OW 5419   5.952   3.419   0.738 -0.4595 -0.1134  0.3211
 1507SOL    HW1 5420   5.887   3.414   0.814  0.1746  0.4417  0.9177
 1507SOL    HW2 5421   5.972   3.515   0.719 -0.0431 -0.2714 -0.0462
 1508SOL     OW 5422   6.119   1.264   4.389 -0.7004  0.4523 -0.1803
 1508SOL    HW1 5423   6.022   1.265   4.415 -1.8167 -1.6017 -3.6229
 1508SOL    HW2 5424   6.138   1.342   4.329 -0.3069  0.6197  0.1586
 1509SOL     OW 5425   3.514   3.019   5.036 -0.4142  0.2773  0.7943
 1509SOL    HW1 5426   3.594   2.997   5.091 -1.1416  0.8982  2.1483
 1509SOL    HW2 5427   3.446   2.946   5.047  0.3417 -0.8080 -1.2186
 1510SOL     OW 5428   1.351   6.203   3.216  0.4616 -0.1044  0.1165
 1510SOL    HW1 5429   1.423   6.270   3.235  0.5896 -0.2182  0.0302
 1510SOL    HW2 5430   1.284   6.204   3.290  1.0531 -0.6843  0.6685
 1511SOL     OW 5431   6.128   0.982   6.381 -0.2084  0.2012  0.5146
 1511SOL    HW1 5432   6.178   0.954   6.462 -3.5230 -1.3385  2.2378
 1511SOL    HW2 5433   6.126   0.907   6.315  0.5804  0.6499 -0.0422
 1512SOL     OW 5434   0.888   0.282   2.412 -0.2852  0.5581 -0.9386
 1512SOL    HW1 5435   0.897   0.375   2.450  0.5495  0.9977 -2.1603
 1512SOL    HW2 5436   0.849   0.287   2.320 -0.0353 -0.2899 -1.0970
 1513SOL     OW 5437   3.151   0.125   1.897  0.0299  0.1495 -0.0974
 1513SOL    HW1 5438   3.097   0.045   1.869  1.3212 -0.8986  0.3379
 1513SOL    HW2 5439   3.090   0.194   1.937 -0.7411 -2.1128  2.9245
 1514SOL     OW 5440   2.935   5.505   1.495  0.3247 -0.2574 -0.6848
 1514SOL    HW1 5441   2.992   5.508   1.413 -2.4467 -1.6517 -2.8471
 1514SOL    HW2 5442   2.902   5.412   1.510 -0.7755  0.3320  0.8759
 1515SOL     OW 5443   0.725   3.498   6.383  0.0599  0.5587  0.4848
 1515SOL    HW1 5444   0.675   3.412   6.368  0.3248  0.4195  0.3896
 1515SOL    HW2 5445   0.671   3.574   6.348 -0.6012  0.5327  1.4161
 1516SOL     OW 5446   6.213   4.986   5.831  0.0202 -0.6372  0.6596
 1516SOL    HW1 5447   6.215   4.928   5.912 -4.3268 -1.2386  0.5741
 1516SOL    HW2 5448   6.151   5.064   5.847  0.1245 -0.0221 -1.6040
 1517SOL     OW 5449   1.749   4.477   3.035 -0.7447 -0.0605 -0.0783
 1517SOL    HW1 5450   1.834   4.530   3.028 -0.9716  0.2265 -0.7009
 1517SOL    HW2 5451   1.710   4.488   3.126 -0.1347 -0.1671  0.2031
 1518SOL     OW 5452   1.350   1.055   2.160 -0.1609  0.3523  0.4231
 1518SOL    HW1 5453   1.356   1.112   2.079  1.8236 -0.8032 -0.3221
 1518SOL    HW2 5454   1.349   0.959   2.134 -2.3547 -0.0493  1.6925
 1519SOL     OW 5455   2.623   4.965   2.903  0.2999 -0.1730 -0.5010
 1519SOL    HW1 5456   2.672   4.927   2.824  0.1611 -1.5176  0.0322
 1519SOL    HW2 5457   2.689   4.999   2.969  0.4085  1.6282 -1.4811
 1520SOL     OW 5458   1.911   6.410   2.915  0.2231 -0.0954 -0.0508
 1520SOL    HW1 5459   1.997   6.399   2.865  0.0705 -2.3149  0.1064
 1520SOL    HW2 5460   1.854   6.477   2.868  1.8688  1.1573 -0.3561
 1521SOL     OW 5461   2.975   0.768   0.392  0.0204  0.0892  0.2879
 1521SOL    HW1 5462   3.039   0.837   0.358 -1.5414  1.9452  0.8611
 1521SOL    HW2 5463   2.915   0.739   0.318  1.0667 -1.1474 -0.0949
 1522SOL     OW 5464   5.036   4.344   6.536 -0.3953 -0.0531 -0.1205
 1522SOL    HW1 5465   5.123   4.338   6.486 -0.5173  1.5526 -0.5625
 1522SOL    HW2 5466   5.032   4.269   6.603  1.6296  0.2373  0.4088
 1523SOL     OW 5467   3.758   1.920   1.994  0.3329 -0.3622 -0.3864
 1523SOL    HW1 5468   3.701   1.939   2.074 -2.4718 -0.8076 -2.1536
 1523SOL    HW2 5469   3.737   1.986   1.922 -0.3601 -2.4634 -2.2090
 1524SOL     OW 5470   3.680   6.286   5.407  0.4254 -0.1589 -0.3196
 1524SOL    HW1 5471   3.703   6.360   5.343  0.9163  1.2383  1.3974
 1524SOL    HW2 5472   3.753   6.277   5.474 -0.3717 -1.1502  0.4339
 1525SOL     OW 5473   2.900   1.931   4.666  0.8427 -0.5881 -0.3155
 1525SOL    HW1 5474   2.947   1.986   4.597 -0.6630  1.1643 -0.0287
 1525SOL    HW2 5475   2.965   1.899   4.734  1.9765 -0.2855 -1.2310
 1526SOL     OW 5476   5.135   2.023   6.312 -0.1260 -0.1744 -0.1372
 1526SOL    HW1 5477   5.127   2.110   6.360  2.8104  0.4189 -0.5650
 1526SOL    HW2 5478   5.229   1.989   6.318 -0.6170 -2.1446 -1.9973
 1527SOL     OW 5479   4.432   6.045   2.442  0.4281 -0.0689 -0.4184
 1527SOL    HW1 5480   4.352   5.994   2.408  1.6056 -1.2487 -1.5434
 1527SOL    HW2 5481   4.481   5.989   2.509 -0.1664  1.0277  0.9731
 1528SOL     OW 5482   4.161   0.149   0.895  0.5295  0.1939 -0.0340
 1528SOL    HW1 5483   4.241   0.093   0.872  0.8302  0.9690 -0.9412
 1528SOL    HW2 5484   4.128   0.124   0.986  1.1600 -0.8703 -0.0811
 1529SOL     OW 5485   3.797   5.718   4.545  0.3379  0.1988 -0.2737
 1529SOL    HW1 5486   3.835   5.635   4.587  0.4333 -0.9595 -2.4945
 1529SOL    HW2 5487   3.844   5.798   4.582  1.3687 -0.8327  0.7636
 1530SOL     OW 5488   0.320   2.205   3.472  0.6179 -0.9145 -0.0456
 1530SOL    HW1 5489   0.384   2.175   3.542  0.7597 -1.1592 -0.2789
 1530SOL    HW2 5490   0.370   2.254   3.400  0.7957 -2.4601 -1.0302
 1531SOL     OW 5491   5.547   3.205   3.194 -0.4617 -0.0388 -0.5972
 1531SOL    HW1 5492   5.565   3.153   3.111 -0.9261  0.9762 -1.3488
 1531SOL    HW2 5493   5.602   3.168   3.269 -1.0659 -1.8680 -0.9981
 1532SOL     OW 5494   5.166   0.512   4.263 -0.1664  0.3849  0.4538
 1532SOL    HW1 5495   5.070   0.496   4.241 -0.6069  2.8261  0.3955
 1532SOL    HW2 5496   5.209   0.568   4.193  0.1874  2.6761  2.3865
 1533SOL     OW 5497   4.506   1.537   0.931  0.1788  0.4152 -0.6562
 1533SOL    HW1 5498   4.503   1.575   0.839 -0.0578  0.2466 -0.7189
 1533SOL    HW2 5499   4.560   1.597   0.990  1.8592 -0.3775 -1.3227
 1534SOL     OW 5500   6.121   4.929   2.447 -0.3946  1.1313 -0.3092
 1534SOL    HW1 5501   6.080   4.983   2.521  0.7803  1.2917  0.2436
 1534SOL    HW2 5502   6.111   4.832   2.468 -1.5570  1.1224 -0.7855
 1535SOL     OW 5503   0.095   4.409   2.640  0.3643 -0.1230 -0.1147
 1535SOL    HW1 5504   0.050   4.351   2.708  0.6121 -0.8855 -0.5872
 1535SOL    HW2 5505   0.165   4.356   2.593 -0.2988  0.1818 -1.4706
 1536SOL     OW 5506   5.203   5.249   0.693  0.4213 -0.0136  0.2688
 1536SOL    HW1 5507   5.299   5.260   0.719 -0.1256  0.9701  1.9490
 1536SOL    HW2 5508   5.147   5.233   0.774 -0.8916 -0.3835 -0.6630
 1537SOL     OW 5509   0.864   6.490   0.007  0.1201  0.6103 -0.0565
 1537SOL    HW1 5510   0.859   6.590   0.002 -0.1697  0.5401 -1.5240
 1537SOL    HW2 5511   0.958   6.462   0.025  0.0979  1.1480  1.0011
 1538SOL     OW 5512   2.025   3.269   5.896 -0.0733 -0.2335 -0.6590
 1538SOL    HW1 5513   2.079   3.319   5.828  1.2053  1.3361  1.4157
 1538SOL    HW2 5514   1.934   3.311   5.903  0.0792  0.1246 -0.8007
 1539SOL     OW 5515   6.936   4.506   6.521 -0.0463  0.0354 -0.2460
 1539SOL    HW1 5516   6.989   4.436   6.472 -1.4293 -0.8756 -0.4753
 1539SOL    HW2 5517   6.841   4.478   6.527 -0.3974  1.3472  0.7442
 1540SOL     OW 5518   2.491   5.511   6.397  0.2698  0.3627 -0.2362
 1540SOL    HW1 5519   2.575   5.491   6.346  0.5829  2.1838 -0.5272
 1540SOL    HW2 5520   2.415   5.518   6.332  0.4446  1.4703 -0.3542
 1541SOL     OW 5521   5.178   5.476   4.010 -0.3821  0.2445  0.3393
 1541SOL    HW1 5522   5.236   5.544   4.053  0.4737 -1.3418  1.8192
 1541SOL    HW2 5523   5.085   5.482   4.047 -0.6098  1.2758 -0.3465
 1542SOL     OW 5524   5.102   6.857   1.267 -0.6779  0.4085 -0.5498
 1542SOL    HW1 5525   5.040   6.928   1.233  0.8710  0.6858 -3.1326
 1542SOL    HW2 5526   5.184   6.900   1.306 -1.4799  0.0266  1.7015
 1543SOL     OW 5527   3.018   4.025   1.876  0.0531  0.2624 -0.2633
 1543SOL    HW1 5528   3.016   4.110   1.823  2.2806  0.7667  0.3705
 1543SOL    HW2 5529   3.096   4.026   1.939  1.9089 -3.3279 -2.1510
 1544SOL     OW 5530   3.571   3.652   4.790  0.1116 -0.6629 -0.9370
 1544SOL    HW1 5531   3.522   3.645   4.876 -0.6007  0.9858 -1.1841
 1544SOL    HW2 5532   3.569   3.746   4.757  0.6884 -1.1810 -2.5712
 1545SOL     OW 5533   5.522   5.977   3.400 -0.3088  0.1744 -0.1903
 1545SOL    HW1 5534   5.562   5.894   3.361  0.7757 -0.0524  1.3424
 1545SOL    HW2 5535   5.455   5.952   3.470 -0.2013  0.5990  0.0656
 1546SOL     OW 5536   1.133   5.476   1.216  0.6957  0.7027 -0.4961
 1546SOL    HW1 5537   1.045   5.505   1.253 -0.6959 -1.4680 -1.9167
 1546SOL    HW2 5538   1.177   5.412   1.280  0.3321  0.3165 -0.6282
 1547SOL     OW 5539   2.072   3.902   6.526  0.1371 -0.5414 -0.6348
 1547SOL    HW1 5540   2.097   3.923   6.432 -0.7061  0.4672 -0.6510
 1547SOL    HW2 5541   2.055   3.804   6.535  1.1748 -0.7959 -1.2869
 1548SOL     OW 5542   1.992   4.976   6.467  0.2511  0.2526  0.2279
 1548SOL    HW1 5543   2.021   5.046   6.532 -1.3863  0.5999  0.6242
 1548SOL    HW2 5544   1.982   4.889   6.514  0.1147  0.2641  0.2225
 1549SOL     OW 5545   6.603   6.667   0.133  0.1925 -0.1476 -0.2015
 1549SOL    HW1 5546   6.511   6.701   0.155  0.5555  0.1287  0.9725
 1549SOL    HW2 5547   6.655   6.655   0.218  1.1463 -0.5855 -0.8326
 1550SOL     OW 5548   4.579   0.505   1.840  0.4383 -0.2730  0.0601
 1550SOL    HW1 5549   4.625   0.418   1.857  0.2158 -0.2186  0.9976
 1550SOL    HW2 5550   4.572   0.556   1.926  1.9704  1.3603 -0.7175
 1551SOL     OW 5551   6.972   6.110   3.533  0.7706  0.1985  0.1001
 1551SOL    HW1 5552   6.976   6.198   3.486  1.6330  0.3558  0.4432
 1551SOL    HW2 5553   6.947   6.124   3.628 -3.0608 -0.2942 -0.6996
 1552SOL     OW 5554   2.234   3.321   0.042  0.6310 -0.1672 -0.3965
 1552SOL    HW1 5555   2.202   3.413   0.021  0.4641 -0.2434 -0.4807
 1552SOL    HW2 5556   2.332   3.314   0.021  0.7230  0.0910 -0.0588
 1553SOL     OW 5557   4.469   3.890   0.781 -1.0212  0.3853 -0.3307
 1553SOL    HW1 5558   4.375   3.921   0.762 -1.0551 -0.1413 -1.0768
 1553SOL    HW2 5559   4.505   3.842   0.701 -0.3119  0.0929  0.1519
 1554SOL     OW 5560   4.056   3.637   1.484  0.1957 -0.7650 -0.6953
 1554SOL    HW1 5561   4.087   3.655   1.577 -1.7442 -0.2140 -0.1214
 1554SOL    HW2 5562   4.076   3.716   1.426 -1.3642  0.2047  0.0181
 1555SOL     OW 5563   1.241   3.863   0.599 -0.4578 -0.3478  0.0832
 1555SOL    HW1 5564   1.184   3.927   0.549 -0.3399 -1.2927 -1.3138
 1555SOL    HW2 5565   1.196   3.773   0.603  0.2991 -0.7372  0.1642
 1556SOL     OW 5566   0.298   3.093   1.292 -0.1722  0.8085  0.3058
 1556SOL    HW1 5567   0.300   3.168   1.226 -1.0357  0.6170  0.0478
 1556SOL    HW2 5568   0.302   3.130   1.385  2.1624  1.0296  0.1724
 1557SOL     OW 5569   6.341   6.122   0.734  0.0450  0.1056 -0.4924
 1557SOL    HW1 5570   6.257   6.123   0.789  0.6953 -0.3301  0.5370
 1557SOL    HW2 5571   6.321   6.157   0.642 -0.9470  1.4349  0.1950
 1558SOL     OW 5572   6.736   1.138   4.503 -0.5004 -0.4073  0.0043
 1558SOL    HW1 5573   6.717   1.064   4.568 -0.2172 -0.4482  0.0442
 1558SOL    HW2 5574   6.818   1.187   4.532 -0.6582 -0.1119 -0.0541
 1559SOL     OW 5575   6.481   2.924   0.064  0.0583 -0.2446  0.4716
 1559SOL    HW1 5576   6.554   2.919   0.132  1.9328  0.0574 -1.4323
 1559SOL    HW2 5577   6.469   2.835   0.021  0.4341  0.0858 -0.3319
 1560SOL     OW 5578   1.325   1.070   1.516  0.1938  0.6007 -0.7019
 1560SOL    HW1 5579   1.345   0.984   1.470 -1.2958 -0.2732  0.2013
 1560SOL    HW2 5580   1.240   1.061   1.569  0.9396  2.0617  0.8490
 1561SOL     OW 5581   4.971   0.884   4.103  0.4903 -0.3244 -0.1176
 1561SOL    HW1 5582   4.903   0.870   4.031 -0.5251  1.2701  0.4687
 1561SOL    HW2 5583   4.943   0.835   4.186  0.6780 -0.6251 -0.2304
 1562SOL     OW 5584   2.818   4.953   5.474  0.6592 -0.3193  0.8044
 1562SOL    HW1 5585   2.747   4.987   5.535  1.6807 -0.2577  2.0139
 1562SOL    HW2 5586   2.791   4.865   5.436 -0.1000 -0.2456  1.1587
 1563SOL     OW 5587   2.796   6.500   2.360  0.3418  0.0475  0.0179
 1563SOL    HW1 5588   2.790   6.498   2.460  0.9729  0.3936  0.0647
 1563SOL    HW2 5589   2.846   6.419   2.328 -0.9808 -0.7622 -0.1190
 1564SOL     OW 5590   4.537   5.855   5.601  0.5150  0.5343 -0.1961
 1564SOL    HW1 5591   4.442   5.824   5.610  0.4332  0.0598 -2.0999
 1564SOL    HW2 5592   4.539   5.952   5.580  0.3527  0.3180 -1.2924
 1565SOL     OW 5593   5.613   5.240   6.689  0.2341 -0.4390 -0.7638
 1565SOL    HW1 5594   5.665   5.291   6.620  0.3490  0.1656 -0.2381
 1565SOL    HW2 5595   5.656   5.251   6.778 -2.3601  2.5547  0.2985
 1566SOL     OW 5596   4.431   0.645   1.312  0.4250  0.3814  0.0130
 1566SOL    HW1 5597   4.459   0.679   1.401  0.5472  0.9511 -0.2353
 1566SOL    HW2 5598   4.339   0.606   1.318  0.4460  0.3925  0.3947
 1567SOL     OW 5599   6.429   1.074   6.115  0.0053 -0.5844  0.7120
 1567SOL    HW1 5600   6.332   1.071   6.091 -0.1335 -0.3257  1.2265
 1567SOL    HW2 5601   6.444   1.019   6.197  0.4885 -1.5387 -0.0043
 1568SOL     OW 5602   3.763   6.935   4.516  0.5242  0.3486  0.0570
 1568SOL    HW1 5603   3.721   6.862   4.462  0.0157  0.5595  0.1666
 1568SOL    HW2 5604   3.707   7.018   4.510  0.1521  0.2158  1.3520
 1569SOL     OW 5605   4.401   1.138   6.036 -0.6999  0.0304 -0.3972
 1569SOL    HW1 5606   4.383   1.232   6.065 -0.2688  0.1499 -0.5125
 1569SOL    HW2 5607   4.497   1.116   6.052 -0.6515 -0.1813 -0.9475
 1570SOL     OW 5608   5.393   2.803   6.720  0.1569 -0.6181 -0.2587
 1570SOL    HW1 5609   5.341   2.759   6.794  1.7395 -1.3363  0.4792
 1570SOL    HW2 5610   5.428   2.891   6.752  1.5020 -1.2825  0.1431
 1571SOL     OW 5611   2.915   2.242   2.779  0.1220 -0.2381 -0.0479
 1571SOL    HW1 5612   2.932   2.150   2.815  2.3590  0.3087  0.4555
 1571SOL    HW2 5613   2.952   2.248   2.686  2.4946  0.8314  0.8682
 1572SOL     OW 5614   6.996   4.019   2.960  0.1168 -0.0948  0.1475
 1572SOL    HW1 5615   7.020   3.927   2.992  0.3835 -0.2852 -0.5824
 1572SOL    HW2 5616   6.902   4.019   2.925  0.4482 -0.3296 -0.7571
 1573SOL     OW 5617   2.660   0.461   6.985  0.0621  0.4335  0.3043
 1573SOL    HW1 5618   2.566   0.455   6.950 -0.0523  0.3737  0.6238
 1573SOL    HW2 5619   2.700   0.369   6.989 -0.3470  0.2989  1.4924
 1574SOL     OW 5620   2.288   2.866   1.156  0.2199 -0.5911  0.3273
 1574SOL    HW1 5621   2.348   2.927   1.207 -0.5977  0.7517 -0.2501
 1574SOL    HW2 5622   2.343   2.808   1.095  0.9246  0.8896 -0.4931
 1575SOL     OW 5623   5.281   2.880   0.120 -0.1979  0.4707 -0.1159
 1575SOL    HW1 5624   5.206   2.921   0.173 -1.1362  0.4740 -1.4065
 1575SOL    HW2 5625   5.368   2.919   0.150 -0.8066  1.2745  0.6538
 1576SOL     OW 5626   4.263   6.234   3.878  0.2364 -0.2001  0.5814
 1576SOL    HW1 5627   4.336   6.166   3.889  1.1098  0.4725 -0.7950
 1576SOL    HW2 5628   4.260   6.293   3.958  0.8315 -0.5725  0.8897
 1577SOL     OW 5629   4.196   3.574   4.717  0.3856  0.0373 -0.2463
 1577SOL    HW1 5630   4.253   3.655   4.731 -0.2190  0.1476  2.0631
 1577SOL    HW2 5631   4.191   3.522   4.803 -2.0714 -0.5491 -0.6753
 1578SOL     OW 5632   0.392   0.251   1.052  0.6247  0.1140  0.0051
 1578SOL    HW1 5633   0.435   0.213   0.970 -1.0306  1.3545 -1.5164
 1578SOL    HW2 5634   0.326   0.186   1.089  0.2262  0.1783 -0.5912
 1579SOL     OW 5635   2.944   5.996   1.576 -0.6186  0.2320 -0.6785
 1579SOL    HW1 5636   2.855   6.040   1.579 -0.4605  0.5179  1.3000
 1579SOL    HW2 5637   2.969   5.965   1.668  1.6821  0.9280 -0.9916
 1580SOL     OW 5638   4.916   1.187   6.860  0.5106 -0.6396  0.2992
 1580SOL    HW1 5639   4.984   1.195   6.932  0.3834 -1.8752  0.5788
 1580SOL    HW2 5640   4.824   1.187   6.900  0.4380 -1.2673  0.1506
 1581SOL     OW 5641   3.166   5.872   3.437  0.1040  0.0088 -0.0073
 1581SOL    HW1 5642   3.194   5.863   3.341 -2.9638  0.0687 -1.0413
 1581SOL    HW2 5643   3.137   5.783   3.471  1.3655 -0.0458  0.9763
 1582SOL     OW 5644   0.827   3.068   4.132 -0.1442 -0.2582  0.0463
 1582SOL    HW1 5645   0.892   3.134   4.094  0.2993 -0.1863  0.8857
 1582SOL    HW2 5646   0.746   3.117   4.166 -0.0447 -0.1944  0.1959
 1583SOL     OW 5647   0.468   2.091   4.761  0.2565 -0.3698 -0.0089
 1583SOL    HW1 5648   0.368   2.095   4.755  0.2348 -1.2271 -0.2342
 1583SOL    HW2 5649   0.501   2.173   4.808 -0.4048  0.8805 -1.6177
 1584SOL     OW 5650   5.528   1.854   2.852 -0.0086 -0.3099  0.3835
 1584SOL    HW1 5651   5.435   1.885   2.871  0.3440  1.6854 -0.7814
 1584SOL    HW2 5652   5.590   1.886   2.924  0.3115  1.6482 -0.6844
 1585SOL     OW 5653   0.138   2.902   5.978  0.4799  0.0930  0.0972
 1585SOL    HW1 5654   0.186   2.815   5.979 -1.1114 -0.8432 -0.3821
 1585SOL    HW2 5655   0.070   2.902   5.904 -1.2917  0.7277  1.6364
 1586SOL     OW 5656   1.391   0.161   6.948 -0.3950 -0.0673  0.2449
 1586SOL    HW1 5657   1.294   0.136   6.938 -0.1698 -0.7547 -0.2992
 1586SOL    HW2 5658   1.400   0.260   6.951 -0.8933  0.1393 -2.4299
 1587SOL     OW 5659   0.224   3.763   4.437 -0.1177 -0.1468 -0.3282
 1587SOL    HW1 5660   0.185   3.686   4.385 -1.1723 -0.6677  1.1724
 1587SOL    HW2 5661   0.150   3.817   4.476  0.6392  1.1544 -0.6474
 1588SOL     OW 5662   1.395   6.493   5.215  0.0551  0.2979 -0.1659
 1588SOL    HW1 5663   1.337   6.412   5.211 -0.8416  0.9544 -1.3271
 1588SOL    HW2 5664   1.431   6.505   5.307 -0.2311 -1.1094  0.1424
 1589SOL     OW 5665   4.135   6.659   2.830 -0.2780 -0.1808 -0.0127
 1589SOL    HW1 5666   4.096   6.662   2.738 -0.5392 -0.3288  0.0910
 1589SOL    HW2 5667   4.221   6.608   2.828  0.0547  0.3749 -0.2923
 1590SOL     OW 5668   5.448   3.821   2.829 -0.0312  0.0839  0.2266
 1590SOL    HW1 5669   5.525   3.880   2.852  1.1622 -0.7823 -1.3744
 1590SOL    HW2 5670   5.374   3.876   2.791 -1.1555  1.2353  3.6754
 1591SOL     OW 5671   3.339   4.673   1.708  0.2397  0.0301  0.4360
 1591SOL    HW1 5672   3.261   4.640   1.760 -0.1517  3.3147  2.2769
 1591SOL    HW2 5673   3.423   4.655   1.759  0.2449  0.0207  0.4243
 1592SOL     OW 5674   5.587   3.263   2.154  0.4105  0.1811 -0.0303
 1592SOL    HW1 5675   5.670   3.318   2.141 -0.1306  0.5526 -2.3877
 1592SOL    HW2 5676   5.602   3.172   2.116  0.1494 -0.2112  0.7778
 1593SOL     OW 5677   0.285   2.999   5.111  0.3189 -0.2633  0.0488
 1593SOL    HW1 5678   0.245   3.090   5.099 -1.6101 -1.0647  0.0643
 1593SOL    HW2 5679   0.260   2.941   5.034 -3.4245 -2.4209  2.5571
 1594SOL     OW 5680   0.910   0.186   2.670 -0.1327  0.1853 -0.4098
 1594SOL    HW1 5681   0.969   0.247   2.722  0.1039  0.1043 -0.5835
 1594SOL    HW2 5682   0.908   0.214   2.574 -1.2472  0.8584 -0.2132
 1595SOL     OW 5683   6.693   4.687   1.497  0.1847 -0.2650 -0.5771
 1595SOL    HW1 5684   6.778   4.636   1.484  0.7712  0.9295 -1.7023
 1595SOL    HW2 5685   6.711   4.768   1.553 -0.3321 -0.2673 -0.4018
 1596SOL     OW 5686   0.764   6.013   3.884 -0.2869  0.1928 -0.3353
 1596SOL    HW1 5687   0.676   6.022   3.837 -0.4206  1.6861  0.1360
 1596SOL    HW2 5688   0.778   5.918   3.913 -1.0573 -0.3639 -1.7100
 1597SOL     OW 5689   2.472   3.016   1.286 -0.4082  0.3443 -0.0861
 1597SOL    HW1 5690   2.521   3.084   1.231  0.9935 -0.5813 -0.0532
 1597SOL    HW2 5691   2.523   2.999   1.370 -0.9615 -0.4198  0.1068
 1598SOL     OW 5692   1.257   4.276   5.597 -0.7507 -0.2547  0.2318
 1598SOL    HW1 5693   1.341   4.228   5.620 -0.2466  0.7295  0.5335
 1598SOL    HW2 5694   1.246   4.355   5.659 -1.0662  0.5401 -0.8041
 1599SOL     OW 5695   3.465   0.834   3.189 -0.5701 -0.2438  0.4223
 1599SOL    HW1 5696   3.424   0.760   3.135 -0.8640  1.6481 -2.1019
 1599SOL    HW2 5697   3.401   0.910   3.197  0.9220  1.1184  0.0073
 1600SOL     OW 5698   3.828   0.494   6.346  0.0892  0.0981 -0.0733
 1600SOL    HW1 5699   3.885   0.412   6.344 -0.4924 -0.3809  1.8504
 1600SOL    HW2 5700   3.783   0.502   6.435 -0.2328  2.2658 -0.3854
 1601SOL     OW 5701   4.247   6.845   5.614  0.1301 -0.0138 -0.3784
 1601SOL    HW1 5702   4.330   6.835   5.668  0.5997  0.3711 -1.0190
 1601SOL    HW2 5703   4.174   6.791   5.655  0.2322  0.9258  1.1199
 1602SOL     OW 5704   1.630   3.959   2.753 -0.1474 -0.0533  0.1206
 1602SOL    HW1 5705   1.687   3.985   2.675 -0.0092 -0.8902 -0.0655
 1602SOL    HW2 5706   1.557   4.027   2.764 -0.0619  0.1762 -0.6251
 1603SOL     OW 5707   5.057   5.891   4.275 -0.0514 -0.5093 -0.4419
 1603SOL    HW1 5708   4.959   5.897   4.258 -0.4093 -0.5633  1.3736
 1603SOL    HW2 5709   5.090   5.979   4.311  0.1873 -1.0384  0.6563
 1604SOL     OW 5710   0.682   2.763   4.549  0.0001 -0.0551  0.4363
 1604SOL    HW1 5711   0.756   2.719   4.600 -0.6625  1.1578  2.5808
 1604SOL    HW2 5712   0.716   2.796   4.461  1.9047  0.1025  1.1967
 1605SOL     OW 5713   6.030   5.765   6.375  0.2048 -0.3472  0.2992
 1605SOL    HW1 5714   6.020   5.865   6.374 -0.4773 -0.4053  0.4245
 1605SOL    HW2 5715   6.089   5.736   6.300 -0.1163  0.1023 -0.1351
 1606SOL     OW 5716   6.146   5.763   2.404  0.0926  0.4499 -0.1500
 1606SOL    HW1 5717   6.081   5.829   2.443  0.0835 -0.3004  1.1832
 1606SOL    HW2 5718   6.105   5.720   2.324 -1.6354 -0.8796  1.3422
 1607SOL     OW 5719   1.769   4.854   4.680 -0.0420 -0.0257  0.0503
 1607SOL    HW1 5720   1.863   4.885   4.690  0.4147 -1.0983 -0.8381
 1607SOL    HW2 5721   1.707   4.928   4.709  1.0199  1.3294 -0.9919
 1608SOL     OW 5722   0.390   1.600   0.538  0.3270 -0.1822 -0.2447
 1608SOL    HW1 5723   0.363   1.662   0.465 -0.6711 -2.0906 -1.5792
 1608SOL    HW2 5724   0.478   1.630   0.575 -0.1203  2.0095 -0.7850
 1609SOL     OW 5725   3.341   6.439   1.805 -0.2792 -0.2138 -0.1114
 1609SOL    HW1 5726   3.271   6.468   1.740 -0.6491 -0.0658  0.3442
 1609SOL    HW2 5727   3.367   6.344   1.787 -2.2093 -1.0151  1.0784
 1610SOL     OW 5728   2.544   6.394   2.292  0.7686 -0.0145  0.1864
 1610SOL    HW1 5729   2.632   6.439   2.307 -0.5812  2.7775  0.2947
 1610SOL    HW2 5730   2.485   6.410   2.371 -1.5537  2.6347 -1.9173
 1611SOL     OW 5731   2.189   6.166   3.713  0.0869 -0.2648  0.5187
 1611SOL    HW1 5732   2.186   6.182   3.615  1.5987  1.3867  0.6844
 1611SOL    HW2 5733   2.142   6.240   3.761 -0.0264 -0.6788  1.0639
 1612SOL     OW 5734   2.678   6.861   0.173  0.3692 -0.0890 -0.8212
 1612SOL    HW1 5735   2.710   6.823   0.260 -0.3340 -0.9061 -0.8975
 1612SOL    HW2 5736   2.620   6.940   0.191 -1.5505 -1.5239 -0.3709
 1613SOL     OW 5737   4.829   3.392   1.100  0.3963 -0.4947 -0.3780
 1613SOL    HW1 5738   4.923   3.401   1.133  0.1023  0.8645  0.1496
 1613SOL    HW2 5739   4.774   3.344   1.169  0.1096  1.0878  0.5367
 1614SOL     OW 5740   2.238   1.550   0.186  0.3578  0.4664  0.3345
 1614SOL    HW1 5741   2.330   1.548   0.226  1.0491 -2.1518 -1.1620
 1614SOL    HW2 5742   2.175   1.500   0.246  0.7053 -0.6969 -0.2313
 1615SOL     OW 5743   4.326   2.448   6.747  0.0854  0.1299  0.6993
 1615SOL    HW1 5744   4.270   2.393   6.686 -0.1959  0.3400  0.7640
 1615SOL    HW2 5745   4.357   2.392   6.824  0.5708 -0.1751  0.2853
 1616SOL     OW 5746   0.316   4.318   1.043 -0.4054  0.3004  0.1437
 1616SOL    HW1 5747   0.248   4.389   1.063 -0.2518  0.0375  1.6891
 1616SOL    HW2 5748   0.296   4.278   0.953  0.7691  3.7412 -1.8322
 1617SOL     OW 5749   1.049   2.335   0.152 -0.1289  0.4792 -0.0731
 1617SOL    HW1 5750   0.979   2.312   0.084 -0.7125 -0.7657  0.9020
 1617SOL    HW2 5751   1.006   2.380   0.230 -0.1298 -1.4233  1.1046
 1618SOL     OW 5752   1.508   4.594   0.169 -0.7990 -0.5631 -0.0683
 1618SOL    HW1 5753   1.527   4.518   0.106  2.8520 -1.7633  2.1909
 1618SOL    HW2 5754   1.474   4.557   0.256 -1.0453  0.6126  0.3482
 1619SOL     OW 5755   3.781   6.988   5.590 -0.1158  0.5579 -0.1976
 1619SOL    HW1 5756   3.744   6.924   5.658  0.2543  0.5492 -0.0054
 1619SOL    HW2 5757   3.740   7.078   5.604  0.5233  0.7451  0.5246
 1620SOL     OW 5758   3.339   0.888   1.578  0.5609  0.2376  0.1396
 1620SOL    HW1 5759   3.433   0.870   1.608  0.1658  0.3423  1.5371
 1620SOL    HW2 5760   3.286   0.925   1.655 -0.9667 -1.0413 -0.2322
 1621SOL     OW 5761   0.622   2.904   1.269  0.0816  0.0300 -0.1646
 1621SOL    HW1 5762   0.595   2.982   1.327 -0.0755  0.7589 -1.1941
 1621SOL    HW2 5763   0.683   2.844   1.321  1.8123  1.8619  0.0879
 1622SOL     OW 5764   6.976   5.044   2.293 -0.6736 -0.1643  0.4941
 1622SOL    HW1 5765   6.957   4.951   2.324 -1.9662 -0.1734 -0.2334
 1622SOL    HW2 5766   7.050   5.083   2.347 -0.3828 -1.4659  1.0790
 1623SOL     OW 5767   5.042   2.963   6.172 -0.4567  0.6807 -0.1234
 1623SOL    HW1 5768   4.969   2.910   6.215 -1.5872  2.4564  0.2513
 1623SOL    HW2 5769   5.009   3.002   6.086  0.3078  0.8565 -0.3465
 1624SOL     OW 5770   3.796   7.006   1.907  0.0363 -0.5289 -0.3149
 1624SOL    HW1 5771   3.729   6.991   1.834 -0.9529 -0.6907  0.5965
 1624SOL    HW2 5772   3.846   7.091   1.890 -2.0711  0.8922  0.1790
 1625SOL     OW 5773   2.754   1.983   1.802 -0.2255  0.5166  0.3724
 1625SOL    HW1 5774   2.665   1.969   1.846  0.1193 -0.6261  0.7562
 1625SOL    HW2 5775   2.742   1.989   1.703 -0.6642 -0.4837  0.3468
 1626SOL     OW 5776   2.838   3.847   5.818  0.2781  0.0260  0.1846
 1626SOL    HW1 5777   2.870   3.942   5.823  0.9721 -0.1805 -0.1810
 1626SOL    HW2 5778   2.820   3.824   5.722 -1.9456  0.4411  0.4538
 1627SOL     OW 5779   6.020   2.015   5.773  0.4195  0.1637 -0.2509
 1627SOL    HW1 5780   6.118   2.000   5.764  0.8668  2.3985  0.4833
 1627SOL    HW2 5781   5.985   2.058   5.690 -0.0580 -1.0207 -0.6879
 1628SOL     OW 5782   2.834   5.939   4.583 -0.1436  0.1970 -0.2640
 1628SOL    HW1 5783   2.832   6.039   4.584 -0.9155  0.2545  2.9818
 1628SOL    HW2 5784   2.742   5.904   4.565  0.2141  0.0124 -1.8737
 1629SOL     OW 5785   4.448   5.225   5.190 -0.2662 -0.2534 -0.1535
 1629SOL    HW1 5786   4.419   5.297   5.254  0.0595  0.2600 -0.5770
 1629SOL    HW2 5787   4.539   5.247   5.155  0.7648 -1.9488  1.3168
 1630SOL     OW 5788   1.124   3.019   6.229 -0.0346 -0.2326  0.7238
 1630SOL    HW1 5789   1.068   2.951   6.275 -1.7824  0.5536 -0.1330
 1630SOL    HW2 5790   1.078   3.108   6.232  1.7733  0.7409  1.0572
 1631SOL     OW 5791   6.889   3.141   5.276 -0.0900  0.3986 -0.7951
 1631SOL    HW1 5792   6.845   3.147   5.186 -0.6596 -1.0046 -0.6219
 1631SOL    HW2 5793   6.882   3.229   5.322 -2.2030  0.3954 -1.0141
 1632SOL     OW 5794   3.114   2.100   4.459 -0.1360  0.0297  0.3806
 1632SOL    HW1 5795   3.090   2.142   4.546  0.5515  0.1080  0.5373
 1632SOL    HW2 5796   3.183   2.030   4.474  1.0012  0.9702 -0.2500
 1633SOL     OW 5797   1.028   3.238   4.023  0.0641 -0.1529  0.0750
 1633SOL    HW1 5798   1.067   3.281   4.104 -2.2741  2.3870 -0.0320
 1633SOL    HW2 5799   1.102   3.203   3.966  2.1212  2.5951  0.8370
 1634SOL     OW 5800   4.677   3.460   1.700  0.3051 -0.4555  0.2189
 1634SOL    HW1 5801   4.605   3.390   1.706 -0.5538  0.2010 -1.6817
 1634SOL    HW2 5802   4.752   3.435   1.762 -0.7666 -2.0805  0.9589
 1635SOL     OW 5803   0.440   6.678   5.667  0.1122  0.2989  0.2841
 1635SOL    HW1 5804   0.473   6.751   5.607  1.9639  0.3165  1.2378
 1635SOL    HW2 5805   0.343   6.662   5.650  0.0482  1.8480 -1.0893
 1636SOL     OW 5806   2.825   4.231   5.351  0.4228 -0.6173 -0.5363
 1636SOL    HW1 5807   2.762   4.154   5.347  1.0639 -1.1297 -1.0831
 1636SOL    HW2 5808   2.918   4.197   5.368  0.6809  0.0496 -0.5855
 1637SOL     OW 5809   6.174   2.397   5.257 -0.1285 -0.8258 -0.4139
 1637SOL    HW1 5810   6.180   2.342   5.174 -0.6745 -1.4687 -0.0381
 1637SOL    HW2 5811   6.089   2.377   5.305 -0.3789  0.4041 -0.2924
 1638SOL     OW 5812   4.864   6.857   1.809  0.0911 -0.2533 -0.8926
 1638SOL    HW1 5813   4.815   6.871   1.723 -3.2916 -0.4914  0.8182
 1638SOL    HW2 5814   4.870   6.760   1.829 -0.6963 -0.1527 -0.0985
 1639SOL     OW 5815   4.853   0.170   5.154 -0.2098  0.1680  0.0265
 1639SOL    HW1 5816   4.907   0.219   5.222  0.4320  1.1044 -1.1092
 1639SOL    HW2 5817   4.766   0.216   5.140 -0.0869  0.3331 -0.2106
 1640SOL     OW 5818   1.132   4.589   0.238 -0.4714  0.1859 -0.1009
 1640SOL    HW1 5819   1.190   4.634   0.306 -0.3624  0.1575 -0.1742
 1640SOL    HW2 5820   1.065   4.531   0.284 -1.0871  0.9788  0.0269
 1641SOL     OW 5821   0.261   3.986   3.664 -0.4752 -0.4358 -0.3176
 1641SOL    HW1 5822   0.277   4.000   3.566 -1.0373 -2.6685 -0.7734
 1641SOL    HW2 5823   0.190   4.050   3.694  1.0893  1.6573 -0.8544
 1642SOL     OW 5824   4.792   1.539   6.508  0.1230  0.0066 -0.0726
 1642SOL    HW1 5825   4.805   1.456   6.562 -2.5384  0.2705  1.1327
 1642SOL    HW2 5826   4.858   1.540   6.432  1.6159 -2.1222  1.0916
 1643SOL     OW 5827   0.524   5.817   6.053 -0.6344  0.1215 -0.3264
 1643SOL    HW1 5828   0.597   5.883   6.038 -1.3934  1.0270 -0.0887
 1643SOL    HW2 5829   0.454   5.857   6.112 -1.4044 -0.6733 -0.6804
 1644SOL     OW 5830   5.240   4.280   6.370 -0.2669 -0.1464 -0.1576
 1644SOL    HW1 5831   5.307   4.335   6.421 -0.0042 -2.2929  1.9899
 1644SOL    HW2 5832   5.272   4.186   6.362 -1.7395 -0.5779 -1.6671
 1645SOL     OW 5833   1.261   0.683   2.472  0.3460  0.0517  0.2234
 1645SOL    HW1 5834   1.164   0.664   2.486  0.2658  0.0390 -0.3144
 1645SOL    HW2 5835   1.276   0.782   2.470  0.2080  0.0678 -0.5122
 1646SOL     OW 5836   2.188   3.811   6.085 -0.0710 -0.1861  0.5161
 1646SOL    HW1 5837   2.116   3.834   6.020  1.1962  1.0180 -0.5565
 1646SOL    HW2 5838   2.172   3.859   6.172 -0.3052  0.4841  0.1123
 1647SOL     OW 5839   6.059   3.159   0.708  0.5631 -0.3930  0.1130
 1647SOL    HW1 5840   6.069   3.119   0.799 -0.6037  1.0780  0.9223
 1647SOL    HW2 5841   6.038   3.256   0.716  2.6159  0.3000 -1.7865
 1648SOL     OW 5842   5.954   2.259   2.660 -0.5233 -0.6643  0.4318
 1648SOL    HW1 5843   5.885   2.317   2.701  0.0376  1.0981 -0.9683
 1648SOL    HW2 5844   5.911   2.193   2.598 -0.9822  0.6235 -0.6703
 1649SOL     OW 5845   2.820   5.673   6.813  0.1529  0.5694 -0.3641
 1649SOL    HW1 5846   2.789   5.761   6.778 -1.5693 -0.0287 -0.4397
 1649SOL    HW2 5847   2.898   5.687   6.873 -1.2508  2.3760  1.1485
 1650SOL     OW 5848   3.315   4.037   1.981  0.4264  0.0343  0.1008
 1650SOL    HW1 5849   3.400   4.028   2.034  0.7956  0.4499 -0.4103
 1650SOL    HW2 5850   3.260   3.955   1.993 -1.0115  1.3494  3.6875
 1651SOL     OW 5851   5.582   5.929   2.483 -0.1385 -0.2451  0.1645
 1651SOL    HW1 5852   5.566   5.894   2.391  1.6343 -0.5585 -0.0559
 1651SOL    HW2 5853   5.525   5.878   2.548  0.5826 -1.9122 -0.4430
 1652SOL     OW 5854   1.833   2.985   1.364  0.6015 -0.1389 -0.1144
 1652SOL    HW1 5855   1.764   3.057   1.356  0.9793  0.1846 -0.6836
 1652SOL    HW2 5856   1.901   2.997   1.290  1.5227 -0.1508  0.7054
 1653SOL     OW 5857   3.469   6.780   3.555  0.1495  0.2685 -0.3103
 1653SOL    HW1 5858   3.370   6.790   3.567  0.0809 -0.8161  0.1827
 1653SOL    HW2 5859   3.491   6.776   3.458  0.1742  4.5102 -0.6352
 1654SOL     OW 5860   5.127   0.822   6.941 -0.3808 -0.3158  0.0529
 1654SOL    HW1 5861   5.087   0.764   6.870 -0.6348 -0.9756  0.7253
 1654SOL    HW2 5862   5.189   0.888   6.898 -2.3672  0.9455 -1.0451
 1655SOL     OW 5863   3.909   2.373   1.756 -0.0048  0.3635  0.0950
 1655SOL    HW1 5864   3.813   2.345   1.768 -0.4292  0.2916 -2.8491
 1655SOL    HW2 5865   3.913   2.472   1.743  0.2521  0.2949 -0.3505
 1656SOL     OW 5866   4.125   1.544   2.166 -0.1538 -0.2674 -0.2049
 1656SOL    HW1 5867   4.029   1.572   2.163 -0.1416 -0.1036  0.6461
 1656SOL    HW2 5868   4.183   1.622   2.141 -0.2564 -0.5620 -1.4361
 1657SOL     OW 5869   2.641   0.390   5.503  0.3861  0.0737  0.0331
 1657SOL    HW1 5870   2.598   0.463   5.450 -0.4968 -0.8945 -0.6546
 1657SOL    HW2 5871   2.607   0.393   5.597 -0.0473  0.2464 -0.1219
 1658SOL     OW 5872   6.023   3.570   4.082 -0.0334  0.2991  0.3614
 1658SOL    HW1 5873   5.939   3.515   4.081  0.0857  0.1066  0.8417
 1658SOL    HW2 5874   6.096   3.520   4.036 -0.2524  0.5891 -0.3188
 1659SOL     OW 5875   2.343   0.068   2.463 -0.5972  0.1561 -0.0182
 1659SOL    HW1 5876   2.366   0.132   2.536 -1.4113  1.7452 -1.0907
 1659SOL    HW2 5877   2.422   0.010   2.444 -1.0631 -2.0770  3.7480
 1660SOL     OW 5878   5.856   3.478   6.098 -0.3230  0.3030  0.4387
 1660SOL    HW1 5879   5.902   3.499   6.184  1.2741 -0.0756 -0.2995
 1660SOL    HW2 5880   5.866   3.380   6.077 -0.1118  0.5208 -0.5125
 1661SOL     OW 5881   1.518   1.432   5.481 -0.5402 -0.2785  0.1612
 1661SOL    HW1 5882   1.505   1.339   5.517  0.6909 -1.0671 -1.3110
 1661SOL    HW2 5883   1.609   1.439   5.439 -1.4666  0.8885 -1.8061
 1662SOL     OW 5884   2.491   0.304   2.374 -0.0631 -0.4972 -0.7212
 1662SOL    HW1 5885   2.409   0.262   2.414  0.0971 -0.6339 -0.5298
 1662SOL    HW2 5886   2.562   0.310   2.444 -0.2258  0.5016 -0.6259
 1663SOL     OW 5887   2.038   4.390   1.956  0.3342  0.7047 -0.6446
 1663SOL    HW1 5888   2.111   4.451   1.925  0.7176  0.6150  0.0725
 1663SOL    HW2 5889   2.048   4.301   1.910 -0.3122  1.1955 -1.8015
 1664SOL     OW 5890   6.912   1.004   6.344  0.0411  0.1125 -0.5613
 1664SOL    HW1 5891   6.895   1.057   6.427  1.7134  0.0008 -0.1075
 1664SOL    HW2 5892   6.973   1.056   6.283 -0.3836 -0.2206 -1.2851
 1665SOL     OW 5893   3.978   6.740   2.606  0.2646  0.8547 -0.1657
 1665SOL    HW1 5894   4.030   6.728   2.522  1.2571 -0.0920  0.5477
 1665SOL    HW2 5895   3.942   6.833   2.611  1.4111  1.3523 -0.9603
 1666SOL     OW 5896   2.316   1.142   4.400 -0.2559 -0.2423 -0.4993
 1666SOL    HW1 5897   2.275   1.060   4.360 -0.6989  0.3359 -1.2711
 1666SOL    HW2 5898   2.248   1.192   4.453 -0.0532 -0.2546 -0.2286
 1667SOL     OW 5899   1.818   0.130   6.313  0.2661  0.4297  0.0380
 1667SOL    HW1 5900   1.766   0.088   6.239  0.5057  0.2630 -0.0387
 1667SOL    HW2 5901   1.792   0.226   6.322 -1.1098 -0.0070  0.9596
 1668SOL     OW 5902   5.946   1.487   6.953 -0.1556 -0.6270  0.5702
 1668SOL    HW1 5903   5.848   1.500   6.938 -0.0658 -1.4728 -0.9347
 1668SOL    HW2 5904   5.993   1.574   6.942 -0.7792 -0.0843  1.9339
 1669SOL     OW 5905   0.150   1.990   0.783 -0.1547  0.1100  0.3667
 1669SOL    HW1 5906   0.233   2.002   0.728 -1.7079 -0.3061 -2.2061
 1669SOL    HW2 5907   0.102   2.078   0.790 -0.2335  0.0452  0.6671
 1670SOL     OW 5908   6.204   5.753   6.714 -0.4225  0.5059 -0.0662
 1670SOL    HW1 5909   6.125   5.805   6.747 -0.8229  0.0594 -0.3110
 1670SOL    HW2 5910   6.173   5.680   6.654 -0.0414 -1.0480  1.5211
 1671SOL     OW 5911   4.495   1.524   1.246 -0.4165  0.6380  0.3526
 1671SOL    HW1 5912   4.474   1.471   1.164  1.0892  0.6696 -0.0798
 1671SOL    HW2 5913   4.416   1.523   1.307 -1.0548 -0.5978 -0.4463
 1672SOL     OW 5914   1.217   1.597   4.230  0.6341  0.1093 -0.4932
 1672SOL    HW1 5915   1.305   1.558   4.256 -0.7928 -2.1220  1.3535
 1672SOL    HW2 5916   1.148   1.525   4.228 -1.5330  2.0568 -0.1797
 1673SOL     OW 5917   5.248   3.560   3.519  0.5178  0.1503 -0.4550
 1673SOL    HW1 5918   5.228   3.652   3.485  0.8883 -0.3214 -1.9805
 1673SOL    HW2 5919   5.162   3.512   3.538  0.2951  1.3031  1.8648
 1674SOL     OW 5920   6.385   6.328   6.738 -0.4012 -0.0086 -0.2498
 1674SOL    HW1 5921   6.330   6.407   6.763  1.3868  0.7379  1.5324
 1674SOL    HW2 5922   6.469   6.358   6.694 -0.5981 -1.0504 -1.4083
 1675SOL     OW 5923   5.118   6.163   4.641 -0.2827 -0.1055 -0.1621
 1675SOL    HW1 5924   5.108   6.261   4.626 -0.7046  0.0451  1.0162
 1675SOL    HW2 5925   5.076   6.138   4.728  0.0418 -1.2937 -0.3306
 1676SOL     OW 5926   6.740   4.122   5.026  0.5689 -0.1049  0.2823
 1676SOL    HW1 5927   6.666   4.130   5.092  1.1516 -0.8400  1.0520
 1676SOL    HW2 5928   6.816   4.181   5.054 -0.0711  1.4184 -1.0374
 1677SOL     OW 5929   3.706   6.904   1.361 -0.1093 -0.1606  0.3657
 1677SOL    HW1 5930   3.769   6.828   1.377 -1.4508 -1.0433  1.7814
 1677SOL    HW2 5931   3.717   6.973   1.432  0.4425  0.5236 -0.3726
 1678SOL     OW 5932   2.851   0.197   3.300 -0.5025  0.0485  0.4927
 1678SOL    HW1 5933   2.868   0.166   3.394 -1.1823  1.3075  1.0492
 1678SOL    HW2 5934   2.772   0.258   3.299  0.1150  0.8462 -0.7500
 1679SOL     OW 5935   5.728   6.219   3.887  0.3952 -0.3643 -0.4229
 1679SOL    HW1 5936   5.775   6.133   3.867  2.4460  0.9772 -1.7423
 1679SOL    HW2 5937   5.765   6.258   3.971  1.5539  0.5944 -1.3530
 1680SOL     OW 5938   4.306   2.068   2.749 -0.0520 -0.1282 -0.2809
 1680SOL    HW1 5939   4.235   2.054   2.818  0.4327  1.0158  0.4779
 1680SOL    HW2 5940   4.349   2.157   2.763  1.2904 -0.6456 -0.9544
 1681SOL     OW 5941   1.975   5.843   3.165 -0.4233  0.1081 -0.2182
 1681SOL    HW1 5942   2.016   5.931   3.137  0.0565  0.8817  2.5957
 1681SOL    HW2 5943   1.879   5.857   3.189  0.1111  0.3704  2.0228
 1682SOL     OW 5944   4.374   4.654   5.268 -0.5023 -0.3594 -0.8097
 1682SOL    HW1 5945   4.374   4.576   5.206  1.9900  0.0194 -1.3949
 1682SOL    HW2 5946   4.391   4.738   5.215  0.6118  0.0932  0.2236
 1683SOL     OW 5947   0.597   1.823   0.960 -0.2425  1.1407 -0.8456
 1683SOL    HW1 5948   0.620   1.883   0.883  3.5725  0.8970 -0.0967
 1683SOL    HW2 5949   0.653   1.740   0.956 -1.4073  0.1796  1.1345
 1684SOL     OW 5950   2.223   5.245   2.287  0.1880 -0.1190  0.0404
 1684SOL    HW1 5951   2.195   5.310   2.216  3.3634 -0.2093 -1.4729
 1684SOL    HW2 5952   2.174   5.266   2.372 -1.9638  1.5365 -1.4883
 1685SOL     OW 5953   2.470   3.736   5.517 -0.1373 -0.1884  0.5267
 1685SOL    HW1 5954   2.411   3.762   5.441  0.1442  2.6339  1.1294
 1685SOL    HW2 5955   2.544   3.678   5.484  0.3800  1.5289 -1.5492
 1686SOL     OW 5956   2.372   0.102   2.122  0.6612  0.4476 -0.1095
 1686SOL    HW1 5957   2.301   0.164   2.088  0.7115  0.8602  0.5171
 1686SOL    HW2 5958   2.455   0.154   2.142  0.9279  0.0689 -0.2220
 1687SOL     OW 5959   1.841   0.390   5.803 -0.1972 -0.4338  0.0369
 1687SOL    HW1 5960   1.888   0.432   5.725  2.1238 -1.3365  0.8547
 1687SOL    HW2 5961   1.845   0.451   5.882 -1.9425  0.1907 -0.3206
 1688SOL     OW 5962   6.428   2.727   5.762 -0.6136 -0.2128 -0.0573
 1688SOL    HW1 5963   6.478   2.808   5.793 -1.6377  0.0748  0.8908
 1688SOL    HW2 5964   6.429   2.723   5.662 -0.4938  0.9377 -0.1110
 1689SOL     OW 5965   0.946   0.634   3.682  0.0543  0.2661 -0.3646
 1689SOL    HW1 5966   1.020   0.675   3.629  0.2552  1.1479  0.5548
 1689SOL    HW2 5967   0.859   0.674   3.654  0.2650  1.4881  0.6332
 1690SOL     OW 5968   3.608   6.091   4.689 -0.4353  0.4576  0.2071
 1690SOL    HW1 5969   3.628   5.995   4.710 -2.0141  0.1284  0.3334
 1690SOL    HW2 5970   3.582   6.099   4.593 -0.0518  0.8125  0.1298
 1691SOL     OW 5971   3.187   6.337   4.670  0.1743 -0.3466  0.2114
 1691SOL    HW1 5972   3.144   6.351   4.759 -0.2425  0.8459 -0.1626
 1691SOL    HW2 5973   3.119   6.350   4.597  0.8530  0.2063 -0.3390
 1692SOL     OW 5974   6.714   6.876   4.889  0.0352  0.1778  0.1588
 1692SOL    HW1 5975   6.775   6.951   4.913 -0.4396  0.2889  1.0549
 1692SOL    HW2 5976   6.761   6.812   4.828  2.3736 -1.7000  3.6312
 1693SOL     OW 5977   3.322   3.285   5.208  0.0359  0.6947  0.5818
 1693SOL    HW1 5978   3.323   3.200   5.262  1.2545 -0.1962 -0.7702
 1693SOL    HW2 5979   3.321   3.262   5.110  1.6197  2.2086  0.1617
 1694SOL     OW 5980   2.333   0.457   6.613 -0.5971 -0.1930  0.1148
 1694SOL    HW1 5981   2.288   0.532   6.661 -1.2587  0.3835 -1.3576
 1694SOL    HW2 5982   2.431   0.461   6.629 -0.6272  0.9603  0.0825
 1695SOL     OW 5983   0.683   5.780   1.489  0.0359 -0.0869  0.4835
 1695SOL    HW1 5984   0.675   5.681   1.490  0.3582 -0.1519 -1.0016
 1695SOL    HW2 5985   0.724   5.812   1.574 -0.3303 -1.1895  1.0869
 1696SOL     OW 5986   6.025   0.055   0.037 -0.2096  0.3427  0.7809
 1696SOL    HW1 5987   6.071   0.134   0.077 -0.8123  0.3712  1.4211
 1696SOL    HW2 5988   5.927   0.071   0.033 -0.3657 -0.4715  1.1562
 1697SOL     OW 5989   2.508   0.082   3.536  0.0701 -0.4389  0.4197
 1697SOL    HW1 5990   2.412   0.107   3.529  0.6211  1.3282 -1.6026
 1697SOL    HW2 5991   2.537   0.088   3.632 -1.4072  0.6249  0.8348
 1698SOL     OW 5992   3.253   2.864   5.864  0.0547 -0.2352 -0.7018
 1698SOL    HW1 5993   3.263   2.793   5.796 -2.2983 -1.6095  0.2795
 1698SOL    HW2 5994   3.186   2.931   5.834  0.7163  0.4402 -0.7116
 1699SOL     OW 5995   6.937   2.380   6.159 -0.2215  0.3947  0.0017
 1699SOL    HW1 5996   6.966   2.394   6.064  1.8638 -1.7893  0.2188
 1699SOL    HW2 5997   6.864   2.311   6.161 -0.1942  0.3662  0.0037
 1700SOL     OW 5998   6.181   1.019   6.983  0.0977  0.1119  0.2518
 1700SOL    HW1 5999   6.121   1.071   7.044 -0.8585  0.1099 -0.6588
 1700SOL    HW2 6000   6.145   1.023   6.890  1.6998  0.3795 -0.3839
 1701SOL     OW 6001   5.132   3.234   1.497  0.1438  0.1598  0.1854
 1701SOL    HW1 6002   5.119   3.147   1.450  1.8030 -0.2683  0.4293
 1701SOL    HW2 6003   5.207   3.284   1.454  0.7436  0.4055  1.4539
 1702SOL     OW 6004   5.761   0.643   2.678  0.2872 -0.1959  0.4432
 1702SOL    HW1 6005   5.854   0.631   2.713 -0.2677 -3.4974  1.1117
 1702SOL    HW2 6006   5.763   0.641   2.578  1.0808  1.7892  0.3720
 1703SOL     OW 6007   6.147   4.696   5.779  0.2944 -0.3365 -0.4048
 1703SOL    HW1 6008   6.208   4.756   5.726  0.0730 -0.8246 -1.2316
 1703SOL    HW2 6009   6.066   4.675   5.725  0.2405 -1.1636 -0.0224
 1704SOL     OW 6010   0.093   5.490   0.202  0.9239 -0.0216 -0.5421
 1704SOL    HW1 6011   0.007   5.517   0.159  1.3228  0.7876 -0.8465
 1704SOL    HW2 6012   0.077   5.466   0.297  0.5236  1.1216 -0.3079
 1705SOL     OW 6013   4.045   1.696   5.780  0.5099 -0.5717  0.0841
 1705SOL    HW1 6014   4.037   1.734   5.688 -0.3002 -1.4456 -0.2147
 1705SOL    HW2 6015   4.001   1.757   5.845  3.0681  1.2380  0.2632
 1706SOL     OW 6016   7.017   1.644   2.141 -0.5881  0.0034 -0.0379
 1706SOL    HW1 6017   6.917   1.635   2.149 -0.8615  0.0378 -2.5593
 1706SOL    HW2 6018   7.048   1.718   2.201 -2.0633  0.0233  0.7781
 1707SOL     OW 6019   1.479   6.185   1.749  0.1634  0.4858  0.2549
 1707SOL    HW1 6020   1.487   6.110   1.684 -0.5656 -0.6687  1.4687
 1707SOL    HW2 6021   1.541   6.170   1.826  0.5137  1.4834  0.1850
 1708SOL     OW 6022   1.890   5.666   3.581 -0.7412 -0.3935  0.0342
 1708SOL    HW1 6023   1.902   5.742   3.644  0.2115  0.5892 -1.2725
 1708SOL    HW2 6024   1.812   5.611   3.610  0.7202 -1.0763  3.0911
 1709SOL     OW 6025   5.077   2.636   5.099  0.1327  0.4264  0.3345
 1709SOL    HW1 6026   5.084   2.625   5.000 -2.0685 -1.5671  0.3164
 1709SOL    HW2 6027   4.991   2.681   5.122 -0.1411 -0.5562  1.3622
 1710SOL     OW 6028   0.382   0.694   2.920  0.2750 -0.0379 -0.1227
 1710SOL    HW1 6029   0.395   0.698   2.821 -0.2818  0.6335 -0.1756
 1710SOL    HW2 6030   0.308   0.630   2.941 -0.4420  0.7189 -0.2413
 1711SOL     OW 6031   6.131   6.842   1.176  0.8274  0.3604 -0.3742
 1711SOL    HW1 6032   6.046   6.817   1.222  0.4997  0.7377 -0.7648
 1711SOL    HW2 6033   6.198   6.769   1.187  1.2051  0.9759  1.8075
 1712SOL     OW 6034   6.683   1.283   4.912 -0.3730 -0.4377  0.0990
 1712SOL    HW1 6035   6.772   1.263   4.871 -1.3397  1.2303 -3.1791
 1712SOL    HW2 6036   6.627   1.200   4.910  0.5014 -1.0596  0.5736
 1713SOL     OW 6037   3.789   5.761   2.844 -0.0360 -0.4830  0.5864
 1713SOL    HW1 6038   3.869   5.785   2.899 -0.2372 -3.4437  2.4068
 1713SOL    HW2 6039   3.712   5.741   2.905 -1.3764 -0.3383 -1.0017
 1714SOL     OW 6040   1.278   3.475   4.338 -0.7243  0.7321 -0.9753
 1714SOL    HW1 6041   1.297   3.523   4.252  0.2941  0.4219 -0.9454
 1714SOL    HW2 6042   1.360   3.478   4.396 -0.5253 -1.2596 -1.0894
 1715SOL     OW 6043   0.181   0.088   1.178 -0.4205 -0.7254 -0.5454
 1715SOL    HW1 6044   0.107   0.131   1.230  0.7085  2.7153 -1.5634
 1715SOL    HW2 6045   0.256   0.065   1.240 -1.1901 -1.6576  0.0704
 1716SOL     OW 6046   2.430   1.513   3.165  0.2292 -0.4611  0.2767
 1716SOL    HW1 6047   2.377   1.429   3.173  0.4269 -0.6268 -0.1097
 1716SOL    HW2 6048   2.377   1.590   3.199 -0.4556 -0.5470 -0.5709
 1717SOL     OW 6049   1.565   0.079   2.856  0.7618  0.0331 -0.2148
 1717SOL    HW1 6050   1.650   0.042   2.894 -0.8339 -2.0977  1.4782
 1717SOL    HW2 6051   1.542   0.164   2.904  1.3081  0.0004  0.1188
 1718SOL     OW 6052   0.580   0.011   1.570 -0.6527  0.6845  0.1076
 1718SOL    HW1 6053   0.494   0.034   1.524 -0.4365  2.6569  0.5913
 1718SOL    HW2 6054   0.613  -0.077   1.537 -1.9749  0.6947 -1.3594
 1719SOL     OW 6055   1.345   0.104   1.738  0.0790  0.1378 -0.1780
 1719SOL    HW1 6056   1.423   0.068   1.789 -2.3133 -4.5442  0.7225
 1719SOL    HW2 6057   1.342   0.062   1.648 -1.2876  0.3827 -0.2662
 1720SOL     OW 6058   4.542   4.861   1.817 -0.3958  0.0322  0.0728
 1720SOL    HW1 6059   4.605   4.805   1.765  3.1439  1.5514  2.3747
 1720SOL    HW2 6060   4.519   4.815   1.903  0.7956  1.0849  0.9930
 1721SOL     OW 6061   3.937   0.564   4.493  0.0863 -1.0868  0.4032
 1721SOL    HW1 6062   3.935   0.503   4.414  0.9699  1.6881 -1.9060
 1721SOL    HW2 6063   3.853   0.618   4.495  0.6437 -0.2070  0.5633
 1722SOL     OW 6064   2.369   1.836   1.024  0.4732  0.1013 -0.5071
 1722SOL    HW1 6065   2.381   1.920   0.970 -1.2510  0.4327 -0.4269
 1722SOL    HW2 6066   2.314   1.856   1.104  1.5085 -0.7817  0.4584
 1723SOL     OW 6067   1.027   1.151   6.516 -0.0647 -0.0793 -0.3990
 1723SOL    HW1 6068   0.947   1.176   6.461 -1.8489 -0.1034  1.9958
 1723SOL    HW2 6069   1.017   1.057   6.548  1.8463 -0.7000 -1.4712
 1724SOL     OW 6070   0.066   4.941   5.047  0.3394 -0.2292 -0.4734
 1724SOL    HW1 6071   0.096   4.855   5.089 -0.2105  0.9089  2.5166
 1724SOL    HW2 6072   0.131   5.014   5.071  0.6542  0.3203 -2.7340
 1725SOL     OW 6073   0.816   5.277   2.982  0.4357 -0.4109  0.0514
 1725SOL    HW1 6074   0.875   5.222   2.924  0.7379 -0.5189  0.4581
 1725SOL    HW2 6075   0.727   5.289   2.937  0.9837  0.3145 -0.8516
 1726SOL     OW 6076   3.107   6.486   2.954 -0.5518 -0.3893 -0.5608
 1726SOL    HW1 6077   3.205   6.504   2.966 -0.7429  0.8923 -0.8036
 1726SOL    HW2 6078   3.083   6.400   3.000  0.7340 -0.8624 -0.7447
 1727SOL     OW 6079   0.942   1.896   2.041  0.5148 -0.6184  0.0390
 1727SOL    HW1 6080   0.989   1.984   2.048  0.6585 -0.4013 -2.6135
 1727SOL    HW2 6081   0.846   1.912   2.018 -0.1743 -1.1407  2.3451
 1728SOL     OW 6082   4.661   4.249   5.435 -0.4686  0.1419  0.2741
 1728SOL    HW1 6083   4.744   4.234   5.488  0.6454  1.5711 -0.9531
 1728SOL    HW2 6084   4.585   4.273   5.496 -0.8329 -3.9601  1.7077
 1729SOL     OW 6085   4.837   5.267   0.246 -0.4957  0.7387  0.4839
 1729SOL    HW1 6086   4.881   5.187   0.287  0.3708  0.8908 -0.1250
 1729SOL    HW2 6087   4.891   5.298   0.168 -2.0177  0.5633 -0.6632
 1730SOL     OW 6088   2.675   5.790   0.335  0.1496 -0.0434 -0.0000
 1730SOL    HW1 6089   2.591   5.743   0.307  0.0193  1.5837 -2.6514
 1730SOL    HW2 6090   2.652   5.862   0.400 -0.6398  0.8089 -1.1911
 1731SOL     OW 6091   6.530   4.628   1.721  0.5958 -0.3357 -0.2938
 1731SOL    HW1 6092   6.599   4.657   1.653  1.1721 -1.0494 -0.0258
 1731SOL    HW2 6093   6.559   4.658   1.812  1.6258 -2.3586  0.1136
 1732SOL     OW 6094   2.200   0.273   4.761 -0.2577 -0.5270 -0.0084
 1732SOL    HW1 6095   2.258   0.297   4.683  1.1829 -0.4515  1.0365
 1732SOL    HW2 6096   2.254   0.279   4.846 -1.8318 -0.3854  1.0243
 1733SOL     OW 6097   4.145   3.384   5.132  0.0322  0.2025  0.0376
 1733SOL    HW1 6098   4.149   3.327   5.050 -1.7462 -1.8059  1.2141
 1733SOL    HW2 6099   4.232   3.377   5.181  0.1026 -0.9940 -0.2122
 1734SOL     OW 6100   3.912   0.849   6.730 -0.1810  0.4092 -1.1155
 1734SOL    HW1 6101   4.001   0.804   6.729  0.0914  0.7918  0.9529
 1734SOL    HW2 6102   3.911   0.925   6.665  1.3481  1.0096 -0.4667
 1735SOL     OW 6103   1.386   2.903   0.955  0.6215 -0.3542  0.6112
 1735SOL    HW1 6104   1.301   2.955   0.942  0.8349 -0.2550 -0.4776
 1735SOL    HW2 6105   1.414   2.910   1.051  0.4997  1.3196  0.5586
 1736SOL     OW 6106   2.607   6.345   4.168 -0.1069 -0.2366  0.2509
 1736SOL    HW1 6107   2.509   6.339   4.145 -0.0074 -0.0904 -0.2374
 1736SOL    HW2 6108   2.653   6.261   4.139 -0.1015 -0.3356  0.5489
 1737SOL     OW 6109   6.957   2.919   5.769 -0.0235 -0.3841  0.6473
 1737SOL    HW1 6110   6.909   2.849   5.822 -0.1987 -0.9391 -0.2286
 1737SOL    HW2 6111   6.918   2.924   5.677 -0.4091  1.2748  0.8525
 1738SOL     OW 6112   5.559   6.360   1.455 -0.1005  0.3965  0.2277
 1738SOL    HW1 6113   5.559   6.449   1.409  0.5056 -0.7001 -2.0678
 1738SOL    HW2 6114   5.633   6.304   1.417 -0.7722 -1.2616  1.2724
 1739SOL     OW 6115   0.234   5.536   5.336 -0.2528 -0.4878  0.2959
 1739SOL    HW1 6116   0.283   5.601   5.278  0.5241 -0.4172  1.0124
 1739SOL    HW2 6117   0.136   5.544   5.320 -0.0498 -0.6037 -1.1439
 1740SOL     OW 6118   3.474   5.640   1.935 -0.2248 -0.7495 -0.0536
 1740SOL    HW1 6119   3.377   5.619   1.938 -0.5600  0.6436 -0.3010
 1740SOL    HW2 6120   3.510   5.648   2.028 -0.5975 -0.2268  0.0473
 1741SOL     OW 6121   0.181   6.402   2.315 -0.1768  0.4391  1.1765
 1741SOL    HW1 6122   0.133   6.363   2.236 -0.4547  1.4883  0.8082
 1741SOL    HW2 6123   0.179   6.337   2.391 -0.1104 -0.4962  0.3990
 1742SOL     OW 6124   5.062   2.721   0.479 -0.4418 -0.5250  0.4359
 1742SOL    HW1 6125   5.011   2.796   0.522 -3.0472 -1.6482 -0.4759
 1742SOL    HW2 6126   5.028   2.706   0.387  2.5258 -0.5547 -0.7650
 1743SOL     OW 6127   6.784   6.949   6.406 -0.0605 -0.2710 -0.3156
 1743SOL    HW1 6128   6.830   6.873   6.453  1.3296  0.7421  0.0270
 1743SOL    HW2 6129   6.737   6.914   6.325 -1.1361 -1.7929  0.9076
 1744SOL     OW 6130   5.744   3.918   0.928  0.7081 -0.0458 -0.0954
 1744SOL    HW1 6131   5.652   3.892   0.896  0.5316  1.1835 -0.6598
 1744SOL    HW2 6132   5.757   4.016   0.914  2.6809 -0.4481 -1.4385
 1745SOL     OW 6133   6.322   5.677   2.924  0.4078 -0.1490  0.2105
 1745SOL    HW1 6134   6.234   5.704   2.961 -0.0406 -1.3979  0.0914
 1745SOL    HW2 6135   6.321   5.580   2.900  1.6136 -0.0469 -0.3749
 1746SOL     OW 6136   0.801   4.092   4.408 -0.3937  0.2294 -0.1703
 1746SOL    HW1 6137   0.746   4.172   4.433  0.1759  0.7072 -0.3983
 1746SOL    HW2 6138   0.898   4.115   4.419 -0.2238 -0.3874 -0.3811
 1747SOL     OW 6139   0.546   1.505   5.043 -0.3557 -0.2710 -0.4334
 1747SOL    HW1 6140   0.527   1.438   4.971  0.1822  2.2733 -3.1098
 1747SOL    HW2 6141   0.637   1.544   5.029 -0.4046  0.6204  1.4270
 1748SOL     OW 6142   5.882   1.278   5.887 -0.1713 -0.1208  0.1823
 1748SOL    HW1 6143   5.787   1.270   5.918 -0.6054 -0.1300 -1.0903
 1748SOL    HW2 6144   5.924   1.188   5.885  0.2193  0.0034  1.7671
 1749SOL     OW 6145   6.265   3.735   3.723  0.4426  0.0391 -0.5141
 1749SOL    HW1 6146   6.229   3.648   3.758 -2.0425  1.8752  1.9273
 1749SOL    HW2 6147   6.363   3.740   3.740  0.7219 -2.3611 -1.0132
 1750SOL     OW 6148   4.272   0.181   4.195  0.0564 -0.7745  0.3814
 1750SOL    HW1 6149   4.279   0.280   4.184  0.8847 -0.6802  1.6045
 1750SOL    HW2 6150   4.363   0.141   4.199 -0.2580 -1.7550 -1.2833
 1751SOL     OW 6151   5.696   2.810   5.529  0.2435  0.5496  0.2888
 1751SOL    HW1 6152   5.707   2.711   5.520  0.3442  0.5259  0.6667
 1751SOL    HW2 6153   5.647   2.830   5.614  0.0611  0.8132  0.1195
 1752SOL     OW 6154   3.145   5.436   0.250 -0.6006  0.5609  0.5495
 1752SOL    HW1 6155   3.186   5.483   0.328 -0.7954  1.6374  0.0214
 1752SOL    HW2 6156   3.073   5.493   0.211 -0.2864  0.1765 -0.6173
 1753SOL     OW 6157   5.973   1.648   5.484  0.0104  0.2276 -0.2606
 1753SOL    HW1 6158   6.042   1.700   5.434  0.2836  0.6892  0.5871
 1753SOL    HW2 6159   5.947   1.697   5.567  1.7376 -1.8270  1.6396
 1754SOL     OW 6160   3.838   5.229   3.433  0.0664 -0.2806  0.3452
 1754SOL    HW1 6161   3.824   5.157   3.500 -1.1122  0.5223  1.0042
 1754SOL    HW2 6162   3.752   5.249   3.386 -0.1007  1.8901  1.4513
 1755SOL     OW 6163   3.106   1.495   0.785  0.0797  0.5277  0.2717
 1755SOL    HW1 6164   3.167   1.557   0.836 -0.3864 -1.4487  3.5145
 1755SOL    HW2 6165   3.011   1.522   0.801 -0.0748 -0.2327  0.6878
 1756SOL     OW 6166   0.454   6.413   2.966  0.0611  0.2234 -0.8460
 1756SOL    HW1 6167   0.554   6.416   2.955 -0.0600 -0.8889 -2.5387
 1756SOL    HW2 6168   0.421   6.504   2.988  1.5430  0.4258  0.7816
 1757SOL     OW 6169   3.636   4.333   5.347  0.5342 -0.3448  0.1825
 1757SOL    HW1 6170   3.641   4.235   5.366 -0.2515 -0.2808  0.7937
 1757SOL    HW2 6171   3.639   4.349   5.249  2.8449 -0.8269  0.1251
 1758SOL     OW 6172   5.198   2.557   1.930 -0.1341  0.5183 -0.1813
 1758SOL    HW1 6173   5.225   2.651   1.909 -0.9820  0.5235 -1.3504
 1758SOL    HW2 6174   5.154   2.516   1.850  1.0173 -1.1895  0.0095
 1759SOL     OW 6175   6.297   5.927   0.418 -0.2517 -0.0688 -0.3274
 1759SOL    HW1 6176   6.355   5.942   0.498  0.7479  0.8683 -1.1956
 1759SOL    HW2 6177   6.218   5.988   0.422  0.5690  1.0468 -0.7688
 1760SOL     OW 6178   1.553   1.183   6.816 -0.7967  0.2094 -0.1421
 1760SOL    HW1 6179   1.457   1.210   6.821 -0.9735 -0.2848 -0.8420
 1760SOL    HW2 6180   1.605   1.232   6.887 -1.2059  1.9749 -1.0008
 1761SOL     OW 6181   1.067   4.640   5.320 -0.0238 -0.3633 -0.1520
 1761SOL    HW1 6182   1.140   4.584   5.362  1.3942  0.9628 -0.7608
 1761SOL    HW2 6183   1.047   4.718   5.380  1.1800  0.8894 -1.3149
 1762SOL     OW 6184   1.286   6.661   1.879  0.0745 -0.8782 -0.7134
 1762SOL    HW1 6185   1.365   6.679   1.938 -1.3889  1.8377  0.6171
 1762SOL    HW2 6186   1.303   6.699   1.788  0.0374  0.4477 -0.1908
 1763SOL     OW 6187   3.546   1.089   0.375  0.0701  0.3673 -0.6406
 1763SOL    HW1 6188   3.585   1.096   0.467  1.3465 -1.0204 -1.0358
 1763SOL    HW2 6189   3.472   1.156   0.365 -0.4700  0.1839  1.5656
 1764SOL     OW 6190   4.028   5.723   6.282  0.8646  0.1639 -0.3480
 1764SOL    HW1 6191   4.037   5.722   6.182  0.3318 -1.9956 -0.4075
 1764SOL    HW2 6192   3.998   5.634   6.314 -1.6559  1.5677  1.5412
 1765SOL     OW 6193   3.390   5.699   3.310 -0.2797 -0.2294 -0.9386
 1765SOL    HW1 6194   3.340   5.616   3.336 -0.8830  0.2722 -0.4740
 1765SOL    HW2 6195   3.337   5.751   3.243 -0.4014  0.3194 -0.4207
 1766SOL     OW 6196   3.238   1.683   4.081  0.4237 -0.1512 -0.1395
 1766SOL    HW1 6197   3.329   1.680   4.040  0.9986 -0.8465  1.1236
 1766SOL    HW2 6198   3.246   1.708   4.178 -0.8679  1.2503 -0.3691
 1767SOL     OW 6199   5.755   0.813   5.349  0.0099 -0.5219 -0.3425
 1767SOL    HW1 6200   5.739   0.862   5.434 -0.5333  1.0458 -1.3107
 1767SOL    HW2 6201   5.684   0.744   5.336 -0.8169  0.3003 -0.2704
 1768SOL     OW 6202   3.256   4.997   1.562 -0.0701  0.0277  0.3673
 1768SOL    HW1 6203   3.313   4.987   1.480  0.0582  0.3358  0.4183
 1768SOL    HW2 6204   3.305   5.053   1.629 -0.7440  0.9336  0.1204
 1769SOL     OW 6205   0.231   4.348   1.769 -0.4476 -0.6824  0.7804
 1769SOL    HW1 6206   0.238   4.294   1.853  0.1841  0.4997  1.5143
 1769SOL    HW2 6207   0.309   4.410   1.762  0.4051 -1.9187 -1.5577
 1770SOL     OW 6208   4.425   0.243   1.440 -0.1414 -0.5677  0.0448
 1770SOL    HW1 6209   4.511   0.249   1.491 -0.3207 -0.7688  0.3760
 1770SOL    HW2 6210   4.441   0.270   1.345  0.0396  0.5222  0.3740
 1771SOL     OW 6211   0.950   4.210   0.189  0.1837 -0.4770 -0.1851
 1771SOL    HW1 6212   0.877   4.149   0.158  0.6246 -0.6714 -0.8682
 1771SOL    HW2 6213   1.033   4.193   0.135  0.1156  1.2141 -0.8757
 1772SOL     OW 6214   6.796   3.773   4.193  0.5271  0.2465 -0.4365
 1772SOL    HW1 6215   6.856   3.846   4.160  1.0226  0.0861  0.0769
 1772SOL    HW2 6216   6.783   3.783   4.292  0.1815 -0.0650 -0.4486
 1773SOL     OW 6217   2.502   5.326   6.609 -0.1146 -0.3980 -0.0843
 1773SOL    HW1 6218   2.457   5.387   6.544 -0.4219 -0.4245  0.1053
 1773SOL    HW2 6219   2.508   5.372   6.698  4.5471  1.7368 -1.1258
 1774SOL     OW 6220   2.469   2.005   2.100  0.1328 -0.4220 -0.1489
 1774SOL    HW1 6221   2.503   2.066   2.028  1.0837 -0.8002 -0.0380
 1774SOL    HW2 6222   2.424   1.926   2.059 -0.1661 -0.1647 -0.3136
 1775SOL     OW 6223   6.956   0.152   1.703  0.3036  0.2111 -0.3621
 1775SOL    HW1 6224   6.993   0.059   1.704  1.1136  0.5268  0.1120
 1775SOL    HW2 6225   6.890   0.163   1.777  1.3010  0.4255  0.5215
 1776SOL     OW 6226   4.964   5.233   3.246 -0.4604  0.9841 -0.6366
 1776SOL    HW1 6227   4.878   5.190   3.219  0.0104 -0.5407  0.1542
 1776SOL    HW2 6228   5.040   5.179   3.210  0.1640  0.3260  1.5415
 1777SOL     OW 6229   4.650   5.591   4.435 -0.0994  0.8729  0.3176
 1777SOL    HW1 6230   4.650   5.574   4.336 -0.1154  0.3243  0.4111
 1777SOL    HW2 6231   4.670   5.506   4.484  0.3112  1.2265  0.7768
 1778SOL     OW 6232   0.889   1.167   0.795 -0.1026 -0.7354 -1.0457
 1778SOL    HW1 6233   0.965   1.214   0.840  0.4174 -4.0327  1.9255
 1778SOL    HW2 6234   0.900   1.174   0.696  3.0561  0.4195 -0.7297
 1779SOL     OW 6235   1.016   0.512   2.175 -0.3261  0.3710  0.5726
 1779SOL    HW1 6236   1.028   0.563   2.090  1.2081  0.7969  1.0095
 1779SOL    HW2 6237   0.983   0.573   2.247  0.7205  0.6095  0.8810
 1780SOL     OW 6238   3.554   4.106   5.820  0.1943 -0.5419 -0.4911
 1780SOL    HW1 6239   3.482   4.052   5.775 -1.2937  0.5724  0.4310
 1780SOL    HW2 6240   3.535   4.204   5.806  0.9345 -0.2146  0.6619
 1781SOL     OW 6241   6.671   3.415   3.010 -0.0808 -0.3185 -0.0440
 1781SOL    HW1 6242   6.765   3.393   3.034 -0.2781  0.0897  1.1312
 1781SOL    HW2 6243   6.645   3.363   2.928  0.3245 -2.4380  1.1109
 1782SOL     OW 6244   1.676   5.979   3.621 -0.2744  0.2590 -0.4870
 1782SOL    HW1 6245   1.611   5.912   3.656 -0.5476  0.9876  0.4572
 1782SOL    HW2 6246   1.747   5.994   3.689 -0.6505  1.4857 -0.3428
 1783SOL     OW 6247   6.262   1.969   4.082 -0.9140  0.3670  0.3755
 1783SOL    HW1 6248   6.353   1.928   4.080 -0.2593  1.8012 -0.6307
 1783SOL    HW2 6249   6.204   1.927   4.012 -0.2684  1.0887 -0.6093
 1784SOL     OW 6250   4.531   6.774   2.839 -0.3208 -0.0856  0.4622
 1784SOL    HW1 6251   4.455   6.838   2.852 -0.4927 -0.5365  1.8578
 1784SOL    HW2 6252   4.599   6.787   2.911  0.7978  0.0860 -0.5841
 1785SOL     OW 6253   2.357   5.408   5.076  0.0571  0.1682 -0.3372
 1785SOL    HW1 6254   2.287   5.430   5.007 -0.6892  0.3400  0.4560
 1785SOL    HW2 6255   2.348   5.312   5.103 -0.1608  0.3044  0.0823
 1786SOL     OW 6256   0.840   4.334   2.863  0.0332  0.3521  0.1593
 1786SOL    HW1 6257   0.855   4.323   2.765 -2.2022  0.7623 -0.2831
 1786SOL    HW2 6258   0.852   4.430   2.888  0.0930  0.3327  0.2088
 1787SOL     OW 6259   2.248   2.202   4.015  0.3927 -0.3358  0.0893
 1787SOL    HW1 6260   2.172   2.261   3.987  0.2639 -0.1995  0.7244
 1787SOL    HW2 6261   2.276   2.145   3.937 -2.1789 -2.3862  0.5124
 1788SOL     OW 6262   2.986   6.910   3.460  0.2435 -0.6378 -0.9710
 1788SOL    HW1 6263   2.941   6.932   3.547  0.2662 -0.3740 -1.0259
 1788SOL    HW2 6264   2.932   6.842   3.412  0.5303 -1.2201 -0.4870
 1789SOL     OW 6265   5.623   2.052   5.180 -0.1647  0.3438 -0.5519
 1789SOL    HW1 6266   5.675   1.977   5.221  0.4877 -0.4954 -2.7572
 1789SOL    HW2 6267   5.637   2.135   5.233  1.6926 -0.3644  0.1508
 1790SOL     OW 6268   5.938   6.737   2.535  0.2387 -0.1870  0.0557
 1790SOL    HW1 6269   5.846   6.770   2.556  0.0174 -0.5216 -0.3703
 1790SOL    HW2 6270   5.990   6.809   2.489  0.4200  0.2329  0.9081
 1791SOL     OW 6271   5.723   0.396   6.002 -0.4263 -0.4451 -0.0092
 1791SOL    HW1 6272   5.673   0.335   6.063  0.4003 -0.5266  0.5964
 1791SOL    HW2 6273   5.659   0.442   5.941 -1.4577  0.8529  1.9753
 1792SOL     OW 6274   3.826   1.834   4.675  0.8461  0.1106 -0.4416
 1792SOL    HW1 6275   3.739   1.844   4.724  0.4792 -1.6625 -0.6669
 1792SOL    HW2 6276   3.894   1.792   4.735  1.3588  0.8612 -0.4806
 1793SOL     OW 6277   5.355   4.026   6.327  0.2947 -0.4004  0.3632
 1793SOL    HW1 6278   5.370   3.946   6.268 -0.2887 -1.6097  1.7800
 1793SOL    HW2 6279   5.442   4.075   6.340  0.5418 -0.4412 -1.0018
 1794SOL     OW 6280   5.076   1.628   5.544  0.2188  0.2037  0.3288
 1794SOL    HW1 6281   5.084   1.643   5.642  1.5977 -1.9826  0.6141
 1794SOL    HW2 6282   5.027   1.542   5.527  0.5227  0.2458 -0.8913
 1795SOL     OW 6283   6.483   2.875   6.118 -0.4396 -0.0606  0.4295
 1795SOL    HW1 6284   6.473   2.951   6.183  1.3846  0.1391  0.5410
 1795SOL    HW2 6285   6.516   2.910   6.031 -1.0451 -0.5601 -0.0073
 1796SOL     OW 6286   0.114   3.799   2.739 -0.3969 -0.3021 -0.4086
 1796SOL    HW1 6287   0.178   3.741   2.789  1.7728  1.0521 -1.4600
 1796SOL    HW2 6288   0.054   3.846   2.804  0.5966 -0.5586  0.7381
 1797SOL     OW 6289   5.402   0.683   4.808  0.0336 -0.3456 -0.0782
 1797SOL    HW1 6290   5.406   0.606   4.744  0.2105 -0.9331  0.6227
 1797SOL    HW2 6291   5.306   0.705   4.828 -0.0778  0.9376 -1.8089
 1798SOL     OW 6292   0.416   3.790   6.002  0.1902 -0.2170 -0.4320
 1798SOL    HW1 6293   0.503   3.839   5.994 -0.0784  0.3086 -0.1603
 1798SOL    HW2 6294   0.358   3.811   5.924  0.1225 -0.2072 -0.3787
 1799SOL     OW 6295   6.625   4.339   2.114 -0.3841  0.1552  0.1499
 1799SOL    HW1 6296   6.638   4.419   2.172  1.2625 -0.2041  0.3007
 1799SOL    HW2 6297   6.527   4.325   2.099 -0.7156  2.3643 -0.1281
 1800SOL     OW 6298   5.083   6.104   0.193  0.1295 -0.6274 -0.2898
 1800SOL    HW1 6299   5.154   6.049   0.237 -0.1436 -0.5510  0.2475
 1800SOL    HW2 6300   5.031   6.047   0.130 -0.8859 -1.2813  1.0973
 1801SOL     OW 6301   4.288   5.553   0.359  0.2670 -0.2166  0.5300
 1801SOL    HW1 6302   4.343   5.636   0.348 -0.0822  0.0873  1.0166
 1801SOL    HW2 6303   4.194   5.571   0.330 -0.0457 -0.1474  1.5393
 1802SOL     OW 6304   5.931   6.663   3.333 -0.3418  0.1672  0.0276
 1802SOL    HW1 6305   5.907   6.728   3.405 -0.2925 -0.9358  1.0598
 1802SOL    HW2 6306   5.941   6.712   3.246 -0.5053  1.4983  0.7372
 1803SOL     OW 6307   4.614   5.997   5.089 -0.2308  0.3645  0.0630
 1803SOL    HW1 6308   4.700   6.047   5.091 -0.4104  0.6728  1.6190
 1803SOL    HW2 6309   4.566   6.016   5.004  1.6950 -0.6533 -1.3248
 1804SOL     OW 6310   2.957   5.736   2.937  0.5385  0.3339  0.6059
 1804SOL    HW1 6311   2.879   5.681   2.907 -0.1523  1.8659 -0.5585
 1804SOL    HW2 6312   3.007   5.687   3.008 -0.1298 -1.6849 -0.2627
 1805SOL     OW 6313   2.920   0.766   0.933  0.0838  0.7177  0.0490
 1805SOL    HW1 6314   3.016   0.744   0.917 -0.1349 -0.1140 -0.1455
 1805SOL    HW2 6315   2.883   0.814   0.854 -0.3242 -1.1758 -0.9575
 1806SOL     OW 6316   0.550   0.354   4.900  0.5792  0.6896 -0.0095
 1806SOL    HW1 6317   0.558   0.280   4.967  0.6182  1.2671  0.6428
 1806SOL    HW2 6318   0.561   0.442   4.947  3.3144  1.0632 -1.1614
 1807SOL     OW 6319   4.701   4.636   4.168  0.3415  0.7125 -0.2513
 1807SOL    HW1 6320   4.718   4.733   4.186  0.9381  0.5290  0.2148
 1807SOL    HW2 6321   4.787   4.592   4.143 -0.1691  0.5992 -1.9309
 1808SOL     OW 6322   1.590   0.996   3.754 -0.0780  0.1929 -0.2302
 1808SOL    HW1 6323   1.689   1.010   3.759  0.1259 -0.8444 -0.8970
 1808SOL    HW2 6324   1.550   1.065   3.694  0.2715  0.4721 -0.1475
 1809SOL     OW 6325   6.576   4.524   4.427 -0.4591 -0.0734  0.4726
 1809SOL    HW1 6326   6.503   4.460   4.453 -0.6086 -0.6354 -1.2572
 1809SOL    HW2 6327   6.598   4.581   4.506 -1.6815 -0.9362  1.4941
 1810SOL     OW 6328   6.684   3.222   5.974  0.2485 -0.4661  0.0908
 1810SOL    HW1 6329   6.667   3.309   6.020  3.1409  0.7966 -0.9950
 1810SOL    HW2 6330   6.681   3.236   5.875  0.9913 -1.5451 -0.0993
 1811SOL     OW 6331   1.132   0.916   1.855 -0.2419 -0.2516  1.2635
 1811SOL    HW1 6332   1.126   0.904   1.756  0.1028  3.0520  0.7415
 1811SOL    HW2 6333   1.050   0.878   1.898 -1.2340 -0.1668 -0.4608
 1812SOL     OW 6334   2.217   6.085   4.705 -0.3979 -0.3977  0.1760
 1812SOL    HW1 6335   2.281   6.084   4.781 -0.9655 -1.0429  0.6645
 1812SOL    HW2 6336   2.186   5.991   4.687 -2.7176  0.0856  1.2769
 1813SOL     OW 6337   5.978   6.344   0.224 -0.4679  0.4321 -0.3775
 1813SOL    HW1 6338   6.024   6.256   0.230  0.3807  0.8446 -0.6318
 1813SOL    HW2 6339   5.992   6.384   0.133 -1.0422  0.7225 -0.3451
 1814SOL     OW 6340   2.065   4.623   0.717 -0.4220  0.0718 -0.2970
 1814SOL    HW1 6341   2.064   4.563   0.797 -0.3928 -0.8827 -1.0043
 1814SOL    HW2 6342   2.060   4.569   0.634 -0.6986  1.0694 -0.9518
 1815SOL     OW 6343   5.630   2.286   4.957  0.0383  0.0219  0.5718
 1815SOL    HW1 6344   5.589   2.366   5.001 -1.3648 -0.2425 -0.1947
 1815SOL    HW2 6345   5.632   2.210   5.022 -1.0883 -0.0764  0.5067
 1816SOL     OW 6346   3.318   6.058   6.253  0.1694 -0.0915  0.2703
 1816SOL    HW1 6347   3.389   6.117   6.215  1.7820 -0.4146  2.4983
 1816SOL    HW2 6348   3.356   5.965   6.265 -1.8331 -1.2675 -1.7984
 1817SOL     OW 6349   6.788   2.101   5.128 -0.7225  0.0097  0.1416
 1817SOL    HW1 6350   6.863   2.068   5.071  0.6679  1.5969  0.9546
 1817SOL    HW2 6351   6.806   2.077   5.223  0.8571  3.5982  0.9354
 1818SOL     OW 6352   2.237   4.045   4.028 -0.1693  0.3460 -0.1129
 1818SOL    HW1 6353   2.320   4.085   3.988  2.8526 -3.2310  1.9184
 1818SOL    HW2 6354   2.210   4.098   4.108  2.1236  0.0174  0.9760
 1819SOL     OW 6355   1.354   6.537   5.754  0.2880  0.0181  0.7016
 1819SOL    HW1 6356   1.365   6.612   5.821 -1.7841  0.6310  0.4212
 1819SOL    HW2 6357   1.259   6.508   5.753  0.9856 -2.4595  0.5524
 1820SOL     OW 6358   0.466   6.837   1.081 -0.4703 -0.2234 -0.1982
 1820SOL    HW1 6359   0.524   6.801   1.154  0.3047 -0.2199 -0.8005
 1820SOL    HW2 6360   0.507   6.920   1.044 -0.9343 -0.1431 -0.5374
 1821SOL     OW 6361   4.096   5.392   4.861  0.1005 -0.4230 -0.0448
 1821SOL    HW1 6362   4.002   5.362   4.870  0.1050 -0.2695  0.5735
 1821SOL    HW2 6363   4.158   5.317   4.885  0.1069  0.2206  2.1387
 1822SOL     OW 6364   6.338   1.861   3.074  0.3622 -0.1555 -0.4256
 1822SOL    HW1 6365   6.335   1.881   2.977  2.0354 -0.7041 -0.6135
 1822SOL    HW2 6366   6.332   1.762   3.088 -0.9629 -0.0186  0.1079
 1823SOL     OW 6367   4.075   1.797   3.048 -0.0841 -0.3255  0.1185
 1823SOL    HW1 6368   4.108   1.731   2.981  0.7272 -0.4803  0.6564
 1823SOL    HW2 6369   4.126   1.883   3.037 -0.0661 -0.2976  0.4174
 1824SOL     OW 6370   3.595   2.678   6.753  0.0813  0.0695  0.6580
 1824SOL    HW1 6371   3.595   2.676   6.653  0.0239  0.4561  0.6475
 1824SOL    HW2 6372   3.689   2.678   6.787  0.1066 -1.5385  0.6481
 1825SOL     OW 6373   0.500   4.384   0.705  0.0972 -0.4600 -0.2172
 1825SOL    HW1 6374   0.498   4.284   0.697 -2.2375 -0.7021  2.0332
 1825SOL    HW2 6375   0.590   4.413   0.736  0.3992 -2.0272  0.4385
 1826SOL     OW 6376   5.444   3.490   1.085  0.0527 -0.0216  0.1065
 1826SOL    HW1 6377   5.441   3.573   1.029  0.7441  0.1254  0.2726
 1826SOL    HW2 6378   5.539   3.463   1.100 -0.1487 -0.5424  0.5005
 1827SOL     OW 6379   3.923   4.356   6.580 -0.4865  0.0848  0.5602
 1827SOL    HW1 6380   3.890   4.448   6.560 -1.2988 -0.6312 -1.7199
 1827SOL    HW2 6381   3.858   4.310   6.640 -0.3830  0.7769  1.2181
 1828SOL     OW 6382   5.835   5.773   1.745  0.3090 -0.1931  0.2894
 1828SOL    HW1 6383   5.862   5.866   1.768 -0.1152  0.8235 -2.9340
 1828SOL    HW2 6384   5.852   5.755   1.648 -3.1901 -2.1189 -0.1414
 1829SOL     OW 6385   5.248   2.446   4.901 -0.1602 -0.3554  0.5348
 1829SOL    HW1 6386   5.335   2.480   4.936  0.0278 -0.1979 -0.0862
 1829SOL    HW2 6387   5.258   2.418   4.806 -0.6462 -0.8896  0.6352
 1830SOL     OW 6388   4.784   2.354   4.832 -0.1425  0.0371 -0.2551
 1830SOL    HW1 6389   4.796   2.401   4.745  1.6347  0.9406  0.4323
 1830SOL    HW2 6390   4.689   2.324   4.841  0.0211 -1.7795 -3.3191
 1831SOL     OW 6391   1.384   0.845   0.610  0.6922 -0.1074 -0.0785
 1831SOL    HW1 6392   1.370   0.746   0.598  0.5335 -0.0184 -0.6773
 1831SOL    HW2 6393   1.355   0.872   0.701  0.6955 -0.6103  0.0745
 1832SOL     OW 6394   0.710   0.692   3.552  0.4520  0.4317  0.3151
 1832SOL    HW1 6395   0.635   0.728   3.608 -0.2923 -0.9233  0.2472
 1832SOL    HW2 6396   0.706   0.732   3.461  0.7860  1.5534  0.7798
 1833SOL     OW 6397   5.246   1.453   4.414  0.4268 -0.4438 -0.1922
 1833SOL    HW1 6398   5.180   1.413   4.351  1.1591 -1.9354 -0.0616
 1833SOL    HW2 6399   5.228   1.419   4.507  0.0671  0.8359  0.2307
 1834SOL     OW 6400   2.026   6.534   2.180  0.7927  0.9741 -0.3495
 1834SOL    HW1 6401   1.933   6.498   2.186  0.5840  1.5716  0.1680
 1834SOL    HW2 6402   2.067   6.507   2.093  1.3054 -2.0241  0.7115
 1835SOL     OW 6403   0.310   1.026   2.777  0.4109 -0.0276 -0.4347
 1835SOL    HW1 6404   0.386   0.979   2.731  0.4929  0.3702 -0.7090
 1835SOL    HW2 6405   0.230   0.966   2.777  0.2713  0.1240 -1.5101
 1836SOL     OW 6406   0.724   0.049   6.026 -0.2961  0.2515 -0.4356
 1836SOL    HW1 6407   0.766  -0.019   6.085 -0.7252 -0.1381 -0.5743
 1836SOL    HW2 6408   0.793   0.086   5.963 -0.4051 -1.2822 -1.5060
 1837SOL     OW 6409   4.568   0.251   3.321 -0.2934 -0.1325  0.0318
 1837SOL    HW1 6410   4.668   0.249   3.313 -0.2065 -1.3618  1.0834
 1837SOL    HW2 6411   4.536   0.162   3.354 -1.6129  0.6997  1.0747
 1838SOL     OW 6412   2.058   2.326   0.976  0.2978 -0.5333 -0.2563
 1838SOL    HW1 6413   2.012   2.411   0.951 -1.8747 -1.8379 -0.9712
 1838SOL    HW2 6414   2.075   2.326   1.075  0.4266  0.7516 -0.2593
 1839SOL     OW 6415   2.021   2.266   2.083  0.4201  0.2509 -0.0206
 1839SOL    HW1 6416   2.079   2.346   2.101  2.7444 -1.5472  0.9931
 1839SOL    HW2 6417   2.057   2.216   2.004 -1.9099  0.9267 -1.6165
 1840SOL     OW 6418   2.776   1.689   1.139 -0.2128 -0.4391  0.4022
 1840SOL    HW1 6419   2.746   1.712   1.046  3.5011 -0.3036 -0.9480
 1840SOL    HW2 6420   2.733   1.603   1.167 -0.0214 -1.5428 -2.3125
 1841SOL     OW 6421   3.920   4.000   1.146 -0.1150 -0.8098 -0.2918
 1841SOL    HW1 6422   3.900   3.910   1.184  0.7806 -0.5318  0.8927
 1841SOL    HW2 6423   3.852   4.023   1.076 -3.6335 -0.0913  3.0701
 1842SOL     OW 6424   5.982   2.843   3.628  0.3458 -0.5565 -0.5068
 1842SOL    HW1 6425   6.057   2.790   3.589 -0.0801 -0.0924 -2.0375
 1842SOL    HW2 6426   5.895   2.799   3.604  0.0860 -0.8812  0.9258
 1843SOL     OW 6427   1.002   0.637   2.482 -0.1022  0.1179  0.1111
 1843SOL    HW1 6428   0.939   0.681   2.417  0.3039  0.7191  0.1119
 1843SOL    HW2 6429   0.953   0.616   2.566 -0.0482  1.6646  0.5688
 1844SOL     OW 6430   4.652   0.329   1.588 -0.0193 -0.4874 -0.0391
 1844SOL    HW1 6431   4.721   0.302   1.520 -1.0161 -1.1305 -0.8292
 1844SOL    HW2 6432   4.638   0.428   1.584  2.2238 -0.0399  1.4852
 1845SOL     OW 6433   2.080   6.586   0.237 -0.1444  0.2973  0.4987
 1845SOL    HW1 6434   2.022   6.659   0.199 -0.6588  0.0461  0.7892
 1845SOL    HW2 6435   2.166   6.626   0.268 -0.6852  0.9145  1.2785
 1846SOL     OW 6436   2.989   6.816   4.215 -0.0568  0.0674 -0.4439
 1846SOL    HW1 6437   2.950   6.745   4.275  0.7034  0.5831  0.7081
 1846SOL    HW2 6438   3.088   6.802   4.210 -0.2260 -0.6748 -2.5764
 1847SOL     OW 6439   2.412   6.043   2.421 -0.0060  0.1434 -0.2656
 1847SOL    HW1 6440   2.493   6.000   2.382 -0.2922 -0.2418 -0.4372
 1847SOL    HW2 6441   2.350   5.973   2.457  0.2586  0.4863  0.9115
 1848SOL     OW 6442   5.596   6.997   4.039 -0.0015 -0.4400  0.4441
 1848SOL    HW1 6443   5.531   7.072   4.030 -0.7561 -1.1521 -0.1779
 1848SOL    HW2 6444   5.566   6.936   4.113  1.2034  0.4426  1.6950
 1849SOL     OW 6445   3.859   1.500   0.055 -0.2513 -0.0507 -0.3733
 1849SOL    HW1 6446   3.773   1.464   0.091  0.2080 -0.7222  0.0682
 1849SOL    HW2 6447   3.840   1.576  -0.007 -1.1394  0.1194  0.0910
 1850SOL     OW 6448   1.867   4.559   1.493 -0.0039  0.3539  0.1985
 1850SOL    HW1 6449   1.915   4.627   1.437  0.4759  0.3213  0.5646
 1850SOL    HW2 6450   1.821   4.493   1.433 -1.2055  1.4934 -0.1819
 1851SOL     OW 6451   2.897   3.088   5.907  0.5848  0.6721  0.3159
 1851SOL    HW1 6452   2.874   3.172   5.957  1.9750  0.8955  0.6017
 1851SOL    HW2 6453   2.985   3.098   5.862  0.2720 -0.2603 -0.5468
 1852SOL     OW 6454   2.604   5.975   5.094 -0.2520  0.4137 -0.3736
 1852SOL    HW1 6455   2.659   5.905   5.139 -0.0094  1.4231  0.9444
 1852SOL    HW2 6456   2.663   6.035   5.040 -0.2641  0.5550 -0.2284
 1853SOL     OW 6457   6.923   1.994   6.226  0.4608 -0.1160 -0.1323
 1853SOL    HW1 6458   6.902   1.948   6.140  2.4927 -0.3269 -0.5674
 1853SOL    HW2 6459   6.956   2.086   6.207  0.2203  0.1071  0.4910
 1854SOL     OW 6460   2.864   0.075   6.318  0.5770 -0.3863  0.8072
 1854SOL    HW1 6461   2.891   0.042   6.408  1.5525  0.6108  0.8993
 1854SOL    HW2 6462   2.774   0.117   6.323  0.7780 -0.0190  1.4009
 1855SOL     OW 6463   5.519   2.420   2.968 -0.7014 -0.0304  0.4760
 1855SOL    HW1 6464   5.468   2.443   3.051  0.9302 -0.4240  1.6361
 1855SOL    HW2 6465   5.554   2.326   2.975 -1.8288 -0.6514 -1.3668
 1856SOL     OW 6466   2.099   4.169   4.220 -0.7350  0.4360 -0.1893
 1856SOL    HW1 6467   2.078   4.096   4.285  2.0362 -0.7505 -0.5264
 1856SOL    HW2 6468   2.132   4.249   4.269  1.5212 -0.5169 -0.0452
 1857SOL     OW 6469   2.923   5.718   4.128 -0.2167  0.4475  0.2131
 1857SOL    HW1 6470   2.915   5.622   4.100  0.5840  0.4404  0.0023
 1857SOL    HW2 6471   3.010   5.755   4.097 -1.4146  1.8921 -1.6709
 1858SOL     OW 6472   1.831   5.641   4.898 -0.6910 -0.0504 -0.3436
 1858SOL    HW1 6473   1.861   5.735   4.916  2.0056 -0.6693 -1.1361
 1858SOL    HW2 6474   1.731   5.638   4.894 -0.8425  2.8507 -0.7587
 1859SOL     OW 6475   3.769   0.524   5.185  0.1781  0.1078 -0.3705
 1859SOL    HW1 6476   3.826   0.446   5.160 -0.5805 -0.0140 -1.8340
 1859SOL    HW2 6477   3.688   0.493   5.235  0.9039  0.1885  0.8860
 1860SOL     OW 6478   1.298   4.640   2.351 -0.3779 -0.0804  0.6471
 1860SOL    HW1 6479   1.363   4.565   2.341  0.8901  1.1977 -1.2221
 1860SOL    HW2 6480   1.205   4.604   2.345  0.1887 -1.5770  0.4789
 1861SOL     OW 6481   2.831   0.257   1.881  0.1288 -0.2757 -0.2604
 1861SOL    HW1 6482   2.899   0.324   1.911 -0.7815  0.5603 -0.0087
 1861SOL    HW2 6483   2.800   0.204   1.960  0.2465 -0.4224 -0.3139
 1862SOL     OW 6484   3.351   4.113   6.305 -0.0053  0.0261  0.1793
 1862SOL    HW1 6485   3.272   4.106   6.245  1.0541 -0.8775 -1.1644
 1862SOL    HW2 6486   3.356   4.205   6.344 -1.4806  0.2047 -0.0215
 1863SOL     OW 6487   5.942   3.352   1.386 -0.0182 -0.3935 -0.0786
 1863SOL    HW1 6488   5.888   3.304   1.317 -0.4792 -1.3572  0.9252
 1863SOL    HW2 6489   5.943   3.450   1.366 -1.2787 -0.4895 -0.6910
 1864SOL     OW 6490   2.219   0.303   4.426  0.2679  0.2602  0.4616
 1864SOL    HW1 6491   2.282   0.331   4.498 -0.9762  1.9629  0.9585
 1864SOL    HW2 6492   2.203   0.205   4.431  2.5435 -0.1616  0.5457
 1865SOL     OW 6493   0.138   5.431   6.066  0.2542 -0.2932 -0.6995
 1865SOL    HW1 6494   0.111   5.335   6.071  0.0850 -0.3520 -2.2583
 1865SOL    HW2 6495   0.229   5.438   6.026  0.3125  0.1936 -0.4870
 1866SOL     OW 6496   4.115   3.227   3.550  0.1695  0.4473  0.2200
 1866SOL    HW1 6497   4.200   3.177   3.533  0.0567 -0.1204  1.2303
 1866SOL    HW2 6498   4.076   3.256   3.463  2.6165  2.8717 -0.1919
 1867SOL     OW 6499   0.552   3.637   3.198 -0.5814 -0.4090 -0.0092
 1867SOL    HW1 6500   0.540   3.561   3.134 -0.6929 -1.0390  0.7531
 1867SOL    HW2 6501   0.541   3.605   3.292 -1.0300  0.6242  0.3167
 1868SOL     OW 6502   4.473   3.679   6.882 -0.3173  0.0463 -0.3697
 1868SOL    HW1 6503   4.393   3.709   6.934  1.6115  0.1708  2.7968
 1868SOL    HW2 6504   4.459   3.586   6.849 -2.3095  0.6146 -1.2718
 1869SOL     OW 6505   5.942   5.979   4.291  0.8395 -0.1468 -0.1365
 1869SOL    HW1 6506   5.859   5.979   4.346 -0.2674  1.9861 -1.6810
 1869SOL    HW2 6507   5.949   5.893   4.240 -0.0433 -0.6095  0.4985
 1870SOL     OW 6508   3.095   5.806   1.403  0.9959  0.4085  0.3520
 1870SOL    HW1 6509   3.056   5.722   1.366  0.2541  0.5767  0.7402
 1870SOL    HW2 6510   3.031   5.848   1.468  1.6497  0.9073  0.6910
 1871SOL     OW 6511   1.435   1.214   5.618  0.0684 -0.1946  0.2671
 1871SOL    HW1 6512   1.350   1.258   5.647 -0.4961 -0.0373 -1.5272
 1871SOL    HW2 6513   1.477   1.169   5.697 -2.1433 -1.0926  1.0212
 1872SOL     OW 6514   1.531   1.221   6.400  0.7422 -0.1684 -0.6027
 1872SOL    HW1 6515   1.538   1.122   6.405 -3.0261 -0.5332  0.7183
 1872SOL    HW2 6516   1.593   1.263   6.467  1.4557 -1.6837 -0.2901
 1873SOL     OW 6517   4.703   1.337   1.231  0.2822 -0.4270 -0.4870
 1873SOL    HW1 6518   4.759   1.357   1.311 -0.6385 -2.6781  0.8280
 1873SOL    HW2 6519   4.629   1.404   1.223  0.4653 -0.1091  0.4549
 1874SOL     OW 6520   6.378   1.343   6.053 -1.0197 -1.0455  0.0241
 1874SOL    HW1 6521   6.428   1.258   6.069  0.0601 -0.3716  0.3772
 1874SOL    HW2 6522   6.283   1.323   6.033 -0.9838 -2.2942  0.9903
 1875SOL     OW 6523   0.647   5.470   0.563 -0.1045 -0.6690  0.0799
 1875SOL    HW1 6524   0.555   5.459   0.526 -0.3309  1.2914 -0.0125
 1875SOL    HW2 6525   0.653   5.424   0.652 -0.9234 -1.4701 -0.2600
 1876SOL     OW 6526   2.450   6.938   4.074 -0.8310  0.5427  0.0017
 1876SOL    HW1 6527   2.461   7.036   4.093 -0.3783  0.6506 -0.7571
 1876SOL    HW2 6528   2.498   6.885   4.143 -0.7190  0.8735  0.1810
 1877SOL     OW 6529   1.078   2.764   1.946 -0.1686  0.2442 -0.1643
 1877SOL    HW1 6530   0.989   2.758   1.991 -0.1245 -0.4745 -0.1634
 1877SOL    HW2 6531   1.151   2.749   2.013 -0.0906 -0.4526 -0.4006
 1878SOL     OW 6532   6.581   3.600   2.125 -0.0994 -0.3616 -0.3822
 1878SOL    HW1 6533   6.650   3.667   2.151 -1.3854  1.0637 -0.4581
 1878SOL    HW2 6534   6.591   3.577   2.028  0.7532 -0.7917 -0.1998
 1879SOL     OW 6535   6.983   5.074   5.548  0.3608 -0.0030  0.0172
 1879SOL    HW1 6536   7.065   5.086   5.492 -0.2304  1.4510 -0.5670
 1879SOL    HW2 6537   7.008   5.029   5.634  1.6917  0.0615 -0.3108
 1880SOL     OW 6538   6.812   3.896   5.666  0.2613 -0.2446  0.3870
 1880SOL    HW1 6539   6.859   3.871   5.751 -0.0880 -1.1741  0.3097
 1880SOL    HW2 6540   6.854   3.847   5.589  0.4432  0.4369  0.0411
 1881SOL     OW 6541   1.636   0.681   4.638 -0.0651 -0.1264 -0.5463
 1881SOL    HW1 6542   1.651   0.753   4.571 -2.5171 -0.2422 -1.3347
 1881SOL    HW2 6543   1.653   0.717   4.730  0.9403  0.7644 -1.0626
 1882SOL     OW 6544   2.248   0.607   5.097 -0.0632  0.1112 -0.1335
 1882SOL    HW1 6545   2.316   0.573   5.162  0.7423 -0.0301 -1.0209
 1882SOL    HW2 6546   2.281   0.591   5.003 -1.0422  0.6111 -0.5776
 1883SOL     OW 6547   6.864   2.953   1.734  0.1015  0.3083 -0.4686
 1883SOL    HW1 6548   6.805   2.880   1.770  0.4295  0.8455  1.2499
 1883SOL    HW2 6549   6.837   3.040   1.774  2.8194  0.4008  1.4372
 1884SOL     OW 6550   6.884   4.795   2.331  0.2939 -0.0742  0.3516
 1884SOL    HW1 6551   6.801   4.838   2.367  0.5192 -0.8746  1.9261
 1884SOL    HW2 6552   6.872   4.775   2.234 -2.1900 -2.0457  0.9435
 1885SOL     OW 6553   4.446   0.417   0.190 -0.6874  0.0299 -0.2198
 1885SOL    HW1 6554   4.480   0.502   0.231  1.5169 -1.1535  0.5416
 1885SOL    HW2 6555   4.498   0.397   0.107 -1.2400 -0.5695 -0.4339
 1886SOL     OW 6556   3.485   3.379   3.379 -0.1024  0.0534 -0.1883
 1886SOL    HW1 6557   3.550   3.441   3.336 -1.6255  1.6663 -0.2422
 1886SOL    HW2 6558   3.535   3.304   3.423  1.8639  1.7248  0.5812
 1887SOL     OW 6559   5.136   2.790   2.371  0.3178  0.1123  0.2136
 1887SOL    HW1 6560   5.190   2.739   2.438  0.2157  0.8216  0.8392
 1887SOL    HW2 6561   5.197   2.846   2.315  0.5359 -1.3564 -1.0949
 1888SOL     OW 6562   1.122   3.626   3.305 -0.0665 -1.0274  0.1807
 1888SOL    HW1 6563   1.117   3.598   3.401 -0.3236  0.5008  0.6406
 1888SOL    HW2 6564   1.156   3.720   3.299 -0.6959 -0.8567 -1.1687
 1889SOL     OW 6565   1.209   3.922   3.254 -0.3638 -0.3592 -0.3720
 1889SOL    HW1 6566   1.175   4.011   3.222  1.2866  0.2082 -0.6083
 1889SOL    HW2 6567   1.246   3.932   3.346 -1.3581 -1.1060  0.1203
 1890SOL     OW 6568   4.602   6.310   2.097  1.0245 -0.4878 -0.3906
 1890SOL    HW1 6569   4.603   6.234   2.162  1.7604 -0.5068 -0.4185
 1890SOL    HW2 6570   4.598   6.274   2.003 -0.0488 -0.4612 -0.3727
 1891SOL     OW 6571   4.039   2.541   5.592 -0.5333  0.4815 -0.6045
 1891SOL    HW1 6572   4.042   2.499   5.502 -0.4044  0.2327 -0.4862
 1891SOL    HW2 6573   4.104   2.617   5.596  1.1979 -0.9507 -0.0135
 1892SOL     OW 6574   6.996   6.910   4.501  0.5137 -0.4949 -0.0884
 1892SOL    HW1 6575   7.067   6.967   4.460 -0.1848 -0.4469 -1.2774
 1892SOL    HW2 6576   6.933   6.878   4.430 -0.6409 -0.5614  0.9192
 1893SOL     OW 6577   1.635   4.569   4.336 -0.4643 -0.1561 -0.3132
 1893SOL    HW1 6578   1.625   4.505   4.413 -3.1823  0.6862  0.1413
 1893SOL    HW2 6579   1.662   4.659   4.371  2.2363 -0.6565 -0.8459
 1894SOL     OW 6580   5.351   3.617   6.997 -0.1793  0.4900  0.0482
 1894SOL    HW1 6581   5.388   3.528   7.024 -0.0267  0.6063  0.2288
 1894SOL    HW2 6582   5.336   3.619   6.898  1.9889  1.0364 -0.3276
 1895SOL     OW 6583   3.558   1.681   4.320  0.3914  0.2033 -0.1493
 1895SOL    HW1 6584   3.505   1.751   4.273 -1.8531 -1.0594  0.3546
 1895SOL    HW2 6585   3.539   1.591   4.279 -1.0652 -0.8407  2.5423
 1896SOL     OW 6586   6.253   0.783   4.675  0.5267  0.3183  0.5554
 1896SOL    HW1 6587   6.166   0.819   4.640  0.3680 -1.9748 -1.6360
 1896SOL    HW2 6588   6.322   0.784   4.603  1.4485 -0.7061  1.3794
 1897SOL     OW 6589   0.903   5.192   6.227  0.3329 -0.0200  0.5118
 1897SOL    HW1 6590   0.948   5.219   6.313 -0.9044  0.9053  0.8986
 1897SOL    HW2 6591   0.840   5.117   6.245 -0.6844  0.8347  0.6566
 1898SOL     OW 6592   6.355   2.477   0.184 -0.3895  0.0297  0.0954
 1898SOL    HW1 6593   6.344   2.535   0.265 -0.9725 -0.2275  0.2098
 1898SOL    HW2 6594   6.339   2.382   0.210  1.1947 -0.2749  0.0462
 1899SOL     OW 6595   5.439   6.068   3.134 -1.0272  0.2109  0.2739
 1899SOL    HW1 6596   5.453   6.022   3.221 -3.3389 -0.0995  0.5447
 1899SOL    HW2 6597   5.467   6.008   3.059 -2.3440 -0.9761  0.6898
 1900SOL     OW 6598   5.465   5.710   1.175  0.0756 -0.5281 -0.0774
 1900SOL    HW1 6599   5.457   5.610   1.170 -0.9207 -0.5276  0.9311
 1900SOL    HW2 6600   5.419   5.742   1.258 -0.3604  0.8520 -0.8255
 1901SOL     OW 6601   4.915   3.089   5.965  0.3548 -0.0572 -0.4207
 1901SOL    HW1 6602   4.908   3.189   5.958  1.0032  0.2407  2.0926
 1901SOL    HW2 6603   4.823   3.050   5.971  0.1038  0.6928  1.2047
 1902SOL     OW 6604   2.434   2.609   4.866  0.2658  0.0719  0.5316
 1902SOL    HW1 6605   2.374   2.689   4.860  0.9796  0.7223  1.6718
 1902SOL    HW2 6606   2.492   2.616   4.947  1.2272 -0.9996 -0.0166
 1903SOL     OW 6607   1.439   6.130   3.637  0.9431 -0.3571 -0.4248
 1903SOL    HW1 6608   1.353   6.132   3.689  1.7088  2.4377  0.9280
 1903SOL    HW2 6609   1.503   6.068   3.682  1.0125  0.7492  1.1131
 1904SOL     OW 6610   6.139   1.960   2.300 -0.3707 -0.1436  0.0750
 1904SOL    HW1 6611   6.091   2.047   2.310 -1.3014 -0.7333  0.9350
 1904SOL    HW2 6612   6.102   1.893   2.364  0.2990 -1.1980 -0.5912
 1905SOL     OW 6613   2.265   5.205   3.667 -0.4138  0.0081  0.3358
 1905SOL    HW1 6614   2.229   5.297   3.678 -1.0794 -0.0408 -1.1755
 1905SOL    HW2 6615   2.202   5.150   3.612  0.2722 -1.1618  0.6654
 1906SOL     OW 6616   6.608   3.687   3.052 -0.2125  0.6412  0.3028
 1906SOL    HW1 6617   6.523   3.696   3.000  0.2798  0.7709 -0.4997
 1906SOL    HW2 6618   6.631   3.590   3.063 -0.5240  0.6027  0.6275
 1907SOL     OW 6619   0.354   6.318   4.912  0.0689  0.1128  0.0721
 1907SOL    HW1 6620   0.335   6.296   4.817 -0.2864  2.8332 -0.5815
 1907SOL    HW2 6621   0.452   6.334   4.924  0.3115 -1.4971  0.5199
 1908SOL     OW 6622   0.846   6.558   4.234  0.2132  0.4995  0.3322
 1908SOL    HW1 6623   0.914   6.585   4.302  0.6399  0.4647 -0.0792
 1908SOL    HW2 6624   0.790   6.637   4.210  0.0922  0.5247  0.6804
 1909SOL     OW 6625   5.401   3.081   5.261 -0.1545 -0.4283  0.2172
 1909SOL    HW1 6626   5.361   3.005   5.210  1.6093  0.0143 -2.0217
 1909SOL    HW2 6627   5.397   3.164   5.206  1.1604  0.2683  1.0974
 1910SOL     OW 6628   6.410   2.674   2.938  0.1245 -0.0856  0.0052
 1910SOL    HW1 6629   6.365   2.661   2.849  2.6392  0.9761 -1.5342
 1910SOL    HW2 6630   6.504   2.640   2.933  0.3211 -0.0112  2.3050
 1911SOL     OW 6631   4.121   4.944   2.835 -0.1241  0.4807  0.1346
 1911SOL    HW1 6632   4.092   5.005   2.761 -0.7744 -0.3329 -0.2975
 1911SOL    HW2 6633   4.163   4.862   2.796  0.3287  0.4360  0.6991
 1912SOL     OW 6634   4.826   6.707   6.764 -0.1890  0.6224  0.3734
 1912SOL    HW1 6635   4.800   6.786   6.820  2.2044  3.6399 -2.3535
 1912SOL    HW2 6636   4.921   6.682   6.786 -0.7250 -1.1880  0.7655
 1913SOL     OW 6637   3.391   2.102   0.362 -0.4637  0.0804  0.0867
 1913SOL    HW1 6638   3.401   2.170   0.289  2.2790  0.6318  0.8536
 1913SOL    HW2 6639   3.418   2.142   0.449 -0.9456 -1.3604  0.9311
 1914SOL     OW 6640   0.985   4.793   2.281 -0.2272  0.3717 -0.0466
 1914SOL    HW1 6641   1.026   4.820   2.368 -1.4859 -0.2809  0.7866
 1914SOL    HW2 6642   0.988   4.693   2.272 -1.5145  0.3089  0.0112
 1915SOL     OW 6643   5.785   2.698   1.806  1.0124 -0.4962  0.3474
 1915SOL    HW1 6644   5.749   2.697   1.713  0.1975  1.1634  0.6021
 1915SOL    HW2 6645   5.719   2.655   1.868 -0.0116  1.3664  0.6168
 1916SOL     OW 6646   2.409   1.997   4.863  0.2920 -0.4673  0.0821
 1916SOL    HW1 6647   2.355   2.024   4.943 -0.9164 -4.1014  0.6875
 1916SOL    HW2 6648   2.421   2.076   4.803  0.0569  2.0830  3.1118
 1917SOL     OW 6649   4.115   3.302   3.268 -0.0475  0.2736  0.2546
 1917SOL    HW1 6650   4.147   3.397   3.280  0.6362  0.1246 -0.3259
 1917SOL    HW2 6651   4.107   3.282   3.171  1.8146 -0.9073  0.3071
 1918SOL     OW 6652   5.128   4.101   4.540  0.5985  0.1814 -0.0924
 1918SOL    HW1 6653   5.084   4.089   4.629  0.5959 -0.8896 -0.2229
 1918SOL    HW2 6654   5.226   4.078   4.548  0.3848 -1.0048 -0.5786
 1919SOL     OW 6655   6.914   4.551   4.757 -0.0837 -0.1393  0.2319
 1919SOL    HW1 6656   6.904   4.641   4.801  0.2307 -0.4112  0.8715
 1919SOL    HW2 6657   6.973   4.561   4.677  0.5434  0.1122  0.7052
 1920SOL     OW 6658   1.773   1.474   6.372  0.3841  0.0642 -0.2634
 1920SOL    HW1 6659   1.834   1.396   6.388  0.3711 -0.3313 -1.9439
 1920SOL    HW2 6660   1.710   1.483   6.449  2.0898  0.0796  1.2182
 1921SOL     OW 6661   0.896   3.561   5.088 -0.4240  0.3657 -0.3707
 1921SOL    HW1 6662   0.856   3.647   5.117  2.2942  1.2734  1.0112
 1921SOL    HW2 6663   0.953   3.576   5.007  0.5075  0.0364  0.2005
 1922SOL     OW 6664   1.670   3.728   0.225  0.1304 -0.6547  0.1611
 1922SOL    HW1 6665   1.680   3.809   0.167  0.5243 -0.0637  1.0108
 1922SOL    HW2 6666   1.759   3.682   0.232  0.3595 -0.1136  1.1139
 1923SOL     OW 6667   0.299   1.015   0.091  0.2027  0.2361 -0.0540
 1923SOL    HW1 6668   0.361   0.998   0.168 -0.2191  0.7641  0.4163
 1923SOL    HW2 6669   0.238   1.092   0.114  0.2062  0.5293 -1.0009
 1924SOL     OW 6670   6.116   1.776   6.634  0.6383 -0.4059  0.2987
 1924SOL    HW1 6671   6.151   1.712   6.702  1.8846  0.6971  0.7413
 1924SOL    HW2 6672   6.186   1.791   6.563  1.7423  2.7858  1.8520
 1925SOL     OW 6673   1.952   4.306   6.713  0.1112  0.5106  0.4886
 1925SOL    HW1 6674   2.014   4.298   6.636 -0.2769  1.6116  0.0414
 1925SOL    HW2 6675   1.859   4.322   6.680 -0.2267  0.0607  1.1742
 1926SOL     OW 6676   3.682   3.494   3.224  0.1367 -0.6831  0.2239
 1926SOL    HW1 6677   3.695   3.579   3.172  0.0614 -0.8434 -0.0583
 1926SOL    HW2 6678   3.657   3.420   3.162 -1.0426 -0.6400  0.6115
 1927SOL     OW 6679   6.817   5.163   6.615 -0.2127  0.0694  0.1913
 1927SOL    HW1 6680   6.857   5.228   6.551 -1.2016  1.5724  1.0379
 1927SOL    HW2 6681   6.867   5.168   6.702  0.4902 -1.2402 -0.1030
 1928SOL     OW 6682   3.468   5.463   4.549  0.2396  0.1914 -0.0459
 1928SOL    HW1 6683   3.471   5.548   4.497 -0.8233 -0.0070 -0.4578
 1928SOL    HW2 6684   3.423   5.478   4.636  1.7299  0.4488  0.7171
 1929SOL     OW 6685   6.590   4.666   5.496 -0.2050  0.7666 -0.4129
 1929SOL    HW1 6686   6.586   4.573   5.531 -2.5447  1.1096  0.4417
 1929SOL    HW2 6687   6.664   4.716   5.541  0.9670 -0.5860 -0.7616
 1930SOL     OW 6688   0.281   6.808   0.387 -0.0998  0.3099  0.0272
 1930SOL    HW1 6689   0.236   6.896   0.373  0.3269  0.3146 -1.5020
 1930SOL    HW2 6690   0.379   6.822   0.399 -0.0227  0.0510 -0.2789
 1931SOL     OW 6691   0.528   4.135   3.727  0.2860 -0.6215 -0.1536
 1931SOL    HW1 6692   0.529   4.214   3.666  1.3180 -1.5891 -1.4759
 1931SOL    HW2 6693   0.434   4.102   3.738 -0.1080  0.5475  0.1276
 1932SOL     OW 6694   3.512   2.982   5.984  0.4444 -0.3498  0.1362
 1932SOL    HW1 6695   3.578   2.967   5.910  0.6614  0.1467  0.2235
 1932SOL    HW2 6696   3.424   2.943   5.959  0.2615  0.6077 -0.7827
 1933SOL     OW 6697   4.789   2.408   0.933 -0.7309 -0.3274 -0.3191
 1933SOL    HW1 6698   4.789   2.399   1.033  0.0017 -2.5314 -0.4746
 1933SOL    HW2 6699   4.699   2.440   0.903 -1.7603 -1.9461  0.8932
 1934SOL     OW 6700   5.115   1.557   4.056  0.2781 -0.4675 -0.4276
 1934SOL    HW1 6701   5.212   1.576   4.075 -0.1595  1.2510  0.3291
 1934SOL    HW2 6702   5.080   1.494   4.125  1.0494 -1.8323 -1.2339
 1935SOL     OW 6703   4.823   6.100   3.604  0.1246 -0.1114  0.0466
 1935SOL    HW1 6704   4.787   6.037   3.536  0.7094  0.3586 -0.7116
 1935SOL    HW2 6705   4.915   6.071   3.631  1.6359  1.9648 -2.4766
 1936SOL     OW 6706   4.930   1.603   4.590  0.5165 -0.2411 -0.2201
 1936SOL    HW1 6707   4.939   1.588   4.688  0.2487 -0.5088 -0.2360
 1936SOL    HW2 6708   4.979   1.686   4.564  1.6752 -0.8565 -0.0693
 1937SOL     OW 6709   3.277   1.086   0.735  0.4863  0.2292 -0.8775
 1937SOL    HW1 6710   3.196   1.065   0.791  0.6298  0.9573 -0.3766
 1937SOL    HW2 6711   3.359   1.051   0.780  0.4614 -0.4880 -1.3740
 1938SOL     OW 6712   1.563   2.665   4.545  0.2877 -0.1404  0.1736
 1938SOL    HW1 6713   1.561   2.763   4.563  0.6250 -0.1049  0.0234
 1938SOL    HW2 6714   1.658   2.634   4.537  0.1959 -0.0719 -1.8532
 1939SOL     OW 6715   5.585   3.951   3.504  0.3427  0.0241 -0.4485
 1939SOL    HW1 6716   5.526   3.896   3.445 -0.3651  0.7248 -0.4019
 1939SOL    HW2 6717   5.538   3.969   3.591  0.7880  0.2448 -0.2509
 1940SOL     OW 6718   1.723   3.442   6.863 -0.5682  0.4990  0.3290
 1940SOL    HW1 6719   1.805   3.496   6.882 -0.7390  0.9505 -0.1861
 1940SOL    HW2 6720   1.713   3.371   6.933 -0.4460  1.2519  1.1260
 1941SOL     OW 6721   6.935   4.822   4.858 -0.1406 -0.2029 -0.2608
 1941SOL    HW1 6722   6.911   4.879   4.779  0.3961  0.1847 -0.1492
 1941SOL    HW2 6723   7.003   4.870   4.914 -0.7210 -0.3502  0.5896
 1942SOL     OW 6724   3.536   0.308   5.882  0.1713 -0.5764  0.0617
 1942SOL    HW1 6725   3.592   0.391   5.873  1.0249 -1.2970 -2.2399
 1942SOL    HW2 6726   3.494   0.306   5.972 -0.1178  2.4873  0.1315
 1943SOL     OW 6727   2.386   0.885   6.651 -0.0900 -0.6858 -0.5077
 1943SOL    HW1 6728   2.341   0.970   6.623  0.1600 -0.6406 -0.7755
 1943SOL    HW2 6729   2.446   0.853   6.577  0.6600 -0.5017  0.0098
 1944SOL     OW 6730   5.257   6.466   0.615  0.2282  0.1305 -0.3900
 1944SOL    HW1 6731   5.241   6.525   0.536  0.8956 -0.0838 -0.6916
 1944SOL    HW2 6732   5.186   6.483   0.684  0.0444  0.8234 -0.7381
 1945SOL     OW 6733   5.254   1.373   1.881 -0.4312  0.4530 -0.2620
 1945SOL    HW1 6734   5.298   1.449   1.834  0.3334 -0.5284 -1.1807
 1945SOL    HW2 6735   5.275   1.377   1.978  0.2189  0.9916 -0.4171
 1946SOL     OW 6736   6.099   4.853   1.710 -0.3232  0.0258 -0.3168
 1946SOL    HW1 6737   6.177   4.801   1.675  0.6156  0.7549  0.6061
 1946SOL    HW2 6738   6.133   4.929   1.766 -1.6878  0.9713 -0.7373
 1947SOL     OW 6739   6.497   3.008   2.866 -0.0470 -0.1225 -0.2511
 1947SOL    HW1 6740   6.504   2.915   2.831  3.1329 -0.2084  0.3723
 1947SOL    HW2 6741   6.477   3.071   2.791 -0.9228 -1.1125 -0.8859
 1948SOL     OW 6742   0.141   6.015   2.962 -1.0563 -0.0521  0.2333
 1948SOL    HW1 6743   0.107   6.023   2.869 -0.7759  2.7609  0.2874
 1948SOL    HW2 6744   0.226   6.067   2.972 -1.2016 -0.0906  2.1175
 1949SOL     OW 6745   4.036   5.528   1.445 -0.1067  0.1559 -0.2484
 1949SOL    HW1 6746   3.986   5.611   1.419  0.8684  0.6217 -0.7071
 1949SOL    HW2 6747   4.117   5.519   1.387  0.2793 -0.6377  0.3955
 1950SOL     OW 6748   6.522   5.192   3.896 -0.0605 -0.4822  0.0672
 1950SOL    HW1 6749   6.536   5.221   3.990 -0.9607  0.7227 -0.1463
 1950SOL    HW2 6750   6.431   5.152   3.887 -0.3777  0.3448 -0.4964
 1951SOL     OW 6751   4.933   2.765   5.341  0.2121  0.6315 -0.6390
 1951SOL    HW1 6752   4.939   2.859   5.374 -0.7209 -0.0936  1.8118
 1951SOL    HW2 6753   5.011   2.712   5.374  0.5187  0.4050 -1.6626
 1952SOL     OW 6754   2.810   3.956   1.198 -0.6231 -0.3419 -0.4651
 1952SOL    HW1 6755   2.872   3.943   1.275  0.4088 -1.7143 -1.4620
 1952SOL    HW2 6756   2.742   3.883   1.198 -2.2204  1.0776  0.5416
 1953SOL     OW 6757   4.096   1.388   0.674  0.1782 -0.0126 -0.3452
 1953SOL    HW1 6758   4.176   1.444   0.693  0.1874 -0.0282 -0.3383
 1953SOL    HW2 6759   4.058   1.413   0.585  1.1034 -1.0748 -1.0700
 1954SOL     OW 6760   1.483   5.240   3.665 -0.8113  0.2467  0.6516
 1954SOL    HW1 6761   1.534   5.198   3.590 -1.3043  1.1903 -0.2486
 1954SOL    HW2 6762   1.520   5.209   3.752  3.1562  2.8625  0.1543
 1955SOL     OW 6763   5.684   5.445   1.030  0.0166  0.5292  0.0863
 1955SOL    HW1 6764   5.616   5.511   1.062 -0.3820  0.8988 -1.4621
 1955SOL    HW2 6765   5.717   5.471   0.940 -0.5653 -1.6710 -0.8307
 1956SOL     OW 6766   0.311   1.723   4.457  0.3972  0.1026 -0.2432
 1956SOL    HW1 6767   0.247   1.748   4.529  0.5888  0.6916 -0.2723
 1956SOL    HW2 6768   0.263   1.679   4.382  0.0492  0.4194 -0.2054
 1957SOL     OW 6769   5.206   7.001   1.942  0.0866 -0.5382 -0.0472
 1957SOL    HW1 6770   5.186   6.980   1.846  1.2261  1.3212 -0.7491
 1957SOL    HW2 6771   5.275   7.074   1.946 -0.2801 -0.2537  2.1946
 1958SOL     OW 6772   5.868   2.523   0.010 -0.3624 -0.6011 -0.1087
 1958SOL    HW1 6773   5.930   2.568  -0.055 -1.4241  2.6518  0.9291
 1958SOL    HW2 6774   5.811   2.457  -0.039  0.8106 -0.3562 -1.9091
 1959SOL     OW 6775   0.524   6.021   4.949  0.2493 -0.1058 -0.5748
 1959SOL    HW1 6776   0.472   6.081   5.010  0.6358 -1.8014  1.5618
 1959SOL    HW2 6777   0.600   6.072   4.908  1.3519  0.6692  2.1713
 1960SOL     OW 6778   5.776   2.682   0.663 -0.3168 -0.4576 -1.0648
 1960SOL    HW1 6779   5.755   2.776   0.636 -1.5003  0.3943  2.3027
 1960SOL    HW2 6780   5.704   2.621   0.632 -3.6126  1.0425  2.7747
 1961SOL     OW 6781   6.565   3.705   5.984  0.0057  0.1590  0.6023
 1961SOL    HW1 6782   6.571   3.803   6.002 -0.7976  0.1647  0.8901
 1961SOL    HW2 6783   6.656   3.664   5.991  0.2274  0.7529  1.2753
 1962SOL     OW 6784   3.226   5.466   3.774 -0.1870  0.1270 -0.3657
 1962SOL    HW1 6785   3.290   5.404   3.728  1.8825  2.4724 -0.8640
 1962SOL    HW2 6786   3.254   5.477   3.869  2.0882  3.3406 -1.2539
 1963SOL     OW 6787   3.931   2.075   5.643 -0.0597 -1.2133 -0.2319
 1963SOL    HW1 6788   3.865   2.001   5.647  1.2788 -2.4192  1.4597
 1963SOL    HW2 6789   4.007   2.050   5.583 -1.2065  0.3020 -2.4435
 1964SOL     OW 6790   4.765   0.962   3.795  0.3380  0.3670  0.2684
 1964SOL    HW1 6791   4.842   1.021   3.771  0.9976  0.0481  1.5059
 1964SOL    HW2 6792   4.756   0.889   3.727  1.2008  0.3427  0.1702
 1965SOL     OW 6793   4.290   5.778   4.815 -0.0482  0.5446  0.3182
 1965SOL    HW1 6794   4.310   5.723   4.896 -0.5695 -1.3524 -0.7807
 1965SOL    HW2 6795   4.360   5.762   4.746 -0.3140  1.1431 -0.0980
 1966SOL     OW 6796   2.714   4.682   1.291  0.3984 -0.6949  0.3640
 1966SOL    HW1 6797   2.740   4.735   1.210 -0.9103  2.1217  1.6460
 1966SOL    HW2 6798   2.710   4.585   1.267  1.6414 -0.1587 -2.4853
 1967SOL     OW 6799   1.410   4.606   4.941 -0.0794  0.4844 -0.7994
 1967SOL    HW1 6800   1.358   4.647   4.866 -3.3691  2.5163  2.2850
 1967SOL    HW2 6801   1.466   4.676   4.984 -3.6128  1.5047  2.7654
 1968SOL     OW 6802   3.176   3.474   5.900 -0.1442 -0.1457 -0.4745
 1968SOL    HW1 6803   3.183   3.424   5.986  1.4751  2.4006  1.0166
 1968SOL    HW2 6804   3.115   3.552   5.912  1.1208  1.0018 -1.1741
 1969SOL     OW 6805   2.925   1.455   2.381 -0.6554  0.1039 -0.1571
 1969SOL    HW1 6806   2.865   1.426   2.307 -0.6532 -0.7333  0.1662
 1969SOL    HW2 6807   2.966   1.543   2.357 -0.0532 -0.5107 -1.4993
 1970SOL     OW 6808   2.267   0.031   5.055  0.3698  0.1356 -0.4329
 1970SOL    HW1 6809   2.224   0.108   5.102 -1.0251  1.4519 -3.5586
 1970SOL    HW2 6810   2.367   0.039   5.063  0.2260  1.6162  0.2492
 1971SOL     OW 6811   1.668   1.109   5.395 -0.1056 -0.3344  0.3097
 1971SOL    HW1 6812   1.693   1.203   5.418  0.0107 -0.8037  2.3172
 1971SOL    HW2 6813   1.719   1.080   5.314 -0.3304  1.3850 -0.4920
 1972SOL     OW 6814   4.437   5.901   3.122  0.2091 -0.0656 -0.2787
 1972SOL    HW1 6815   4.406   5.807   3.139 -0.2361 -0.1056 -1.2183
 1972SOL    HW2 6816   4.376   5.965   3.169  0.2608 -0.2324  0.0181
 1973SOL     OW 6817   5.915   5.434   4.654  0.2499  0.4175 -0.2975
 1973SOL    HW1 6818   5.894   5.357   4.713  0.5788 -0.7011 -1.5888
 1973SOL    HW2 6819   6.012   5.455   4.659  0.2803  0.3134 -0.4417
 1974SOL     OW 6820   5.380   0.711   3.037  0.5611 -0.2434  0.3270
 1974SOL    HW1 6821   5.379   0.615   3.011 -1.7143 -0.4207  0.8213
 1974SOL    HW2 6822   5.473   0.740   3.056  1.3159 -2.2847 -0.0326
 1975SOL     OW 6823   6.435   6.102   2.710 -0.5122  0.6550 -0.0256
 1975SOL    HW1 6824   6.418   6.194   2.745 -2.7830  0.0160  0.7854
 1975SOL    HW2 6825   6.380   6.087   2.628  1.1596  0.5607 -1.1580
 1976SOL     OW 6826   2.964   0.230   5.677  0.1578 -0.4019  0.3377
 1976SOL    HW1 6827   2.885   0.169   5.672  0.7515 -1.0958 -1.4730
 1976SOL    HW2 6828   2.962   0.293   5.598  0.2368  1.1008  1.4850
 1977SOL     OW 6829   1.769   1.257   1.592 -0.2881  0.0218  0.1910
 1977SOL    HW1 6830   1.773   1.157   1.601  1.5171 -0.1037 -1.3442
 1977SOL    HW2 6831   1.727   1.281   1.504 -3.2528  0.7613  1.6725
 1978SOL     OW 6832   4.748   2.801   3.511  0.0603  0.8302 -0.0183
 1978SOL    HW1 6833   4.802   2.877   3.474 -1.4685  2.4212  0.8127
 1978SOL    HW2 6834   4.725   2.821   3.606 -1.2197 -0.2016 -0.0861
 1979SOL     OW 6835   2.582   0.832   6.479  0.1770  0.0321  0.5591
 1979SOL    HW1 6836   2.652   0.899   6.455  1.7513 -1.1543  1.6877
 1979SOL    HW2 6837   2.599   0.747   6.430 -0.1686 -0.4334  1.2338
 1980SOL     OW 6838   6.320   6.172   2.434 -0.3022 -0.0444  1.1302
 1980SOL    HW1 6839   6.394   6.136   2.377  0.8626  2.8996  0.6273
 1980SOL    HW2 6840   6.243   6.108   2.433  2.0444 -3.0982  1.4275
 1981SOL     OW 6841   2.039   1.798   3.115 -0.1074  0.3148 -0.3169
 1981SOL    HW1 6842   2.017   1.873   3.052 -1.2792 -0.2227 -0.5798
 1981SOL    HW2 6843   2.074   1.836   3.200  2.3421  1.0341 -1.5392
 1982SOL     OW 6844   1.306   1.362   3.943  0.0226  0.1293 -0.5368
 1982SOL    HW1 6845   1.256   1.276   3.927 -2.1830  0.7694  2.1685
 1982SOL    HW2 6846   1.369   1.350   4.020  0.4540  0.7017 -0.7914
 1983SOL     OW 6847   2.688   6.049   1.891  0.3303  0.4215 -0.0667
 1983SOL    HW1 6848   2.709   5.986   1.817 -0.1116 -1.7304  1.5539
 1983SOL    HW2 6849   2.590   6.063   1.897  0.4140  1.2104 -0.3281
 1984SOL     OW 6850   2.909   3.753   2.867 -0.1140 -0.1752 -0.5475
 1984SOL    HW1 6851   2.818   3.750   2.826 -0.5420  0.4797  0.3212
 1984SOL    HW2 6852   2.977   3.725   2.800 -0.9139 -0.2383 -1.3439
 1985SOL     OW 6853   6.553   1.828   4.508  0.1733 -0.0783  0.2020
 1985SOL    HW1 6854   6.497   1.794   4.432 -0.5998 -1.0218  1.1504
 1985SOL    HW2 6855   6.513   1.797   4.594  2.6513 -1.5770  0.9052
 1986SOL     OW 6856   3.177   2.063   5.518 -0.4160  0.0416 -0.3603
 1986SOL    HW1 6857   3.274   2.060   5.542 -0.5677  0.1696  0.2756
 1986SOL    HW2 6858   3.168   2.055   5.419  0.2740  0.5744 -0.4753
 1987SOL     OW 6859   6.017   0.194   2.870  0.0461 -0.4316  0.0001
 1987SOL    HW1 6860   6.011   0.270   2.936  0.9735 -1.1408  0.9518
 1987SOL    HW2 6861   5.996   0.228   2.779 -0.8115  0.6943  0.5828
 1988SOL     OW 6862   1.545   6.588   4.095  0.0565 -0.3793 -0.1201
 1988SOL    HW1 6863   1.591   6.671   4.063 -0.2287 -0.5108 -0.8791
 1988SOL    HW2 6864   1.514   6.534   4.017 -0.8019 -0.6234  0.3695
 1989SOL     OW 6865   5.426   4.220   5.659 -0.0718 -0.5099 -0.2401
 1989SOL    HW1 6866   5.422   4.159   5.580  0.8646 -0.7471 -0.1256
 1989SOL    HW2 6867   5.352   4.199   5.722 -0.7568 -0.3973 -0.9980
 1990SOL     OW 6868   4.706   4.697   2.008  0.0304  0.1245 -0.0122
 1990SOL    HW1 6869   4.635   4.626   2.006  0.3615 -0.2316 -1.9776
 1990SOL    HW2 6870   4.719   4.729   2.101 -0.7712 -1.7695  0.8123
 1991SOL     OW 6871   0.359   2.995   4.052 -0.5264 -0.4947  1.0541
 1991SOL    HW1 6872   0.426   2.968   4.121  1.5440  0.8804 -0.2922
 1991SOL    HW2 6873   0.328   2.915   4.002  2.7493 -0.9386 -0.5044
 1992SOL     OW 6874   5.401   6.667   3.860  0.3162  0.3674  0.0113
 1992SOL    HW1 6875   5.325   6.695   3.919  0.2222  1.0621 -0.4266
 1992SOL    HW2 6876   5.370   6.597   3.796 -0.3600  1.6697 -1.1285
 1993SOL     OW 6877   3.751   4.034   2.582  0.3521  0.2929 -0.3582
 1993SOL    HW1 6878   3.693   4.068   2.508 -0.3934 -0.1757  0.0056
 1993SOL    HW2 6879   3.717   4.068   2.670 -2.0439 -3.3657  0.3312
 1994SOL     OW 6880   2.335   3.850   5.846  0.8152  0.0382  0.0901
 1994SOL    HW1 6881   2.377   3.926   5.897 -0.9852  0.8892  0.3658
 1994SOL    HW2 6882   2.299   3.783   5.911 -1.2422  0.9899 -0.0165
 1995SOL     OW 6883   6.293   3.252   6.146 -0.1169  0.3058 -0.7513
 1995SOL    HW1 6884   6.227   3.325   6.165  0.5775  0.4580  1.2983
 1995SOL    HW2 6885   6.376   3.292   6.108 -0.3446  0.3724 -1.1896
 1996SOL     OW 6886   0.607   0.225   3.865 -0.0396  0.0727 -1.1979
 1996SOL    HW1 6887   0.631   0.128   3.865 -2.0252 -0.5482  1.7986
 1996SOL    HW2 6888   0.526   0.240   3.809 -0.0097 -0.0999 -1.2855
 1997SOL     OW 6889   0.534   5.936   5.726 -0.4307  0.3140  0.1118
 1997SOL    HW1 6890   0.582   6.023   5.730 -0.3252  0.2689 -0.1226
 1997SOL    HW2 6891   0.596   5.865   5.693 -0.3763  0.0450  0.7792
 1998SOL     OW 6892   4.082   5.802   3.559 -0.0666  0.1069  0.2607
 1998SOL    HW1 6893   4.095   5.845   3.648 -0.0021  0.6646 -0.0166
 1998SOL    HW2 6894   4.082   5.872   3.487 -1.2547 -0.2225 -0.0746
 1999SOL     OW 6895   3.867   1.188   6.669 -0.2530  0.0941 -0.0484
 1999SOL    HW1 6896   3.789   1.167   6.727 -0.1734  0.7437  0.3038
 1999SOL    HW2 6897   3.952   1.170   6.719 -0.1711 -0.5571 -0.4099
 2000SOL     OW 6898   5.612   4.860   5.575  0.1235  0.4069  0.1511
 2000SOL    HW1 6899   5.678   4.896   5.641 -0.2600 -0.0769  0.8111
 2000SOL    HW2 6900   5.539   4.811   5.624 -0.1067 -0.0565 -0.6363
 2001SOL     OW 6901   4.691   3.704   5.508 -0.1988 -0.2463 -0.3577
 2001SOL    HW1 6902   4.606   3.750   5.532 -0.6544 -2.2775  2.4426
 2001SOL    HW2 6903   4.762   3.729   5.573  0.8683 -0.0276 -1.5582
 2002SOL     OW 6904   2.477   2.968   6.823  0.4086  0.6049  0.1572
 2002SOL    HW1 6905   2.433   3.051   6.790  0.7382  1.0449  0.8090
 2002SOL    HW2 6906   2.510   2.982   6.917 -2.1552 -1.2016  1.4563
 2003SOL     OW 6907   4.843   6.712   4.276  0.1486 -0.2104 -0.1314
 2003SOL    HW1 6908   4.772   6.732   4.344  0.6943 -1.0308  0.7073
 2003SOL    HW2 6909   4.916   6.780   4.282 -0.6283  0.7364 -1.1143
 2004SOL     OW 6910   0.828   2.317   6.996  0.1066  0.5785 -0.4280
 2004SOL    HW1 6911   0.748   2.266   6.966  0.4344  0.8663 -1.8679
 2004SOL    HW2 6912   0.798   2.401   7.042 -0.4347 -0.8414  2.0349
 2005SOL     OW 6913   1.756   4.736   1.042  0.7998  0.1546 -0.2046
 2005SOL    HW1 6914   1.785   4.828   1.067  0.6138 -0.0106  0.6574
 2005SOL    HW2 6915   1.690   4.702   1.109  0.3158 -0.3317 -0.9117
 2006SOL     OW 6916   0.967   6.638   1.249 -0.1644  0.5368 -0.2123
 2006SOL    HW1 6917   0.976   6.540   1.233  0.5893  0.9386 -2.6622
 2006SOL    HW2 6918   1.057   6.677   1.271  0.2055  1.1260 -2.5130
 2007SOL     OW 6919   5.583   2.783   5.046  0.0476  0.0534  0.1755
 2007SOL    HW1 6920   5.606   2.760   4.952 -1.4731  2.0616 -0.7477
 2007SOL    HW2 6921   5.650   2.848   5.083 -0.8542  1.4275 -0.5260
 2008SOL     OW 6922   6.912   0.691   3.487  0.9548  0.1837  0.6890
 2008SOL    HW1 6923   6.815   0.690   3.507  1.0702 -0.3582  1.2406
 2008SOL    HW2 6924   6.958   0.758   3.546  0.9268  0.3916  0.4754
 2009SOL     OW 6925   2.788   6.492   4.003  0.8364  0.3854 -0.3024
 2009SOL    HW1 6926   2.821   6.449   4.087 -1.6003  0.1205  0.6073
 2009SOL    HW2 6927   2.688   6.483   3.999  0.6576  2.5107 -2.0548
 2010SOL     OW 6928   2.679   3.428   6.243  0.5030  0.1860  0.4156
 2010SOL    HW1 6929   2.679   3.496   6.317  0.7348  1.0666 -0.3776
 2010SOL    HW2 6930   2.685   3.337   6.283 -0.1205  0.5993  1.5232
 2011SOL     OW 6931   1.144   2.045   4.732  0.2720  0.2707 -0.2195
 2011SOL    HW1 6932   1.186   2.041   4.641 -0.8026 -1.4319 -0.6762
 2011SOL    HW2 6933   1.170   1.964   4.785  0.0942  0.7637  0.6461
 2012SOL     OW 6934   0.876   3.319   6.589  0.2375 -0.0378  0.4326
 2012SOL    HW1 6935   0.793   3.367   6.561  0.4932 -0.5487 -1.3359
 2012SOL    HW2 6936   0.854   3.252   6.661 -0.5918  0.8281  1.0063
 2013SOL     OW 6937   5.130   4.865   1.953  0.5338 -0.1407  0.6235
 2013SOL    HW1 6938   5.086   4.777   1.936  1.1743 -0.4784  0.6834
 2013SOL    HW2 6939   5.228   4.858   1.933  0.3883  0.8910 -0.5812
 2014SOL     OW 6940   3.241   2.148   2.368 -0.8927 -0.1969  0.4377
 2014SOL    HW1 6941   3.335   2.178   2.384 -1.0483 -0.8285  3.0704
 2014SOL    HW2 6942   3.185   2.171   2.448 -2.5751 -1.3664 -0.3451
 2015SOL     OW 6943   2.483   1.646   6.164 -0.6688  0.1728  0.5014
 2015SOL    HW1 6944   2.414   1.666   6.094  0.3867  1.0683 -0.3181
 2015SOL    HW2 6945   2.442   1.592   6.237 -2.7219  2.2240  0.9685
 2016SOL     OW 6946   1.221   4.286   3.411 -0.0228 -0.2322 -0.5745
 2016SOL    HW1 6947   1.272   4.334   3.483 -0.3139 -1.2906  0.3518
 2016SOL    HW2 6948   1.124   4.306   3.420  0.0417  0.5122 -1.3704
 2017SOL     OW 6949   2.731   2.278   6.489  0.8254 -0.1932 -0.2499
 2017SOL    HW1 6950   2.785   2.267   6.406  0.0126 -1.1371 -0.6683
 2017SOL    HW2 6951   2.744   2.199   6.549  2.7335  1.2223  1.3456
 2018SOL     OW 6952   4.850   0.128   0.314 -0.2465  0.4495  0.1468
 2018SOL    HW1 6953   4.851   0.222   0.348  1.0005  0.5812 -0.2106
 2018SOL    HW2 6954   4.919   0.118   0.242  1.5419 -1.3774  1.9665
 2019SOL     OW 6955   5.986   3.611   6.784  0.4649 -0.6130  0.6886
 2019SOL    HW1 6956   5.986   3.599   6.883  0.1394 -0.9445  0.6481
 2019SOL    HW2 6957   6.076   3.585   6.747  0.2300 -1.5786  0.7686
 2020SOL     OW 6958   3.277   3.198   4.458 -0.2082 -0.3180 -0.5415
 2020SOL    HW1 6959   3.274   3.277   4.396  1.0144  0.2331  0.0534
 2020SOL    HW2 6960   3.339   3.129   4.420 -0.5923 -0.6184 -0.6306
 2021SOL     OW 6961   4.664   6.945   4.910 -0.3648  0.4408 -0.2656
 2021SOL    HW1 6962   4.637   6.896   4.827 -1.0537 -0.2692  0.3515
 2021SOL    HW2 6963   4.582   6.970   4.962  0.0798 -0.3288  0.8574
 2022SOL     OW 6964   0.948   3.360   6.934 -0.4499 -0.2705 -0.4012
 2022SOL    HW1 6965   0.851   3.374   6.950 -1.0495 -2.3174 -1.9004
 2022SOL    HW2 6966   0.990   3.321   7.017 -1.1111 -0.3558 -0.1021
 2023SOL     OW 6967   4.774   2.757   1.600  0.0179 -0.0206 -0.0127
 2023SOL    HW1 6968   4.696   2.699   1.623  0.6023 -0.1578  1.8017
 2023SOL    HW2 6969   4.742   2.841   1.555 -1.0774 -0.4855 -0.1115
 2024SOL     OW 6970   2.548   5.369   4.718 -0.7293  0.3210 -0.0194
 2024SOL    HW1 6971   2.536   5.358   4.620  0.7143 -1.4703 -0.0543
 2024SOL    HW2 6972   2.633   5.419   4.735 -1.0671  0.7855  0.3260
 2025SOL     OW 6973   1.040   0.391   3.529  0.4438 -0.3545  0.2416
 2025SOL    HW1 6974   0.954   0.359   3.568 -0.6606  2.8020  0.7069
 2025SOL    HW2 6975   1.093   0.440   3.598  0.9005  0.8498 -0.9053
 2026SOL     OW 6976   5.222   1.862   5.956 -0.6278  1.2539 -0.1466
 2026SOL    HW1 6977   5.281   1.830   6.030 -1.0323 -0.6087 -0.5729
 2026SOL    HW2 6978   5.130   1.878   5.991 -1.1578 -0.8923 -0.4360
 2027SOL     OW 6979   1.595   3.279   0.640  0.9140  0.3828 -0.5448
 2027SOL    HW1 6980   1.640   3.357   0.684  0.4802  1.5051 -1.9997
 2027SOL    HW2 6981   1.574   3.210   0.709  1.7750  1.3145  0.7108
 2028SOL     OW 6982   5.909   2.800   1.150  0.0786  0.4205 -0.2249
 2028SOL    HW1 6983   5.864   2.711   1.147  0.2025  0.3711 -1.0034
 2028SOL    HW2 6984   5.892   2.849   1.064 -0.2850  1.2982  0.3340
 2029SOL     OW 6985   5.599   1.077   5.861 -0.3660  0.2654  0.9731
 2029SOL    HW1 6986   5.665   1.082   5.787 -1.3455  1.1313  0.1176
 2029SOL    HW2 6987   5.537   1.000   5.845 -0.0168 -0.1051  1.3872
 2030SOL     OW 6988   1.392   4.653   2.792 -0.2459  0.1943  0.3609
 2030SOL    HW1 6989   1.388   4.555   2.771  0.7488  0.4041 -0.9465
 2030SOL    HW2 6990   1.407   4.705   2.708 -1.4900  1.5581  0.9238
 2031SOL     OW 6991   3.551   2.031   3.049 -0.0174  0.2971 -0.1024
 2031SOL    HW1 6992   3.517   2.086   2.973 -1.2619  1.0115  0.9399
 2031SOL    HW2 6993   3.502   1.944   3.051 -0.9903  0.8402  0.6796
 2032SOL     OW 6994   1.039   1.222   5.425 -0.4245 -0.5133 -0.9252
 2032SOL    HW1 6995   1.047   1.322   5.419  1.2777 -0.5671 -0.2175
 2032SOL    HW2 6996   0.942   1.197   5.429 -0.8787  1.1419 -0.5296
 2033SOL     OW 6997   6.760   2.286   4.632 -0.2498 -0.2007  0.3747
 2033SOL    HW1 6998   6.694   2.236   4.575 -0.6746  1.4595 -0.6909
 2033SOL    HW2 6999   6.719   2.306   4.721 -0.8126 -0.0723  0.0940
 2034SOL     OW 7000   4.278   2.124   5.982 -0.1865 -0.5383 -0.1814
 2034SOL    HW1 7001   4.347   2.085   6.043  0.0100  0.2097  0.0799
 2034SOL    HW2 7002   4.271   2.067   5.900 -0.8540 -1.8684  0.7575
 2035SOL     OW 7003   5.821   2.757   0.169  0.2184  0.0891 -0.0517
 2035SOL    HW1 7004   5.859   2.694   0.101  0.0594 -0.2512  0.1739
 2035SOL    HW2 7005   5.860   2.737   0.259  0.7442  0.8093 -0.1121
 2036SOL     OW 7006   6.643   4.256   1.783 -0.0199 -0.2196  0.8881
 2036SOL    HW1 7007   6.631   4.328   1.714  0.8936 -1.6519 -0.8567
 2036SOL    HW2 7008   6.619   4.292   1.873  0.1504  2.1657  0.0586
 2037SOL     OW 7009   5.140   3.075   0.293 -0.2389 -0.9357  0.8038
 2037SOL    HW1 7010   5.106   2.997   0.345 -1.1293 -0.8184  0.4225
 2037SOL    HW2 7011   5.072   3.149   0.295  1.0092  0.2528  2.0219
 2038SOL     OW 7012   6.295   5.421   2.408  0.4336 -0.2851 -0.2098
 2038SOL    HW1 7013   6.231   5.381   2.343  0.0364 -0.5654  0.3499
 2038SOL    HW2 7014   6.374   5.457   2.359 -0.5823  0.9476 -1.0173
 2039SOL     OW 7015   4.300   0.097   3.609  0.0796 -0.1422  0.0957
 2039SOL    HW1 7016   4.356   0.031   3.560  0.5922 -0.6058  1.2502
 2039SOL    HW2 7017   4.288   0.066   3.704 -0.3961  0.9967  0.4260
 2040SOL     OW 7018   2.740   3.143   0.905  0.3497 -0.1693 -0.0611
 2040SOL    HW1 7019   2.702   3.142   0.998  2.3690  0.1840  0.8193
 2040SOL    HW2 7020   2.736   3.051   0.867  0.6410 -0.5796  0.8680
 2041SOL     OW 7021   0.026   1.728   0.008  0.2843  0.3373 -0.5907
 2041SOL    HW1 7022   0.035   1.819  -0.033  0.3952  0.7943  0.4177
 2041SOL    HW2 7023  -0.058   1.724   0.061  0.8048  0.2170  0.2469
 2042SOL     OW 7024   1.808   5.035   0.999 -0.4504  0.7380 -0.4790
 2042SOL    HW1 7025   1.731   5.062   0.942 -1.0919  2.3555  1.0433
 2042SOL    HW2 7026   1.860   5.117   1.024  0.7851 -0.1327 -0.1084
 2043SOL     OW 7027   5.632   5.493   2.964  0.4217 -0.1366 -0.0976
 2043SOL    HW1 7028   5.675   5.584   2.962 -1.7486  0.9761 -2.4110
 2043SOL    HW2 7029   5.565   5.487   2.890  0.7013 -3.7936 -0.1939
 2044SOL     OW 7030   5.621   6.657   4.322 -0.3347  0.2926  0.1031
 2044SOL    HW1 7031   5.530   6.650   4.365 -1.0552  0.2258 -1.3854
 2044SOL    HW2 7032   5.614   6.633   4.225  1.3407  0.0204  0.0266
 2045SOL     OW 7033   1.117   1.975   3.296  0.0795 -0.3465  0.4273
 2045SOL    HW1 7034   1.078   2.040   3.232 -0.5402 -0.4741  0.6671
 2045SOL    HW2 7035   1.091   1.882   3.270  0.0109 -0.4141  0.7326
 2046SOL     OW 7036   3.039   0.842   6.440  0.2309 -0.3941  0.1468
 2046SOL    HW1 7037   3.116   0.796   6.397  1.8229 -0.7642  3.1339
 2046SOL    HW2 7038   3.072   0.909   6.506 -1.7940 -2.2353  3.3172
 2047SOL     OW 7039   0.817   2.637   3.146 -0.0831 -0.1633 -0.1050
 2047SOL    HW1 7040   0.797   2.691   3.228  1.3127 -1.7785  1.3876
 2047SOL    HW2 7041   0.916   2.631   3.134 -0.2108 -2.1032 -0.3989
 2048SOL     OW 7042   2.099   2.709   4.669  0.1467 -0.1573  0.4448
 2048SOL    HW1 7043   2.040   2.731   4.591  0.9569 -1.6570 -0.6469
 2048SOL    HW2 7044   2.049   2.725   4.754 -1.9425 -1.5715 -0.4282
 2049SOL     OW 7045   4.496   5.665   4.658  0.2307 -0.1484  0.0638
 2049SOL    HW1 7046   4.517   5.569   4.675 -1.3162 -0.2991  1.2937
 2049SOL    HW2 7047   4.541   5.694   4.573  2.3651 -1.3679  0.7066
 2050SOL     OW 7048   1.511   6.926   3.190 -0.9611 -1.0563  0.2877
 2050SOL    HW1 7049   1.533   6.833   3.159  1.2490 -0.0685 -1.4761
 2050SOL    HW2 7050   1.429   6.958   3.143  0.3037 -0.9055 -1.9826
 2051SOL     OW 7051   4.889   6.512   4.566 -0.4674  0.3396  0.0565
 2051SOL    HW1 7052   4.877   6.471   4.476 -0.0311  0.6384 -0.1445
 2051SOL    HW2 7053   4.848   6.454   4.636 -0.0802 -0.3111 -0.2483
 2052SOL     OW 7054   4.888   4.701   3.447  0.5247  0.3871 -0.2640
 2052SOL    HW1 7055   4.856   4.719   3.354  2.1494 -0.1517 -0.9691
 2052SOL    HW2 7056   4.933   4.782   3.484  0.0485  0.5399 -0.0091
 2053SOL     OW 7057   5.244   0.981   5.930  0.0569 -0.5042 -0.1363
 2053SOL    HW1 7058   5.228   0.976   6.029  0.7859 -1.1851 -0.0405
 2053SOL    HW2 7059   5.157   0.994   5.883 -0.4110 -1.0632  0.5481
 2054SOL     OW 7060   2.870   1.057   3.187 -0.4411  0.3545  0.1154
 2054SOL    HW1 7061   2.869   1.150   3.224 -1.8841 -0.3205  1.8833
 2054SOL    HW2 7062   2.942   1.004   3.232  1.7055  1.0236 -2.2319
 2055SOL     OW 7063   6.812   4.500   1.295 -0.3356 -0.0903  0.0865
 2055SOL    HW1 7064   6.839   4.407   1.320 -3.0288 -1.2290 -0.8643
 2055SOL    HW2 7065   6.795   4.505   1.196  0.5299  1.6520 -0.0131
 2056SOL     OW 7066   6.002   2.192   4.390 -0.4059  0.4070  0.0250
 2056SOL    HW1 7067   6.085   2.205   4.335 -0.0658  0.4296  0.5368
 2056SOL    HW2 7068   5.922   2.198   4.331 -0.0630  0.7974 -0.4120
 2057SOL     OW 7069   4.827   2.133   1.979 -0.5437 -0.1924  0.2244
 2057SOL    HW1 7070   4.901   2.172   2.035 -1.9695  0.6352  1.6125
 2057SOL    HW2 7071   4.807   2.041   2.010  0.2943 -0.6537 -0.5636
 2058SOL     OW 7072   2.643   4.786   6.666 -0.2353 -0.4663 -0.6747
 2058SOL    HW1 7073   2.646   4.697   6.619 -3.2261 -0.4250 -1.1497
 2058SOL    HW2 7074   2.605   4.855   6.605  0.0323  0.6708  0.3969
 2059SOL     OW 7075   2.107   3.540   6.121 -0.6938 -0.1335  0.6360
 2059SOL    HW1 7076   2.142   3.631   6.100 -0.7452 -0.1119  0.6445
 2059SOL    HW2 7077   2.017   3.527   6.079 -2.3084  1.0901  3.4073
 2060SOL     OW 7078   2.056   2.682   1.129  0.6202 -0.0855  0.0305
 2060SOL    HW1 7079   2.137   2.723   1.088  1.1360 -0.4500  0.6735
 2060SOL    HW2 7080   1.975   2.735   1.102  0.8789 -0.5630 -1.7990
 2061SOL     OW 7081   0.060   2.021   6.872 -0.0102  0.1675  0.2506
 2061SOL    HW1 7082   0.111   2.105   6.856  0.1534 -0.3449 -2.2990
 2061SOL    HW2 7083  -0.038   2.040   6.869  0.0263  0.4039  0.5463
 2062SOL     OW 7084   3.630   0.859   1.625  0.6729  0.4833  0.6043
 2062SOL    HW1 7085   3.660   0.885   1.716  1.8659  0.9156  0.1113
 2062SOL    HW2 7086   3.707   0.864   1.561 -0.0013 -0.3527 -0.3228
 2063SOL     OW 7087   5.301   4.653   0.742  0.8826  0.0094  0.3399
 2063SOL    HW1 7088   5.282   4.743   0.779 -0.3056  0.2100 -0.6616
 2063SOL    HW2 7089   5.380   4.657   0.680  0.3012  0.5718 -0.3854
 2064SOL     OW 7090   0.529   3.373   5.413  0.3927 -0.6325 -0.1077
 2064SOL    HW1 7091   0.435   3.367   5.378 -0.0075 -1.5146  1.0569
 2064SOL    HW2 7092   0.557   3.284   5.449  2.1318 -0.7004 -1.4952
 2065SOL     OW 7093   6.721   4.705   4.989 -0.2635 -0.5971  0.0763
 2065SOL    HW1 7094   6.795   4.766   4.957  0.2396 -0.5518  1.2856
 2065SOL    HW2 7095   6.647   4.760   5.028  0.4464 -0.7438  1.7070
 2066SOL     OW 7096   4.881   5.069   6.888 -0.3423 -0.1732 -0.4751
 2066SOL    HW1 7097   4.842   4.977   6.887  0.1901 -0.7062  4.2449
 2066SOL    HW2 7098   4.814   5.134   6.924  0.6155  0.3864  0.3827
 2067SOL     OW 7099   3.553   5.163   6.377  0.0459 -0.6030 -0.2457
 2067SOL    HW1 7100   3.540   5.177   6.279  0.7362  0.9593 -0.1476
 2067SOL    HW2 7101   3.464   5.158   6.422 -0.4224  3.3737 -0.3995
 2068SOL     OW 7102   4.514   6.786   6.517  0.4113 -0.6797 -0.8131
 2068SOL    HW1 7103   4.607   6.750   6.529 -0.0542 -1.1851  1.6615
 2068SOL    HW2 7104   4.471   6.797   6.606 -2.3111 -1.4768 -1.9424
 2069SOL     OW 7105   3.593   2.127   5.800 -0.4849 -0.0370 -0.4438
 2069SOL    HW1 7106   3.499   2.159   5.811 -0.9175 -0.9648 -1.2739
 2069SOL    HW2 7107   3.643   2.188   5.738 -0.2435  0.9877  0.7286
 2070SOL     OW 7108   4.221   0.601   5.602 -0.4123 -0.1943  0.0102
 2070SOL    HW1 7109   4.197   0.675   5.665  2.2336 -1.0737  2.2278
 2070SOL    HW2 7110   4.221   0.636   5.508 -1.0476  2.1089  0.8034
 2071SOL     OW 7111   2.964   0.628   1.344 -0.2127 -0.3011  0.3760
 2071SOL    HW1 7112   2.943   0.624   1.246 -1.9791 -2.6424  0.7585
 2071SOL    HW2 7113   2.929   0.714   1.382  0.0727  0.4268 -0.9341
 2072SOL     OW 7114   2.042   5.377   3.708  0.4476 -0.4989  0.1972
 2072SOL    HW1 7115   2.087   5.445   3.650  0.7862  0.5598  1.6584
 2072SOL    HW2 7116   1.948   5.363   3.675  0.2438  0.9674  0.0713
 2073SOL     OW 7117   2.108   1.913   4.058  0.2400  0.5563  0.0551
 2073SOL    HW1 7118   2.194   1.913   4.108  0.1158  0.8703  0.2698
 2073SOL    HW2 7119   2.056   1.996   4.080 -0.2852  0.1878  0.2186
 2074SOL     OW 7120   5.183   4.630   4.035 -0.2769  0.4351 -0.7206
 2074SOL    HW1 7121   5.217   4.558   4.096  0.4878  0.1333 -1.4855
 2074SOL    HW2 7122   5.138   4.701   4.090 -1.9001 -1.0399  0.0013
 2075SOL     OW 7123   3.514   1.764   4.780  0.4560  0.2543  0.2413
 2075SOL    HW1 7124   3.454   1.721   4.847 -1.2329 -0.7925 -1.8366
 2075SOL    HW2 7125   3.489   1.860   4.770 -0.0384  0.1306  0.2836
 2076SOL     OW 7126   4.305   0.346   3.788  0.0401  0.8039 -0.0730
 2076SOL    HW1 7127   4.318   0.311   3.695 -0.0672 -0.2512  0.2982
 2076SOL    HW2 7128   4.376   0.309   3.848 -1.3772 -0.6221  0.8059
 2077SOL     OW 7129   0.097   0.169   4.877 -0.5073  0.3330 -0.1795
 2077SOL    HW1 7130   0.145   0.165   4.965 -0.8853  0.7255  0.0492
 2077SOL    HW2 7131   0.077   0.264   4.854 -1.6484  0.1610  0.0037
 2078SOL     OW 7132   6.279   2.715   1.719 -0.3359 -0.3100  0.2253
 2078SOL    HW1 7133   6.224   2.757   1.791 -1.0749  0.2926 -0.6611
 2078SOL    HW2 7134   6.218   2.674   1.651  0.3610 -1.5709  0.3356
 2079SOL     OW 7135   5.148   4.346   5.469  0.0212 -0.0189  0.5002
 2079SOL    HW1 7136   5.216   4.276   5.450  2.6496  2.4666  0.1970
 2079SOL    HW2 7137   5.103   4.325   5.557  1.8541 -1.2141  1.2074
 2080SOL     OW 7138   3.707   5.758   5.665  0.6184 -0.4903 -0.4576
 2080SOL    HW1 7139   3.613   5.793   5.674  0.0749 -1.7257 -1.1319
 2080SOL    HW2 7140   3.766   5.831   5.629 -1.0504 -0.8259 -4.4585
 2081SOL     OW 7141   3.394   6.624   4.726  0.7336  0.0602  0.0044
 2081SOL    HW1 7142   3.381   6.648   4.822 -0.4853 -0.5395  0.0055
 2081SOL    HW2 7143   3.443   6.537   4.719  2.2917  0.8999  0.0386
 2082SOL     OW 7144   6.995   6.427   2.064  0.3797 -0.2054 -0.1439
 2082SOL    HW1 7145   6.952   6.352   2.114  0.3404 -0.8149 -1.0613
 2082SOL    HW2 7146   6.932   6.504   2.058  0.4141 -0.0947  0.7948
 2083SOL     OW 7147   1.580   0.455   6.549  0.1469  0.0178  0.0412
 2083SOL    HW1 7148   1.500   0.465   6.490  0.5443 -2.4004 -1.0606
 2083SOL    HW2 7149   1.565   0.377   6.611  1.2411  0.1801  0.5286
 2084SOL     OW 7150   1.605   4.470   3.989 -0.0136 -0.8103 -0.2374
 2084SOL    HW1 7151   1.549   4.538   4.036 -0.3931 -0.5773 -0.9977
 2084SOL    HW2 7152   1.678   4.439   4.049 -0.7651 -0.8831  0.6651
 2085SOL     OW 7153   3.364   1.467   6.157  0.3841  0.5002 -0.5124
 2085SOL    HW1 7154   3.310   1.501   6.233  0.9855  0.4573 -0.0592
 2085SOL    HW2 7155   3.306   1.412   6.097  0.4160 -1.6494  1.2868
 2086SOL     OW 7156   2.369   1.454   1.138  0.4622 -0.4543 -0.4025
 2086SOL    HW1 7157   2.363   1.534   1.078  2.1602  0.6015  0.7426
 2086SOL    HW2 7158   2.278   1.416   1.153 -0.2987  0.8664 -1.4845
 2087SOL     OW 7159   6.195   0.392   6.600  0.2567 -0.4005  0.2933
 2087SOL    HW1 7160   6.187   0.439   6.688 -1.3732  0.8107 -0.4615
 2087SOL    HW2 7161   6.111   0.404   6.547  0.9164 -1.7236 -1.1569
 2088SOL     OW 7162   6.954   1.086   1.509 -0.1108 -0.8246 -0.0252
 2088SOL    HW1 7163   6.963   1.185   1.499  2.9267 -0.9811  0.3536
 2088SOL    HW2 7164   6.936   1.065   1.605  0.6288 -0.6762  0.1535
 2089SOL     OW 7165   5.408   2.126   6.169  0.4668  0.0118 -0.0101
 2089SOL    HW1 7166   5.325   2.153   6.119  1.0790  0.8911 -0.5892
 2089SOL    HW2 7167   5.485   2.121   6.105  0.5315 -2.6286  0.1615
 2090SOL     OW 7168   0.285   3.387   5.268  0.3899  0.3651 -0.3400
 2090SOL    HW1 7169   0.227   3.308   5.247  2.5003 -0.8956 -1.8842
 2090SOL    HW2 7170   0.302   3.439   5.184 -0.3182  2.0389  0.5113
 2091SOL     OW 7171   0.163   4.932   1.262  0.0874 -0.0188 -0.0660
 2091SOL    HW1 7172   0.203   4.866   1.198  0.3859  0.6914 -0.6399
 2091SOL    HW2 7173   0.120   5.006   1.210  1.8993  1.5118  0.4933
 2092SOL     OW 7174   2.221   5.882   6.339  0.1643 -0.5653 -0.2484
 2092SOL    HW1 7175   2.200   5.978   6.321  1.6519 -0.3245 -0.7765
 2092SOL    HW2 7176   2.298   5.853   6.283  0.0916 -1.9255  0.3106
 2093SOL     OW 7177   2.928   5.767   1.884 -0.3669  0.3267  0.1074
 2093SOL    HW1 7178   2.986   5.697   1.924  1.4405  2.8932  2.3457
 2093SOL    HW2 7179   2.835   5.759   1.921 -0.7482 -1.9324 -1.1499
 2094SOL     OW 7180   0.066   6.048   0.413  0.1751  0.0650  0.3844
 2094SOL    HW1 7181   0.023   5.986   0.347 -1.2145 -0.7529  1.9562
 2094SOL    HW2 7182   0.064   6.005   0.504 -0.3606  2.2010  1.4451
 2095SOL     OW 7183   1.079   6.145   0.828  0.2333 -1.1195  0.2908
 2095SOL    HW1 7184   1.146   6.209   0.865  0.6867 -0.8868 -0.8758
 2095SOL    HW2 7185   1.087   6.057   0.873 -0.2593 -0.4285  1.7839
 2096SOL     OW 7186   1.759   1.192   3.345  0.4510  0.0979 -0.5248
 2096SOL    HW1 7187   1.809   1.111   3.374  2.9305  0.6972 -2.6842
 2096SOL    HW2 7188   1.666   1.167   3.318  1.0435 -1.9717 -0.8153
 2097SOL     OW 7189   2.061   3.041   6.388  0.0850 -0.3214 -0.4857
 2097SOL    HW1 7190   2.141   3.100   6.389 -0.7610  0.9267 -1.6257
 2097SOL    HW2 7191   1.994   3.077   6.322 -1.6035 -1.0410  0.7428
 2098SOL     OW 7192   5.724   0.645   4.969 -0.1484  0.2253 -0.2333
 2098SOL    HW1 7193   5.772   0.693   4.896  0.8836 -1.5139 -0.7449
 2098SOL    HW2 7194   5.783   0.637   5.049 -1.5914  2.9600  1.2444
 2099SOL     OW 7195   1.438   7.020   2.235  0.5864  0.2344 -0.3769
 2099SOL    HW1 7196   1.521   6.969   2.211  0.7495  0.1105  0.4174
 2099SOL    HW2 7197   1.384   6.967   2.301  0.6382  0.9742  0.2738
 2100SOL     OW 7198   1.375   2.493   1.415  0.3610  0.2589 -0.3913
 2100SOL    HW1 7199   1.455   2.473   1.359 -0.7846  0.9126 -2.3758
 2100SOL    HW2 7200   1.380   2.587   1.450  0.3954  0.3589 -0.6632
 2101SOL     OW 7201   1.871   3.831   2.058 -0.1040 -0.0445  0.5605
 2101SOL    HW1 7202   1.807   3.893   2.013  0.4004 -0.6474 -1.0730
 2101SOL    HW2 7203   1.951   3.818   2.000  0.3042 -1.3522  1.3699
 2102SOL     OW 7204   2.398   2.594   4.097  0.0662  0.0823 -0.7541
 2102SOL    HW1 7205   2.371   2.629   4.008 -0.0701  0.7719 -0.4440
 2102SOL    HW2 7206   2.394   2.667   4.165  0.1657 -0.4359 -0.1794
 2103SOL     OW 7207   3.878   6.006   3.139 -0.4394 -0.0108  1.2186
 2103SOL    HW1 7208   3.827   6.071   3.194 -2.5088  0.0703 -0.6569
 2103SOL    HW2 7209   3.917   6.053   3.059 -0.2018 -0.6799  0.9332
 2104SOL     OW 7210   0.474   5.662   5.856  0.0580 -0.0328  0.2610
 2104SOL    HW1 7211   0.501   5.722   5.931  0.1051  0.1538  0.0956
 2104SOL    HW2 7212   0.382   5.687   5.825  0.5364  0.7163 -0.5802
 2105SOL     OW 7213   4.190   5.619   2.694 -0.0313  0.0146  0.0774
 2105SOL    HW1 7214   4.239   5.690   2.744 -2.3576  2.1619 -0.5221
 2105SOL    HW2 7215   4.190   5.534   2.747  1.2649  0.9490  1.6452
 2106SOL     OW 7216   3.843   0.848   4.285  0.1171  0.8295  0.2147
 2106SOL    HW1 7217   3.784   0.803   4.352 -0.1282  0.5780 -0.1667
 2106SOL    HW2 7218   3.830   0.806   4.195 -0.5052  2.0056 -0.2643
 2107SOL     OW 7219   4.192   5.511   1.213  0.4598  0.1804 -0.0003
 2107SOL    HW1 7220   4.267   5.569   1.246  2.4326 -2.2042 -0.0384
 2107SOL    HW2 7221   4.228   5.443   1.150 -2.0220 -0.1950 -1.1241
 2108SOL     OW 7222   1.769   6.708   0.701 -0.2358  0.1494 -0.0880
 2108SOL    HW1 7223   1.743   6.612   0.697  1.6618 -0.4497  0.6708
 2108SOL    HW2 7224   1.836   6.728   0.630 -0.6260  0.9111 -0.2469
 2109SOL     OW 7225   6.786   1.587   6.852  0.7314  0.1035  0.1434
 2109SOL    HW1 7226   6.823   1.506   6.807 -1.6191 -0.5642 -0.7051
 2109SOL    HW2 7227   6.808   1.583   6.950  1.5469 -1.0319 -0.0656
 2110SOL     OW 7228   7.000   1.712   2.592 -0.1803  0.1368  0.1464
 2110SOL    HW1 7229   6.998   1.812   2.591 -1.7510  0.1543  1.3809
 2110SOL    HW2 7230   7.093   1.681   2.606  0.3919  1.4077 -0.6199
 2111SOL     OW 7231   0.484   1.765   6.060  0.2967 -0.4780 -0.1370
 2111SOL    HW1 7232   0.473   1.865   6.056 -0.5602 -0.5004  1.2600
 2111SOL    HW2 7233   0.579   1.742   6.037  0.6093  0.6894 -0.0939
 2112SOL     OW 7234   5.997   0.560   4.762  0.2268 -0.4029  0.5661
 2112SOL    HW1 7235   6.014   0.637   4.824 -0.0998  0.4384 -0.3639
 2112SOL    HW2 7236   5.921   0.505   4.797 -0.4719  0.5090  0.5388
 2113SOL     OW 7237   0.170   0.849   5.526 -0.4691 -0.2533 -0.1344
 2113SOL    HW1 7238   0.147   0.756   5.554  0.1885 -0.6332 -0.8302
 2113SOL    HW2 7239   0.242   0.885   5.586  0.9751 -1.0853 -1.3264
 2114SOL     OW 7240   6.354   6.019   1.671  0.0902 -0.1220  0.0607
 2114SOL    HW1 7241   6.428   5.966   1.630  0.2211  0.5453 -0.5919
 2114SOL    HW2 7242   6.272   6.010   1.615 -0.3262 -0.8136  0.7508
 2115SOL     OW 7243   0.888   6.118   5.370 -0.1557 -0.4486 -0.3342
 2115SOL    HW1 7244   0.804   6.109   5.317 -0.7443  1.0022  0.2881
 2115SOL    HW2 7245   0.957   6.165   5.315  0.1753 -1.4312 -0.7651
 2116SOL     OW 7246   4.927   6.978   5.026  0.4416 -0.2429  0.6770
 2116SOL    HW1 7247   4.860   6.975   4.952  4.3453  0.1260 -3.2658
 2116SOL    HW2 7248   4.928   7.070   5.066 -0.4657  0.1157 -0.0837
 2117SOL     OW 7249   2.309   2.757   0.583 -0.6580  0.2059  0.3900
 2117SOL    HW1 7250   2.324   2.854   0.560  1.2726 -0.0835  0.2918
 2117SOL    HW2 7251   2.336   2.700   0.505 -0.3206 -0.4912  1.0140
 2118SOL     OW 7252   2.807   5.245   1.474  0.4523 -0.4173 -0.3700
 2118SOL    HW1 7253   2.760   5.204   1.396  0.3195 -0.3202 -0.3411
 2118SOL    HW2 7254   2.743   5.301   1.526  0.9772  1.1179 -1.3037
 2119SOL     OW 7255   1.201   1.398   4.479 -0.3129  0.2998  0.2206
 2119SOL    HW1 7256   1.122   1.374   4.423 -0.4416  1.0592  0.0708
 2119SOL    HW2 7257   1.280   1.418   4.420  0.1789 -1.0587  0.3856
 2120SOL     OW 7258   2.858   4.633   5.684  0.1309  0.6551  0.0655
 2120SOL    HW1 7259   2.906   4.689   5.616  0.1056  1.9727  1.1063
 2120SOL    HW2 7260   2.922   4.607   5.756 -0.5765  2.1399  1.2883
 2121SOL     OW 7261   0.103   1.407   6.382  0.1541  0.4556 -0.1836
 2121SOL    HW1 7262   0.052   1.454   6.310  0.2523 -0.9001 -1.1635
 2121SOL    HW2 7263   0.200   1.405   6.358  0.0700 -0.7989 -0.4888
 2122SOL     OW 7264   3.120   0.468   2.536 -0.7025  0.0130  0.0595
 2122SOL    HW1 7265   3.164   0.538   2.592 -0.4751  1.2735 -1.6115
 2122SOL    HW2 7266   3.076   0.512   2.457 -0.7411 -1.7290 -0.9263
 2123SOL     OW 7267   4.655   0.953   1.518 -0.2270 -0.0371  0.0443
 2123SOL    HW1 7268   4.595   0.960   1.438 -0.2252 -0.7536 -0.0241
 2123SOL    HW2 7269   4.602   0.925   1.598 -0.0506 -0.3088  0.0675
 2124SOL     OW 7270   0.906   4.913   0.533 -0.0183 -0.6241  0.3223
 2124SOL    HW1 7271   0.975   4.946   0.469 -1.3084  1.8452  0.0594
 2124SOL    HW2 7272   0.848   4.846   0.487 -0.4792  0.5819 -0.9273
 2125SOL     OW 7273   6.770   2.525   6.693  0.3947 -0.3842  0.2668
 2125SOL    HW1 7274   6.757   2.525   6.594  1.1161  2.6828  0.0809
 2125SOL    HW2 7275   6.695   2.476   6.737 -3.5381  3.3919 -1.5281
 2126SOL     OW 7276   1.989   5.025   0.253 -0.1078 -0.2833 -0.2127
 2126SOL    HW1 7277   1.933   5.087   0.308 -1.3002 -2.5285  1.2343
 2126SOL    HW2 7278   1.960   5.032   0.157 -1.8021 -0.2238  0.2666
 2127SOL     OW 7279   5.840   5.868   7.018  0.5720  0.5045 -0.3434
 2127SOL    HW1 7280   5.766   5.838   6.956  1.1641  0.9177 -1.2775
 2127SOL    HW2 7281   5.813   5.953   7.063  0.1566  0.2322 -0.0682
 2128SOL     OW 7282   2.600   0.532   3.031 -0.3120  0.1735  0.1845
 2128SOL    HW1 7283   2.559   0.618   3.061  1.0971  0.9887 -0.1313
 2128SOL    HW2 7284   2.631   0.480   3.110  0.3627  0.7634  0.3210
 2129SOL     OW 7285   6.757   1.258   5.205 -0.5216 -0.4010 -0.1435
 2129SOL    HW1 7286   6.660   1.274   5.227 -1.0607 -1.1713 -1.7683
 2129SOL    HW2 7287   6.775   1.290   5.112  0.1600 -2.4505 -0.7746
 2130SOL     OW 7288   0.783   1.898   0.512  0.0938  0.6527  0.3022
 2130SOL    HW1 7289   0.713   1.925   0.446 -0.4988 -0.3479  0.4989
 2130SOL    HW2 7290   0.872   1.893   0.466 -0.0556  1.3890 -0.0780
 2131SOL     OW 7291   0.889   6.974   5.312  0.3644  0.0142 -0.7275
 2131SOL    HW1 7292   0.848   7.039   5.248  0.8112 -1.0147 -2.1049
 2131SOL    HW2 7293   0.989   6.982   5.308  0.4298  1.9973  2.0662
 2132SOL     OW 7294   0.571   6.783   0.169 -0.4388 -0.9229 -0.4703
 2132SOL    HW1 7295   0.518   6.868   0.170  0.6374 -0.2207 -1.3139
 2132SOL    HW2 7296   0.601   6.761   0.262  1.2705  0.9315 -0.5139
 2133SOL     OW 7297   6.889   3.141   4.509  0.1189 -0.3566  0.1587
 2133SOL    HW1 7298   6.804   3.183   4.477 -0.6552 -1.8720  0.1477
 2133SOL    HW2 7299   6.966   3.204   4.493 -0.8372  0.5938 -0.8304
 2134SOL     OW 7300   6.875   6.937   2.054  0.7139 -0.3007  0.7407
 2134SOL    HW1 7301   6.951   6.891   2.102  0.3434 -1.5261  0.1967
 2134SOL    HW2 7302   6.904   7.028   2.026  1.9174 -0.6576  0.7542
 2135SOL     OW 7303   4.149   1.282   2.276  0.3646  0.6232 -0.5569
 2135SOL    HW1 7304   4.154   1.376   2.242  1.4124  0.8470  0.1757
 2135SOL    HW2 7305   4.108   1.282   2.367  0.6511  0.4070 -0.4270
 2136SOL     OW 7306   0.027   5.025   2.017  0.2395  0.1924  0.8517
 2136SOL    HW1 7307   0.121   5.013   1.986  0.3347  2.6180 -0.0071
 2136SOL    HW2 7308   0.025   5.034   2.117  0.8380 -0.4075  0.9205
 2137SOL     OW 7309   5.443   4.990   3.379 -0.1051  0.3610 -0.2418
 2137SOL    HW1 7310   5.504   4.949   3.447 -0.3784  0.0779 -0.1643
 2137SOL    HW2 7311   5.467   4.957   3.288 -0.0245  0.3942 -0.2323
 2138SOL     OW 7312   1.506   1.450   3.780  0.3792 -0.1919  0.0760
 2138SOL    HW1 7313   1.444   1.421   3.852  1.4356  0.7260  1.4052
 2138SOL    HW2 7314   1.600   1.425   3.805  0.7194 -0.2671 -1.2063
 2139SOL     OW 7315   1.257   2.596   3.570  0.0102 -0.0996 -0.2316
 2139SOL    HW1 7316   1.319   2.582   3.493 -1.0534  1.5442 -1.4549
 2139SOL    HW2 7317   1.198   2.516   3.581 -0.1088 -0.1979 -1.4278
 2140SOL     OW 7318   1.720   0.446   1.901  0.0498 -0.1270  0.5606
 2140SOL    HW1 7319   1.772   0.511   1.845 -0.6500  0.3282  0.4360
 2140SOL    HW2 7320   1.637   0.490   1.936  0.6076 -0.3018  2.2079
 2141SOL     OW 7321   1.948   4.391   2.205  0.4541 -0.4420 -0.4322
 2141SOL    HW1 7322   1.956   4.386   2.106  4.3487 -0.8073 -0.2731
 2141SOL    HW2 7323   2.015   4.456   2.241 -0.9356 -0.2109  1.9892
 2142SOL     OW 7324   6.848   2.946   3.576 -0.3360 -0.0234 -0.3252
 2142SOL    HW1 7325   6.749   2.959   3.571 -0.1211  1.8494 -0.4922
 2142SOL    HW2 7326   6.889   2.969   3.488  0.0545 -3.5423 -1.2164
 2143SOL     OW 7327   2.795   4.517   6.048  0.1328  0.2097 -0.4993
 2143SOL    HW1 7328   2.700   4.541   6.069  0.0139 -0.9654  0.3908
 2143SOL    HW2 7329   2.848   4.601   6.037 -1.0226  0.8802 -1.1169
 2144SOL     OW 7330   6.417   6.646   6.683 -0.2523  0.3085  0.1828
 2144SOL    HW1 7331   6.327   6.619   6.716 -1.0984  1.0830 -1.3546
 2144SOL    HW2 7332   6.424   6.625   6.585  0.5562  1.8883 -0.1309
 2145SOL     OW 7333   3.366   4.598   0.312  0.2094  0.6522 -0.9111
 2145SOL    HW1 7334   3.308   4.521   0.338 -1.0804  1.0850 -2.3534
 2145SOL    HW2 7335   3.456   4.565   0.283  1.4054  0.0741  2.8839
 2146SOL     OW 7336   5.208   2.628   1.599 -0.7674 -0.0119 -0.0682
 2146SOL    HW1 7337   5.151   2.548   1.619 -1.2750  0.7767  1.8242
 2146SOL    HW2 7338   5.226   2.678   1.684  1.9461  0.3166 -0.7654
 2147SOL     OW 7339   2.847   2.086   3.266 -0.2620  0.1125  0.6094
 2147SOL    HW1 7340   2.878   2.129   3.351  1.2657 -1.0420  0.6620
 2147SOL    HW2 7341   2.858   2.151   3.191 -0.7572  0.8223  1.1353
 2148SOL     OW 7342   5.675   4.632   3.237  0.0153  0.3084 -0.0086
 2148SOL    HW1 7343   5.585   4.671   3.218 -1.2217 -1.5668  1.5128
 2148SOL    HW2 7344   5.676   4.536   3.208  1.0905 -0.0364  1.0966
 2149SOL     OW 7345   0.648   3.806   6.706 -0.0565  0.5907  0.1237
 2149SOL    HW1 7346   0.703   3.787   6.625 -0.0453  0.4532  0.1636
 2149SOL    HW2 7347   0.632   3.721   6.756  1.1989  0.9011  1.0796
 2150SOL     OW 7348   6.467   5.733   1.216 -0.1954 -0.1105 -0.0415
 2150SOL    HW1 7349   6.520   5.652   1.239 -0.6413 -0.8617 -1.5550
 2150SOL    HW2 7350   6.522   5.795   1.160  0.2825  0.8639  1.4433
 2151SOL     OW 7351   7.018   6.796   0.201 -0.7230  0.3685  0.0116
 2151SOL    HW1 7352   7.096   6.798   0.263 -0.8322  1.9679  0.1339
 2151SOL    HW2 7353   7.029   6.866   0.131 -0.8788 -1.0243 -1.4778
 2152SOL     OW 7354   1.664   0.253   2.087  0.2170  0.1089 -0.2780
 2152SOL    HW1 7355   1.589   0.294   2.139 -0.6319 -1.6649 -0.0317
 2152SOL    HW2 7356   1.732   0.323   2.066 -0.8330  1.4738  0.6875
 2153SOL     OW 7357   5.887   0.013   3.036  0.3835  0.0486 -0.1381
 2153SOL    HW1 7358   5.934   0.083   2.983 -0.0332 -0.5249 -1.3000
 2153SOL    HW2 7359   5.789   0.016   3.016 -0.0007  0.7276  1.6761
 2154SOL     OW 7360   1.250   2.605   5.513 -0.1093  0.0364  0.0992
 2154SOL    HW1 7361   1.171   2.548   5.493 -0.6594  1.3168 -1.6996
 2154SOL    HW2 7362   1.250   2.631   5.609 -0.7306 -1.6128  0.5791
 2155SOL     OW 7363   3.664   5.603   1.099 -0.3141 -0.1797 -0.4165
 2155SOL    HW1 7364   3.602   5.549   1.156 -1.9659  0.6031 -1.3919
 2155SOL    HW2 7365   3.759   5.580   1.121 -0.6850  1.7351  4.3193
 2156SOL     OW 7366   4.125   3.437   4.229 -0.4057 -0.0336 -0.8908
 2156SOL    HW1 7367   4.113   3.480   4.140 -0.4722  1.9514  0.0375
 2156SOL    HW2 7368   4.145   3.506   4.297  2.8395 -1.7688  0.1194
 2157SOL     OW 7369   2.469   6.317   0.848 -0.1012 -0.3066 -0.0950
 2157SOL    HW1 7370   2.376   6.342   0.823  0.1995  1.1396  0.1591
 2157SOL    HW2 7371   2.478   6.314   0.947  0.0456 -0.7929 -0.1175
 2158SOL     OW 7372   6.144   0.757   1.605 -0.5813 -0.2302 -0.1189
 2158SOL    HW1 7373   6.129   0.837   1.547 -1.8282 -0.9637 -0.8527
 2158SOL    HW2 7374   6.171   0.787   1.697 -0.2742  0.9909 -0.5813
 2159SOL     OW 7375   6.825   6.939   1.151  0.1239 -0.0332  0.5912
 2159SOL    HW1 7376   6.748   6.964   1.093  0.5174  0.4279  0.2498
 2159SOL    HW2 7377   6.821   6.991   1.237  0.0341 -0.0353  0.5880
 2160SOL     OW 7378   0.711   3.900   2.693  0.4159  0.2840 -0.9504
 2160SOL    HW1 7379   0.806   3.871   2.705 -0.6320 -3.4474 -0.1078
 2160SOL    HW2 7380   0.683   3.956   2.770  1.4489 -0.1417 -0.2400
 2161SOL     OW 7381   2.256   2.656   0.857 -0.1944 -0.8822 -0.1250
 2161SOL    HW1 7382   2.275   2.678   0.761  0.0984  2.2925  0.5285
 2161SOL    HW2 7383   2.341   2.654   0.909 -0.5475  0.9709  0.6219
 2162SOL     OW 7384   2.444   2.272   0.963  0.2176 -0.0949 -0.1724
 2162SOL    HW1 7385   2.367   2.309   1.014  0.7866 -1.1219  1.4965
 2162SOL    HW2 7386   2.426   2.176   0.940  1.3456 -0.6124  1.0213
 2163SOL     OW 7387   0.093   1.133   0.278  0.0891  0.4556 -0.1266
 2163SOL    HW1 7388   0.185   1.165   0.300  0.2208  0.0135 -0.0271
 2163SOL    HW2 7389   0.026   1.200   0.311  0.3368  0.3626  0.5877
 2164SOL     OW 7390   5.903   5.626   3.280 -0.2558 -0.5718  0.1534
 2164SOL    HW1 7391   5.967   5.653   3.207 -1.7317 -1.1932 -1.4386
 2164SOL    HW2 7392   5.890   5.527   3.278  0.5296 -0.7552  2.0461
 2165SOL     OW 7393   4.227   0.022   1.395  0.0180  0.2000 -0.7155
 2165SOL    HW1 7394   4.288   0.098   1.417 -0.6138  0.5197 -0.0551
 2165SOL    HW2 7395   4.255  -0.058   1.448 -1.7372  1.0737  1.6877
 2166SOL     OW 7396   0.305   3.333   4.856 -0.3331 -0.3394 -0.1029
 2166SOL    HW1 7397   0.314   3.404   4.787  3.0697  1.3806  1.8474
 2166SOL    HW2 7398   0.367   3.258   4.835  0.1647 -0.1531  0.6666
 2167SOL     OW 7399   0.374   4.240   6.437  0.4995  0.1604 -0.2944
 2167SOL    HW1 7400   0.328   4.263   6.522  1.2676  2.6226 -0.4608
 2167SOL    HW2 7401   0.471   4.261   6.444  0.1731  3.1792 -2.5580
 2168SOL     OW 7402   3.042   1.424   4.270 -0.2359 -0.5413 -0.2977
 2168SOL    HW1 7403   3.029   1.494   4.199 -0.6172  0.0544  0.3423
 2168SOL    HW2 7404   3.106   1.459   4.339  2.0166 -2.0021 -1.4961
 2169SOL     OW 7405   1.682   4.874   2.462 -0.0533 -0.7903  0.5334
 2169SOL    HW1 7406   1.747   4.853   2.389  0.2758  1.1823  0.2024
 2169SOL    HW2 7407   1.731   4.904   2.543 -0.4866  0.0370  0.5098
 2170SOL     OW 7408   5.603   0.867   6.178  0.4511  0.0628  0.6841
 2170SOL    HW1 7409   5.693   0.906   6.157  0.4731 -0.4563 -0.2778
 2170SOL    HW2 7410   5.582   0.796   6.110 -1.5228  1.4857 -0.2736
 2171SOL     OW 7411   0.465   6.604   6.590  0.0320 -0.2654  0.0346
 2171SOL    HW1 7412   0.540   6.575   6.649  0.4402 -2.2564 -1.3769
 2171SOL    HW2 7413   0.460   6.704   6.590  2.0518 -0.1128  0.9090
 2172SOL     OW 7414   2.951   2.490   1.090 -0.1898  0.1444  0.2419
 2172SOL    HW1 7415   2.982   2.534   1.173 -0.4778  0.3767  0.2281
 2172SOL    HW2 7416   2.916   2.398   1.111 -0.3343  0.2333  0.3889
 2173SOL     OW 7417   1.301   4.339   0.796 -0.0203 -0.0643  0.0786
 2173SOL    HW1 7418   1.315   4.268   0.727  0.5186 -0.3590  0.4835
 2173SOL    HW2 7419   1.381   4.344   0.856 -0.9658 -0.6394  1.4292
 2174SOL     OW 7420   1.209   5.256   4.118 -0.5086  0.5703  0.1918
 2174SOL    HW1 7421   1.245   5.162   4.117 -1.3376  0.2146  1.4802
 2174SOL    HW2 7422   1.117   5.257   4.077 -0.3881  0.8751 -0.0752
 2175SOL     OW 7423   1.536   1.168   2.976  0.3698 -0.6642 -0.1969
 2175SOL    HW1 7424   1.536   1.148   2.878  0.1793 -0.7946 -0.1712
 2175SOL    HW2 7425   1.606   1.237   2.996  0.8090 -1.0634 -0.3347
 2176SOL     OW 7426   0.296   5.777   4.437  0.5109  0.2067  0.0745
 2176SOL    HW1 7427   0.373   5.835   4.465  0.4420  0.0030  0.7056
 2176SOL    HW2 7428   0.246   5.822   4.363  0.7972  0.6887  0.1663
 2177SOL     OW 7429   3.979   3.879   0.022  0.5116 -0.1350  0.1496
 2177SOL    HW1 7430   3.916   3.880   0.100  0.2918 -2.1768  0.0438
 2177SOL    HW2 7431   4.025   3.968   0.016 -0.5600  0.5785  1.6931
 2178SOL     OW 7432   5.575   2.714   0.901 -0.0235  0.3988  0.0638
 2178SOL    HW1 7433   5.516   2.793   0.883 -0.8827 -0.7389 -2.6498
 2178SOL    HW2 7434   5.640   2.704   0.826  0.2625 -1.3010  0.5040
 2179SOL     OW 7435   2.086   6.310   5.207 -0.2606 -0.4859 -0.6090
 2179SOL    HW1 7436   2.156   6.381   5.198 -1.3793  1.2043  2.5144
 2179SOL    HW2 7437   2.001   6.340   5.163 -0.9081  0.4966  1.1978
 2180SOL     OW 7438   4.467   2.515   5.012  0.1160  0.2515 -0.1134
 2180SOL    HW1 7439   4.486   2.520   4.914 -0.0968 -1.3945 -0.2672
 2180SOL    HW2 7440   4.377   2.474   5.026  1.2004 -2.0191  0.7689
 2181SOL     OW 7441   5.240   1.789   5.357 -0.0752  0.2040  0.0124
 2181SOL    HW1 7442   5.191   1.749   5.435 -0.9003  0.4241 -0.3755
 2181SOL    HW2 7443   5.263   1.884   5.376 -1.8871  0.8248 -0.6757
 2182SOL     OW 7444   2.583   1.751   4.791  0.7060 -0.4169 -0.3958
 2182SOL    HW1 7445   2.491   1.755   4.830 -0.6439 -2.2985 -3.0978
 2182SOL    HW2 7446   2.601   1.836   4.740 -0.6005 -1.0173 -1.9288
 2183SOL     OW 7447   1.605   0.203   3.313  0.0683  0.1171 -0.3657
 2183SOL    HW1 7448   1.638   0.175   3.403 -1.2605  0.1726  0.1576
 2183SOL    HW2 7449   1.666   0.166   3.243  1.0032 -0.1113  0.5329
 2184SOL     OW 7450   6.610   1.238   0.345  0.0379 -0.1115  0.2272
 2184SOL    HW1 7451   6.581   1.196   0.431  1.5548  0.3762  1.0201
 2184SOL    HW2 7452   6.577   1.182   0.268  1.6204 -2.5999  1.2181
 2185SOL     OW 7453   1.325   3.407   3.479 -0.5019 -0.3741  0.0378
 2185SOL    HW1 7454   1.322   3.310   3.454 -0.1355 -1.5224  3.7542
 2185SOL    HW2 7455   1.242   3.431   3.529  0.6989  0.2759  1.8382
 2186SOL     OW 7456   6.494   2.554   2.098  0.1856 -0.3975  0.6659
 2186SOL    HW1 7457   6.442   2.590   2.175  1.4796  2.0915  0.4883
 2186SOL    HW2 7458   6.432   2.533   2.022 -0.9493 -1.5887  1.8632
 2187SOL     OW 7459   3.478   5.248   1.372  0.2268  0.2775  0.4735
 2187SOL    HW1 7460   3.459   5.265   1.468 -1.9310 -0.1703  0.1746
 2187SOL    HW2 7461   3.487   5.150   1.356 -0.5676  0.2659  0.0482
 2188SOL     OW 7462   2.555   3.474   0.533  0.4385 -0.4544 -0.2107
 2188SOL    HW1 7463   2.630   3.437   0.589  1.1394  1.5076  0.2432
 2188SOL    HW2 7464   2.486   3.514   0.593  1.4173  2.0985 -0.6371
 2189SOL     OW 7465   3.542   0.108   6.576  0.1558  0.1027  0.3443
 2189SOL    HW1 7466   3.512   0.013   6.573  1.5763 -0.4004  0.8650
 2189SOL    HW2 7467   3.591   0.124   6.662  2.2064  0.5536 -0.8317
 2190SOL     OW 7468   3.610   6.871   0.831 -0.4474 -0.3904  0.5721
 2190SOL    HW1 7469   3.593   6.940   0.761 -0.3605 -1.2765 -0.3348
 2190SOL    HW2 7470   3.523   6.834   0.864 -0.4831 -0.0731  0.8402
 2191SOL     OW 7471   0.563   6.482   5.828 -0.0038  0.2363  0.7629
 2191SOL    HW1 7472   0.490   6.442   5.884  0.2953  2.6451  3.1240
 2191SOL    HW2 7473   0.530   6.568   5.789  1.7701  1.9079  2.7365
 2192SOL     OW 7474   0.532   5.894   4.512 -0.5251  0.2978  0.2693
 2192SOL    HW1 7475   0.603   5.833   4.548 -1.3045 -1.3696 -0.9034
 2192SOL    HW2 7476   0.575   5.971   4.465  0.6946 -2.0238 -2.7608
 2193SOL     OW 7477   1.496   1.825   5.302  0.3996 -0.1185  0.9967
 2193SOL    HW1 7478   1.491   1.813   5.203  0.3913 -0.3098  1.0192
 2193SOL    HW2 7479   1.445   1.751   5.347  0.2955  0.0403  1.1402
 2194SOL     OW 7480   1.424   1.001   3.377  0.1446  0.3246 -0.4177
 2194SOL    HW1 7481   1.439   1.066   3.452  0.4999  1.7483 -1.6873
 2194SOL    HW2 7482   1.490   0.926   3.384  0.5781  0.7615  0.3319
 2195SOL     OW 7483   3.733   3.463   0.558  0.6273 -0.2122  0.1921
 2195SOL    HW1 7484   3.705   3.554   0.529  0.7993  0.2335  1.4102
 2195SOL    HW2 7485   3.766   3.465   0.652  1.8191 -1.3068 -0.1697
 2196SOL     OW 7486   3.444   6.383   1.276  0.4303 -0.0874  0.5610
 2196SOL    HW1 7487   3.491   6.296   1.288 -0.7828 -0.7864  0.3797
 2196SOL    HW2 7488   3.350   6.375   1.308  0.7792  1.6902  2.2494
 2197SOL     OW 7489   3.938   0.222   1.840 -0.3012 -0.0026  0.1024
 2197SOL    HW1 7490   3.911   0.238   1.935  0.5327 -1.6522  0.6530
 2197SOL    HW2 7491   3.946   0.310   1.793 -2.2034  0.7852  1.1057
 2198SOL     OW 7492   3.901   2.919   5.496  0.8563 -0.2800 -0.2553
 2198SOL    HW1 7493   3.876   2.852   5.426  0.6903 -0.5593  0.0685
 2198SOL    HW2 7494   3.868   3.010   5.468 -0.7320 -0.6635  0.2393
 2199SOL     OW 7495   6.212   5.514   4.318 -0.2361  0.6289  0.1591
 2199SOL    HW1 7496   6.165   5.593   4.359 -0.7304  0.7159 -0.5484
 2199SOL    HW2 7497   6.252   5.541   4.230  1.7318  0.7306  1.0285
 2200SOL     OW 7498   4.351   5.724   1.344 -0.6314  0.9194 -0.0587
 2200SOL    HW1 7499   4.448   5.734   1.322 -0.5347 -1.2707 -0.8687
 2200SOL    HW2 7500   4.300   5.802   1.309  0.6108  1.2488 -1.1672
 2201SOL     OW 7501   6.156   6.014   4.482  0.0163  0.8785  0.3014
 2201SOL    HW1 7502   6.098   5.993   4.403  0.6070 -1.6198  0.4641
 2201SOL    HW2 7503   6.124   5.962   4.561  1.0369  1.3072  1.0122
 2202SOL     OW 7504   1.603   5.147   4.595  0.1427 -0.0532 -0.2381
 2202SOL    HW1 7505   1.551   5.159   4.679 -0.8093 -0.5051 -0.7505
 2202SOL    HW2 7506   1.541   5.145   4.517  0.8671 -1.2199 -0.8123
 2203SOL     OW 7507   1.484   2.832   3.046  0.2416  0.0211  0.4899
 2203SOL    HW1 7508   1.505   2.928   3.029  1.5011 -0.1021  1.2232
 2203SOL    HW2 7509   1.409   2.825   3.112  0.0249  0.4953  0.2918
 2204SOL     OW 7510   2.325   2.055   0.841 -0.3490 -0.0421 -0.1818
 2204SOL    HW1 7511   2.229   2.079   0.857 -0.5736 -1.3846  0.6004
 2204SOL    HW2 7512   2.331   1.987   0.768 -0.2420 -1.8055  1.4108
 2205SOL     OW 7513   2.791   4.995   5.779  0.1117 -0.0950 -0.6870
 2205SOL    HW1 7514   2.881   4.957   5.800 -0.0998 -0.7285 -0.8850
 2205SOL    HW2 7515   2.796   5.094   5.778  1.0478 -0.1346 -1.7071
 2206SOL     OW 7516   0.396   0.795   5.156  0.5586 -0.0412  0.5108
 2206SOL    HW1 7517   0.328   0.767   5.088 -0.3367  1.4614  0.7453
 2206SOL    HW2 7518   0.368   0.763   5.246  0.4973  0.0139  0.5116
 2207SOL     OW 7519   3.435   5.018   5.175 -0.6449  0.3099  0.0612
 2207SOL    HW1 7520   3.495   4.941   5.199 -0.7011 -0.0770 -1.0166
 2207SOL    HW2 7521   3.482   5.077   5.109 -1.3886  0.0686 -0.6972
 2208SOL     OW 7522   1.711   1.909   3.261 -0.1237 -0.2730  0.0047
 2208SOL    HW1 7523   1.671   1.940   3.347 -0.1210  0.8865 -0.3947
 2208SOL    HW2 7524   1.641   1.907   3.190  0.4464  1.7408 -0.6932
 2209SOL     OW 7525   6.864   4.997   4.028 -0.3902 -0.7761 -0.4663
 2209SOL    HW1 7526   6.902   5.028   4.116 -1.4243 -0.9782  0.0686
 2209SOL    HW2 7527   6.897   5.056   3.955 -2.6711  2.0169  0.5701
 2210SOL     OW 7528   0.842   3.750   6.460 -0.2172 -0.3964 -0.4578
 2210SOL    HW1 7529   0.790   3.814   6.405 -1.0472  0.2966  1.0665
 2210SOL    HW2 7530   0.811   3.656   6.442 -0.6296 -0.1593 -0.9808
 2211SOL     OW 7531   1.975   3.788   3.951  0.2583 -0.5302  0.5974
 2211SOL    HW1 7532   2.019   3.806   4.039  2.7787  0.4205 -0.7514
 2211SOL    HW2 7533   1.992   3.693   3.923  2.4652  0.0933 -0.3648
 2212SOL     OW 7534   1.860   6.903   0.873 -0.2235  0.2376 -0.3006
 2212SOL    HW1 7535   1.839   6.829   0.809 -0.3337 -0.3728  0.4256
 2212SOL    HW2 7536   1.793   6.977   0.862 -0.2376  0.1418 -0.8858
 2213SOL     OW 7537   5.403   2.029   5.336 -0.5504 -0.0996  0.2212
 2213SOL    HW1 7538   5.452   2.059   5.254 -0.4552 -1.2850 -0.1632
 2213SOL    HW2 7539   5.314   2.075   5.339 -0.7370 -0.3642 -0.7814
 2214SOL     OW 7540   1.717   0.180   5.720  0.2698  0.1129 -0.2318
 2214SOL    HW1 7541   1.785   0.248   5.747  0.5828  0.4233 -1.7040
 2214SOL    HW2 7542   1.747   0.090   5.751  0.3102  0.5185  0.9344
 2215SOL     OW 7543   6.250   6.027   5.205 -0.0297  0.5375 -0.5556
 2215SOL    HW1 7544   6.306   5.963   5.153 -1.4349  0.5637 -2.1953
 2215SOL    HW2 7545   6.299   6.114   5.214  0.4800  0.3456 -1.3498
 2216SOL     OW 7546   3.022   2.057   1.235  0.7600  0.1110  0.3914
 2216SOL    HW1 7547   2.989   1.968   1.265 -1.8610  1.4180  1.6311
 2216SOL    HW2 7548   3.070   2.102   1.310 -1.6753  1.4268  1.2698
 2217SOL     OW 7549   0.771   2.285   5.553  0.0739 -0.0632  0.2282
 2217SOL    HW1 7550   0.822   2.251   5.632  0.2443 -0.7622 -0.1732
 2217SOL    HW2 7551   0.773   2.385   5.552  1.7828 -0.0807  0.0026
 2218SOL     OW 7552   6.021   3.461   3.500  0.0177 -0.9627 -0.3228
 2218SOL    HW1 7553   6.078   3.405   3.560  1.3785  0.0343 -0.6260
 2218SOL    HW2 7554   6.045   3.557   3.512 -3.3460 -0.1792  1.3610
 2219SOL     OW 7555   4.977   5.377   5.233  0.0969 -0.2605 -0.0161
 2219SOL    HW1 7556   4.969   5.358   5.135 -0.9860 -0.2206  0.0458
 2219SOL    HW2 7557   5.012   5.470   5.246 -0.6637  0.0925 -0.3868
 2220SOL     OW 7558   6.491   0.209   6.382 -0.2000  0.3025 -0.1207
 2220SOL    HW1 7559   6.484   0.153   6.300  1.0623 -0.5394  0.3136
 2220SOL    HW2 7560   6.513   0.303   6.357 -0.0368  0.0958 -0.7621
 2221SOL     OW 7561   6.225   0.462   6.856 -0.0076 -0.0544 -0.3911
 2221SOL    HW1 7562   6.126   0.456   6.855 -0.1417  1.7227 -1.6444
 2221SOL    HW2 7563   6.262   0.387   6.911 -2.1295  0.7723  2.4147
 2222SOL     OW 7564   5.782   1.888   3.595  1.0125 -0.1849  0.4967
 2222SOL    HW1 7565   5.821   1.940   3.670  0.0134 -0.6290  1.3477
 2222SOL    HW2 7566   5.849   1.820   3.563  1.0997 -0.6620  1.6525
 2223SOL     OW 7567   5.024   2.503   1.280 -0.2279 -0.6637  0.6918
 2223SOL    HW1 7568   5.003   2.520   1.377  0.4692  1.9754  0.4605
 2223SOL    HW2 7569   5.119   2.474   1.271 -0.5057 -1.6567  0.8284
 2224SOL     OW 7570   1.160   3.232   6.756 -0.4482  0.2138  0.6313
 2224SOL    HW1 7571   1.128   3.307   6.815 -0.1228 -0.3462  1.5447
 2224SOL    HW2 7572   1.260   3.228   6.759 -0.4942 -2.1312  3.0768
 2225SOL     OW 7573   5.504   4.961   0.602 -0.4765 -0.3979  0.0689
 2225SOL    HW1 7574   5.413   4.987   0.569  0.2151  2.4205  0.0606
 2225SOL    HW2 7575   5.568   5.035   0.581  0.9384 -0.4042  3.7511
 2226SOL     OW 7576   6.970   0.063   0.070  0.9213 -0.2198  0.3095
 2226SOL    HW1 7577   6.950   0.152   0.110 -0.8959 -0.8140  0.8156
 2226SOL    HW2 7578   7.052   0.070   0.013  1.1923  1.5996  0.8486
 2227SOL     OW 7579   4.153   2.903   6.749  0.1334  0.4567 -0.2977
 2227SOL    HW1 7580   4.083   2.949   6.694 -0.9592 -0.6785  0.0848
 2227SOL    HW2 7581   4.204   2.971   6.802 -3.0933  1.1955  2.2349
 2228SOL     OW 7582   0.787   5.654   3.044  0.1087  0.6355 -0.1683
 2228SOL    HW1 7583   0.833   5.691   3.125 -0.3523  1.5915 -0.3263
 2228SOL    HW2 7584   0.699   5.700   3.032 -0.7942 -0.9892 -0.0177
 2229SOL     OW 7585   3.387   1.829   3.059  0.3536 -0.4105 -0.4608
 2229SOL    HW1 7586   3.462   1.782   3.012  1.4055 -0.0064  0.7685
 2229SOL    HW2 7587   3.388   1.804   3.156  0.9508  2.1062  0.2547
 2230SOL     OW 7588   5.355   1.672   1.954  0.2514 -0.2541  0.2574
 2230SOL    HW1 7589   5.404   1.638   2.034  0.0357  1.4078  1.1416
 2230SOL    HW2 7590   5.420   1.689   1.880  1.3098  2.9940  1.7753
 2231SOL     OW 7591   0.294   5.952   3.981 -0.2914 -0.3130  0.2724
 2231SOL    HW1 7592   0.359   6.014   4.024 -0.0426 -0.8966  0.7494
 2231SOL    HW2 7593   0.245   6.001   3.908 -1.0124  0.8138  1.4609
 2232SOL     OW 7594   0.844   5.952   0.322 -0.1112  0.4621 -0.5474
 2232SOL    HW1 7595   0.805   5.870   0.280  1.0245 -0.5901  0.3954
 2232SOL    HW2 7596   0.908   5.926   0.394  0.8466  2.1826 -0.7282
 2233SOL     OW 7597   6.988   4.573   0.769 -0.2502  0.1377  0.2130
 2233SOL    HW1 7598   7.014   4.545   0.677 -0.4727 -2.5915  0.9133
 2233SOL    HW2 7599   7.045   4.527   0.836 -0.1335  2.0258  1.5002
 2234SOL     OW 7600   4.411   2.629   0.201  0.1534  1.0779  0.2626
 2234SOL    HW1 7601   4.452   2.544   0.233 -1.1357  0.4150  0.2166
 2234SOL    HW2 7602   4.449   2.652   0.111  0.2640  0.3536  0.1125
 2235SOL     OW 7603   2.102   2.629   1.573 -0.2450 -0.3329  0.3835
 2235SOL    HW1 7604   2.028   2.636   1.506 -0.5707 -1.5106  0.6073
 2235SOL    HW2 7605   2.109   2.535   1.606  1.0265 -0.1312  0.7456
 2236SOL     OW 7606   2.334   5.951   3.831  0.0240 -0.1762 -0.0339
 2236SOL    HW1 7607   2.291   6.024   3.778  0.3149 -0.1200 -0.1964
 2236SOL    HW2 7608   2.384   5.991   3.907 -0.7533 -0.2866  0.5436
 2237SOL     OW 7609   4.446   2.073   1.401  0.4350  0.3317 -0.2059
 2237SOL    HW1 7610   4.515   2.098   1.333  0.5836 -0.6173 -0.4324
 2237SOL    HW2 7611   4.453   1.975   1.420  0.2104  0.5310  0.9848
 2238SOL     OW 7612   4.472   2.108   6.221  0.1687 -0.5117 -0.4434
 2238SOL    HW1 7613   4.425   2.025   6.248  0.4340 -0.2413  0.8876
 2238SOL    HW2 7614   4.517   2.149   6.300  0.1181  0.8504 -1.0801
 2239SOL     OW 7615   6.033   2.632   2.559 -0.2815 -0.2811 -0.2473
 2239SOL    HW1 7616   5.969   2.583   2.617 -0.9654 -0.6111 -1.2464
 2239SOL    HW2 7617   6.013   2.612   2.463  0.1147  1.1224 -0.6451
 2240SOL     OW 7618   1.963   5.559   2.270  0.4734 -0.2933  0.1061
 2240SOL    HW1 7619   1.866   5.537   2.261  0.2525  0.4988  0.4466
 2240SOL    HW2 7620   2.016   5.507   2.203 -0.5973  2.1335 -2.8449
 2241SOL     OW 7621   4.390   0.283   2.220  0.4780  0.2631  0.1232
 2241SOL    HW1 7622   4.308   0.300   2.166  0.7307  2.1967  0.2860
 2241SOL    HW2 7623   4.375   0.204   2.279 -0.6300 -0.4569 -1.0665
 2242SOL     OW 7624   5.654   1.397   3.142 -0.3690  0.1021 -0.3954
 2242SOL    HW1 7625   5.627   1.341   3.063  0.2290 -0.5115 -0.1787
 2242SOL    HW2 7626   5.636   1.493   3.122 -1.1256 -0.1365 -0.9023
 2243SOL     OW 7627   6.513   4.130   6.516  0.2395 -0.0033  0.7006
 2243SOL    HW1 7628   6.545   4.211   6.466 -0.1749 -0.5830 -0.5409
 2243SOL    HW2 7629   6.537   4.048   6.466  0.4769 -0.6629  1.8588
 2244SOL     OW 7630   4.898   1.664   5.999  0.4651  0.1402 -0.0532
 2244SOL    HW1 7631   4.915   1.737   6.065 -0.3609 -0.3306  0.6926
 2244SOL    HW2 7632   4.966   1.592   6.010  0.4376  0.1469  0.1574
 2245SOL     OW 7633   0.715   6.253   2.738 -0.4347  0.0076 -0.5089
 2245SOL    HW1 7634   0.708   6.302   2.651 -1.0366  0.0271 -0.4542
 2245SOL    HW2 7635   0.726   6.319   2.812 -2.0412  0.1335 -0.3478
 2246SOL     OW 7636   3.339   6.841   5.187 -0.2371  0.1955 -0.1772
 2246SOL    HW1 7637   3.330   6.877   5.280  0.7788  2.5230 -0.9029
 2246SOL    HW2 7638   3.349   6.917   5.122 -0.1486 -1.3742 -2.1234
 2247SOL     OW 7639   2.448   2.982   0.868  0.1749 -0.2641  0.0643
 2247SOL    HW1 7640   2.388   2.916   0.914 -1.1213  0.0855 -1.0652
 2247SOL    HW2 7641   2.528   2.935   0.832  0.3845 -0.8246  1.2220
 2248SOL     OW 7642   3.360   6.282   2.284  0.7988 -0.2316  0.4302
 2248SOL    HW1 7643   3.320   6.266   2.375  0.1040  1.0017  0.3748
 2248SOL    HW2 7644   3.446   6.333   2.295  0.2998  0.6529  0.3892
 2249SOL     OW 7645   0.644   4.578   2.399 -0.0360  0.3827 -0.4061
 2249SOL    HW1 7646   0.707   4.655   2.414  1.1311 -0.7627  0.9667
 2249SOL    HW2 7647   0.553   4.604   2.430 -0.3017  2.0597 -2.3576
 2250SOL     OW 7648   4.023   3.611   6.165 -0.2327 -0.5523 -0.0578
 2250SOL    HW1 7649   3.951   3.608   6.234 -1.6580 -0.5554 -1.4983
 2250SOL    HW2 7650   3.989   3.575   6.078  1.3212 -0.0027 -0.9552
 2251SOL     OW 7651   6.695   5.878   6.399 -0.0232 -0.4111 -0.3935
 2251SOL    HW1 7652   6.599   5.856   6.419 -0.3736  0.9645 -0.4453
 2251SOL    HW2 7653   6.710   5.875   6.300  0.1194 -1.1399 -0.3487
 2252SOL     OW 7654   0.124   1.986   1.528 -0.3695 -0.6379 -0.2289
 2252SOL    HW1 7655   0.058   2.052   1.565 -0.5418 -1.4245  0.9254
 2252SOL    HW2 7656   0.204   1.982   1.588  1.5921  1.5333 -2.4672
 2253SOL     OW 7657   4.115   1.914   1.191  0.3726  0.5293  0.2013
 2253SOL    HW1 7658   4.071   1.825   1.205  0.3752  0.6743  1.2614
 2253SOL    HW2 7659   4.111   1.966   1.277  0.7157  1.3944 -0.3013
 2254SOL     OW 7660   1.773   4.916   1.271  0.3033 -0.0266 -0.1926
 2254SOL    HW1 7661   1.723   4.865   1.341 -0.6357  0.1142 -0.7534
 2254SOL    HW2 7662   1.804   5.004   1.310  1.8500 -0.9316  0.7452
 2255SOL     OW 7663   0.390   0.179   5.326  0.4495 -0.6406  0.0885
 2255SOL    HW1 7664   0.457   0.252   5.318  0.0358 -0.2032  0.5594
 2255SOL    HW2 7665   0.374   0.159   5.423 -1.7353  0.8000  0.1033
 2256SOL     OW 7666   5.597   5.013   5.981 -0.5117 -0.3197 -0.0459
 2256SOL    HW1 7667   5.549   4.955   5.915 -3.0741  0.7506  0.7408
 2256SOL    HW2 7668   5.561   4.996   6.073 -0.3371  1.4648  0.3958
 2257SOL     OW 7669   1.444   2.659   5.346  0.0033 -0.6601  0.2260
 2257SOL    HW1 7670   1.362   2.656   5.402  0.6637  0.6325  1.3292
 2257SOL    HW2 7671   1.460   2.752   5.314  1.4118 -0.7313  0.6435
 2258SOL     OW 7672   2.669   2.446   0.940 -0.1348 -0.2854  1.0709
 2258SOL    HW1 7673   2.736   2.401   0.882  0.6946  0.7137  1.2187
 2258SOL    HW2 7674   2.603   2.379   0.974  0.4072 -1.1722  0.4042
 2259SOL     OW 7675   0.460   0.373   6.026  0.1263 -0.1525  0.2139
 2259SOL    HW1 7676   0.550   0.413   6.009  1.5806 -2.2607  2.2502
 2259SOL    HW2 7677   0.433   0.316   5.948  1.2854 -0.6548  0.1562
 2260SOL     OW 7678   5.099   4.663   5.844  0.3152  0.8172  0.2447
 2260SOL    HW1 7679   5.009   4.622   5.829  0.6941  0.0033  0.1169
 2260SOL    HW2 7680   5.093   4.762   5.836 -0.5851  0.7736  0.3253
 2261SOL     OW 7681   0.118   0.848   1.268 -0.2447  0.2153  0.1193
 2261SOL    HW1 7682   0.157   0.891   1.187  0.8493 -2.0558 -0.6611
 2261SOL    HW2 7683   0.023   0.823   1.251 -0.0696 -0.0925 -0.4227
 2262SOL     OW 7684   3.729   6.815   3.168 -0.0672 -0.7154 -0.3104
 2262SOL    HW1 7685   3.789   6.771   3.235  0.4367  0.8210  0.2794
 2262SOL    HW2 7686   3.636   6.779   3.179 -0.0231 -0.4073  1.3212
 2263SOL     OW 7687   4.434   6.358   2.411  0.2515  0.2673  0.2655
 2263SOL    HW1 7688   4.410   6.413   2.331 -0.6111  0.5528  0.7091
 2263SOL    HW2 7689   4.352   6.339   2.465  0.4287 -1.9097 -0.1369
 2264SOL     OW 7690   2.933   7.001   6.558 -0.4432 -0.2224 -0.1855
 2264SOL    HW1 7691   2.975   7.033   6.644 -1.1554  1.0082 -0.2760
 2264SOL    HW2 7692   2.891   6.911   6.573  0.6736 -0.6696  0.3683
 2265SOL     OW 7693   2.322   0.651   4.847  0.1440 -0.4674  1.0012
 2265SOL    HW1 7694   2.265   0.653   4.765  0.1070  0.4839  1.0400
 2265SOL    HW2 7695   2.406   0.600   4.828  0.3127  0.0701  0.2463
 2266SOL     OW 7696   1.821   3.398   5.586 -0.5553  0.6963  0.1762
 2266SOL    HW1 7697   1.833   3.438   5.495 -0.6274  0.5297  0.0917
 2266SOL    HW2 7698   1.811   3.471   5.654  1.3363  0.8508  0.3156
 2267SOL     OW 7699   2.061   6.964   6.683  0.0506  0.4441  0.2336
 2267SOL    HW1 7700   2.110   6.908   6.750  0.7458 -0.8457 -1.2907
 2267SOL    HW2 7701   2.056   7.058   6.716  3.2399  0.5782  0.6446
 2268SOL     OW 7702   0.941   5.534   4.346 -0.1501 -0.0507  0.2321
 2268SOL    HW1 7703   0.893   5.481   4.276 -1.5401 -0.0701  1.1452
 2268SOL    HW2 7704   0.965   5.473   4.422 -0.7273  0.3825  0.7775
 2269SOL     OW 7705   6.813   4.501   3.798 -0.1910 -0.0863 -0.1006
 2269SOL    HW1 7706   6.721   4.532   3.774  0.4272  1.6589 -0.3102
 2269SOL    HW2 7707   6.808   4.444   3.880 -1.8429 -2.8259 -1.9469
 2270SOL     OW 7708   6.684   6.233   4.165 -0.0219 -0.4507 -0.4825
 2270SOL    HW1 7709   6.677   6.135   4.145  1.8205 -1.0289  1.3970
 2270SOL    HW2 7710   6.763   6.250   4.223  0.2951  2.3230 -1.5505
 2271SOL     OW 7711   0.460   2.514   4.250 -0.4025  0.1153 -0.6298
 2271SOL    HW1 7712   0.536   2.565   4.210 -0.4026  0.3003 -0.3933
 2271SOL    HW2 7713   0.450   2.539   4.346 -1.6994  1.1852 -1.0277
 2272SOL     OW 7714   4.189   2.152   0.131 -0.1566 -0.1868 -0.3088
 2272SOL    HW1 7715   4.223   2.060   0.154  1.0947 -0.3344 -2.4618
 2272SOL    HW2 7716   4.168   2.201   0.215  2.4158 -1.2513  1.0942
 2273SOL     OW 7717   3.679   1.410   0.647  0.4020 -0.0692  0.2367
 2273SOL    HW1 7718   3.737   1.372   0.720 -0.7419 -2.3546  0.0466
 2273SOL    HW2 7719   3.612   1.472   0.687  1.5806  0.9337  0.7259
 2274SOL     OW 7720   2.024   4.906   6.745 -0.6757 -0.1490 -0.1193
 2274SOL    HW1 7721   1.992   4.813   6.728 -1.3586  0.1289 -0.4298
 2274SOL    HW2 7722   2.123   4.911   6.735 -0.7328 -0.6581 -0.9582
 2275SOL     OW 7723   0.681   2.748   0.533 -0.3008 -0.4162 -0.1579
 2275SOL    HW1 7724   0.661   2.651   0.521 -1.7522 -0.3534  1.4148
 2275SOL    HW2 7725   0.607   2.791   0.586  1.9597  0.7853  2.2473
 2276SOL     OW 7726   5.920   3.787   5.667  0.3619 -0.0051  0.0100
 2276SOL    HW1 7727   5.866   3.786   5.751 -0.4834 -1.3313 -0.5161
 2276SOL    HW2 7728   5.918   3.879   5.628 -1.0885  0.1155  0.2881
 2277SOL     OW 7729   3.026   3.169   1.138 -0.0561 -0.6832  0.0930
 2277SOL    HW1 7730   3.026   3.239   1.209  1.5482 -0.9493  0.3988
 2277SOL    HW2 7731   3.008   3.211   1.049  0.4996  0.0573  0.3239
 2278SOL     OW 7732   6.065   6.566   5.245  0.5493  0.7059  0.0453
 2278SOL    HW1 7733   6.159   6.568   5.278  0.4859  1.6168  0.2095
 2278SOL    HW2 7734   6.004   6.541   5.319  0.5539  1.2724  0.2461
 2279SOL     OW 7735   1.963   0.823   5.406  0.1808 -0.0781 -0.2021
 2279SOL    HW1 7736   2.033   0.765   5.363 -0.2504 -0.1511 -0.8262
 2279SOL    HW2 7737   1.883   0.768   5.427  1.1886 -0.5590  2.8208
 2280SOL     OW 7738   4.994   6.955   5.459 -0.6069  0.2343 -0.0847
 2280SOL    HW1 7739   4.993   7.048   5.497  1.2266 -0.1395  1.0283
 2280SOL    HW2 7740   4.952   6.893   5.525 -1.2442  0.1803 -0.5422
 2281SOL     OW 7741   4.810   2.623   6.506  0.0212 -0.0574 -0.0326
 2281SOL    HW1 7742   4.866   2.686   6.560 -0.3122 -0.1302  0.4096
 2281SOL    HW2 7743   4.860   2.594   6.425  1.2097 -1.2369  1.0586
 2282SOL     OW 7744   2.388   1.569   5.457  0.3868  0.3346 -0.4894
 2282SOL    HW1 7745   2.422   1.540   5.547  2.9068  1.9100 -0.8236
 2282SOL    HW2 7746   2.439   1.521   5.386 -0.0804  0.6713 -1.0551
 2283SOL     OW 7747   0.296   6.435   5.462  0.1672  0.6559 -1.2100
 2283SOL    HW1 7748   0.285   6.336   5.473  0.8721  0.4199 -2.4553
 2283SOL    HW2 7749   0.253   6.482   5.539 -0.8149 -0.5853 -0.9657
 2284SOL     OW 7750   4.868   4.430   2.462 -0.3136  0.0590  0.1045
 2284SOL    HW1 7751   4.880   4.331   2.463  1.7966  0.2681  1.1465
 2284SOL    HW2 7752   4.955   4.474   2.484 -0.8672  2.1994 -1.6301
 2285SOL     OW 7753   6.288   2.625   6.998 -0.2068  0.4638 -0.0053
 2285SOL    HW1 7754   6.254   2.701   7.053  3.0331  1.6859  0.5324
 2285SOL    HW2 7755   6.309   2.547   7.057 -1.4012 -0.0767 -0.2594
 2286SOL     OW 7756   3.044   6.045   6.288 -0.2235 -0.0471  0.1290
 2286SOL    HW1 7757   3.023   6.109   6.362  1.1582  1.5788 -0.8125
 2286SOL    HW2 7758   3.143   6.038   6.276 -0.3808 -1.5168 -0.5431
 2287SOL     OW 7759   4.714   4.959   0.793 -0.5721 -0.2877  0.0533
 2287SOL    HW1 7760   4.711   4.901   0.712  1.1308 -0.7212  0.2786
 2287SOL    HW2 7761   4.807   4.963   0.828 -1.3317 -0.4029  2.2142
 2288SOL     OW 7762   0.582   2.815   0.286  0.4911 -0.1573  0.5271
 2288SOL    HW1 7763   0.509   2.759   0.248 -2.1978  1.4731  2.8468
 2288SOL    HW2 7764   0.617   2.772   0.370 -0.1831  0.5940  1.2180
 2289SOL     OW 7765   6.436   2.502   2.505  0.1140 -0.5508 -0.3364
 2289SOL    HW1 7766   6.405   2.472   2.595 -0.1205 -0.6793 -0.4584
 2289SOL    HW2 7767   6.507   2.441   2.471  0.1197 -0.5695 -0.2900
 2290SOL     OW 7768   5.838   6.516   5.394  0.0194 -0.0333 -0.0618
 2290SOL    HW1 7769   5.813   6.547   5.486 -0.8270 -0.0258 -0.2828
 2290SOL    HW2 7770   5.779   6.561   5.326  0.1009 -0.6287 -0.5392
 2291SOL     OW 7771   5.765   0.860   1.042 -0.9368  0.4495 -0.4015
 2291SOL    HW1 7772   5.680   0.849   1.093  0.6232  0.0062  2.3128
 2291SOL    HW2 7773   5.746   0.854   0.944 -4.0233  0.6675  0.0792
 2292SOL     OW 7774   6.730   2.401   6.414  0.1526 -0.6679  0.3050
 2292SOL    HW1 7775   6.773   2.325   6.463 -2.1528 -1.7088  0.8447
 2292SOL    HW2 7776   6.735   2.384   6.316  0.1737 -1.2384  0.3979
 2293SOL     OW 7777   5.428   0.141   2.477  0.1091  0.1073 -0.4599
 2293SOL    HW1 7778   5.408   0.238   2.468  1.4716  0.4896  0.2699
 2293SOL    HW2 7779   5.399   0.092   2.395  0.5727  1.3263 -1.3623
 2294SOL     OW 7780   1.619   5.645   6.054 -0.1167 -0.5525  0.6983
 2294SOL    HW1 7781   1.671   5.613   6.133  0.1929 -1.9934 -0.0431
 2294SOL    HW2 7782   1.521   5.629   6.069 -0.0680 -0.7089  0.8546
 2295SOL     OW 7783   3.223   6.456   5.236 -0.1453  0.3604 -0.1715
 2295SOL    HW1 7784   3.278   6.396   5.177 -0.2510  0.1304 -0.0366
 2295SOL    HW2 7785   3.254   6.447   5.330  0.4685  1.2267 -0.2796
 2296SOL     OW 7786   4.229   2.573   1.502  0.3387 -0.5502 -0.3664
 2296SOL    HW1 7787   4.183   2.596   1.588 -0.1659 -0.1094 -0.7515
 2296SOL    HW2 7788   4.224   2.474   1.488 -0.6731 -0.4895 -0.4957
 2297SOL     OW 7789   0.251   6.272   0.749  0.0652 -0.5553 -0.0434
 2297SOL    HW1 7790   0.288   6.190   0.792  1.4485  0.3983  0.6631
 2297SOL    HW2 7791   0.151   6.268   0.750  0.0629 -1.1548  2.1113
 2298SOL     OW 7792   2.124   2.584   5.742  0.0457  0.2970  0.2122
 2298SOL    HW1 7793   2.126   2.593   5.842 -1.3112 -2.4674  0.5779
 2298SOL    HW2 7794   2.200   2.527   5.712 -1.5727 -1.9432  0.1593
 2299SOL     OW 7795   6.323   5.317   1.442 -0.0115 -0.0072  0.1014
 2299SOL    HW1 7796   6.260   5.270   1.381 -0.1206  0.7525 -0.3829
 2299SOL    HW2 7797   6.379   5.250   1.490 -0.5157 -0.6468 -0.1917
 2300SOL     OW 7798   2.098   0.168   1.559 -0.1677  0.1253  0.0313
 2300SOL    HW1 7799   2.035   0.109   1.609 -1.4019  2.0376  0.8399
 2300SOL    HW2 7800   2.190   0.130   1.563 -1.0782 -2.3000 -0.4560
 2301SOL     OW 7801   2.925   3.348   3.902  0.5401 -0.1237 -0.6094
 2301SOL    HW1 7802   2.912   3.441   3.867  1.7787  0.5910  0.7513
 2301SOL    HW2 7803   2.915   3.283   3.826 -1.8095  0.9593 -1.3202
 2302SOL     OW 7804   1.665   4.227   4.792  0.0625 -0.1637 -0.2730
 2302SOL    HW1 7805   1.715   4.299   4.840  0.0929 -0.8373  0.7320
 2302SOL    HW2 7806   1.721   4.145   4.787 -0.4674 -0.5362 -0.2179
 2303SOL     OW 7807   0.371   3.968   6.446 -0.5899  0.6574  0.0889
 2303SOL    HW1 7808   0.337   3.913   6.522 -0.7873 -0.5613 -0.8497
 2303SOL    HW2 7809   0.363   4.065   6.469 -0.0711  0.3221  1.8591
 2304SOL     OW 7810   4.716   2.410   1.474  0.3191  0.3395 -0.8174
 2304SOL    HW1 7811   4.653   2.485   1.492  1.7339  1.5959 -0.8562
 2304SOL    HW2 7812   4.716   2.346   1.551 -0.8124  0.4348 -0.7291
 2305SOL     OW 7813   1.617   1.161   2.009 -0.1238 -0.4524 -0.2460
 2305SOL    HW1 7814   1.525   1.151   1.970 -0.0761  0.2794 -0.5634
 2305SOL    HW2 7815   1.662   1.240   1.967  0.7089 -0.8985 -0.2017
 2306SOL     OW 7816   5.523   4.624   4.423 -0.0919 -0.3323 -0.3254
 2306SOL    HW1 7817   5.467   4.674   4.356  0.4711  0.4650 -0.2209
 2306SOL    HW2 7818   5.600   4.581   4.375 -2.4141 -4.1780 -1.0390
 2307SOL     OW 7819   0.454   5.625   4.593 -0.1233 -0.5499 -0.0089
 2307SOL    HW1 7820   0.408   5.543   4.627 -0.8223 -1.2052 -2.3805
 2307SOL    HW2 7821   0.386   5.686   4.552  0.6424  0.3099 -0.0228
 2308SOL     OW 7822   2.091   5.026   3.561  0.0450 -0.4628  0.2051
 2308SOL    HW1 7823   2.149   4.988   3.489 -0.4595 -0.9102  0.0225
 2308SOL    HW2 7824   2.015   5.075   3.519 -0.5369 -1.1616  0.4192
 2309SOL     OW 7825   1.719   4.519   2.258 -0.4853  0.2688  0.1752
 2309SOL    HW1 7826   1.798   4.465   2.228 -0.0837  1.8087 -1.7213
 2309SOL    HW2 7827   1.635   4.473   2.229 -0.1502  0.5826 -1.3621
 2310SOL     OW 7828   4.461   2.914   6.321  0.1254 -0.0159  0.2752
 2310SOL    HW1 7829   4.450   2.838   6.258 -0.7366 -0.5629  1.0564
 2310SOL    HW2 7830   4.536   2.895   6.384  1.9795  1.1839 -1.4630
 2311SOL     OW 7831   2.392   0.120   1.776 -0.2040 -0.7513  0.3180
 2311SOL    HW1 7832   2.313   0.155   1.826  0.0128  0.9212 -0.4464
 2311SOL    HW2 7833   2.361   0.066   1.698 -0.6401  0.9896 -0.7444
 2312SOL     OW 7834   1.721   2.349   5.603  0.3093  0.3282 -0.2261
 2312SOL    HW1 7835   1.684   2.319   5.514 -0.8666  1.2399 -0.0702
 2312SOL    HW2 7836   1.778   2.430   5.590 -0.6281  1.0324 -0.0608
 2313SOL     OW 7837   5.732   5.556   3.871 -0.4988 -0.2597  0.0812
 2313SOL    HW1 7838   5.725   5.581   3.968 -1.0229  0.6223 -0.1821
 2313SOL    HW2 7839   5.680   5.472   3.854 -0.9754 -0.0324  0.4217
 2314SOL     OW 7840   6.269   2.665   5.221 -0.1106 -0.0513 -0.7600
 2314SOL    HW1 7841   6.196   2.733   5.223  1.2278  1.4802 -1.4996
 2314SOL    HW2 7842   6.230   2.573   5.229 -1.9844  0.7794  0.0563
 2315SOL     OW 7843   3.146   5.199   4.867  0.2142  0.1406 -0.4279
 2315SOL    HW1 7844   3.209   5.208   4.790  0.5770  1.5154  0.0033
 2315SOL    HW2 7845   3.169   5.267   4.937 -0.3320 -0.8476  0.7403
 2316SOL     OW 7846   5.619   3.412   5.558  0.4413 -0.4320 -0.4240
 2316SOL    HW1 7847   5.634   3.510   5.546 -0.6482 -0.3624 -1.3404
 2316SOL    HW2 7848   5.690   3.374   5.617  0.5987  0.9965  0.3345
 2317SOL     OW 7849   5.385   6.351   3.123 -0.0069  0.2863  0.3814
 2317SOL    HW1 7850   5.390   6.252   3.132 -1.0515  0.0663 -1.0395
 2317SOL    HW2 7851   5.421   6.395   3.206 -0.0764 -1.2730  1.2612
 2318SOL     OW 7852   1.325   0.226   0.661  0.8272  0.4126  0.1730
 2318SOL    HW1 7853   1.233   0.259   0.641  1.1187  2.7475  2.2772
 2318SOL    HW2 7854   1.361   0.177   0.581 -1.0476  2.1243 -1.8320
 2319SOL     OW 7855   1.768   2.521   0.019  0.0798 -0.0311 -0.3435
 2319SOL    HW1 7856   1.766   2.620   0.036 -0.4667 -0.2122  0.7874
 2319SOL    HW2 7857   1.674   2.488   0.005  0.2337 -0.4258 -0.4568
 2320SOL     OW 7858   5.579   6.093   4.654 -0.4859 -0.8877 -0.5812
 2320SOL    HW1 7859   5.548   6.185   4.631 -0.2786 -0.5355  0.5164
 2320SOL    HW2 7860   5.636   6.096   4.736  1.7458 -1.6332 -2.0102
 2321SOL     OW 7861   3.304   4.127   3.920  0.6645 -0.5476 -0.2453
 2321SOL    HW1 7862   3.284   4.213   3.873 -1.3885  0.0036  1.4725
 2321SOL    HW2 7863   3.241   4.056   3.888  1.6283 -1.1485 -0.8597
 2322SOL     OW 7864   1.082   4.142   4.457  0.0076 -0.1504  0.1693
 2322SOL    HW1 7865   1.107   4.049   4.482  1.1207  0.5730  1.9647
 2322SOL    HW2 7866   1.068   4.196   4.540 -0.8599  1.2273 -0.8352
 2323SOL     OW 7867   5.495   1.418   2.763  0.7727 -0.6546 -0.4033
 2323SOL    HW1 7868   5.415   1.425   2.823  0.7076 -2.6774 -0.1915
 2323SOL    HW2 7869   5.578   1.421   2.819  0.8275  0.1767 -0.5081
 2324SOL     OW 7870   0.049   5.909   4.711 -0.1667  0.4320 -0.3233
 2324SOL    HW1 7871   0.073   6.004   4.688 -0.1743  0.1336 -1.6521
 2324SOL    HW2 7872   0.096   5.847   4.648  2.3162 -0.6764  2.3662
 2325SOL     OW 7873   2.158   1.320   6.321 -0.1985  0.0137  0.1545
 2325SOL    HW1 7874   2.151   1.340   6.223  0.9104  0.0378  0.0688
 2325SOL    HW2 7875   2.219   1.385   6.364 -0.6382 -0.0340  0.8626
 2326SOL     OW 7876   1.967   6.610   2.442  0.3172  0.5496 -0.6864
 2326SOL    HW1 7877   1.873   6.631   2.414 -1.0893 -2.0525  1.6370
 2326SOL    HW2 7878   2.018   6.577   2.362 -1.5219 -0.3424 -1.5816
 2327SOL     OW 7879   5.971   2.474   6.228  0.3044  0.5547  0.6901
 2327SOL    HW1 7880   6.039   2.448   6.296 -1.2792 -0.8039  1.8247
 2327SOL    HW2 7881   6.012   2.538   6.163  2.7913 -0.5859  1.0145
 2328SOL     OW 7882   1.305   4.888   1.684 -0.1825  0.3904  0.4462
 2328SOL    HW1 7883   1.225   4.855   1.735 -0.5468  2.7900  1.5591
 2328SOL    HW2 7884   1.387   4.842   1.716 -0.8673 -0.7951  0.5614
 2329SOL     OW 7885   0.555   1.273   4.504  0.1368  0.2389 -0.2033
 2329SOL    HW1 7886   0.547   1.256   4.603  0.3968  0.4741 -0.1415
 2329SOL    HW2 7887   0.537   1.188   4.455  1.6986 -0.3016  0.1122
 2330SOL     OW 7888   0.563   4.305   3.513 -0.3148  0.2082  0.4182
 2330SOL    HW1 7889   0.550   4.324   3.416  1.4016  2.2537  0.5237
 2330SOL    HW2 7890   0.654   4.266   3.528 -0.1240  0.9499  1.2972
 2331SOL     OW 7891   4.661   2.330   6.027  0.1731 -0.0598  0.3674
 2331SOL    HW1 7892   4.594   2.270   6.072 -0.3023 -0.3292 -0.6669
 2331SOL    HW2 7893   4.729   2.274   5.980  1.0551  0.2167  1.2673
 2332SOL     OW 7894   5.177   2.524   4.468 -0.1631 -0.1887  0.2403
 2332SOL    HW1 7895   5.082   2.548   4.451 -0.6036 -0.7509  1.7443
 2332SOL    HW2 7896   5.236   2.575   4.406 -1.4807 -0.5528 -1.3806
 2333SOL     OW 7897   0.317   4.687   1.142  0.8647 -0.0011  0.0614
 2333SOL    HW1 7898   0.349   4.731   1.058 -1.3478  2.1463  0.2437
 2333SOL    HW2 7899   0.242   4.625   1.121 -1.6356  2.6482  0.6074
 2334SOL     OW 7900   1.836   0.447   0.684  0.4344  0.2061 -0.1156
 2334SOL    HW1 7901   1.751   0.460   0.734 -0.2203 -0.1945 -1.0838
 2334SOL    HW2 7902   1.816   0.405   0.595  1.7839 -1.4162  0.2841
 2335SOL     OW 7903   4.953   5.010   6.372  0.3517  0.2292 -0.2469
 2335SOL    HW1 7904   4.932   4.971   6.461  0.4763 -0.2757 -0.4332
 2335SOL    HW2 7905   5.029   5.074   6.380  0.8816 -0.4044 -0.1166
 2336SOL     OW 7906   6.077   6.821   0.139  0.2202  0.3594 -0.3492
 2336SOL    HW1 7907   6.022   6.796   0.218  1.7139  0.5330  0.7931
 2336SOL    HW2 7908   6.079   6.921   0.130 -0.7906  0.3167 -1.2589
 2337SOL     OW 7909   0.451   0.385   3.041 -0.0770 -0.0891  0.1607
 2337SOL    HW1 7910   0.353   0.397   3.024 -0.4338 -2.1137  0.5336
 2337SOL    HW2 7911   0.503   0.443   2.978 -1.4924  0.5950 -0.4255
 2338SOL     OW 7912   3.290   3.078   7.009  0.2758  0.4212  0.0463
 2338SOL    HW1 7913   3.363   3.143   6.987 -1.2127  2.0405 -0.3504
 2338SOL    HW2 7914   3.203   3.113   6.975 -0.4397 -2.4508 -1.4378
 2339SOL     OW 7915   5.225   1.024   5.139 -0.0094 -0.0052 -0.0499
 2339SOL    HW1 7916   5.280   0.977   5.070 -3.4507  0.1082 -3.1478
 2339SOL    HW2 7917   5.264   1.115   5.156  1.6285 -0.5178 -0.8409
 2340SOL     OW 7918   5.312   4.788   6.184 -0.4869  0.2802  0.5827
 2340SOL    HW1 7919   5.397   4.835   6.208 -1.1890  1.3156  1.1258
 2340SOL    HW2 7920   5.282   4.733   6.262 -0.4809  0.1686  0.5056
 2341SOL     OW 7921   2.668   1.778   0.904  0.4596  0.3691  0.0335
 2341SOL    HW1 7922   2.713   1.861   0.871  0.5978  0.5410  0.6356
 2341SOL    HW2 7923   2.573   1.800   0.930  0.1712  0.1098 -0.7922
 2342SOL     OW 7924   3.838   2.419   6.402 -0.1914 -0.2022  0.5026
 2342SOL    HW1 7925   3.850   2.490   6.333 -0.6814 -1.8639 -1.4058
 2342SOL    HW2 7926   3.747   2.378   6.392  0.3542 -1.5971  0.9969
 2343SOL     OW 7927   5.345   1.932   1.707 -0.5413 -0.5339 -0.5071
 2343SOL    HW1 7928   5.268   1.928   1.643 -0.8098  0.3179 -0.2423
 2343SOL    HW2 7929   5.428   1.901   1.660 -0.3603  1.7656 -1.8499
 2344SOL     OW 7930   5.995   3.564   2.858  0.2450  0.1048 -0.4539
 2344SOL    HW1 7931   5.999   3.570   2.957  2.4561 -0.8384 -0.4155
 2344SOL    HW2 7932   6.079   3.602   2.819 -0.0986 -0.5390 -1.8865
 2345SOL     OW 7933   6.895   3.270   3.717  0.4173 -0.2517 -0.1962
 2345SOL    HW1 7934   6.827   3.265   3.644  0.8059 -0.0584 -0.5756
 2345SOL    HW2 7935   6.849   3.279   3.805 -0.0443  1.3154 -0.5688
 2346SOL     OW 7936   5.091   1.192   0.839 -0.5121  0.2996 -0.4434
 2346SOL    HW1 7937   5.040   1.124   0.788  1.0969 -1.5073  0.2406
 2346SOL    HW2 7938   5.085   1.172   0.937 -1.5537  2.2874 -0.0480
 2347SOL     OW 7939   5.013   0.576   1.453  0.1940  0.2032 -0.1574
 2347SOL    HW1 7940   4.955   0.656   1.443  1.4102  0.9608 -1.4019
 2347SOL    HW2 7941   5.047   0.571   1.548 -0.4250  0.7653  0.0995
 2348SOL     OW 7942   0.133   1.976   4.304  0.1630  0.1030  0.1916
 2348SOL    HW1 7943   0.069   1.931   4.242  0.9072  0.1870 -0.6575
 2348SOL    HW2 7944   0.085   2.001   4.389 -1.1629  0.9402 -0.7495
 2349SOL     OW 7945   4.915   4.311   6.277 -0.0970  0.1011 -0.0573
 2349SOL    HW1 7946   4.897   4.216   6.249  2.6613 -0.9106  1.2448
 2349SOL    HW2 7947   4.974   4.311   6.358  0.1814  2.9761 -0.1659
 2350SOL     OW 7948   5.238   3.963   2.723  0.3825  0.1501  0.0468
 2350SOL    HW1 7949   5.200   4.036   2.781  2.9066  0.1175  1.9203
 2350SOL    HW2 7950   5.164   3.906   2.688 -1.5263  2.4550  0.0993
 2351SOL     OW 7951   0.808   3.610   1.414 -0.1197 -0.1556  0.0983
 2351SOL    HW1 7952   0.789   3.550   1.492  0.3829 -0.1392  0.2355
 2351SOL    HW2 7953   0.906   3.612   1.397 -0.2302 -0.2226 -0.5864
 2352SOL     OW 7954   0.179   0.934   1.503 -0.5120  0.2369  0.0889
 2352SOL    HW1 7955   0.134   0.885   1.428 -2.1126 -0.2840  1.3427
 2352SOL    HW2 7956   0.117   0.939   1.581 -0.2981  3.8960  0.2077
 2353SOL     OW 7957   3.515   4.930   1.061 -1.0056 -0.7455  0.0494
 2353SOL    HW1 7958   3.482   4.876   0.984  1.1156 -1.7637 -0.2185
 2353SOL    HW2 7959   3.615   4.923   1.066 -0.9327  0.8101  1.7853
 2354SOL     OW 7960   6.630   6.912   0.407  0.2487  0.1770  0.1785
 2354SOL    HW1 7961   6.681   6.835   0.370  1.2646  0.5667  0.7396
 2354SOL    HW2 7962   6.612   6.897   0.504  1.5827  1.2055  0.6124
 2355SOL     OW 7963   3.577   4.106   3.281 -0.0897 -0.2435  0.1146
 2355SOL    HW1 7964   3.661   4.052   3.285 -0.2965 -0.6401 -0.7042
 2355SOL    HW2 7965   3.598   4.202   3.302  0.7454 -0.1607 -0.9883
 2356SOL     OW 7966   1.036   1.544   6.396  0.2225 -0.7618  0.7281
 2356SOL    HW1 7967   1.113   1.512   6.451  0.1558  1.1268  2.0057
 2356SOL    HW2 7968   1.070   1.577   6.308  0.6070 -1.7690  0.4866
 2357SOL     OW 7969   0.353   0.977   4.825 -1.2811  0.2758  0.2271
 2357SOL    HW1 7970   0.362   1.067   4.867  1.4050  0.2585 -0.0839
 2357SOL    HW2 7971   0.335   0.909   4.896 -2.2573  0.9120  0.5995
 2358SOL     OW 7972   5.838   2.796   5.178  0.4457 -0.5549  0.3185
 2358SOL    HW1 7973   5.796   2.883   5.154  0.9996 -0.1546  0.7648
 2358SOL    HW2 7974   5.926   2.813   5.222  1.1762 -1.3885 -0.8043
 2359SOL     OW 7975   1.486   2.824   1.251  0.1143 -0.0045 -0.5732
 2359SOL    HW1 7976   1.408   2.783   1.298  1.1393 -2.1152 -0.5708
 2359SOL    HW2 7977   1.571   2.792   1.293  1.0109  0.3177 -2.0574
 2360SOL     OW 7978   4.043   4.679   5.714 -0.0922  0.2995  0.1293
 2360SOL    HW1 7979   4.082   4.682   5.806 -1.7962  0.1061  0.9019
 2360SOL    HW2 7980   3.946   4.653   5.720  0.1671 -1.4051 -1.8452
 2361SOL     OW 7981   0.957   1.612   1.950  0.5826 -0.2707  0.1731
 2361SOL    HW1 7982   0.967   1.705   1.985 -1.1018 -0.4573  1.2708
 2361SOL    HW2 7983   0.917   1.554   2.021  1.3442 -1.7720 -0.5889
 2362SOL     OW 7984   3.437   2.847   0.034 -0.1275 -0.1269  0.3375
 2362SOL    HW1 7985   3.381   2.930   0.029 -1.3854 -0.8902  1.2200
 2362SOL    HW2 7986   3.518   2.859  -0.023 -1.1888  1.0033 -1.0254
 2363SOL     OW 7987   0.395   6.755   4.058  0.1951 -0.5052 -0.3613
 2363SOL    HW1 7988   0.450   6.705   4.125 -0.6975  0.7040  1.3600
 2363SOL    HW2 7989   0.418   6.852   4.061 -1.9348  0.0480  0.4162
 2364SOL     OW 7990   2.898   5.437   5.492 -0.0399  0.0891 -0.6127
 2364SOL    HW1 7991   2.969   5.384   5.539  1.2295 -0.0789 -2.6114
 2364SOL    HW2 7992   2.940   5.512   5.442 -1.4903  1.0365 -0.4643
 2365SOL     OW 7993   4.764   2.281   1.694 -0.5817 -0.1171 -0.0364
 2365SOL    HW1 7994   4.768   2.349   1.766  0.2600  0.6067 -0.7364
 2365SOL    HW2 7995   4.852   2.234   1.688 -0.7699 -0.4372 -0.3469
 2366SOL     OW 7996   4.635   2.335   2.393  0.2810  0.1509 -0.5145
 2366SOL    HW1 7997   4.545   2.366   2.362  0.8899  0.8159 -1.6984
 2366SOL    HW2 7998   4.631   2.237   2.414 -0.8867  0.3349  0.1511
 2367SOL     OW 7999   1.641   6.077   6.071 -0.2348 -0.1296  0.1140
 2367SOL    HW1 8000   1.585   6.112   5.996  1.8228  0.5137 -1.2060
 2367SOL    HW2 8001   1.677   5.987   6.047 -0.0324 -0.1782  0.5876
 2368SOL     OW 8002   4.864   6.172   3.058 -0.2105 -0.6282 -0.4652
 2368SOL    HW1 8003   4.787   6.153   2.997  1.2173 -0.9501 -2.2389
 2368SOL    HW2 8004   4.943   6.203   3.005  0.5323  0.9511  1.4220
 2369SOL     OW 8005   2.889   5.132   0.579 -0.3313 -0.2917 -0.2445
 2369SOL    HW1 8006   2.887   5.179   0.667 -1.1456 -0.3334 -0.2344
 2369SOL    HW2 8007   2.966   5.068   0.578  0.4085  0.5802 -0.0303
 2370SOL     OW 8008   6.762   2.387   1.554  0.8228 -0.1219  0.8717
 2370SOL    HW1 8009   6.669   2.350   1.553  0.6158 -0.1055  4.4662
 2370SOL    HW2 8010   6.765   2.475   1.507 -0.4408 -1.0609 -1.0782
 2371SOL     OW 8011   6.719   3.110   5.045  0.6744  0.0287  0.4353
 2371SOL    HW1 8012   6.645   3.045   5.031  1.0915  0.1118 -3.0722
 2371SOL    HW2 8013   6.681   3.198   5.073 -0.5153 -0.1542 -0.5076
 2372SOL     OW 8014   1.118   4.249   2.924 -0.2783  0.1629  0.2257
 2372SOL    HW1 8015   1.039   4.310   2.911  1.2586  1.7951 -2.6180
 2372SOL    HW2 8016   1.178   4.257   2.845  3.2100 -0.3449  2.6177
 2373SOL     OW 8017   0.245   0.405   2.671 -0.1152  0.7998  0.5861
 2373SOL    HW1 8018   0.316   0.475   2.663  0.5866  0.0765  0.3721
 2373SOL    HW2 8019   0.160   0.440   2.631  0.9831  0.5109 -2.1909
 2374SOL     OW 8020   4.857   3.073   3.867 -0.0627 -0.3511 -0.5932
 2374SOL    HW1 8021   4.881   3.036   3.957  1.0952 -1.0811 -1.1732
 2374SOL    HW2 8022   4.864   3.173   3.869 -2.1766 -0.1651  0.6973
 2375SOL     OW 8023   2.424   5.304   4.447  0.0795 -0.3125 -0.4783
 2375SOL    HW1 8024   2.481   5.276   4.370  3.0778 -0.1104  1.5362
 2375SOL    HW2 8025   2.384   5.222   4.489  1.5122 -0.7805  0.0056
 2376SOL     OW 8026   6.459   4.396   6.980  0.1371  0.5387 -0.0741
 2376SOL    HW1 8027   6.407   4.400   6.894  0.3773  0.7890 -0.2116
 2376SOL    HW2 8028   6.556   4.407   6.960  0.3031 -0.4635  0.1308
 2377SOL     OW 8029   6.036   4.520   7.009  0.3201  0.3681  0.5347
 2377SOL    HW1 8030   6.054   4.509   7.107  0.2660  0.6768  0.5816
 2377SOL    HW2 8031   5.938   4.537   6.996 -0.2341 -2.5641  0.1875
 2378SOL     OW 8032   6.320   0.213   3.771  0.4306 -0.4712 -0.0347
 2378SOL    HW1 8033   6.226   0.181   3.784  0.5133 -0.2970  1.1480
 2378SOL    HW2 8034   6.352   0.186   3.680 -0.4837 -1.2347 -0.1527
 2379SOL     OW 8035   2.741   0.339   1.374 -0.0922  0.1864 -0.4405
 2379SOL    HW1 8036   2.673   0.400   1.335  0.8852  0.6934 -1.3990
 2379SOL    HW2 8037   2.770   0.272   1.305  0.1691 -0.2105  0.0413
 2380SOL     OW 8038   4.526   2.223   4.836 -0.2627  0.2608 -0.3466
 2380SOL    HW1 8039   4.523   2.137   4.887  1.8612  0.5123  0.2994
 2380SOL    HW2 8040   4.492   2.208   4.743 -1.7669 -0.7929  0.3342
 2381SOL     OW 8041   0.759   2.917   5.622  0.7250 -0.0488 -0.0811
 2381SOL    HW1 8042   0.677   2.863   5.638 -0.0544  1.0493 -0.2815
 2381SOL    HW2 8043   0.746   2.976   5.543  0.8057  1.8135  1.2232
 2382SOL     OW 8044   6.607   2.985   5.586  0.8782 -0.0830 -0.1413
 2382SOL    HW1 8045   6.607   2.995   5.487 -2.6593 -0.1246 -0.2808
 2382SOL    HW2 8046   6.656   2.901   5.611  0.9755 -0.6066 -1.9343
 2383SOL     OW 8047   1.860   6.781   4.407 -0.1418  0.4451 -0.0673
 2383SOL    HW1 8048   1.908   6.765   4.493  1.6448 -0.0095 -1.0672
 2383SOL    HW2 8049   1.922   6.760   4.331 -1.2790  1.9103 -1.4705
 2384SOL     OW 8050   2.011   3.427   4.121  0.1482 -0.3382 -0.2809
 2384SOL    HW1 8051   2.008   3.451   4.024 -0.1242  0.0640 -0.1741
 2384SOL    HW2 8052   1.978   3.504   4.175 -2.1874 -1.4693 -0.0094
 2385SOL     OW 8053   2.501   2.462   1.255  0.2764  0.2893 -0.4144
 2385SOL    HW1 8054   2.496   2.543   1.313 -2.4039 -0.0606 -0.0630
 2385SOL    HW2 8055   2.549   2.484   1.171  0.6099  1.9106  0.1719
 2386SOL     OW 8056   2.979   1.322   2.085 -0.0825 -0.6023 -0.0979
 2386SOL    HW1 8057   2.984   1.236   2.035 -2.8819 -1.2231  0.5363
 2386SOL    HW2 8058   2.886   1.337   2.118  1.0443  0.9609  2.8218
 2387SOL     OW 8059   5.587   0.771   5.597  0.1988 -0.3234  0.1079
 2387SOL    HW1 8060   5.520   0.789   5.670  1.5295 -0.5491  1.4368
 2387SOL    HW2 8061   5.645   0.694   5.623  0.3958 -0.7343 -1.4456
 2388SOL     OW 8062   3.687   4.857   1.702 -0.0907 -0.0640 -0.2473
 2388SOL    HW1 8063   3.660   4.799   1.779  1.5193 -2.0310 -1.0903
 2388SOL    HW2 8064   3.707   4.950   1.735 -1.3127 -0.3386  1.3597
 2389SOL     OW 8065   4.803   5.610   2.557  0.5765 -0.0904  0.7077
 2389SOL    HW1 8066   4.833   5.697   2.597  0.9001 -0.3357  1.0042
 2389SOL    HW2 8067   4.852   5.595   2.471  0.8597 -0.1959  0.8854
 2390SOL     OW 8068   4.439   1.596   5.675 -0.0452  0.2225  0.5869
 2390SOL    HW1 8069   4.479   1.668   5.732  0.2441 -0.6711  1.5544
 2390SOL    HW2 8070   4.409   1.635   5.588 -0.1504  1.5562  1.1919
 2391SOL     OW 8071   2.094   2.340   5.407  0.6784 -0.3096  0.5954
 2391SOL    HW1 8072   2.107   2.332   5.506 -1.1772  2.6322  1.2076
 2391SOL    HW2 8073   2.093   2.437   5.381 -2.7839 -0.7856 -1.6555
 2392SOL     OW 8074   5.956   0.856   4.903  0.2295  0.2076 -0.0721
 2392SOL    HW1 8075   5.892   0.822   4.834  0.5202  0.4753 -0.4795
 2392SOL    HW2 8076   5.954   0.956   4.904 -2.0344  0.2526  2.4307
 2393SOL     OW 8077   3.910   0.142   0.143  0.4453  0.4478 -0.0490
 2393SOL    HW1 8078   3.962   0.064   0.107  0.1136 -0.0863  0.6157
 2393SOL    HW2 8079   3.966   0.225   0.136  0.9171  0.1009 -0.4815
 2394SOL     OW 8080   6.147   1.687   1.795 -0.4847  0.3834  0.6155
 2394SOL    HW1 8081   6.131   1.759   1.863 -0.6143 -0.0283  1.0236
 2394SOL    HW2 8082   6.060   1.648   1.765 -0.4466  0.7687 -0.0174
 2395SOL     OW 8083   0.601   4.781   5.049 -0.0005 -0.2528  0.4179
 2395SOL    HW1 8084   0.568   4.867   5.087 -3.2129 -0.6457 -1.0976
 2395SOL    HW2 8085   0.636   4.796   4.956 -0.4989 -0.5182  0.1782
 2396SOL     OW 8086   4.796   1.655   2.700  0.2060 -0.0449  0.0385
 2396SOL    HW1 8087   4.714   1.639   2.646  1.0433  1.0209 -1.6090
 2396SOL    HW2 8088   4.876   1.621   2.652  1.2395  2.8609 -0.5201
 2397SOL     OW 8089   5.548   5.011   4.660  0.0456 -0.1631  0.0483
 2397SOL    HW1 8090   5.609   5.050   4.591  0.7860 -0.9470  0.2468
 2397SOL    HW2 8091   5.567   5.053   4.748 -0.5913  0.5091 -0.1163
 2398SOL     OW 8092   3.134   2.031   6.430 -0.1448  0.3460  0.6653
 2398SOL    HW1 8093   3.066   2.097   6.462 -1.8675 -1.2071  0.3692
 2398SOL    HW2 8094   3.136   2.031   6.330  0.3203  0.4095  0.6735
 2399SOL     OW 8095   0.731   6.795   1.375  0.6671  0.3715 -0.0610
 2399SOL    HW1 8096   0.806   6.737   1.342 -0.8110 -0.3590 -2.3834
 2399SOL    HW2 8097   0.698   6.760   1.463  0.6760 -1.5241 -0.7762
 2400SOL     OW 8098   5.324   0.144   2.749 -0.3609 -0.3158 -0.1447
 2400SOL    HW1 8099   5.302   0.047   2.752  0.3778 -0.4831 -0.0062
 2400SOL    HW2 8100   5.351   0.170   2.656  2.1121 -0.8694  0.3416
 2401SOL     OW 8101   6.597   3.032   3.474  0.4748  0.3937 -0.7323
 2401SOL    HW1 8102   6.586   3.002   3.379 -0.4205  1.4489 -0.9926
 2401SOL    HW2 8103   6.645   3.120   3.476  0.0645  0.6147 -0.2584
 2402SOL     OW 8104   1.702   4.720   5.795  0.0812 -0.1235 -0.3168
 2402SOL    HW1 8105   1.619   4.752   5.749 -1.3233 -1.8899  0.8414
 2402SOL    HW2 8106   1.780   4.733   5.734 -1.4757 -1.1556 -2.7199
 2403SOL     OW 8107   1.267   5.976   2.107 -0.4092  0.3896 -0.4371
 2403SOL    HW1 8108   1.202   5.900   2.111 -0.1909  0.2142 -0.2029
 2403SOL    HW2 8109   1.353   5.949   2.151  0.8091 -0.3440 -3.0675
 2404SOL     OW 8110   0.903   6.946   4.546 -0.4331  0.1544 -0.0592
 2404SOL    HW1 8111   0.832   6.876   4.549  0.7309 -1.0791 -0.2151
 2404SOL    HW2 8112   0.987   6.909   4.585 -0.0262  1.7716  0.6456
 2405SOL     OW 8113   1.581   0.981   0.754  0.3000 -0.2924  0.2940
 2405SOL    HW1 8114   1.519   0.956   0.680  1.1348  1.1107 -0.9354
 2405SOL    HW2 8115   1.646   0.907   0.770 -0.7478 -1.1695  0.5968
 2406SOL     OW 8116   0.752   4.038   1.626  0.6890  0.0504 -0.1989
 2406SOL    HW1 8117   0.707   4.021   1.714 -0.6904 -0.9178 -1.0471
 2406SOL    HW2 8118   0.804   3.956   1.600 -0.4552 -0.4027 -1.1443
 2407SOL     OW 8119   4.613   4.349   6.493 -0.1819  0.0450 -0.4625
 2407SOL    HW1 8120   4.614   4.439   6.450 -1.0922  0.3559  0.1602
 2407SOL    HW2 8121   4.620   4.358   6.592 -0.0920 -0.5839 -0.4016
 2408SOL     OW 8122   1.897   4.846   3.224  0.1057 -0.0466 -0.1076
 2408SOL    HW1 8123   1.953   4.922   3.257 -0.1500 -0.2765  0.9110
 2408SOL    HW2 8124   1.912   4.766   3.282 -0.2191 -0.5372 -0.6870
 2409SOL     OW 8125   4.556   5.277   4.479  0.1274  0.5638 -0.4850
 2409SOL    HW1 8126   4.629   5.322   4.530  0.2541  0.3755 -0.4971
 2409SOL    HW2 8127   4.467   5.299   4.520  0.1352  1.3029 -0.8490
 2410SOL     OW 8128   3.790   6.410   3.043  0.4503  0.4019 -0.0482
 2410SOL    HW1 8129   3.788   6.503   3.006 -0.2912  1.1839  1.8172
 2410SOL    HW2 8130   3.734   6.406   3.126  0.7965 -1.6191  0.1376
 2411SOL     OW 8131   3.431   2.091   4.034 -0.7167 -0.1403  0.5866
 2411SOL    HW1 8132   3.336   2.099   4.004  0.4532 -1.1834 -4.4432
 2411SOL    HW2 8133   3.485   2.167   3.996  0.8477 -0.8928  1.2060
 2412SOL     OW 8134   1.246   4.820   5.742  0.2581 -0.5059  0.4083
 2412SOL    HW1 8135   1.237   4.917   5.766  1.5387 -0.5482  1.1257
 2412SOL    HW2 8136   1.338   4.802   5.708 -0.3803 -1.2164 -1.0464
 2413SOL     OW 8137   3.118   0.124   0.689  0.5058  0.3419  0.2875
 2413SOL    HW1 8138   3.120   0.025   0.702  0.7575  0.3853  0.6138
 2413SOL    HW2 8139   3.164   0.148   0.603  0.4322  0.1756  0.2018
 2414SOL     OW 8140   6.868   5.499   0.102  0.0215 -0.6042  0.4335
 2414SOL    HW1 8141   6.787   5.549   0.071  0.5844  0.3561  0.4614
 2414SOL    HW2 8142   6.840   5.416   0.149 -0.9481 -0.2622  0.4778
 2415SOL     OW 8143   0.228   1.349   0.978  0.3838  0.0594 -0.2998
 2415SOL    HW1 8144   0.151   1.372   1.038  0.1394  1.6412 -1.1661
 2415SOL    HW2 8145   0.230   1.413   0.902  3.4757  1.0379  0.4844
 2416SOL     OW 8146   3.865   4.280   7.009  0.2102  0.4536 -0.0342
 2416SOL    HW1 8147   3.833   4.367   6.972 -2.0517  0.4164  1.6866
 2416SOL    HW2 8148   3.859   4.281   7.109  2.1392 -0.9694  0.1700
 2417SOL     OW 8149   4.484   0.692   5.670  0.0972  0.2937 -0.5572
 2417SOL    HW1 8150   4.415   0.625   5.643 -0.1913  0.1452  0.4833
 2417SOL    HW2 8151   4.476   0.710   5.768  1.1911  0.6769 -0.5192
 2418SOL     OW 8152   3.310   3.563   4.569 -0.2145  0.2725 -0.6105
 2418SOL    HW1 8153   3.230   3.611   4.607 -0.8167 -0.8547 -0.4019
 2418SOL    HW2 8154   3.364   3.524   4.643  0.6416  1.1762 -0.7428
 2419SOL     OW 8155   6.864   4.209   2.059 -0.2868 -0.2012 -0.4353
 2419SOL    HW1 8156   6.903   4.261   1.982 -2.1487  2.5299  0.3213
 2419SOL    HW2 8157   6.793   4.264   2.103 -0.3246 -2.2943  2.3403
 2420SOL     OW 8158   5.484   2.162   3.859 -0.0547  0.2562  0.3317
 2420SOL    HW1 8159   5.577   2.130   3.844 -0.8489 -1.6001 -1.0417
 2420SOL    HW2 8160   5.430   2.149   3.776 -1.5525  1.3111  1.0787
 2421SOL     OW 8161   3.830   1.776   3.189 -0.0235  0.0641 -0.2067
 2421SOL    HW1 8162   3.805   1.848   3.255  0.8731 -0.3367  0.5982
 2421SOL    HW2 8163   3.882   1.816   3.114  0.9879  0.1804  0.5435
 2422SOL     OW 8164   0.075   5.515   6.355 -0.4802 -0.6396 -0.0670
 2422SOL    HW1 8165   0.172   5.523   6.375 -0.6988  0.5351  0.5788
 2422SOL    HW2 8166   0.062   5.500   6.257  0.2970  0.5883 -0.3686
 2423SOL     OW 8167   2.001   5.838   3.750 -0.0395 -0.2947  0.4903
 2423SOL    HW1 8168   2.018   5.921   3.803  0.5022  0.3751 -0.6782
 2423SOL    HW2 8169   2.082   5.778   3.755 -0.2761 -0.5780  1.0078
 2424SOL     OW 8170   5.017   5.747   5.725 -0.0144  0.2772 -0.0358
 2424SOL    HW1 8171   5.106   5.716   5.693 -0.1745  0.3421 -0.5502
 2424SOL    HW2 8172   4.963   5.669   5.755  0.9990  0.4002  2.3651
 2425SOL     OW 8173   5.552   6.583   4.783  0.1057  0.0034 -0.7496
 2425SOL    HW1 8174   5.610   6.522   4.836  1.7842  1.9646 -0.2040
 2425SOL    HW2 8175   5.607   6.657   4.744 -2.1342  2.8777  1.0764
 2426SOL     OW 8176   3.725   2.224   5.573  0.0316 -0.1078 -0.0060
 2426SOL    HW1 8177   3.719   2.259   5.479 -1.5280  1.7573  0.7061
 2426SOL    HW2 8178   3.820   2.211   5.599  0.5377  0.8271 -1.3389
 2427SOL     OW 8179   5.169   5.332   5.725 -0.9797 -0.3307 -0.0571
 2427SOL    HW1 8180   5.088   5.288   5.765 -1.1013 -0.8714 -0.8825
 2427SOL    HW2 8181   5.251   5.287   5.760 -1.0919 -0.9452 -0.5491
 2428SOL     OW 8182   5.610   2.899   3.094  0.0699 -0.6557 -0.0572
 2428SOL    HW1 8183   5.646   2.880   3.003 -0.0775  1.9147 -0.7139
 2428SOL    HW2 8184   5.685   2.921   3.156 -0.0231  0.4178 -0.3128
 2429SOL     OW 8185   0.104   4.685   5.155 -0.1396 -0.3073 -0.5032
 2429SOL    HW1 8186   0.165   4.621   5.201  0.2218 -0.1691 -0.7910
 2429SOL    HW2 8187   0.009   4.658   5.172  0.0148 -1.4628 -1.3909
 2430SOL     OW 8188   0.351   2.416   5.011 -0.3375  0.1911 -0.5180
 2430SOL    HW1 8189   0.275   2.353   5.027 -0.9641  0.8641 -0.7689
 2430SOL    HW2 8190   0.429   2.365   4.975 -0.8199 -0.4494 -0.6882
 2431SOL     OW 8191   0.075   6.872   1.074 -0.1290  0.2752  0.2070
 2431SOL    HW1 8192  -0.024   6.867   1.088 -0.4970  2.2517 -1.2772
 2431SOL    HW2 8193   0.113   6.949   1.125  0.5160  0.0534  0.0754
 2432SOL     OW 8194   3.263   0.812   6.945  0.5393  0.1727 -0.4244
 2432SOL    HW1 8195   3.168   0.840   6.958  0.5947 -0.0023  0.3812
 2432SOL    HW2 8196   3.292   0.835   6.852  0.3180  1.9975 -0.0751
 2433SOL     OW 8197   5.442   6.456   5.152  0.2188 -1.1120 -0.4012
 2433SOL    HW1 8198   5.393   6.495   5.075  0.1026 -0.3927  0.0310
 2433SOL    HW2 8199   5.430   6.514   5.233  2.8386 -0.1920 -0.5767
 2434SOL     OW 8200   1.040   3.000   0.470 -0.7101 -0.1185  0.5535
 2434SOL    HW1 8201   1.105   3.076   0.469 -1.3057  0.4236 -1.4172
 2434SOL    HW2 8202   1.084   2.918   0.507  1.2172  0.1477 -1.0017
 2435SOL     OW 8203   0.067   0.997   0.576 -0.4866 -0.2946  0.0311
 2435SOL    HW1 8204   0.083   0.906   0.613 -1.3100 -0.1142  0.8590
 2435SOL    HW2 8205   0.101   1.001   0.482  1.8958 -0.6798  0.8146
 2436SOL     OW 8206   2.020   3.713   0.780 -0.2155 -0.1571  0.2216
 2436SOL    HW1 8207   2.053   3.660   0.702  1.2152  0.7965  0.1409
 2436SOL    HW2 8208   2.080   3.698   0.858  0.0051  1.0444  0.3031
 2437SOL     OW 8209   1.861   3.269   0.534  0.5630 -0.0745  0.2801
 2437SOL    HW1 8210   1.911   3.226   0.459  0.7832 -0.7315  0.7985
 2437SOL    HW2 8211   1.768   3.232   0.537  0.2621  0.6182 -0.2303
 2438SOL     OW 8212   1.182   6.695   3.344 -0.3856  0.1499 -0.4051
 2438SOL    HW1 8213   1.185   6.661   3.250 -1.1096 -0.1289 -0.3320
 2438SOL    HW2 8214   1.087   6.710   3.371 -0.1631  0.5317  0.1756
 2439SOL     OW 8215   0.664   6.535   1.899  0.0296 -0.8455 -0.1841
 2439SOL    HW1 8216   0.631   6.481   1.976  0.4867 -1.3888 -0.3600
 2439SOL    HW2 8217   0.736   6.597   1.929 -0.3515 -0.4766 -0.0223
 2440SOL     OW 8218   4.427   5.101   2.549  0.0559  0.2346 -0.4892
 2440SOL    HW1 8219   4.345   5.132   2.501 -0.3903  0.4570  0.3962
 2440SOL    HW2 8220   4.402   5.071   2.641  1.1518  1.5880  0.2838
 2441SOL     OW 8221   5.438   5.498   6.758  0.1253 -0.3688  0.1710
 2441SOL    HW1 8222   5.458   5.401   6.766 -1.0938 -0.6252  0.2818
 2441SOL    HW2 8223   5.398   5.517   6.668  0.6865  0.0906  0.0163
 2442SOL     OW 8224   6.388   5.067   0.009  0.3212 -0.5623 -0.3557
 2442SOL    HW1 8225   6.339   5.059  -0.078  0.9348 -1.5933 -0.6271
 2442SOL    HW2 8226   6.375   4.982   0.061  1.2919 -0.5933 -0.1564
 2443SOL     OW 8227   2.183   3.086   4.422 -0.1105  0.0913 -0.2775
 2443SOL    HW1 8228   2.214   3.014   4.483 -0.4947  0.7053  0.6567
 2443SOL    HW2 8229   2.178   3.050   4.328 -0.6251 -1.1848  0.2158
 2444SOL     OW 8230   0.968   2.991   4.984  0.4105 -0.2544 -0.0488
 2444SOL    HW1 8231   1.003   2.986   5.078  0.6230 -1.2880 -0.1758
 2444SOL    HW2 8232   0.886   3.048   4.983  0.0212 -0.7716  0.8888
 2445SOL     OW 8233   1.106   0.863   4.930  0.2234  0.1488  0.3271
 2445SOL    HW1 8234   1.013   0.894   4.908  0.9208  1.2408 -1.3187
 2445SOL    HW2 8235   1.166   0.883   4.853  1.4135 -2.4990  0.4617
 2446SOL     OW 8236   4.251   1.260   4.994 -0.0659 -0.5735  0.3519
 2446SOL    HW1 8237   4.278   1.313   5.075 -1.3471 -1.0175  1.1104
 2446SOL    HW2 8238   4.177   1.197   5.019 -1.9233  0.7012 -1.6017
 2447SOL     OW 8239   5.512   6.358   6.202 -0.0787  0.2898 -0.1478
 2447SOL    HW1 8240   5.611   6.367   6.192 -0.1884  0.1501 -1.5275
 2447SOL    HW2 8241   5.491   6.293   6.275  0.8578 -0.3085 -0.3990
 2448SOL     OW 8242   6.395   4.751   2.627 -0.2947 -0.6320 -0.2588
 2448SOL    HW1 8243   6.389   4.850   2.642  0.2425 -0.6470  0.0634
 2448SOL    HW2 8244   6.307   4.718   2.592 -1.5779 -0.5479  2.6119
 2449SOL     OW 8245   3.210   5.763   5.010  0.4500 -0.5484  0.1478
 2449SOL    HW1 8246   3.127   5.748   5.064  0.2222  0.9759  0.2519
 2449SOL    HW2 8247   3.187   5.772   4.914  0.5353 -0.4333  0.1377
 2450SOL     OW 8248   1.607   2.248   4.488  0.5694 -0.3795  0.0749
 2450SOL    HW1 8249   1.540   2.212   4.553 -0.2791  0.2459 -0.4339
 2450SOL    HW2 8250   1.668   2.312   4.535 -0.0803  0.1163  0.2539
 2451SOL     OW 8251   1.435   6.467   2.514  0.0879 -0.1339 -0.2242
 2451SOL    HW1 8252   1.408   6.438   2.422 -0.5561 -0.2065 -0.0202
 2451SOL    HW2 8253   1.389   6.409   2.582  1.5317 -0.8984  0.1350
 2452SOL     OW 8254   6.668   4.950   2.962 -0.1210  0.1810 -0.1049
 2452SOL    HW1 8255   6.609   4.930   3.040 -0.6066  0.8808 -0.2801
 2452SOL    HW2 8256   6.745   5.007   2.992  0.5789 -0.8776  0.1572
 2453SOL     OW 8257   6.136   6.805   5.463 -0.2777 -0.8857  0.2107
 2453SOL    HW1 8258   6.217   6.848   5.423  0.0875 -0.9140  0.8979
 2453SOL    HW2 8259   6.060   6.810   5.398 -0.2658  0.8224  0.2861
 2454SOL     OW 8260   1.295   5.099   6.539 -0.0583 -0.3066 -0.2906
 2454SOL    HW1 8261   1.324   5.082   6.633 -1.1294  1.2405  0.3587
 2454SOL    HW2 8262   1.245   5.020   6.504 -0.6180 -0.4621  0.8432
 2455SOL     OW 8263   6.475   0.399   5.554  0.3688  0.2573  0.3396
 2455SOL    HW1 8264   6.574   0.414   5.547  0.1604  1.2318 -0.9472
 2455SOL    HW2 8265   6.448   0.330   5.486  0.1665 -0.0254  0.7062
 2456SOL     OW 8266   1.232   1.382   3.030  0.0357  0.5387  0.4040
 2456SOL    HW1 8267   1.158   1.331   2.986  0.7461 -0.6867  0.5899
 2456SOL    HW2 8268   1.220   1.378   3.130  1.3389 -1.2957  0.5400
 2457SOL     OW 8269   3.407   1.228   2.972 -0.0101 -0.2035 -0.3708
 2457SOL    HW1 8270   3.307   1.240   2.970 -0.0916 -0.8260 -0.2907
 2457SOL    HW2 8271   3.447   1.297   3.032 -0.4340 -0.1871 -0.0962
 2458SOL     OW 8272   2.342   0.981   0.120 -0.9370 -0.2676 -0.2574
 2458SOL    HW1 8273   2.265   1.033   0.083  0.7128  2.2975 -0.3642
 2458SOL    HW2 8274   2.333   0.974   0.219 -0.4193  1.7811 -0.0084
 2459SOL     OW 8275   0.188   6.524   6.463 -0.0001 -0.2079  0.2334
 2459SOL    HW1 8276   0.190   6.426   6.445  1.1631 -0.1056 -0.2845
 2459SOL    HW2 8277   0.279   6.554   6.493 -0.5073  0.6016  1.0357
 2460SOL     OW 8278   4.338   4.970   3.076 -0.3505  0.3088 -0.1909
 2460SOL    HW1 8279   4.289   4.889   3.108 -1.4032  0.8027 -0.5163
 2460SOL    HW2 8280   4.388   5.012   3.152  1.4584 -1.4710 -0.3074
 2461SOL     OW 8281   5.619   0.947   2.261 -0.3304 -0.2767 -0.1321
 2461SOL    HW1 8282   5.644   0.896   2.343 -0.4845  0.0533  0.1214
 2461SOL    HW2 8283   5.549   0.897   2.211 -1.4072  0.2869  0.7796
 2462SOL     OW 8284   2.975   6.876   5.340  0.2651 -0.1818 -0.2955
 2462SOL    HW1 8285   2.889   6.920   5.365  0.4488 -0.8232  1.6770
 2462SOL    HW2 8286   3.048   6.944   5.337  0.2149 -0.0351  0.9758
 2463SOL     OW 8287   3.540   3.089   6.862 -0.2399  0.4529  0.5005
 2463SOL    HW1 8288   3.565   3.156   6.932  1.1506  1.7388 -1.1222
 2463SOL    HW2 8289   3.599   3.008   6.871  0.5992  1.0229  0.2560
 2464SOL     OW 8290   5.780   3.594   6.429 -0.1262  0.2745  0.3281
 2464SOL    HW1 8291   5.805   3.658   6.502 -0.5431  1.4701 -0.5511
 2464SOL    HW2 8292   5.845   3.518   6.429 -0.2091  0.1622  2.0377
 2465SOL     OW 8293   3.498   1.155   5.558  0.0005  0.0509 -0.3870
 2465SOL    HW1 8294   3.425   1.087   5.555 -1.5417  1.6509 -1.6921
 2465SOL    HW2 8295   3.564   1.131   5.630 -1.2776 -1.9583  0.1908
 2466SOL     OW 8296   1.629   0.478   0.843  0.4273 -0.7416 -0.5337
 2466SOL    HW1 8297   1.671   0.456   0.931  0.4335  2.3673  0.3494
 2466SOL    HW2 8298   1.534   0.447   0.842  0.0624  0.2025  1.0871
 2467SOL     OW 8299   1.448   1.916   4.807 -0.7716  0.6251  0.4073
 2467SOL    HW1 8300   1.472   1.900   4.712 -1.1043  1.3378  0.2030
 2467SOL    HW2 8301   1.350   1.901   4.820 -0.5627 -0.4498  0.8529
 2468SOL     OW 8302   4.961   3.490   6.897  0.4950 -0.1542 -0.1110
 2468SOL    HW1 8303   5.033   3.420   6.901  0.2295 -0.3602  1.3792
 2468SOL    HW2 8304   4.886   3.457   6.839  0.0862 -1.4103  1.0664
 2469SOL     OW 8305   2.226   4.677   3.001 -0.0433  0.3635  0.4480
 2469SOL    HW1 8306   2.234   4.663   3.100 -1.4225 -0.9253  0.3969
 2469SOL    HW2 8307   2.130   4.684   2.975  0.2993  0.6963 -0.8207
 2470SOL     OW 8308   3.262   3.143   3.566  0.8684  0.4294 -0.2449
 2470SOL    HW1 8309   3.209   3.219   3.605  0.5177 -1.0278  2.3478
 2470SOL    HW2 8310   3.219   3.112   3.481 -0.4743  1.4589  0.0185
 2471SOL     OW 8311   1.575   3.147   4.566  0.5264  0.0958  0.2273
 2471SOL    HW1 8312   1.581   3.209   4.487 -0.7177  2.0174  1.5631
 2471SOL    HW2 8313   1.570   3.200   4.650 -1.1887 -1.8066  1.4179
 2472SOL     OW 8314   5.445   2.441   1.978 -0.2300  0.3509 -0.2058
 2472SOL    HW1 8315   5.434   2.378   1.902  0.9148  1.5679 -1.4505
 2472SOL    HW2 8316   5.359   2.491   1.993 -0.5127 -0.0177 -0.5817
 2473SOL     OW 8317   1.061   3.213   4.840 -0.0171 -0.0776 -0.5211
 2473SOL    HW1 8318   1.014   3.130   4.871 -0.0957 -0.2199 -1.0174
 2473SOL    HW2 8319   1.001   3.264   4.778  0.2915 -0.0018 -0.7582
 2474SOL     OW 8320   1.266   5.969   4.283 -0.2432  0.2700 -0.2733
 2474SOL    HW1 8321   1.337   5.931   4.224 -0.5740 -1.5812  0.4398
 2474SOL    HW2 8322   1.189   5.905   4.288 -1.0475  1.2598  0.6602
 2475SOL     OW 8323   3.103   6.345   4.376 -0.5758 -0.9607  0.0040
 2475SOL    HW1 8324   3.013   6.334   4.334 -0.3648 -0.5818 -0.5617
 2475SOL    HW2 8325   3.173   6.337   4.306 -0.2784  1.2369 -0.0109
 2476SOL     OW 8326   2.489   4.520   6.061 -0.5536 -0.4852 -0.0381
 2476SOL    HW1 8327   2.487   4.459   6.140  0.3416  0.5801  0.8349
 2476SOL    HW2 8328   2.413   4.498   6.000 -0.0702 -2.7033  0.0627
 2477SOL     OW 8329   5.376   4.223   3.799  0.3031 -0.3058  0.0926
 2477SOL    HW1 8330   5.359   4.127   3.777  0.6641 -0.3995  0.2181
 2477SOL    HW2 8331   5.394   4.232   3.897 -0.6393  0.0184  0.2498
 2478SOL     OW 8332   5.937   1.003   5.782  0.6237  0.8961  0.0725
 2478SOL    HW1 8333   5.886   1.017   5.697  0.9984  1.1442 -0.1192
 2478SOL    HW2 8334   6.035   0.999   5.761  0.6946  0.5913  0.4519
 2479SOL     OW 8335   1.229   5.650   1.895  0.4761  0.1888 -0.4117
 2479SOL    HW1 8336   1.312   5.639   1.950  0.2894 -2.1572 -0.5209
 2479SOL    HW2 8337   1.155   5.685   1.953  0.9807  0.2616  0.1947
 2480SOL     OW 8338   5.571   6.687   2.660  0.3221  0.4231 -0.2651
 2480SOL    HW1 8339   5.626   6.607   2.636  0.8023  0.3256  1.1080
 2480SOL    HW2 8340   5.484   6.657   2.699 -0.0290  0.5865 -0.8986
 2481SOL     OW 8341   6.132   4.674   2.565  0.0572  0.1918 -0.0590
 2481SOL    HW1 8342   6.041   4.682   2.607 -1.2536 -0.1207 -2.6642
 2481SOL    HW2 8343   6.170   4.584   2.585  0.0994  0.5417  1.5607
 2482SOL     OW 8344   1.549   5.616   4.872 -0.2321  0.1906  0.0468
 2482SOL    HW1 8345   1.508   5.676   4.803  1.3106  1.6859  0.3658
 2482SOL    HW2 8346   1.500   5.529   4.874  1.0742 -0.9372 -4.6595
 2483SOL     OW 8347   2.138   0.873   1.247  0.1823 -0.1565 -0.2111
 2483SOL    HW1 8348   2.155   0.779   1.216  1.4346  0.1635 -0.5387
 2483SOL    HW2 8349   2.077   0.871   1.326  0.3217 -1.2543 -0.1129
 2484SOL     OW 8350   1.780   3.148   5.663 -0.2295 -0.1304  0.1433
 2484SOL    HW1 8351   1.804   3.239   5.630  1.4816 -0.4367  0.4586
 2484SOL    HW2 8352   1.681   3.142   5.673 -0.4553  1.3763 -0.7789
 2485SOL     OW 8353   3.490   0.184   4.857  0.2454 -0.0904  0.7933
 2485SOL    HW1 8354   3.418   0.126   4.896 -0.9350  0.3770 -0.5624
 2485SOL    HW2 8355   3.551   0.214   4.929 -1.2707 -0.0377  2.1234
 2486SOL     OW 8356   4.408   1.871   6.345  0.2186  0.4210 -0.2275
 2486SOL    HW1 8357   4.310   1.870   6.361 -0.1654 -0.9424 -2.3323
 2486SOL    HW2 8358   4.456   1.872   6.433 -1.6501 -2.0989  0.9316
 2487SOL     OW 8359   1.261   1.493   0.053  0.4241  0.4118  0.3840
 2487SOL    HW1 8360   1.163   1.509   0.062  0.4458  0.4553  0.5488
 2487SOL    HW2 8361   1.279   1.435  -0.027  0.1042 -1.0388  1.3074
 2488SOL     OW 8362   5.147   4.153   5.914  0.2987  0.0439 -0.3130
 2488SOL    HW1 8363   5.183   4.108   5.832  1.5122 -0.4905  0.4851
 2488SOL    HW2 8364   5.214   4.147   5.988 -1.1158 -0.3041  1.0116
 2489SOL     OW 8365   6.591   5.307   4.284 -0.4238  0.0670 -0.1192
 2489SOL    HW1 8366   6.577   5.346   4.374  0.9230  1.3376 -0.4067
 2489SOL    HW2 8367   6.689   5.289   4.270 -0.7060 -0.9492 -1.0085
 2490SOL     OW 8368   4.876   2.571   4.472 -0.1703  0.4352 -0.0467
 2490SOL    HW1 8369   4.842   2.480   4.498 -1.4174  0.9789  0.3190
 2490SOL    HW2 8370   4.817   2.610   4.401  0.2961  0.9887 -0.1374
 2491SOL     OW 8371   6.785   4.350   4.015  0.1401 -0.1293 -0.3777
 2491SOL    HW1 8372   6.703   4.382   4.063  0.9786 -3.1572  3.6073
 2491SOL    HW2 8373   6.773   4.255   3.987  1.6323 -0.0473 -1.3992
 2492SOL     OW 8374   1.273   6.901   0.674 -0.1701  0.2677  0.4845
 2492SOL    HW1 8375   1.354   6.862   0.631  1.3111  3.6893 -0.1544
 2492SOL    HW2 8376   1.276   6.885   0.773 -0.9913 -3.2466  0.0561
 2493SOL     OW 8377   5.157   2.027   4.846 -0.3114  0.0567 -0.2966
 2493SOL    HW1 8378   5.145   1.972   4.928 -1.2673  1.4619  0.5443
 2493SOL    HW2 8379   5.070   2.071   4.822  0.8837  3.1728  0.5519
 2494SOL     OW 8380   1.263   6.174   4.083  0.3636 -0.1832 -0.4326
 2494SOL    HW1 8381   1.243   6.113   4.159 -1.1333  0.2168 -0.4857
 2494SOL    HW2 8382   1.183   6.181   4.023  0.9203  0.8857 -1.0845
 2495SOL     OW 8383   1.813   5.401   0.121 -0.4941 -0.1713  0.0915
 2495SOL    HW1 8384   1.813   5.339   0.043  0.3282  0.1952 -0.2101
 2495SOL    HW2 8385   1.894   5.383   0.178 -1.1563 -0.5345  0.9474
 2496SOL     OW 8386   5.441   4.148   6.007 -0.4390 -0.3748  0.1337
 2496SOL    HW1 8387   5.451   4.232   6.060 -2.8277  0.1504 -0.1509
 2496SOL    HW2 8388   5.478   4.071   6.058 -1.6457  0.2863  2.0874
 2497SOL     OW 8389   1.129   0.807   6.053  0.0938 -0.8521 -0.3244
 2497SOL    HW1 8390   1.209   0.866   6.043 -0.1615 -0.1865  1.1833
 2497SOL    HW2 8391   1.056   0.858   6.100 -0.6929 -1.8845 -0.3898
 2498SOL     OW 8392   6.479   4.144   5.143  0.0970  0.5419 -0.6873
 2498SOL    HW1 8393   6.452   4.070   5.204  1.1148 -0.7901 -1.7943
 2498SOL    HW2 8394   6.451   4.122   5.049  1.8756  0.7214 -1.3085
 2499SOL     OW 8395   5.056   1.860   5.072 -0.2331  0.1756  0.4892
 2499SOL    HW1 8396   5.097   1.795   5.136  0.2975 -0.1890 -0.2029
 2499SOL    HW2 8397   4.966   1.888   5.106 -0.1147 -0.2792  1.2109
 2500SOL     OW 8398   2.122   4.049   1.213 -0.1038 -0.1547 -0.6060
 2500SOL    HW1 8399   2.185   3.974   1.231 -0.5153 -0.2432  0.5393
 2500SOL    HW2 8400   2.043   4.015   1.162 -0.0862 -0.4157 -0.4616
 2501SOL     OW 8401   5.015   3.202   2.487 -0.2428  0.1352  0.1449
 2501SOL    HW1 8402   5.108   3.216   2.454 -0.7191 -0.3582 -1.4933
 2501SOL    HW2 8403   4.951   3.205   2.410 -1.3871 -1.3960  0.9666
 2502SOL     OW 8404   4.178   5.059   4.061 -0.3229 -0.0488 -0.0304
 2502SOL    HW1 8405   4.226   5.145   4.042  2.2984 -1.4092  0.0401
 2502SOL    HW2 8406   4.172   5.045   4.159  3.2750 -1.8926  0.0910
 2503SOL     OW 8407   6.656   2.503   5.766  0.5540  0.4838  0.3488
 2503SOL    HW1 8408   6.712   2.426   5.796 -0.5132 -0.1029  0.8937
 2503SOL    HW2 8409   6.569   2.470   5.730  0.7669  1.3468 -1.0240
 2504SOL     OW 8410   1.503   0.745   4.293 -0.2243 -0.0717 -0.2087
 2504SOL    HW1 8411   1.593   0.743   4.250 -0.0736  1.6778 -0.0550
 2504SOL    HW2 8412   1.436   0.778   4.226 -0.1922  1.5272  0.4990
 2505SOL     OW 8413   2.133   5.863   5.481 -0.2077  0.0530  0.3117
 2505SOL    HW1 8414   2.212   5.912   5.444 -0.4772 -0.1411 -0.5346
 2505SOL    HW2 8415   2.103   5.794   5.416 -2.7643  1.9087 -0.6161
 2506SOL     OW 8416   6.467   0.468   6.638  0.5046 -0.7914 -0.4814
 2506SOL    HW1 8417   6.480   0.483   6.736  0.0436  3.4353 -0.8711
 2506SOL    HW2 8418   6.381   0.419   6.624 -1.2884  1.5686  1.2708
 2507SOL     OW 8419   6.418   1.229   1.038  0.4795 -0.2948 -0.9292
 2507SOL    HW1 8420   6.470   1.146   1.022  1.1397 -0.0454 -0.1723
 2507SOL    HW2 8421   6.471   1.291   1.096  0.6372  1.3029 -2.6739
 2508SOL     OW 8422   4.907   6.108   5.108 -0.4876  0.3674  0.2705
 2508SOL    HW1 8423   4.938   6.075   5.019  0.7676 -0.5967  1.0451
 2508SOL    HW2 8424   4.985   6.141   5.161 -1.0899  0.1034  1.3535
 2509SOL     OW 8425   5.804   4.925   5.778 -0.5255  0.4904 -0.3895
 2509SOL    HW1 8426   5.880   4.871   5.815 -0.4249  0.5812 -0.4630
 2509SOL    HW2 8427   5.809   5.018   5.815 -0.1085  0.7378 -1.0484
 2510SOL     OW 8428   4.780   4.694   3.815 -0.3560 -0.2369  0.8267
 2510SOL    HW1 8429   4.878   4.679   3.811  0.0042  2.0365 -1.0266
 2510SOL    HW2 8430   4.761   4.774   3.873 -1.1561 -0.7707  1.3241
 2511SOL     OW 8431   5.258   5.396   4.965 -0.2619  0.3658  0.5088
 2511SOL    HW1 8432   5.208   5.310   4.978  1.4309 -0.5751  1.0848
 2511SOL    HW2 8433   5.260   5.447   5.050  1.9334 -0.8678  1.2877
 2512SOL     OW 8434   4.177   0.968   3.909 -0.1621  0.0319 -0.5149
 2512SOL    HW1 8435   4.116   0.928   3.977  0.7630 -0.4277  0.0669
 2512SOL    HW2 8436   4.244   0.900   3.880  1.7231  1.2410  0.8199
 2513SOL     OW 8437   1.784   1.017   1.148 -0.2216 -0.1867  0.0867
 2513SOL    HW1 8438   1.869   1.068   1.132 -0.3577 -0.4690 -1.8721
 2513SOL    HW2 8439   1.706   1.072   1.117 -0.6442 -0.4285  0.7093
 2514SOL     OW 8440   6.052   1.901   0.526  0.0542  0.0716 -0.3999
 2514SOL    HW1 8441   6.067   1.891   0.428 -0.0591  0.4339 -0.4569
 2514SOL    HW2 8442   6.044   1.998   0.549  2.5681  0.1525  0.3426
 2515SOL     OW 8443   3.639   0.161   2.317  0.1358 -0.0553  0.1812
 2515SOL    HW1 8444   3.639   0.084   2.381 -0.4371 -0.3190 -0.1292
 2515SOL    HW2 8445   3.587   0.236   2.356  3.2178  1.3857  1.8715
 2516SOL     OW 8446   4.219   4.179   5.731 -0.3308 -0.0053 -0.2973
 2516SOL    HW1 8447   4.278   4.175   5.650 -0.6906  1.3702 -0.6420
 2516SOL    HW2 8448   4.182   4.088   5.750 -0.0005 -0.3976 -1.4943
 2517SOL     OW 8449   3.447   6.552   5.890  0.3208  0.2409  0.3882
 2517SOL    HW1 8450   3.484   6.638   5.854  1.4639 -0.0939  0.7209
 2517SOL    HW2 8451   3.418   6.494   5.814 -1.9888  1.5367  0.1958
 2518SOL     OW 8452   2.923   5.693   3.799  0.4540  0.1160  0.3529
 2518SOL    HW1 8453   2.980   5.677   3.719  2.1551  0.0192  1.5424
 2518SOL    HW2 8454   2.830   5.660   3.781  1.0648 -0.8545 -1.1805
 2519SOL     OW 8455   3.969   4.519   0.556  0.0270  0.1131  0.4164
 2519SOL    HW1 8456   4.053   4.539   0.506 -0.8822 -0.1019 -1.2681
 2519SOL    HW2 8457   3.899   4.586   0.531 -0.9540 -1.0045  0.0530
 2520SOL     OW 8458   1.686   6.652   2.390 -0.4703  0.4423  0.1227
 2520SOL    HW1 8459   1.649   6.578   2.334 -2.7438  2.0458 -0.6578
 2520SOL    HW2 8460   1.633   6.660   2.475  0.5522  0.4137  0.7856
 2521SOL     OW 8461   1.134   6.931   4.291 -0.1177 -0.0422 -0.5949
 2521SOL    HW1 8462   1.173   7.014   4.330  0.3257 -0.3074 -0.4728
 2521SOL    HW2 8463   1.049   6.908   4.339  0.8958 -0.8930  0.8825
 2522SOL     OW 8464   0.604   3.133   1.426 -0.2764 -0.5676 -0.6787
 2522SOL    HW1 8465   0.507   3.150   1.441  0.5715  3.2170  1.8863
 2522SOL    HW2 8466   0.636   3.065   1.492 -1.1513 -1.9648 -1.6510
 2523SOL     OW 8467   0.121   3.168   4.077  0.7209 -0.5235 -0.2140
 2523SOL    HW1 8468   0.201   3.110   4.066  0.2855 -1.0842 -0.4262
 2523SOL    HW2 8469   0.050   3.119   4.128  0.3523 -0.1819 -0.3868
 2524SOL     OW 8470   5.466   6.248   0.682 -0.3511  0.3687 -0.1734
 2524SOL    HW1 8471   5.539   6.270   0.616 -0.0503  0.9414  0.3389
 2524SOL    HW2 8472   5.391   6.312   0.670  0.9303  2.4431  1.9725
 2525SOL     OW 8473   5.761   5.796   6.574  0.4746 -0.0378  0.1366
 2525SOL    HW1 8474   5.820   5.732   6.526  0.5050  0.9749 -1.2394
 2525SOL    HW2 8475   5.744   5.876   6.516 -0.9499  0.4231  1.1300
 2526SOL     OW 8476   5.806   0.340   2.387  0.0950  0.2887 -0.3837
 2526SOL    HW1 8477   5.889   0.300   2.348 -0.2239 -1.7393  0.8696
 2526SOL    HW2 8478   5.735   0.270   2.394 -0.4441  0.9805  2.1538
 2527SOL     OW 8479   3.775   6.260   4.397  0.2199  0.1000 -0.4024
 2527SOL    HW1 8480   3.694   6.207   4.423 -0.3344  1.0609 -0.1277
 2527SOL    HW2 8481   3.793   6.330   4.466  0.6048  0.6418 -1.0384
 2528SOL     OW 8482   6.377   2.536   3.807 -0.0363  0.2315  0.1388
 2528SOL    HW1 8483   6.461   2.563   3.760 -0.6045 -0.0304 -1.0646
 2528SOL    HW2 8484   6.360   2.439   3.792  0.6703 -0.3059  2.3675
 2529SOL     OW 8485   2.003   0.466   3.748 -0.3117  0.3273  0.1817
 2529SOL    HW1 8486   1.926   0.465   3.683 -1.1469  0.8107  1.1316
 2529SOL    HW2 8487   2.018   0.373   3.782  2.2255 -0.6114 -3.0168
 2530SOL     OW 8488   2.152   6.308   2.506 -0.3665 -0.2585 -0.6760
 2530SOL    HW1 8489   2.128   6.364   2.427 -2.0983  1.5010  0.9832
 2530SOL    HW2 8490   2.121   6.214   2.491 -1.1900  0.1770 -1.8526
 2531SOL     OW 8491   0.184   6.576   5.659  0.4765 -0.1565  0.0014
 2531SOL    HW1 8492   0.206   6.578   5.757  0.4517  1.4669  0.0161
 2531SOL    HW2 8493   0.122   6.652   5.637 -1.5633 -1.9746 -0.8641
 2532SOL     OW 8494   6.922   2.855   1.431  0.6454 -0.2159 -0.0337
 2532SOL    HW1 8495   6.901   2.882   1.525  0.7534 -0.1589 -0.0262
 2532SOL    HW2 8496   6.970   2.768   1.430 -1.0647 -1.1989 -0.1342
 2533SOL     OW 8497   5.939   5.133   3.977 -0.1800 -0.7706 -0.0571
 2533SOL    HW1 8498   5.949   5.155   3.880  1.2828  0.2802  0.3071
 2533SOL    HW2 8499   6.027   5.142   4.023 -1.1320  0.3066  1.6746
 2534SOL     OW 8500   5.740   6.210   3.614  0.1324  0.2690 -0.2391
 2534SOL    HW1 8501   5.744   6.191   3.712  1.0101  0.1989 -0.2808
 2534SOL    HW2 8502   5.799   6.288   3.592  0.1116  0.1490 -0.7456
 2535SOL     OW 8503   4.986   4.750   0.578  0.2566 -0.1796  0.2994
 2535SOL    HW1 8504   4.920   4.711   0.513 -0.6348 -0.6324  1.4528
 2535SOL    HW2 8505   4.981   4.701   0.664 -0.7982  2.3746  1.7883
 2536SOL     OW 8506   6.820   1.275   6.977 -0.4850 -0.6347  0.2758
 2536SOL    HW1 8507   6.734   1.327   6.978  0.3887  0.9060  2.1681
 2536SOL    HW2 8508   6.897   1.339   6.978  0.6785 -1.9947  0.3258
 2537SOL     OW 8509   1.264   5.710   3.681 -0.5041  0.4865  0.2206
 2537SOL    HW1 8510   1.230   5.702   3.588 -2.3413 -1.7327  0.9882
 2537SOL    HW2 8511   1.244   5.626   3.732  1.3492  1.2107  2.3593
 2538SOL     OW 8512   2.522   6.409   6.318  0.1511  0.1797  0.2354
 2538SOL    HW1 8513   2.543   6.376   6.226 -0.8286  1.7239 -0.5921
 2538SOL    HW2 8514   2.437   6.368   6.350 -0.1392  0.5277 -0.0680
 2539SOL     OW 8515   4.732   0.121   2.807 -0.7414 -0.4340 -0.3848
 2539SOL    HW1 8516   4.723   0.218   2.827 -0.4523 -0.5060  0.1164
 2539SOL    HW2 8517   4.734   0.069   2.892 -1.6679 -0.9564 -0.6705
 2540SOL     OW 8518   1.977   2.843   5.243 -0.2161 -0.7237 -0.3459
 2540SOL    HW1 8519   1.953   2.756   5.286 -1.5168 -0.7496 -1.0485
 2540SOL    HW2 8520   1.929   2.850   5.155  0.0332  0.6079 -0.3885
 2541SOL     OW 8521   1.496   2.352   2.985 -0.0517 -0.2937  0.1663
 2541SOL    HW1 8522   1.500   2.294   2.904 -0.0629 -0.2105  0.1060
 2541SOL    HW2 8523   1.477   2.296   3.066  3.0899 -0.8320  0.6220
 2542SOL     OW 8524   3.012   5.323   6.059  0.3930 -0.1106 -0.4395
 2542SOL    HW1 8525   3.054   5.404   6.100  1.7422 -0.6750 -0.6714
 2542SOL    HW2 8526   3.074   5.245   6.069 -0.9694 -1.1734 -0.0289
 2543SOL     OW 8527   0.866   3.775   0.347  0.0977 -0.0425 -0.4972
 2543SOL    HW1 8528   0.952   3.804   0.305  1.3711 -1.0595  1.2380
 2543SOL    HW2 8529   0.798   3.848   0.339  1.3173  1.0426 -1.3638
 2544SOL     OW 8530   0.173   2.210   5.112  0.0210  0.0393  0.7056
 2544SOL    HW1 8531   0.212   2.131   5.158 -1.1932 -2.2695 -1.9416
 2544SOL    HW2 8532   0.078   2.222   5.140  0.2088  0.5708  1.1162
 2545SOL     OW 8533   0.791   4.876   1.023 -0.7137  0.3111  0.4454
 2545SOL    HW1 8534   0.709   4.929   1.045 -1.5884 -1.2194  1.0839
 2545SOL    HW2 8535   0.764   4.789   0.983  0.4445 -1.1107  2.5389
 2546SOL     OW 8536   0.194   0.055   0.426 -0.9079  0.2962 -0.1545
 2546SOL    HW1 8537   0.118   0.015   0.477 -2.1971  2.3262 -0.3442
 2546SOL    HW2 8538   0.262   0.090   0.490 -0.0073 -1.6460  0.0151
 2547SOL     OW 8539   3.562   5.211   6.113 -0.1784  0.5452 -0.3571
 2547SOL    HW1 8540   3.507   5.219   6.030 -0.8582 -1.5995 -0.1641
 2547SOL    HW2 8541   3.641   5.272   6.106 -2.0621  3.1006 -1.0086
 2548SOL     OW 8542   4.176   6.763   4.792  0.4622 -0.3888  0.6937
 2548SOL    HW1 8543   4.105   6.771   4.723  0.1145 -0.1966  1.0637
 2548SOL    HW2 8544   4.137   6.785   4.882  1.0171 -0.1503  0.8827
 2549SOL     OW 8545   5.215   5.223   1.329  0.1185  0.3231 -0.0618
 2549SOL    HW1 8546   5.130   5.178   1.300  1.6402 -0.7716 -3.2610
 2549SOL    HW2 8547   5.281   5.154   1.357  0.5997  1.0404  0.6108
 2550SOL     OW 8548   0.249   0.345   1.402 -0.5724  0.1607  0.2670
 2550SOL    HW1 8549   0.241   0.429   1.349  0.0756  0.7858  1.1255
 2550SOL    HW2 8550   0.160   0.299   1.405 -1.2502  1.4277  0.7577
 2551SOL     OW 8551   2.698   6.733   2.747  0.0792  0.1664  0.4313
 2551SOL    HW1 8552   2.703   6.740   2.847  1.0994 -1.0350  0.4784
 2551SOL    HW2 8553   2.789   6.743   2.708  0.0667 -1.7854 -0.2000
 2552SOL     OW 8554   2.434   2.544   2.981  0.0890 -0.4029 -0.3357
 2552SOL    HW1 8555   2.336   2.540   3.004 -0.2022  0.5363 -1.3275
 2552SOL    HW2 8556   2.445   2.534   2.882  1.0182 -0.6653 -0.2127
 2553SOL     OW 8557   4.686   4.513   0.214 -0.2243  0.5740 -0.2274
 2553SOL    HW1 8558   4.657   4.572   0.139  0.7816  2.6288  0.9116
 2553SOL    HW2 8559   4.734   4.433   0.178 -3.5774 -0.8291 -1.9271
 2554SOL     OW 8560   2.248   6.535   5.153  0.1853 -0.0045 -0.3334
 2554SOL    HW1 8561   2.189   6.604   5.194  0.6284  0.3912 -0.3478
 2554SOL    HW2 8562   2.336   6.576   5.128  1.0355 -0.8889  1.0207
 2555SOL     OW 8563   6.001   5.962   2.077  0.0766  0.5324 -0.0652
 2555SOL    HW1 8564   5.936   6.032   2.044 -1.4115 -1.2650 -1.1736
 2555SOL    HW2 8565   6.083   5.964   2.019 -1.2568 -0.6049 -2.1228
 2556SOL     OW 8566   4.742   0.435   5.723 -0.0172  0.2312  0.2083
 2556SOL    HW1 8567   4.694   0.443   5.810 -1.1979  0.7232 -0.4560
 2556SOL    HW2 8568   4.771   0.340   5.710 -2.0308 -0.4146  0.0574
 2557SOL     OW 8569   2.239   0.096   3.727 -0.0526 -0.3238 -0.0857
 2557SOL    HW1 8570   2.212   0.106   3.631  2.2711  0.5770 -0.7140
 2557SOL    HW2 8571   2.166   0.131   3.786 -1.1977 -0.1777 -1.5355
 2558SOL     OW 8572   0.674   6.175   5.707 -0.4148  0.1266 -0.5001
 2558SOL    HW1 8573   0.641   6.244   5.644  0.8561 -0.4767 -1.8857
 2558SOL    HW2 8574   0.657   6.204   5.801 -2.1716  1.1268 -1.0979
 2559SOL     OW 8575   1.925   4.411   5.742  0.7595  0.1617  0.4232
 2559SOL    HW1 8576   2.006   4.356   5.722 -0.6537 -1.6385 -0.6768
 2559SOL    HW2 8577   1.892   4.390   5.834 -0.2032 -1.4939 -0.2576
 2560SOL     OW 8578   2.532   5.143   4.929  0.2779  0.4531  0.3448
 2560SOL    HW1 8579   2.453   5.119   4.985 -0.9575  0.7756 -1.1773
 2560SOL    HW2 8580   2.515   5.231   4.884  1.3421  0.3439 -0.3025
 2561SOL     OW 8581   2.764   3.459   0.329 -0.2232  0.6993 -0.0319
 2561SOL    HW1 8582   2.723   3.490   0.415  0.8404 -0.6589  1.0031
 2561SOL    HW2 8583   2.693   3.424   0.268 -0.9977  1.7798  0.2174
 2562SOL     OW 8584   5.853   4.161   0.271 -0.2902  0.3421 -0.1176
 2562SOL    HW1 8585   5.927   4.196   0.328 -0.7469 -1.2668  1.5700
 2562SOL    HW2 8586   5.883   4.077   0.225 -1.1409 -0.5583  0.9097
 2563SOL     OW 8587   2.003   2.195   0.347 -0.5869 -0.0990  0.0983
 2563SOL    HW1 8588   1.927   2.154   0.297 -1.2653 -0.2919  1.2445
 2563SOL    HW2 8589   2.013   2.149   0.436  0.5361  0.2781  0.1907
 2564SOL     OW 8590   4.193   6.069   5.187 -0.5784  0.5165  0.0733
 2564SOL    HW1 8591   4.172   5.975   5.161 -1.5362  0.6344  0.3806
 2564SOL    HW2 8592   4.107   6.120   5.200 -0.0699  1.5177 -0.4154
 2565SOL     OW 8593   4.518   3.160   1.448 -0.1146 -0.0339  0.6826
 2565SOL    HW1 8594   4.477   3.208   1.526 -1.7060  2.4840 -1.5082
 2565SOL    HW2 8595   4.458   3.085   1.421 -1.6387  1.4747 -0.3634
 2566SOL     OW 8596   2.528   5.488   2.938 -0.5823 -0.1123  0.2278
 2566SOL    HW1 8597   2.439   5.472   2.980 -0.6509  1.3411  0.6654
 2566SOL    HW2 8598   2.590   5.528   3.004  0.7345 -1.9566  0.2014
 2567SOL     OW 8599   5.565   5.529   5.373 -0.6051  0.2482  0.8512
 2567SOL    HW1 8600   5.634   5.485   5.430  2.0097 -0.7050 -2.6909
 2567SOL    HW2 8601   5.485   5.468   5.366  0.4801 -1.2364  0.7835
 2568SOL     OW 8602   3.939   2.641   1.647 -0.7169 -0.2052 -0.3715
 2568SOL    HW1 8603   3.852   2.690   1.648 -0.5390  0.1413 -1.2156
 2568SOL    HW2 8604   4.012   2.702   1.677 -0.7271 -0.4346  0.1325
 2569SOL     OW 8605   6.516   0.686   6.459 -0.1021  0.1792  0.5292
 2569SOL    HW1 8606   6.479   0.623   6.528 -0.6191  0.5957  0.6391
 2569SOL    HW2 8607   6.613   0.668   6.446 -0.2119 -0.5525  0.6592
 2570SOL     OW 8608   0.029   5.820   0.214 -0.0722  0.6158 -0.0289
 2570SOL    HW1 8609  -0.051   5.779   0.258  0.1958 -1.8895 -1.6638
 2570SOL    HW2 8610   0.009   5.838   0.117  1.1206  0.6184 -0.2942
 2571SOL     OW 8611   3.233   4.116   1.078  0.4462 -0.1632 -0.2527
 2571SOL    HW1 8612   3.320   4.126   1.127  0.4341 -0.8126 -0.0903
 2571SOL    HW2 8613   3.217   4.020   1.057 -1.0414 -0.2858  1.2097
 2572SOL     OW 8614   2.768   5.423   6.677  0.0810  0.4679  0.0243
 2572SOL    HW1 8615   2.777   5.516   6.713 -0.5843  0.7611 -0.5436
 2572SOL    HW2 8616   2.719   5.426   6.590  0.2744 -0.3960 -0.1209
 2573SOL     OW 8617   6.369   4.476   0.841  0.0870 -0.1015 -0.1883
 2573SOL    HW1 8618   6.428   4.541   0.888 -0.7077  1.3076 -1.0938
 2573SOL    HW2 8619   6.403   4.462   0.748 -1.0327  0.7863 -0.7438
 2574SOL     OW 8620   4.412   4.852   5.066 -0.1200  0.1417 -0.0118
 2574SOL    HW1 8621   4.506   4.868   5.035 -0.1768  0.5112  0.0071
 2574SOL    HW2 8622   4.385   4.759   5.042  0.0214  0.2480 -0.5903
 2575SOL     OW 8623   6.580   5.514   2.914 -0.0748  0.5810 -0.5417
 2575SOL    HW1 8624   6.649   5.462   2.863 -1.3101 -0.4129 -1.2353
 2575SOL    HW2 8625   6.529   5.572   2.851 -2.6545 -1.7896 -0.8243
 2576SOL     OW 8626   0.349   5.121   3.369 -0.5637  0.0926  0.3680
 2576SOL    HW1 8627   0.284   5.070   3.426  0.0223  1.5072  2.4522
 2576SOL    HW2 8628   0.440   5.082   3.380 -0.4284  0.4402  0.4839
 2577SOL     OW 8629   4.921   0.589   2.168 -0.4651 -0.3239  0.0346
 2577SOL    HW1 8630   4.865   0.648   2.226  0.3676 -0.8482  1.4302
 2577SOL    HW2 8631   4.872   0.503   2.153  0.2623 -1.1644  2.0398
 2578SOL     OW 8632   4.822   6.313   3.462  0.3451  0.4353 -0.3994
 2578SOL    HW1 8633   4.810   6.233   3.521  0.2318  0.0678 -0.9082
 2578SOL    HW2 8634   4.877   6.287   3.383 -0.5000  0.6146 -1.0560
 2579SOL     OW 8635   6.697   0.495   2.747  0.4300 -0.9001 -0.1307
 2579SOL    HW1 8636   6.718   0.582   2.703 -0.5804 -1.4977 -1.8798
 2579SOL    HW2 8637   6.701   0.421   2.680 -0.4738 -1.9611  0.9320
 2580SOL     OW 8638   0.618   5.461   2.806  0.2989  0.0013 -0.8795
 2580SOL    HW1 8639   0.553   5.519   2.757 -0.1142 -0.8224 -1.3344
 2580SOL    HW2 8640   0.649   5.508   2.888 -1.8453 -0.0686  0.0266
 2581SOL     OW 8641   5.905   6.995   1.975 -0.9380 -0.1472  0.2028
 2581SOL    HW1 8642   5.900   6.929   1.901 -1.0136  1.5987 -1.4413
 2581SOL    HW2 8643   5.814   7.035   1.990 -0.8888 -0.3650  1.1420
 2582SOL     OW 8644   1.338   0.152   5.195  0.3130 -0.2515 -0.3295
 2582SOL    HW1 8645   1.381   0.077   5.244  1.7610  0.9963  0.3997
 2582SOL    HW2 8646   1.294   0.214   5.259  1.7474  1.1006 -0.5717
 2583SOL     OW 8647   5.569   5.824   5.409 -0.6870  0.5986  0.5229
 2583SOL    HW1 8648   5.556   5.725   5.405 -1.5673  0.7060  0.3662
 2583SOL    HW2 8649   5.660   5.848   5.375 -1.0196 -0.0562 -0.9048
 2584SOL     OW 8650   2.700   2.741   6.678 -0.0989  0.3812 -0.3498
 2584SOL    HW1 8651   2.636   2.816   6.692  0.1078  0.7638 -1.3922
 2584SOL    HW2 8652   2.793   2.772   6.700  0.0958  0.6929 -1.5542
 2585SOL     OW 8653   2.651   4.461   5.368  0.0503 -0.2157  0.1035
 2585SOL    HW1 8654   2.713   4.384   5.352 -0.9010 -1.3197  1.4758
 2585SOL    HW2 8655   2.585   4.437   5.440 -0.2198  1.9220  0.6532
 2586SOL     OW 8656   5.393   3.577   2.341  0.0351  1.1399  0.0907
 2586SOL    HW1 8657   5.393   3.501   2.277  0.9847 -0.2180  1.6135
 2586SOL    HW2 8658   5.307   3.578   2.393  0.7468 -0.1114  1.3685
 2587SOL     OW 8659   6.703   1.046   0.834  0.0040 -0.4429  0.5043
 2587SOL    HW1 8660   6.668   1.131   0.875 -0.5906 -0.2120 -0.4547
 2587SOL    HW2 8661   6.751   0.993   0.904  1.0006  1.0068  0.9679
 2588SOL     OW 8662   5.832   0.833   0.057  0.4336  0.0880 -0.0590
 2588SOL    HW1 8663   5.925   0.804   0.037  0.7333  0.7580  0.2983
 2588SOL    HW2 8664   5.785   0.856  -0.028  1.1164  1.2315 -0.1569
 2589SOL     OW 8665   6.774   0.359   1.565  0.0395 -0.1820 -0.1695
 2589SOL    HW1 8666   6.831   0.284   1.596  0.2204 -0.1685 -0.4648
 2589SOL    HW2 8667   6.699   0.324   1.509  1.9007  0.0598 -3.0039
 2590SOL     OW 8668   0.771   0.185   5.436  0.0052 -0.2743  0.3179
 2590SOL    HW1 8669   0.728   0.223   5.518 -0.3747 -0.7959  0.3610
 2590SOL    HW2 8670   0.865   0.159   5.457 -0.0950 -0.4174  0.5870
 2591SOL     OW 8671   6.520   3.709   5.225  0.9291 -0.0171  0.3175
 2591SOL    HW1 8672   6.599   3.703   5.164 -1.0782 -1.9200 -2.2435
 2591SOL    HW2 8673   6.506   3.805   5.251  2.3269  0.7657 -1.5729
 2592SOL     OW 8674   0.440   4.136   1.564 -0.4960 -0.2970 -0.0782
 2592SOL    HW1 8675   0.527   4.089   1.561 -1.5440 -2.3623  0.2797
 2592SOL    HW2 8676   0.416   4.169   1.472  1.7202  2.5415  0.1991
 2593SOL     OW 8677   5.315   3.100   6.566 -0.0322 -0.2032 -0.3786
 2593SOL    HW1 8678   5.299   3.195   6.593  0.9654 -0.1170 -0.0426
 2593SOL    HW2 8679   5.351   3.049   6.645 -1.0531 -0.9981 -0.4035
 2594SOL     OW 8680   4.955   5.435   4.444  0.6224  0.5082 -0.5792
 2594SOL    HW1 8681   4.917   5.412   4.354  0.7111 -0.0140 -0.4814
 2594SOL    HW2 8682   4.970   5.534   4.449 -1.5456  0.8758 -0.3156
 2595SOL     OW 8683   3.086   5.269   5.592 -0.1704 -0.5262  0.1801
 2595SOL    HW1 8684   3.059   5.179   5.559  1.8210 -1.4938  1.0396
 2595SOL    HW2 8685   3.168   5.261   5.649 -1.3728  1.4839  2.4105
 2596SOL     OW 8686   0.309   1.852   3.594  0.5214  0.4018 -0.4663
 2596SOL    HW1 8687   0.255   1.845   3.510 -0.7766 -0.3871  0.4083
 2596SOL    HW2 8688   0.332   1.761   3.627  1.0775  0.7052  0.0067
 2597SOL     OW 8689   6.645   4.345   3.147 -0.1529 -0.9247 -0.0121
 2597SOL    HW1 8690   6.700   4.391   3.077 -0.8301 -0.2464 -0.1051
 2597SOL    HW2 8691   6.699   4.334   3.230 -1.4238  4.8621  1.9997
 2598SOL     OW 8692   6.181   2.363   2.391  0.2898 -0.1776 -0.2529
 2598SOL    HW1 8693   6.257   2.306   2.360  0.5111  0.1952 -0.4049
 2598SOL    HW2 8694   6.184   2.371   2.491  1.5081  1.2755 -0.3722
 2599SOL     OW 8695   0.343   3.866   5.345 -0.3369  0.1009 -0.5810
 2599SOL    HW1 8696   0.411   3.922   5.298  1.7576 -1.3487  0.5757
 2599SOL    HW2 8697   0.387   3.812   5.417 -2.6433 -1.2971 -0.0999
 2600SOL     OW 8698   6.018   5.244   3.109  0.3952 -0.0876 -0.1334
 2600SOL    HW1 8699   5.975   5.276   3.025  0.2599  0.5861  0.1871
 2600SOL    HW2 8700   6.016   5.144   3.111  0.7726 -0.1333 -1.1255
 2601SOL     OW 8701   4.479   5.423   4.810 -0.3767 -0.0445 -0.1720
 2601SOL    HW1 8702   4.435   5.335   4.791  0.0689 -0.6729  1.5400
 2601SOL    HW2 8703   4.430   5.470   4.883  0.1044  0.5871 -0.2431
 2602SOL     OW 8704   4.315   3.809   1.088  0.0306  0.3350 -0.2475
 2602SOL    HW1 8705   4.364   3.887   1.128 -1.5516 -0.1538  2.9829
 2602SOL    HW2 8706   4.379   3.754   1.033  1.5213  3.0183 -1.3613
 2603SOL     OW 8707   3.864   1.205   4.703 -0.3338 -0.2218  0.0700
 2603SOL    HW1 8708   3.815   1.185   4.788 -0.4889 -1.1719 -0.2316
 2603SOL    HW2 8709   3.936   1.272   4.721  0.2623 -1.1129  1.1489
 2604SOL     OW 8710   1.629   5.476   2.004  0.3123 -0.0598 -0.0265
 2604SOL    HW1 8711   1.559   5.536   2.043  0.8973 -0.3168  1.4897
 2604SOL    HW2 8712   1.700   5.459   2.072  0.8346 -1.4135 -0.8622
 2605SOL     OW 8713   1.891   1.277   3.686 -0.1383  0.1238 -0.2583
 2605SOL    HW1 8714   1.977   1.327   3.672  0.4685 -1.4775 -3.0320
 2605SOL    HW2 8715   1.822   1.312   3.622 -0.8947 -0.0458  0.4554
 2606SOL     OW 8716   0.379   0.177   1.985 -0.3898  0.5803 -0.1429
 2606SOL    HW1 8717   0.330   0.094   1.960  1.0588 -0.9320  1.6782
 2606SOL    HW2 8718   0.327   0.257   1.956 -0.8581 -0.8930 -3.8914
 2607SOL     OW 8719   0.742   3.657   4.552 -0.4125  0.4249 -0.2495
 2607SOL    HW1 8720   0.693   3.722   4.609  1.4744  2.4321 -0.7556
 2607SOL    HW2 8721   0.706   3.660   4.459  1.0902  2.5991 -0.8580
 2608SOL     OW 8722   2.079   4.990   4.063 -0.4249  0.3336 -0.5615
 2608SOL    HW1 8723   2.142   4.918   4.036  1.4191  1.4910  0.4370
 2608SOL    HW2 8724   2.059   5.048   3.983  0.5697  0.5111 -0.6950
 2609SOL     OW 8725   2.951   6.707   3.010  0.1442 -0.5381  0.1974
 2609SOL    HW1 8726   2.992   6.618   2.991  0.0691 -0.6242  0.4275
 2609SOL    HW2 8727   3.019   6.768   3.050 -0.3501 -1.2547  2.2876
 2610SOL     OW 8728   2.068   2.231   4.952  0.0144  0.4879  0.1873
 2610SOL    HW1 8729   2.126   2.309   4.975 -0.2315  0.6893  0.1149
 2610SOL    HW2 8730   2.082   2.205   4.857  0.4938  0.1062  0.3540
 2611SOL     OW 8731   0.985   0.424   5.896 -0.0261 -0.4832 -0.7293
 2611SOL    HW1 8732   0.972   0.345   5.836 -0.0369 -1.2897  0.2981
 2611SOL    HW2 8733   1.022   0.393   5.984  0.7061  0.7568 -0.5812
 2612SOL     OW 8734   6.237   5.077   4.536 -0.3386  0.1483 -0.5393
 2612SOL    HW1 8735   6.283   5.045   4.452 -0.1562  1.1949 -0.8477
 2612SOL    HW2 8736   6.218   5.175   4.528  0.5763  0.4806  1.0441
 2613SOL     OW 8737   5.085   6.616   0.042  0.2522  0.0706  0.4732
 2613SOL    HW1 8738   5.000   6.570   0.067 -0.8284 -0.4021 -3.4174
 2613SOL    HW2 8739   5.072   6.715   0.046  0.9165  0.1435  3.7015
 2614SOL     OW 8740   0.600   2.485   0.489 -0.2538 -0.3507 -0.1412
 2614SOL    HW1 8741   0.625   2.391   0.464  0.4425  0.0297 -0.9162
 2614SOL    HW2 8742   0.502   2.498   0.477 -0.5775 -1.3417  1.1894
 2615SOL     OW 8743   2.304   5.487   5.831  0.3054  0.2567  0.1508
 2615SOL    HW1 8744   2.366   5.462   5.905 -0.4756 -0.4532  0.5757
 2615SOL    HW2 8745   2.357   5.513   5.750  1.1638 -1.0953  0.2480
 2616SOL     OW 8746   2.472   5.085   5.811  0.3424 -0.0019 -0.4560
 2616SOL    HW1 8747   2.450   5.164   5.869  1.0275  0.0444 -0.2518
 2616SOL    HW2 8748   2.440   5.001   5.856  0.6189  0.0603 -0.1400
 2617SOL     OW 8749   2.799   2.510   1.392 -0.5297  0.0455  0.1100
 2617SOL    HW1 8750   2.782   2.417   1.358 -2.6031  0.3237  0.2278
 2617SOL    HW2 8751   2.746   2.575   1.338  0.3145  1.0831  0.5100
 2618SOL     OW 8752   1.371   0.456   6.992 -0.3111  0.1929  0.4280
 2618SOL    HW1 8753   1.380   0.550   6.957 -0.8454  0.1668  0.2118
 2618SOL    HW2 8754   1.372   0.457   7.092 -1.1364  0.5208  0.4400
 2619SOL     OW 8755   5.406   6.027   4.298  0.1433 -0.5990 -0.7912
 2619SOL    HW1 8756   5.497   6.006   4.263  1.1686  0.0097  1.3293
 2619SOL    HW2 8757   5.379   5.958   4.365 -0.3613 -0.0129 -0.3784
 2620SOL     OW 8758   4.975   0.731   5.516 -0.1613 -0.0996 -0.2677
 2620SOL    HW1 8759   4.881   0.762   5.531 -0.1409 -0.0062 -0.3328
 2620SOL    HW2 8760   4.999   0.741   5.420  0.4364  1.3714 -0.0025
 2621SOL     OW 8761   2.540   6.950   5.097  0.1657  0.4882  0.0948
 2621SOL    HW1 8762   2.624   7.002   5.112  1.4619 -1.2887 -0.7175
 2621SOL    HW2 8763   2.510   6.908   5.183 -1.6893  3.5388  1.1092
 2622SOL     OW 8764   1.176   4.538   4.233  0.0655 -0.4650  0.1301
 2622SOL    HW1 8765   1.246   4.584   4.288  0.9398 -2.6065  0.8857
 2622SOL    HW2 8766   1.199   4.549   4.136 -0.5941  1.9205  0.1737
 2623SOL     OW 8767   0.617   5.520   3.285 -0.1906 -0.1926 -0.9200
 2623SOL    HW1 8768   0.575   5.453   3.225  1.1176 -1.2542 -0.6849
 2623SOL    HW2 8769   0.700   5.556   3.244 -0.9738  1.4868 -1.1389
 2624SOL     OW 8770   1.497   1.892   5.988 -0.1989 -0.0535  0.2973
 2624SOL    HW1 8771   1.520   1.982   5.951  0.9155 -0.7499 -0.7786
 2624SOL    HW2 8772   1.416   1.857   5.941  0.3467 -0.3131 -0.4546
 2625SOL     OW 8773   1.857   5.982   0.608 -0.3615  0.2820 -0.9592
 2625SOL    HW1 8774   1.802   5.912   0.562 -0.1526 -0.1603 -0.5502
 2625SOL    HW2 8775   1.840   5.976   0.707  0.3682  0.1858 -0.8369
 2626SOL     OW 8776   5.525   5.660   0.125  0.0847  0.4164  0.1207
 2626SOL    HW1 8777   5.431   5.664   0.158  0.1505  0.9478  0.2495
 2626SOL    HW2 8778   5.529   5.688   0.030 -0.2128 -1.8109 -0.6134
 2627SOL     OW 8779   5.351   3.555   5.718 -0.0112  0.3630 -0.0382
 2627SOL    HW1 8780   5.306   3.491   5.781  0.8255 -0.9148 -0.6941
 2627SOL    HW2 8781   5.449   3.538   5.719  0.0489  0.5655 -1.4215
 2628SOL     OW 8782   2.880   1.335   1.052 -0.0119 -0.9006 -0.3972
 2628SOL    HW1 8783   2.853   1.429   1.074 -1.1952 -1.3301  0.0412
 2628SOL    HW2 8784   2.960   1.309   1.107  0.1073 -0.2752 -0.2720
 2629SOL     OW 8785   4.625   2.308   2.030 -0.0420 -0.4070  1.1997
 2629SOL    HW1 8786   4.631   2.369   2.109 -0.4324 -1.2989  1.9470
 2629SOL    HW2 8787   4.710   2.257   2.021 -0.2825 -0.8766  1.5373
 2630SOL     OW 8788   6.575   3.457   0.902  0.1889  0.8153  0.3685
 2630SOL    HW1 8789   6.600   3.368   0.942 -0.7657  0.4750  0.2388
 2630SOL    HW2 8790   6.588   3.529   0.970 -0.6590  0.3499  1.0479
 2631SOL     OW 8791   4.831   1.693   0.481  0.2936  0.5614 -0.2153
 2631SOL    HW1 8792   4.819   1.594   0.468 -0.4395  0.8114 -1.6673
 2631SOL    HW2 8793   4.929   1.715   0.481  0.5759 -0.3507  2.0423
 2632SOL     OW 8794   6.555   2.751   1.700  0.1977 -0.5281  0.2962
 2632SOL    HW1 8795   6.456   2.735   1.699  0.1995 -0.8443  2.2853
 2632SOL    HW2 8796   6.576   2.833   1.647 -1.2036 -0.0533  0.4436
 2633SOL     OW 8797   3.999   3.153   0.199  0.3804 -0.3016  0.1059
 2633SOL    HW1 8798   4.085   3.198   0.177 -1.8116  4.6245  0.1419
 2633SOL    HW2 8799   3.953   3.203   0.273 -2.3534 -2.9636  0.4153
 2634SOL     OW 8800   3.586   3.394   0.323  0.3404 -0.5639  0.1523
 2634SOL    HW1 8801   3.626   3.404   0.414  1.0663  0.5617 -0.2746
 2634SOL    HW2 8802   3.638   3.449   0.257 -1.7755  0.8012 -0.4711
 2635SOL     OW 8803   4.625   5.907   4.450  0.0537  0.2125  0.1104
 2635SOL    HW1 8804   4.630   5.810   4.429 -1.5011 -0.1976  1.4239
 2635SOL    HW2 8805   4.530   5.938   4.445  0.2939  1.2639  1.3397
 2636SOL     OW 8806   0.154   1.739   2.973  0.5963  0.2772  0.4145
 2636SOL    HW1 8807   0.130   1.668   3.040 -1.4817 -1.1834 -1.7065
 2636SOL    HW2 8808   0.193   1.696   2.891  1.9296  1.8967  0.1399
 2637SOL     OW 8809   6.644   6.572   3.843  0.0839 -0.1973  0.3802
 2637SOL    HW1 8810   6.597   6.610   3.763  1.3798  0.7199  0.0278
 2637SOL    HW2 8811   6.673   6.646   3.904 -0.1297 -0.8333  1.2853
 2638SOL     OW 8812   0.661   6.280   5.996 -0.2919  0.1453 -0.0527
 2638SOL    HW1 8813   0.662   6.378   6.015 -0.6947  0.3467 -1.0129
 2638SOL    HW2 8814   0.580   6.239   6.037 -0.8670  0.4753 -0.8410
 2639SOL     OW 8815   3.612   4.874   6.909  0.0402  0.4584  0.6657
 2639SOL    HW1 8816   3.588   4.821   6.990 -4.3162  0.2723 -0.5116
 2639SOL    HW2 8817   3.604   4.971   6.928  2.4458  0.6035  1.2708
 2640SOL     OW 8818   6.897   1.798   0.805  0.1358  0.3874  0.2867
 2640SOL    HW1 8819   6.968   1.764   0.866 -0.1798 -0.8722 -0.0323
 2640SOL    HW2 8820   6.870   1.727   0.741 -2.4583  0.2781  1.3568
 2641SOL     OW 8821   2.481   6.052   6.306  0.2615 -0.2412 -0.2406
 2641SOL    HW1 8822   2.455   6.069   6.401  0.4038 -0.1264 -0.2206
 2641SOL    HW2 8823   2.441   6.124   6.248  3.4764  2.1587  0.2385
 2642SOL     OW 8824   1.561   5.168   3.894  0.2065  0.3133 -0.0876
 2642SOL    HW1 8825   1.537   5.099   3.963 -0.6411  1.0381  0.3649
 2642SOL    HW2 8826   1.622   5.236   3.936  1.8721 -0.6637 -0.8047
 2643SOL     OW 8827   4.177   0.200   3.389 -0.2700  0.2494  0.4775
 2643SOL    HW1 8828   4.207   0.296   3.388  1.9963 -0.3716 -1.4195
 2643SOL    HW2 8829   4.209   0.157   3.474  1.7258  0.4003 -0.1280
 2644SOL     OW 8830   3.405   6.802   4.505 -0.2747 -0.5254  0.1194
 2644SOL    HW1 8831   3.359   6.768   4.587 -0.2156 -2.4291 -0.5793
 2644SOL    HW2 8832   3.337   6.839   4.441 -0.2190  2.1761  1.4655
 2645SOL     OW 8833   1.414   0.039   5.974 -0.3126 -0.3833  0.1530
 2645SOL    HW1 8834   1.319   0.048   6.003 -0.5996 -0.2207 -0.8075
 2645SOL    HW2 8835   1.444   0.124   5.930  0.6429 -0.0169  1.4336
 2646SOL     OW 8836   5.637   1.697   3.774 -0.4871  0.1179 -0.2234
 2646SOL    HW1 8837   5.693   1.765   3.725 -1.0755  0.2831 -0.6846
 2646SOL    HW2 8838   5.696   1.639   3.829  0.3134 -0.5962 -1.7560
 2647SOL     OW 8839   5.833   4.467   2.397 -0.4074  0.5906  0.4427
 2647SOL    HW1 8840   5.766   4.482   2.470 -0.7877  0.7376  0.0689
 2647SOL    HW2 8841   5.822   4.537   2.327 -2.2692 -1.3924 -1.3942
 2648SOL     OW 8842   2.089   5.685   0.754  0.3026  0.0764  0.0354
 2648SOL    HW1 8843   2.072   5.638   0.667 -1.2412  2.1772 -0.8867
 2648SOL    HW2 8844   2.072   5.783   0.743  2.2676  0.7393  2.1709
 2649SOL     OW 8845   0.514   2.257   0.842 -0.1030 -0.8293  0.1900
 2649SOL    HW1 8846   0.611   2.240   0.828  0.2397  0.1717  1.2131
 2649SOL    HW2 8847   0.470   2.174   0.877  0.4571 -1.1745  0.0849
 2650SOL     OW 8848   0.300   5.474   2.457 -0.0314  0.2778  0.0386
 2650SOL    HW1 8849   0.348   5.512   2.378 -0.0297 -1.0784 -0.6464
 2650SOL    HW2 8850   0.259   5.386   2.431 -0.8654  0.2847  1.2795
 2651SOL     OW 8851   0.317   0.770   1.900  0.0581  0.3153 -0.1315
 2651SOL    HW1 8852   0.314   0.672   1.918  0.3613  0.3687  0.2108
 2651SOL    HW2 8853   0.232   0.798   1.854 -0.2033 -0.0351  0.1332
 2652SOL     OW 8854   1.466   1.726   6.526  0.4420  0.7557 -0.4503
 2652SOL    HW1 8855   1.383   1.690   6.569 -0.5618  2.6374 -0.6733
 2652SOL    HW2 8856   1.452   1.732   6.427  1.0915  0.4959 -0.5619
 2653SOL     OW 8857   0.990   6.633   4.459 -0.3818  0.5865  0.7061
 2653SOL    HW1 8858   1.037   6.546   4.475  1.5820  1.7640  1.7296
 2653SOL    HW2 8859   1.038   6.706   4.508 -2.2949  2.1762  0.3212
 2654SOL     OW 8860   5.958   5.374   6.100  0.4030 -0.3205 -0.3050
 2654SOL    HW1 8861   5.955   5.474   6.106  0.1214  0.0350 -4.0212
 2654SOL    HW2 8862   5.875   5.341   6.055  0.0715 -2.4130  1.6561
 2655SOL     OW 8863   5.674   1.207   0.712  0.3397 -0.2600 -0.1739
 2655SOL    HW1 8864   5.761   1.166   0.738 -0.2913 -1.1634  0.5595
 2655SOL    HW2 8865   5.642   1.167   0.626  1.0191  0.6543 -0.8775
 2656SOL     OW 8866   2.958   1.760   1.331  0.0089 -0.1608 -0.0341
 2656SOL    HW1 8867   2.938   1.706   1.412  0.3095 -0.7584 -0.3504
 2656SOL    HW2 8868   2.889   1.741   1.261 -0.3183  0.4427  0.1175
 2657SOL     OW 8869   6.288   3.358   3.301 -0.3130 -0.6136 -0.9792
 2657SOL    HW1 8870   6.385   3.337   3.313 -0.4153 -1.4314 -1.5022
 2657SOL    HW2 8871   6.234   3.274   3.309 -1.0824 -0.0324  0.2444
 2658SOL     OW 8872   2.840   4.636   6.380 -0.1868 -0.9565  0.3436
 2658SOL    HW1 8873   2.794   4.582   6.451  1.7812  0.1478  2.5824
 2658SOL    HW2 8874   2.920   4.585   6.347  0.8964 -0.0680  1.4935
 2659SOL     OW 8875   3.868   1.008   0.629 -0.5430  0.1570 -0.3688
 2659SOL    HW1 8876   3.954   0.965   0.603 -0.2932  0.4899 -0.0988
 2659SOL    HW2 8877   3.820   0.950   0.695 -0.6521 -0.1548 -0.7214
 2660SOL     OW 8878   0.010   1.608   6.181  0.1421 -0.5015  0.1975
 2660SOL    HW1 8879  -0.017   1.690   6.130 -0.9768 -1.0263 -0.1058
 2660SOL    HW2 8880   0.043   1.539   6.117 -1.3065 -1.1768  0.1216
 2661SOL     OW 8881   2.058   0.221   6.727  0.1137  0.5347  0.4527
 2661SOL    HW1 8882   2.154   0.217   6.700  0.3429 -1.2596  1.3659
 2661SOL    HW2 8883   2.019   0.310   6.701  1.2337  0.2702 -2.4370
 2662SOL     OW 8884   6.553   1.162   2.949 -0.1874 -0.2093  0.2326
 2662SOL    HW1 8885   6.548   1.062   2.941  2.1755 -0.3543  0.0224
 2662SOL    HW2 8886   6.489   1.203   2.884 -0.9265 -1.5678  0.0608
 2663SOL     OW 8887   4.954   1.862   5.379  0.1793  0.6506  0.4733
 2663SOL    HW1 8888   4.999   1.948   5.404  0.2849  0.7484 -0.0295
 2663SOL    HW2 8889   4.990   1.787   5.434  0.4971  0.8380  0.5203
 2664SOL     OW 8890   5.425   4.955   1.407 -0.3787  0.0528 -0.1990
 2664SOL    HW1 8891   5.401   4.915   1.496 -1.1172 -1.5611 -1.0883
 2664SOL    HW2 8892   5.355   4.933   1.340  1.4064 -1.0179 -1.8246
 2665SOL     OW 8893   3.628   1.392   6.945  0.8926  0.0655  0.3528
 2665SOL    HW1 8894   3.676   1.313   6.907 -1.9662 -1.3952 -0.5513
 2665SOL    HW2 8895   3.600   1.373   7.039 -0.0300 -0.1411  0.0467
 2666SOL     OW 8896   4.957   3.472   6.137 -0.5382  0.1268  0.1944
 2666SOL    HW1 8897   4.993   3.395   6.189  0.4614 -0.1914 -0.9133
 2666SOL    HW2 8898   4.872   3.504   6.179 -1.5038 -2.1766  0.1426
 2667SOL     OW 8899   2.930   3.826   3.375  0.2456 -0.2051 -0.1193
 2667SOL    HW1 8900   2.990   3.870   3.309 -0.5321  1.1472  0.0515
 2667SOL    HW2 8901   2.835   3.835   3.345 -0.0156 -0.7644  0.5057
 2668SOL     OW 8902   5.879   0.235   5.835 -0.6241 -0.5037 -0.0088
 2668SOL    HW1 8903   5.843   0.299   5.902  2.6728 -0.4033  1.8623
 2668SOL    HW2 8904   5.888   0.144   5.876  3.0351 -0.0789  0.4846
 2669SOL     OW 8905   0.094   5.288   6.571  0.7017 -0.2527  0.3691
 2669SOL    HW1 8906   0.165   5.341   6.525 -0.0487 -0.2873 -0.8610
 2669SOL    HW2 8907   0.110   5.191   6.556  1.1893 -0.3355  1.3128
 2670SOL     OW 8908   1.595   5.002   0.440  0.2582 -0.3044 -0.1861
 2670SOL    HW1 8909   1.507   5.045   0.419 -0.2080 -1.7933 -1.4972
 2670SOL    HW2 8910   1.668   5.053   0.396 -0.0207  0.4781  0.2383
 2671SOL     OW 8911   3.867   4.466   5.451 -1.0499 -0.2445  0.0533
 2671SOL    HW1 8912   3.777   4.425   5.436 -1.4269  0.9602 -1.1871
 2671SOL    HW2 8913   3.871   4.557   5.408  0.7494 -0.2466  0.1079
 2672SOL     OW 8914   2.914   5.272   2.865  0.5236 -0.2553  0.2007
 2672SOL    HW1 8915   2.889   5.189   2.915 -1.2192 -0.3259 -0.7475
 2672SOL    HW2 8916   2.917   5.253   2.767 -0.5335  0.9328 -0.0884
 2673SOL     OW 8917   4.857   6.781   2.365 -0.1570  0.2125 -0.2720
 2673SOL    HW1 8918   4.829   6.780   2.269 -0.1351 -1.7157 -0.2986
 2673SOL    HW2 8919   4.780   6.756   2.423  0.1900 -0.0869  0.0729
 2674SOL     OW 8920   6.336   6.199   3.635 -0.4718 -0.1532 -0.3485
 2674SOL    HW1 8921   6.282   6.279   3.663 -0.0553  0.5625 -1.5093
 2674SOL    HW2 8922   6.299   6.117   3.680  1.2660  1.0489  3.7630
 2675SOL     OW 8923   4.390   0.830   4.849 -0.7716 -0.1559 -0.2301
 2675SOL    HW1 8924   4.300   0.872   4.838 -0.8814  0.1095  1.3754
 2675SOL    HW2 8925   4.454   0.872   4.785 -1.2040  1.5432  0.3774
 2676SOL     OW 8926   0.711   0.558   1.489  0.3020  0.4387  0.0362
 2676SOL    HW1 8927   0.767   0.500   1.549  0.8007  0.7168 -0.1586
 2676SOL    HW2 8928   0.622   0.573   1.532  1.4874  2.7261  1.9822
 2677SOL     OW 8929   1.984   0.063   2.701 -0.9615 -0.1585  0.4710
 2677SOL    HW1 8930   1.964   0.154   2.740  1.4470  0.6539 -0.0181
 2677SOL    HW2 8931   1.945   0.057   2.610 -0.6593  0.6374  0.2772
 2678SOL     OW 8932   4.233   1.800   3.701 -0.1488 -0.0345  0.7020
 2678SOL    HW1 8933   4.214   1.898   3.701  0.0009  0.0248  2.2688
 2678SOL    HW2 8934   4.258   1.771   3.608  1.4628  1.7396  0.5039
 2679SOL     OW 8935   2.127   0.960   3.995  0.2501  0.2383 -0.3153
 2679SOL    HW1 8936   2.123   0.928   3.900  1.0945  1.1641 -0.6808
 2679SOL    HW2 8937   2.150   1.057   3.997  0.8231  0.1019  0.8476
 2680SOL     OW 8938   6.559   0.798   7.008 -0.5787  0.2644  0.4389
 2680SOL    HW1 8939   6.469   0.811   7.049 -0.1156  0.9538  1.2921
 2680SOL    HW2 8940   6.598   0.887   6.984  0.3070  0.0605  1.0673
 2681SOL     OW 8941   6.577   6.899   2.038 -0.0786  0.3750  0.1124
 2681SOL    HW1 8942   6.659   6.937   2.081 -0.4392  1.0696  0.2032
 2681SOL    HW2 8943   6.587   6.899   1.939 -0.5514  1.8774  0.0399
 2682SOL     OW 8944   5.120   4.343   0.172 -0.1887 -0.3762  0.1248
 2682SOL    HW1 8945   5.193   4.275   0.180  0.3561  0.3242  1.3924
 2682SOL    HW2 8946   5.044   4.318   0.231  0.3901  0.5434  1.3079
 2683SOL     OW 8947   2.447   1.000   1.571  0.1238 -0.0062  0.1198
 2683SOL    HW1 8948   2.468   0.916   1.621  0.0179  0.4986  1.0466
 2683SOL    HW2 8949   2.412   0.977   1.480  0.2353 -0.9540  0.3044
 2684SOL     OW 8950   2.390   0.800   1.740 -0.2369  0.3313  0.4387
 2684SOL    HW1 8951   2.332   0.833   1.814 -0.8726  0.4390 -0.0929
 2684SOL    HW2 8952   2.383   0.701   1.733  0.1467  0.2782  0.7839
 2685SOL     OW 8953   2.302   6.798   5.841 -0.0057  0.0306 -0.3570
 2685SOL    HW1 8954   2.321   6.845   5.755 -0.8719  1.3267  0.1166
 2685SOL    HW2 8955   2.240   6.854   5.896  0.5034 -0.7793  1.1007
 2686SOL     OW 8956   4.856   2.906   4.610 -0.1362 -0.2955  0.2108
 2686SOL    HW1 8957   4.784   2.922   4.678  0.7039  0.1739  1.0090
 2686SOL    HW2 8958   4.906   2.823   4.633 -0.2769 -0.5013 -0.2187
 2687SOL     OW 8959   3.333   1.413   6.443  0.0496  0.5933 -0.0314
 2687SOL    HW1 8960   3.250   1.357   6.445  1.5858 -1.8548 -0.6623
 2687SOL    HW2 8961   3.333   1.475   6.520 -0.4650 -2.2965  2.4902
 2688SOL     OW 8962   0.051   5.150   6.018 -0.1252 -0.3442  0.1075
 2688SOL    HW1 8963   0.083   5.057   5.998 -0.7807 -0.8346  1.2084
 2688SOL    HW2 8964   0.026   5.195   5.933  1.2560 -0.7634 -0.5533
 2689SOL     OW 8965   4.898   1.313   6.608  0.0733 -0.2550 -0.1826
 2689SOL    HW1 8966   4.900   1.232   6.667  0.4924  1.1777  1.8646
 2689SOL    HW2 8967   4.980   1.314   6.550 -1.0481 -2.4358 -1.9701
 2690SOL     OW 8968   1.963   4.228   3.150  0.7234  0.0371  0.3208
 2690SOL    HW1 8969   1.956   4.244   3.051  2.0205 -1.2372 -0.0064
 2690SOL    HW2 8970   1.904   4.151   3.175  1.3307 -0.4405  0.3086
 2691SOL     OW 8971   1.380   0.716   0.884  0.3550  0.2727 -0.3428
 2691SOL    HW1 8972   1.450   0.734   0.953 -0.5600 -1.1669  1.0205
 2691SOL    HW2 8973   1.375   0.618   0.865 -0.7334  0.4310 -1.0147
 2692SOL     OW 8974   0.137   6.840   3.871 -0.1679  0.9059  0.1327
 2692SOL    HW1 8975   0.218   6.814   3.818 -0.4286  0.0139  0.1418
 2692SOL    HW2 8976   0.158   6.918   3.929  0.7321  0.6026  0.2265
 2693SOL     OW 8977   1.649   3.284   1.385  0.1507  0.4259 -0.1625
 2693SOL    HW1 8978   1.746   3.293   1.363  0.0278  0.8653 -0.5474
 2693SOL    HW2 8979   1.611   3.375   1.404 -0.1001  0.2159  0.3466
 2694SOL     OW 8980   3.780   2.865   4.898 -0.7597 -0.1297 -0.0698
 2694SOL    HW1 8981   3.816   2.777   4.869 -1.2776 -0.2769 -0.2716
 2694SOL    HW2 8982   3.724   2.853   4.980  0.4754  0.2431  0.8716
 2695SOL     OW 8983   6.031   5.852   3.953  0.2971 -0.0726  0.0046
 2695SOL    HW1 8984   6.014   5.757   3.924  1.5208  0.2547 -1.9699
 2695SOL    HW2 8985   6.079   5.852   4.040  0.4390 -1.2862 -0.0516
 2696SOL     OW 8986   1.664   2.427   0.532 -0.0021 -0.5416  0.2346
 2696SOL    HW1 8987   1.641   2.497   0.463  1.0690 -1.1464 -0.7794
 2696SOL    HW2 8988   1.632   2.338   0.500  0.0809 -0.7586  0.7560
 2697SOL     OW 8989   2.281   0.721   6.085 -0.1484  0.5258  0.0958
 2697SOL    HW1 8990   2.293   0.725   6.185 -2.8586 -1.2441  0.5941
 2697SOL    HW2 8991   2.270   0.626   6.057 -0.0888  1.0619 -1.8503
 2698SOL     OW 8992   3.218   1.009   2.363 -0.5311 -0.3394 -0.3292
 2698SOL    HW1 8993   3.230   1.013   2.463 -1.2425  1.2103 -0.2665
 2698SOL    HW2 8994   3.281   0.941   2.325 -0.5471 -1.2759  1.2071
 2699SOL     OW 8995   2.983   4.186   1.171  0.7369 -0.0185 -0.0370
 2699SOL    HW1 8996   3.076   4.150   1.163  0.4688 -0.7055 -0.1644
 2699SOL    HW2 8997   2.918   4.110   1.171  0.1370  0.4818 -0.5602
 2700SOL     OW 8998   0.262   4.795   0.494  0.1011 -0.2314 -0.4191
 2700SOL    HW1 8999   0.342   4.786   0.434  1.3639  0.5539  1.0933
 2700SOL    HW2 9000   0.203   4.869   0.460  1.3731  0.9582 -0.0925
 2701SOL     OW 9001   0.616   5.870   1.761 -0.1563 -0.1519 -0.2199
 2701SOL    HW1 9002   0.597   5.789   1.817 -1.5938 -0.0422 -0.5214
 2701SOL    HW2 9003   0.534   5.926   1.755  0.6166  0.9540 -0.6452
 2702SOL     OW 9004   3.107   0.729   2.952 -0.2147 -0.5924 -0.1644
 2702SOL    HW1 9005   3.106   0.819   2.997 -0.7665 -0.9844  0.6302
 2702SOL    HW2 9006   3.080   0.740   2.856 -1.4459 -0.0375  0.2158
 2703SOL     OW 9007   0.820   5.207   2.448 -0.4690  0.4393 -0.1336
 2703SOL    HW1 9008   0.763   5.282   2.413 -1.1929 -0.6351 -1.3446
 2703SOL    HW2 9009   0.916   5.228   2.431 -0.6990  0.8268 -1.0267
 2704SOL     OW 9010   6.302   1.530   5.292  0.3593 -0.0592  0.4785
 2704SOL    HW1 9011   6.304   1.516   5.391 -2.4957 -0.0331  0.6135
 2704SOL    HW2 9012   6.222   1.484   5.253 -1.8624  4.3665 -0.9628
 2705SOL     OW 9013   2.817   1.334   5.830 -0.9620 -0.2683  0.6038
 2705SOL    HW1 9014   2.782   1.367   5.918 -2.4550  2.1352 -0.7764
 2705SOL    HW2 9015   2.915   1.349   5.825 -0.9842  0.3011  1.5712
 2706SOL     OW 9016   1.151   5.891   0.926  0.2495  0.1889 -0.0970
 2706SOL    HW1 9017   1.146   5.815   0.861 -0.5696  0.5863 -0.5113
 2706SOL    HW2 9018   1.108   5.864   1.012 -0.6178  0.3779 -0.4550
 2707SOL     OW 9019   1.617   1.299   4.887 -0.1579  0.2102 -0.0183
 2707SOL    HW1 9020   1.594   1.396   4.897  0.6539  0.4501 -0.3363
 2707SOL    HW2 9021   1.566   1.245   4.954  2.3992  1.3211  3.1034
 2708SOL     OW 9022   2.823   2.721   0.999 -0.1446 -0.1196 -0.6429
 2708SOL    HW1 9023   2.854   2.631   1.030  1.2343  0.2176 -0.9747
 2708SOL    HW2 9024   2.868   2.744   0.913 -1.6560  0.2480 -1.3691
 2709SOL     OW 9025   6.711   1.257   3.653 -0.1644 -0.3532 -0.2677
 2709SOL    HW1 9026   6.789   1.310   3.621  0.6176 -0.1098  1.8900
 2709SOL    HW2 9027   6.628   1.313   3.648  0.7888  1.5996  2.8964
 2710SOL     OW 9028   4.361   1.807   2.665  0.0328 -0.7411 -0.7214
 2710SOL    HW1 9029   4.338   1.779   2.758  0.7362 -0.9408 -0.6053
 2710SOL    HW2 9030   4.330   1.901   2.649 -0.5126 -0.8696 -0.4471
 2711SOL     OW 9031   3.824   0.287   2.129 -0.0808  0.2749  0.4642
 2711SOL    HW1 9032   3.748   0.252   2.182 -1.5914  0.1782 -1.6208
 2711SOL    HW2 9033   3.853   0.376   2.165 -1.9190  0.8257  0.6516
 2712SOL     OW 9034   0.283   4.048   2.390  0.6023  0.2546 -0.4047
 2712SOL    HW1 9035   0.184   4.061   2.396  0.0960 -1.1525 -3.7129
 2712SOL    HW2 9036   0.329   4.135   2.411 -1.3180  1.0677  0.7014
 2713SOL     OW 9037   4.722   4.940   3.960 -0.6909  0.0853 -0.1140
 2713SOL    HW1 9038   4.759   4.962   4.050 -1.4338 -0.5324  0.3616
 2713SOL    HW2 9039   4.765   4.997   3.891  1.3114 -0.7771  0.3606
 2714SOL     OW 9040   3.041   4.424   6.623  0.1052  0.0411 -0.5261
 2714SOL    HW1 9041   3.059   4.374   6.708 -1.9725 -0.3774 -0.2958
 2714SOL    HW2 9042   3.013   4.517   6.644 -1.6116 -0.4156 -0.6462
 2715SOL     OW 9043   1.312   3.504   2.926  0.1758 -0.0300 -0.6157
 2715SOL    HW1 9044   1.387   3.439   2.925  0.3912  0.1929  0.3019
 2715SOL    HW2 9045   1.345   3.594   2.954 -0.1419  0.4630 -1.7470
 2716SOL     OW 9046   1.456   2.836   4.240 -0.1869 -0.4239 -0.0377
 2716SOL    HW1 9047   1.378   2.896   4.223  0.4354  0.2426 -0.6185
 2716SOL    HW2 9048   1.467   2.823   4.339  0.2567  1.2558  0.1660
 2717SOL     OW 9049   1.383   3.246   1.768  0.0115 -0.3519 -0.1031
 2717SOL    HW1 9050   1.367   3.186   1.846  0.7138 -1.2761 -0.6522
 2717SOL    HW2 9051   1.296   3.287   1.740 -0.4223 -0.8298  0.5052
 2718SOL     OW 9052   5.861   5.153   2.122  0.6699 -0.0228  0.3415
 2718SOL    HW1 9053   5.935   5.096   2.160 -0.1291 -0.4237  1.3322
 2718SOL    HW2 9054   5.886   5.181   2.029  2.4254  0.4976  0.9186
 2719SOL     OW 9055   2.462   1.607   2.633  0.4118 -0.2840  0.1976
 2719SOL    HW1 9056   2.560   1.586   2.635 -0.0132 -2.4819  0.3310
 2719SOL    HW2 9057   2.432   1.637   2.723  0.8034 -0.4811  0.3962
 2720SOL     OW 9058   0.081   3.583   1.857 -0.8807 -0.0290 -0.1449
 2720SOL    HW1 9059   0.128   3.519   1.918 -1.0264 -1.0124 -1.0260
 2720SOL    HW2 9060   0.081   3.674   1.898  1.2659 -0.1048  0.1619
 2721SOL     OW 9061   3.659   5.456   0.768  0.4318  0.0677 -0.0827
 2721SOL    HW1 9062   3.685   5.399   0.846 -2.6235  0.6418  1.5184
 2721SOL    HW2 9063   3.654   5.400   0.686 -0.4443 -1.5493  1.0132
 2722SOL     OW 9064   5.728   0.312   3.911 -0.0337 -0.2175  0.5689
 2722SOL    HW1 9065   5.809   0.341   3.860  0.2861  0.5249  1.4575
 2722SOL    HW2 9066   5.645   0.340   3.863  0.2522 -0.1636  0.1110
 2723SOL     OW 9067   3.558   6.003   5.305  0.0202  0.1878 -0.2330
 2723SOL    HW1 9068   3.470   5.969   5.338  0.6756 -0.7850  0.5897
 2723SOL    HW2 9069   3.553   6.022   5.207 -1.6765  2.0980  0.1722
 2724SOL     OW 9070   3.909   5.913   0.473 -0.3257  0.0789 -0.4196
 2724SOL    HW1 9071   3.960   5.839   0.516 -0.4071  0.5875  0.5705
 2724SOL    HW2 9072   3.927   5.913   0.374  0.9842 -0.2316 -0.1947
 2725SOL     OW 9073   4.472   5.059   1.144  0.2047 -0.0778  0.0033
 2725SOL    HW1 9074   4.454   5.044   1.241  1.4583  1.4214  0.5142
 2725SOL    HW2 9075   4.571   5.068   1.130  0.1503 -1.5405 -1.6317
 2726SOL     OW 9076   4.143   2.289   6.930  0.2235  0.3874  0.3670
 2726SOL    HW1 9077   4.082   2.260   6.855  1.7791  0.4005 -0.9524
 2726SOL    HW2 9078   4.136   2.224   7.005 -0.4795 -0.3219 -0.2859
 2727SOL     OW 9079   0.490   1.455   2.670 -0.2779 -0.5916  0.5366
 2727SOL    HW1 9080   0.530   1.546   2.681 -0.4801 -0.4174 -0.1482
 2727SOL    HW2 9081   0.531   1.409   2.592 -3.0277  0.5605 -1.8112
 2728SOL     OW 9082   6.859   5.044   0.941 -0.5333 -0.4392  0.4621
 2728SOL    HW1 9083   6.914   4.968   0.907 -1.4505 -0.0023 -2.2905
 2728SOL    HW2 9084   6.915   5.102   1.000  1.2865 -1.1927 -0.4297
 2729SOL     OW 9085   2.187   3.584   0.004  0.3631 -0.2711  0.3198
 2729SOL    HW1 9086   2.149   3.628   0.085  1.2838  0.1218  0.5474
 2729SOL    HW2 9087   2.242   3.651  -0.047  1.5555 -1.0732  0.5173
 2730SOL     OW 9088   5.778   2.734   4.074  0.1259  0.2500 -0.3851
 2730SOL    HW1 9089   5.719   2.794   4.021  1.7144  0.1964 -2.3106
 2730SOL    HW2 9090   5.835   2.788   4.135 -2.0474  0.2841  1.7910
 2731SOL     OW 9091   3.661   6.031   6.940  0.7001  0.8318 -0.2846
 2731SOL    HW1 9092   3.741   6.040   6.999  0.7214  0.6171 -0.2805
 2731SOL    HW2 9093   3.578   6.032   6.996  0.6808  1.3821 -0.3165
 2732SOL     OW 9094   4.366   2.437   3.307 -0.7800 -0.0460 -0.0821
 2732SOL    HW1 9095   4.442   2.372   3.310 -1.3764 -0.8835 -1.7594
 2732SOL    HW2 9096   4.347   2.470   3.400  1.7896  0.4279  0.3693
 2733SOL     OW 9097   1.468   0.579   1.981  0.6716 -0.1313 -0.2260
 2733SOL    HW1 9098   1.445   0.574   2.078  2.3233 -0.3805  0.1924
 2733SOL    HW2 9099   1.409   0.517   1.929 -1.7132  1.6110  0.2715
 2734SOL     OW 9100   0.912   2.428   1.297  0.3126  0.0990  0.4432
 2734SOL    HW1 9101   0.888   2.512   1.248 -0.9721  0.0139  0.9033
 2734SOL    HW2 9102   0.957   2.452   1.383 -0.5599  0.3476  0.8416
 2735SOL     OW 9103   5.532   6.628   3.130 -0.8671 -0.8925 -0.1493
 2735SOL    HW1 9104   5.607   6.600   3.070  0.9124  1.4636  0.7983
 2735SOL    HW2 9105   5.558   6.612   3.226 -2.4383 -1.8820  0.1403
 2736SOL     OW 9106   5.104   4.567   5.325  0.0289  0.1167 -0.2913
 2736SOL    HW1 9107   5.112   4.490   5.387  0.2348 -0.4343 -0.9922
 2736SOL    HW2 9108   5.182   4.629   5.339  1.3045 -1.1401 -1.5140
 2737SOL     OW 9109   4.128   1.896   4.563  0.3003  0.4682 -0.3983
 2737SOL    HW1 9110   4.103   1.968   4.627  0.2613 -0.1124  0.2413
 2737SOL    HW2 9111   4.106   1.807   4.602 -1.5033  0.1533 -1.9880
 2738SOL     OW 9112   4.412   4.530   1.613 -0.1931 -0.2782 -0.0451
 2738SOL    HW1 9113   4.426   4.479   1.528  2.0935  0.5223 -0.2196
 2738SOL    HW2 9114   4.416   4.628   1.595 -1.8594 -0.0265  0.7012
 2739SOL     OW 9115   1.798   1.675   3.054  0.4000 -0.3974 -0.4233
 2739SOL    HW1 9116   1.878   1.722   3.091  0.3858 -1.1708  0.6457
 2739SOL    HW2 9117   1.809   1.661   2.956  1.4164 -0.1802 -0.3467
 2740SOL     OW 9118   1.730   2.912   4.411 -0.3369  0.1050  0.5158
 2740SOL    HW1 9119   1.715   2.930   4.313 -1.7653 -3.5226 -0.0664
 2740SOL    HW2 9120   1.667   2.967   4.465 -1.4738  0.1310 -0.7887
 2741SOL     OW 9121   3.855   0.867   3.286  0.4322  0.3931  0.2168
 2741SOL    HW1 9122   3.771   0.833   3.327 -0.4689  0.7971 -1.2044
 2741SOL    HW2 9123   3.914   0.790   3.260  0.9165  0.1281  1.9534
 2742SOL     OW 9124   5.332   4.039   1.795  0.4339  0.4840 -0.7576
 2742SOL    HW1 9125   5.348   4.116   1.733  1.2981  0.1942 -0.9092
 2742SOL    HW2 9126   5.293   3.962   1.744 -1.2022  1.0824 -0.4500
 2743SOL     OW 9127   0.794   1.867   1.625 -0.1581 -0.3613  0.0464
 2743SOL    HW1 9128   0.872   1.804   1.627  1.0073  1.0088 -0.4128
 2743SOL    HW2 9129   0.739   1.847   1.544  0.1088 -0.8921 -0.0138
 2744SOL     OW 9130   5.675   5.312   3.560  0.4776 -0.7601 -0.1223
 2744SOL    HW1 9131   5.652   5.222   3.597 -0.1816 -0.3334  0.5551
 2744SOL    HW2 9132   5.624   5.382   3.610  0.3553 -0.0713 -1.1792
 2745SOL     OW 9133   2.638   6.162   6.708  0.2745 -0.2057  0.4347
 2745SOL    HW1 9134   2.701   6.091   6.679 -0.3109 -0.2426 -0.8036
 2745SOL    HW2 9135   2.658   6.188   6.803  2.1405 -0.2115  0.0752
 2746SOL     OW 9136   6.756   0.347   3.811 -0.7910  0.1064  0.4343
 2746SOL    HW1 9137   6.838   0.351   3.868  0.0507  0.6004 -0.7656
 2746SOL    HW2 9138   6.758   0.263   3.756 -0.6768  0.4927 -0.1673
 2747SOL     OW 9139   5.347   3.128   4.135 -0.3638  0.2339 -0.4004
 2747SOL    HW1 9140   5.367   3.148   4.231 -0.6525  0.0814 -0.3076
 2747SOL    HW2 9141   5.250   3.142   4.117 -0.0535  1.8266 -1.0653
 2748SOL     OW 9142   2.155   5.140   1.927 -0.1482  0.2909  0.0938
 2748SOL    HW1 9143   2.066   5.185   1.923 -0.3656 -0.1830 -0.5207
 2748SOL    HW2 9144   2.173   5.093   1.841  0.8085  0.5839  0.1275
 2749SOL     OW 9145   6.174   0.866   1.066 -0.0571 -0.0832  0.4754
 2749SOL    HW1 9146   6.137   0.887   1.157  0.3834 -0.3136  0.7130
 2749SOL    HW2 9147   6.155   0.942   1.004 -1.2085 -0.3252  0.5039
 2750SOL     OW 9148   0.755   4.991   1.707 -0.6428  0.1230 -0.5188
 2750SOL    HW1 9149   0.808   5.049   1.645  0.8750 -0.9804 -0.3111
 2750SOL    HW2 9150   0.733   4.905   1.661  0.3706 -0.6456  0.3596
 2751SOL     OW 9151   0.679   1.440   4.337  0.5516 -0.4623  0.5910
 2751SOL    HW1 9152   0.652   1.377   4.410 -1.8084 -0.6932 -0.3525
 2751SOL    HW2 9153   0.621   1.521   4.341  0.7934 -0.2141 -0.6345
 2752SOL     OW 9154   0.240   2.051   5.908 -0.0507  0.2951  0.0522
 2752SOL    HW1 9155   0.207   1.957   5.920  0.9657  0.1614  2.3071
 2752SOL    HW2 9156   0.332   2.048   5.869 -0.2579  0.3935 -0.4488
 2753SOL     OW 9157   3.710   6.054   6.401 -0.0606 -0.3766  0.5031
 2753SOL    HW1 9158   3.708   6.154   6.394 -1.3118 -0.4333 -0.2540
 2753SOL    HW2 9159   3.727   6.028   6.496 -0.2173  0.5611  0.8013
 2754SOL     OW 9160   2.363   0.246   2.667  0.2955 -0.7009 -0.2559
 2754SOL    HW1 9161   2.448   0.223   2.715  0.4325  0.5040  0.1068
 2754SOL    HW2 9162   2.336   0.340   2.690  0.3213 -0.0939 -2.4238
 2755SOL     OW 9163   3.172   2.886   1.433  0.1368  0.4555  0.0750
 2755SOL    HW1 9164   3.131   2.796   1.448 -0.1891  0.6359  0.2897
 2755SOL    HW2 9165   3.172   2.908   1.336  0.5005  0.0907 -0.0080
 2756SOL     OW 9166   1.760   6.413   4.687  0.5626  0.1675 -0.2994
 2756SOL    HW1 9167   1.755   6.433   4.589 -2.1820  1.8048  0.0745
 2756SOL    HW2 9168   1.821   6.335   4.702  0.3103 -0.7608 -3.3877
 2757SOL     OW 9169   5.624   3.636   2.438 -0.0563 -0.2473 -0.1452
 2757SOL    HW1 9170   5.538   3.605   2.398  0.5739 -0.0138 -1.7610
 2757SOL    HW2 9171   5.606   3.717   2.495 -1.0365 -0.8343  0.4246
 2758SOL     OW 9172   0.322   6.862   3.648  0.1111 -0.2118  0.7847
 2758SOL    HW1 9173   0.400   6.913   3.612 -0.2630  0.1770  0.5140
 2758SOL    HW2 9174   0.282   6.806   3.575 -0.0633 -0.1585  0.8397
 2759SOL     OW 9175   6.079   6.360   6.016 -0.5333 -0.0506 -0.4847
 2759SOL    HW1 9176   6.048   6.272   6.052 -0.5718  0.2637  0.2552
 2759SOL    HW2 9177   6.092   6.352   5.917  0.9575 -1.3317 -0.2328
 2760SOL     OW 9178   4.722   6.177   4.120 -0.3649  0.2002  0.3706
 2760SOL    HW1 9179   4.758   6.246   4.058  0.3187  0.3340  0.8996
 2760SOL    HW2 9180   4.768   6.185   4.209 -2.6127  1.2451  1.5303
 2761SOL     OW 9181   5.132   1.823   3.926 -0.3310  0.1113  0.7895
 2761SOL    HW1 9182   5.229   1.820   3.950  0.1495  0.9708 -0.8958
 2761SOL    HW2 9183   5.090   1.735   3.948  1.5401 -1.3862 -1.1881
 2762SOL     OW 9184   6.941   4.601   5.471 -0.7366  0.1679 -0.1676
 2762SOL    HW1 9185   6.940   4.626   5.374  0.3528  0.0427 -0.2287
 2762SOL    HW2 9186   6.884   4.665   5.522 -0.8253  0.6168 -0.8089
 2763SOL     OW 9187   0.799   1.399   6.426  0.2188 -0.0779 -0.6416
 2763SOL    HW1 9188   0.887   1.443   6.409  0.2226  0.8114  1.4172
 2763SOL    HW2 9189   0.729   1.468   6.445 -0.6637 -0.8226 -1.0609
 2764SOL     OW 9190   4.678   6.909   1.610 -0.0645 -0.2483  0.2343
 2764SOL    HW1 9191   4.719   6.923   1.520  1.1442  0.4262  0.8600
 2764SOL    HW2 9192   4.647   6.997   1.646  0.5713 -0.3257  0.9833
 2765SOL     OW 9193   0.182   5.103   4.679  0.2768  0.0764  0.0605
 2765SOL    HW1 9194   0.179   5.007   4.652 -1.1866  0.2232 -0.3859
 2765SOL    HW2 9195   0.249   5.115   4.752 -0.9652 -1.6712  1.5934
 2766SOL     OW 9196   1.775   4.392   0.306  0.2318  0.2967 -0.3365
 2766SOL    HW1 9197   1.832   4.473   0.293 -2.2312  2.2623  0.2765
 2766SOL    HW2 9198   1.816   4.332   0.375  0.3210  2.9103  2.0329
 2767SOL     OW 9199   0.369   6.179   6.112 -0.0195 -0.3818  0.0602
 2767SOL    HW1 9200   0.401   6.273   6.107 -2.2177  0.5202  1.3955
 2767SOL    HW2 9201   0.356   6.143   6.020 -0.2195  1.0236 -0.4833
 2768SOL     OW 9202   5.435   0.453   4.621  0.6478  0.2195 -0.3720
 2768SOL    HW1 9203   5.499   0.392   4.668  1.7496  0.8132 -1.0616
 2768SOL    HW2 9204   5.469   0.471   4.529  0.2217  1.6900 -0.2539
 2769SOL     OW 9205   6.842   2.678   5.876  0.0455  0.1949  0.0209
 2769SOL    HW1 9206   6.911   2.633   5.933  1.1237  2.0135  0.2352
 2769SOL    HW2 9207   6.778   2.609   5.841  0.1087 -1.1425  2.3382
 2770SOL     OW 9208   4.126   0.038   2.122  0.0045  0.5888  0.1747
 2770SOL    HW1 9209   4.041  -0.010   2.100  0.2039 -0.0100  0.6818
 2770SOL    HW2 9210   4.111   0.137   2.114 -0.4602  0.4613 -0.7099
 2771SOL     OW 9211   2.258   2.868   4.870 -0.0355  0.4355  0.0705
 2771SOL    HW1 9212   2.203   2.937   4.823  0.1244  0.1483 -0.5487
 2771SOL    HW2 9213   2.311   2.912   4.943 -0.6593  0.8047  0.3090
 2772SOL     OW 9214   6.644   0.988   5.389  0.1361 -0.3823 -0.7466
 2772SOL    HW1 9215   6.616   1.033   5.304  0.3181 -1.7716 -1.5878
 2772SOL    HW2 9216   6.625   0.890   5.382 -0.8698 -0.3886  1.2774
 2773SOL     OW 9217   4.750   2.034   3.627  0.0860  1.0004  0.2178
 2773SOL    HW1 9218   4.663   2.008   3.669  1.3828 -1.2736  1.7348
 2773SOL    HW2 9219   4.774   1.966   3.557  1.1494  0.9690  0.5949
 2774SOL     OW 9220   4.286   4.764   6.209 -0.2364  0.0706  0.2609
 2774SOL    HW1 9221   4.211   4.720   6.258 -2.1945 -1.2339 -3.5364
 2774SOL    HW2 9222   4.362   4.700   6.198 -0.4823 -0.1922  0.1131
 2775SOL     OW 9223   4.162   5.193   5.073  0.1065  0.2107 -0.0046
 2775SOL    HW1 9224   4.064   5.206   5.088 -0.2282 -0.7558 -1.2428
 2775SOL    HW2 9225   4.201   5.142   5.150 -0.6516 -0.6382 -0.1718
 2776SOL     OW 9226   3.767   4.407   5.875 -0.3170  0.2526  0.1455
 2776SOL    HW1 9227   3.841   4.383   5.812  0.0828  2.0663 -0.1265
 2776SOL    HW2 9228   3.783   4.364   5.964  3.8769  4.2837  1.7593
 2777SOL     OW 9229   1.460   2.098   5.733 -0.9858  0.1315 -0.4453
 2777SOL    HW1 9230   1.450   2.109   5.634  0.0183 -1.6462 -0.7863
 2777SOL    HW2 9231   1.557   2.104   5.757 -0.8187 -2.7516 -0.0846
 2778SOL     OW 9232   6.845   4.077   3.927  0.7250 -0.0611 -0.2355
 2778SOL    HW1 9233   6.888   4.084   3.837  2.8411 -1.0777  0.6138
 2778SOL    HW2 9234   6.754   4.036   3.917 -0.3310  2.4985 -2.1454
 2779SOL     OW 9235   5.854   5.005   2.560 -0.5135 -0.2928  0.5432
 2779SOL    HW1 9236   5.785   4.983   2.491 -1.7750 -1.7333  2.1827
 2779SOL    HW2 9237   5.900   5.090   2.535 -2.8420  0.7139 -0.6284
 2780SOL     OW 9238   0.754   4.963   6.572  0.2517 -0.1964  0.0389
 2780SOL    HW1 9239   0.773   4.900   6.497  0.2001 -0.5036  0.2791
 2780SOL    HW2 9240   0.785   4.922   6.658 -0.3631 -0.1710  0.2765
 2781SOL     OW 9241   0.796   2.333   2.358  0.3322  0.3285  0.1242
 2781SOL    HW1 9242   0.870   2.384   2.401 -0.3871  1.8003 -0.3169
 2781SOL    HW2 9243   0.737   2.396   2.308 -1.7068 -0.6747  1.1564
 2782SOL     OW 9244   5.854   4.507   2.877  0.1254  0.1209  0.1377
 2782SOL    HW1 9245   5.801   4.472   2.953  1.8365 -0.0963  1.2893
 2782SOL    HW2 9246   5.927   4.566   2.911  1.2606 -0.3996 -1.2679
 2783SOL     OW 9247   2.398   2.375   1.595  0.0801  0.1961  0.1673
 2783SOL    HW1 9248   2.450   2.358   1.511  1.2496  0.3533  0.8559
 2783SOL    HW2 9249   2.413   2.469   1.625 -2.1031  0.8717 -0.6392
 2784SOL     OW 9250   3.902   3.589   6.893 -0.0947 -0.3351  0.7723
 2784SOL    HW1 9251   3.825   3.555   6.839 -0.3488  0.7595  0.4069
 2784SOL    HW2 9252   3.908   3.688   6.883  1.4867 -0.4190  0.6557
 2785SOL     OW 9253   0.489   6.460   2.116  0.4166 -0.2327 -0.2162
 2785SOL    HW1 9254   0.494   6.436   2.213 -0.4008 -1.6813 -0.5019
 2785SOL    HW2 9255   0.395   6.449   2.084  0.6183  0.5461 -1.1026
 2786SOL     OW 9256   4.543   6.651   1.590  0.1702 -0.4533 -0.3016
 2786SOL    HW1 9257   4.556   6.591   1.510  0.1398 -0.0090 -0.6430
 2786SOL    HW2 9258   4.598   6.734   1.579 -2.4043  1.2298 -1.5186
 2787SOL     OW 9259   5.889   2.489   6.663  0.3369 -0.0814  0.4460
 2787SOL    HW1 9260   5.891   2.441   6.751 -0.2535  0.9662  1.0355
 2787SOL    HW2 9261   5.949   2.569   6.667  1.6017 -0.9098 -0.6565
 2788SOL     OW 9262   0.032   5.667   2.806 -0.2114 -0.0074 -0.2141
 2788SOL    HW1 9263  -0.035   5.664   2.881  0.6292 -0.5856  0.5471
 2788SOL    HW2 9264  -0.008   5.626   2.724 -0.8604 -0.1436  0.1618
 2789SOL     OW 9265   0.687   4.032   0.363 -0.8429  0.1042  0.3879
 2789SOL    HW1 9266   0.597   3.997   0.389 -0.5527 -1.0992 -0.1396
 2789SOL    HW2 9267   0.676   4.102   0.292 -1.3898  0.3875  0.7444
 2790SOL     OW 9268   3.155   4.064   2.567 -0.5731  0.5031  0.2202
 2790SOL    HW1 9269   3.233   4.081   2.627  0.0996 -0.7987 -0.2350
 2790SOL    HW2 9270   3.171   4.108   2.478  0.5260 -1.2192 -0.4907
 2791SOL     OW 9271   1.781   6.695   3.047  0.1411 -0.0625 -0.2677
 2791SOL    HW1 9272   1.865   6.727   3.004  0.1041  0.8339  0.3061
 2791SOL    HW2 9273   1.788   6.597   3.067  0.9957 -0.0142 -0.3184
 2792SOL     OW 9274   2.336   0.957   0.402 -0.6420 -0.4570 -0.0092
 2792SOL    HW1 9275   2.379   0.946   0.492 -0.5086  0.2851  0.0302
 2792SOL    HW2 9276   2.245   0.917   0.403 -0.6953 -0.3354  0.5031
 2793SOL     OW 9277   4.715   5.529   4.892 -0.9023 -0.0078  0.2935
 2793SOL    HW1 9278   4.684   5.575   4.975 -1.9847 -3.0664  1.7591
 2793SOL    HW2 9279   4.640   5.476   4.853 -0.1403  0.5697 -2.1405
 2794SOL     OW 9280   6.330   5.031   1.788 -0.4751 -0.1429  0.1185
 2794SOL    HW1 9281   6.263   5.096   1.753 -2.1431 -1.8377 -0.0098
 2794SOL    HW2 9282   6.412   5.033   1.731 -0.5837  1.5931 -0.0458
 2795SOL     OW 9283   6.473   0.022   6.152  0.7829 -0.0876  0.4991
 2795SOL    HW1 9284   6.557  -0.027   6.130 -0.2148 -0.8965 -1.7869
 2795SOL    HW2 9285   6.411  -0.040   6.200  0.1143 -0.6727 -1.0524
 2796SOL     OW 9286   2.876   1.166   2.904 -0.3197 -0.1854 -0.2493
 2796SOL    HW1 9287   2.803   1.231   2.885 -0.3751 -0.3161 -0.4814
 2796SOL    HW2 9288   2.840   1.089   2.957 -0.2772 -0.0863 -0.0726
 2797SOL     OW 9289   1.970   3.765   5.913 -0.1066  0.0120  0.1049
 2797SOL    HW1 9290   1.979   3.828   5.836 -0.0160 -0.4196 -0.2415
 2797SOL    HW2 9291   1.887   3.710   5.901 -0.3435  0.2695  0.5565
 2798SOL     OW 9292   6.832   2.631   3.280  0.8677 -0.7417  0.2673
 2798SOL    HW1 9293   6.870   2.722   3.265 -0.2967  0.0436  1.8191
 2798SOL    HW2 9294   6.762   2.635   3.351  0.6144 -2.8190  0.2035
 2799SOL     OW 9295   1.739   0.406   1.106 -0.2392  0.0164  0.1492
 2799SOL    HW1 9296   1.799   0.327   1.093  0.6427  0.8606 -1.0549
 2799SOL    HW2 9297   1.773   0.462   1.181  0.7384  0.7208 -0.8090
 2800SOL     OW 9298   5.014   4.874   3.678 -0.3366  0.6394  0.0739
 2800SOL    HW1 9299   5.026   4.789   3.729  1.0009 -0.5660 -2.1038
 2800SOL    HW2 9300   4.977   4.944   3.739 -1.5840 -1.4834  1.9244
 2801SOL     OW 9301   1.752   3.426   3.694  0.0882  0.4980 -0.5014
 2801SOL    HW1 9302   1.724   3.521   3.708 -1.3436 -0.0369  0.5279
 2801SOL    HW2 9303   1.671   3.370   3.678  0.8802 -0.6188 -0.7088
 2802SOL     OW 9304   2.512   2.687   1.399 -0.3387  0.1049 -0.5486
 2802SOL    HW1 9305   2.537   2.761   1.338 -0.8413  0.8297  0.1038
 2802SOL    HW2 9306   2.432   2.714   1.453 -1.2283 -1.3331 -1.0834
 2803SOL     OW 9307   6.814   5.960   0.515  0.3087 -0.1921 -0.2093
 2803SOL    HW1 9308   6.819   5.953   0.415  1.8210 -0.8321 -0.1191
 2803SOL    HW2 9309   6.884   5.901   0.556  1.6381  2.1550  1.1380
 2804SOL     OW 9310   3.654   1.356   5.454  0.1793 -0.0692  0.6147
 2804SOL    HW1 9311   3.578   1.293   5.470  1.3278 -1.5651  0.4016
 2804SOL    HW2 9312   3.682   1.397   5.541 -1.2482  1.0012  0.6092
 2805SOL     OW 9313   4.493   6.559   1.224  0.0731  0.2964  0.4244
 2805SOL    HW1 9314   4.475   6.465   1.256  0.7822 -0.7138 -1.9265
 2805SOL    HW2 9315   4.428   6.583   1.153  0.7818  1.0373  0.0076
 2806SOL     OW 9316   6.056   4.374   5.331  0.0572  0.0554 -0.2361
 2806SOL    HW1 9317   6.077   4.382   5.233 -0.5068  0.3885 -0.3349
 2806SOL    HW2 9318   5.962   4.405   5.347 -0.1027 -0.7019  0.3056
 2807SOL     OW 9319   1.785   2.666   6.722  0.0638  0.1701  0.0347
 2807SOL    HW1 9320   1.845   2.730   6.674 -1.3061  1.3187 -0.2144
 2807SOL    HW2 9321   1.804   2.672   6.820  0.6660  0.1818 -0.0748
 2808SOL     OW 9322   1.058   5.055   4.805  0.4412  0.0130 -0.4929
 2808SOL    HW1 9323   1.122   5.021   4.875 -0.1571  1.2521  0.7130
 2808SOL    HW2 9324   1.085   5.021   4.715  1.8776 -0.7536  0.1982
 2809SOL     OW 9325   5.351   2.755   2.750 -0.1783  0.3963 -0.0490
 2809SOL    HW1 9326   5.382   2.841   2.711  3.0874 -0.6459 -0.0150
 2809SOL    HW2 9327   5.352   2.760   2.850 -0.4809  0.4573 -0.0471
 2810SOL     OW 9328   2.715   3.641   0.016 -0.1410 -0.0553  0.1006
 2810SOL    HW1 9329   2.743   3.560  -0.035 -0.9524 -0.8238  0.8537
 2810SOL    HW2 9330   2.624   3.628   0.054 -0.3296  1.2521  0.1607
 2811SOL     OW 9331   1.258   4.754   1.201  0.6137 -0.2886 -0.3426
 2811SOL    HW1 9332   1.159   4.767   1.209  0.2451 -1.3571 -2.5216
 2811SOL    HW2 9333   1.279   4.710   1.114  2.9789 -0.6779  0.3574
 2812SOL     OW 9334   5.954   5.201   3.720  0.4255  0.5204  0.0317
 2812SOL    HW1 9335   5.916   5.210   3.627  0.9114  0.6025 -0.1602
 2812SOL    HW2 9336   6.050   5.225   3.719  1.0874 -1.8443  0.0696
 2813SOL     OW 9337   5.524   5.334   4.992  0.0782 -0.0413 -0.1618
 2813SOL    HW1 9338   5.566   5.423   5.007 -1.1323  0.8182 -1.6248
 2813SOL    HW2 9339   5.426   5.346   4.976 -0.0921 -1.6356 -0.4922
 2814SOL     OW 9340   5.775   2.432   6.431  0.1107 -0.3872 -0.2257
 2814SOL    HW1 9341   5.837   2.447   6.354 -0.6010  0.0731 -0.7225
 2814SOL    HW2 9342   5.820   2.461   6.515  0.9024 -0.9015 -0.4520
 2815SOL     OW 9343   2.608   4.258   6.596 -0.4060  0.2971  0.0622
 2815SOL    HW1 9344   2.646   4.240   6.687 -0.2781  2.6144  0.5487
 2815SOL    HW2 9345   2.534   4.194   6.577 -0.1842 -0.4779  1.6289
 2816SOL     OW 9346   1.410   1.794   6.245 -0.4914 -0.0958 -0.1965
 2816SOL    HW1 9347   1.362   1.851   6.311 -3.3585 -1.4228 -1.0022
 2816SOL    HW2 9348   1.430   1.847   6.163 -2.0364  0.0965 -0.4657
 2817SOL     OW 9349   2.842   5.073   3.033 -0.2640 -0.0972 -0.2214
 2817SOL    HW1 9350   2.899   4.995   3.060 -1.7768 -0.7770  1.1612
 2817SOL    HW2 9351   2.837   5.138   3.109 -0.6009  0.4012 -0.6687
 2818SOL     OW 9352   4.283   4.818   2.623  0.5878 -0.5521 -0.3049
 2818SOL    HW1 9353   4.193   4.804   2.580 -0.5686  1.1020  1.3987
 2818SOL    HW2 9354   4.320   4.730   2.653 -2.0257 -1.0475  1.8506
 2819SOL     OW 9355   4.361   3.355   5.306  0.3752 -0.0345  0.1399
 2819SOL    HW1 9356   4.453   3.317   5.299  0.8856  0.9330  1.1301
 2819SOL    HW2 9357   4.367   3.452   5.329 -0.8922  0.4365 -1.3609
 2820SOL     OW 9358   0.966   6.834   0.343 -0.0345  0.9192 -0.1970
 2820SOL    HW1 9359   0.976   6.830   0.244  0.1989 -1.0647 -0.1450
 2820SOL    HW2 9360   0.909   6.757   0.374  3.4366 -1.2407  1.5266
 2821SOL     OW 9361   3.781   4.672   5.792  0.2795  0.1686  0.0300
 2821SOL    HW1 9362   3.803   4.603   5.861  2.4140  0.7938  0.0331
 2821SOL    HW2 9363   3.742   4.752   5.838 -2.5641 -1.0713 -0.0104
 2822SOL     OW 9364   6.213   4.532   1.894 -0.4154 -0.0241 -0.3365
 2822SOL    HW1 9365   6.127   4.576   1.920 -0.2618 -0.6976  1.4409
 2822SOL    HW2 9366   6.238   4.464   1.963  1.4170 -0.0321 -0.9532
 2823SOL     OW 9367   6.737   5.809   4.423 -0.2775  0.3499  0.4356
 2823SOL    HW1 9368   6.763   5.850   4.510  0.1078 -1.0433  1.0036
 2823SOL    HW2 9369   6.795   5.730   4.405  0.5738  1.3915 -1.7631
 2824SOL     OW 9370   3.126   6.496   1.616 -0.0189 -0.6089 -0.1340
 2824SOL    HW1 9371   3.135   6.399   1.594  1.7284 -0.1171 -1.8975
 2824SOL    HW2 9372   3.032   6.514   1.645 -0.4104 -2.7924  0.1678
 2825SOL     OW 9373   0.154   6.391   6.860  0.0371  0.6218 -0.0338
 2825SOL    HW1 9374   0.203   6.476   6.879 -0.4034  0.1961  3.8670
 2825SOL    HW2 9375   0.084   6.408   6.790  0.9675  3.0568 -0.4837
 2826SOL     OW 9376   2.956   2.778   0.742  0.0297  0.2248  0.0896
 2826SOL    HW1 9377   3.028   2.834   0.782 -0.5753  0.3380  1.0565
 2826SOL    HW2 9378   2.997   2.702   0.691  0.8225  0.3448  0.5325
 2827SOL     OW 9379   5.536   3.844   6.645  0.1131 -0.4493  0.1522
 2827SOL    HW1 9380   5.543   3.942   6.660  0.3345 -0.6781  1.7626
 2827SOL    HW2 9381   5.625   3.807   6.620 -0.0328 -0.2177 -0.7581
 2828SOL     OW 9382   3.270   0.447   6.933 -0.6362 -0.1485  0.1794
 2828SOL    HW1 9383   3.208   0.461   7.010 -1.7064  0.4839 -0.7648
 2828SOL    HW2 9384   3.303   0.353   6.933 -2.5016 -0.8510  0.0920
 2829SOL     OW 9385   3.594   3.894   4.638 -0.2213  0.1013 -0.2098
 2829SOL    HW1 9386   3.677   3.946   4.657  0.6596 -0.9889 -0.9204
 2829SOL    HW2 9387   3.514   3.943   4.675  0.6729  1.3859  0.0877
 2830SOL     OW 9388   5.794   7.014   5.948 -0.5224  0.0587  0.2145
 2830SOL    HW1 9389   5.866   6.946   5.943  1.3350  1.9537 -0.2754
 2830SOL    HW2 9390   5.763   7.024   6.043  0.4406 -0.2226  0.5641
 2831SOL     OW 9391   3.006   5.582   7.019  0.3820 -0.1461 -0.3868
 2831SOL    HW1 9392   2.996   5.490   6.982 -0.7514 -0.8546  1.5716
 2831SOL    HW2 9393   2.960   5.588   7.107  0.3685  2.3285 -0.4934
 2832SOL     OW 9394   4.831   2.812   6.240 -0.6910  0.1480  0.2771
 2832SOL    HW1 9395   4.787   2.722   6.243 -0.5066  0.0777  2.0782
 2832SOL    HW2 9396   4.796   2.868   6.315  0.3269  1.0341  0.1076
 2833SOL     OW 9397   0.378   4.968   5.617  0.0238 -0.3658 -0.5790
 2833SOL    HW1 9398   0.357   5.025   5.537  1.4774 -0.3769 -0.9978
 2833SOL    HW2 9399   0.417   4.881   5.586  1.6403  0.0682  0.1364
 2834SOL     OW 9400   1.267   0.377   5.399  0.2303 -0.4220  0.1831
 2834SOL    HW1 9401   1.242   0.463   5.355 -0.7698 -1.2598 -0.9773
 2834SOL    HW2 9402   1.218   0.369   5.486  0.4139  0.2275  0.3516
 2835SOL     OW 9403   5.833   4.921   1.617 -0.2019  0.4642 -0.5926
 2835SOL    HW1 9404   5.827   5.019   1.601 -1.9501  0.6414  0.7639
 2835SOL    HW2 9405   5.928   4.896   1.638  0.2363  1.8689 -0.7988
 2836SOL     OW 9406   4.153   5.041   1.835 -0.0121  0.2783  0.0062
 2836SOL    HW1 9407   4.065   5.082   1.813  0.2687  0.2413 -1.2942
 2836SOL    HW2 9408   4.150   4.943   1.813  0.0082  0.0389  1.0236
 2837SOL     OW 9409   2.262   5.366   3.036  0.1202  0.6565  0.2516
 2837SOL    HW1 9410   2.192   5.321   2.981  0.6098  0.2533 -0.0565
 2837SOL    HW2 9411   2.223   5.446   3.082 -1.7035 -1.8715  3.5090
 2838SOL     OW 9412   5.632   6.744   5.863  0.4170 -0.0090 -0.0109
 2838SOL    HW1 9413   5.561   6.778   5.801  0.6336 -0.7992 -0.7070
 2838SOL    HW2 9414   5.616   6.781   5.955 -0.3153  0.6155 -0.3791
 2839SOL     OW 9415   1.209   3.737   6.143 -0.0216 -0.4479  0.8310
 2839SOL    HW1 9416   1.299   3.693   6.144  0.0463 -0.3332  0.0060
 2839SOL    HW2 9417   1.179   3.753   6.237  1.8705  1.6353  1.1580
 2840SOL     OW 9418   0.050   6.667   6.268 -0.2152 -0.7774  0.2546
 2840SOL    HW1 9419   0.053   6.618   6.355 -0.2845 -0.0431  0.6730
 2840SOL    HW2 9420   0.028   6.763   6.284  0.7195 -0.4223 -0.4867
 2841SOL     OW 9421   6.279   3.070   2.664 -0.3896 -0.0514  0.5341
 2841SOL    HW1 9422   6.236   3.158   2.645  1.9687  0.9407 -0.6153
 2841SOL    HW2 9423   6.232   2.998   2.613 -0.6726  0.9832 -0.7198
 2842SOL     OW 9424   4.272   2.008   4.369 -0.0993  0.2839  0.0500
 2842SOL    HW1 9425   4.217   1.966   4.442  1.8734 -2.2875  0.2001
 2842SOL    HW2 9426   4.352   2.053   4.409  1.4096 -1.8098 -0.4688
 2843SOL     OW 9427   0.555   2.985   2.220 -0.6635  0.1862  0.2219
 2843SOL    HW1 9428   0.578   3.057   2.285  1.7775 -1.0616  0.8871
 2843SOL    HW2 9429   0.456   2.982   2.207 -0.9096  3.2031  0.6102
 2844SOL     OW 9430   0.821   0.276   2.150 -0.1599  0.2419 -0.0152
 2844SOL    HW1 9431   0.819   0.363   2.101  1.5933  0.5404  0.3584
 2844SOL    HW2 9432   0.761   0.210   2.105 -2.2941  1.8979  0.2519
 2845SOL     OW 9433   1.204   4.570   4.620 -0.0010 -0.1356  0.1770
 2845SOL    HW1 9434   1.268   4.502   4.655  0.0426 -0.3175 -0.2497
 2845SOL    HW2 9435   1.148   4.529   4.547  0.6525  0.5396 -0.7255
 2846SOL     OW 9436   5.246   4.885   4.942 -0.1193 -0.2147  0.2673
 2846SOL    HW1 9437   5.186   4.830   5.001 -1.0814  1.1358  0.6021
 2846SOL    HW2 9438   5.212   4.881   4.848 -0.1548 -0.2263  0.2804
 2847SOL     OW 9439   6.368   4.398   5.271 -0.7871  0.2033  0.5986
 2847SOL    HW1 9440   6.391   4.305   5.245  1.2338  1.0971 -1.1140
 2847SOL    HW2 9441   6.415   4.423   5.355 -0.6153 -0.0332  0.5722
 2848SOL     OW 9442   5.733   1.527   2.248  0.0387  0.0198 -0.4616
 2848SOL    HW1 9443   5.714   1.455   2.315  1.8989 -0.6517 -0.5933
 2848SOL    HW2 9444   5.793   1.595   2.288 -0.4739  0.7014 -0.8309
 2849SOL     OW 9445   5.055   1.537   5.171 -0.0978  0.4559  0.3678
 2849SOL    HW1 9446   5.058   1.486   5.085 -0.6067  2.5919 -0.9957
 2849SOL    HW2 9447   5.144   1.534   5.216  0.1835 -0.6403 -0.2441
 2850SOL     OW 9448   0.646   2.107   6.423 -0.5020  0.1664  0.1910
 2850SOL    HW1 9449   0.665   2.170   6.498  2.5302 -2.8445  2.3200
 2850SOL    HW2 9450   0.582   2.037   6.454  2.0013 -2.0342  0.7722
 2851SOL     OW 9451   0.591   3.557   6.806 -0.3116 -0.2103  0.3033
 2851SOL    HW1 9452   0.618   3.469   6.845  0.4219  0.3677  1.1268
 2851SOL    HW2 9453   0.515   3.543   6.743  1.3004 -1.7999 -1.4481
 2852SOL     OW 9454   5.555   6.186   6.935 -0.1092 -0.8865  0.3446
 2852SOL    HW1 9455   5.622   6.147   6.999 -0.4874 -1.1610  0.5756
 2852SOL    HW2 9456   5.467   6.198   6.981 -0.1557 -0.2981  0.1112
 2853SOL     OW 9457   5.964   3.545   5.581 -0.1802  0.1230 -0.1233
 2853SOL    HW1 9458   5.935   3.628   5.629  0.2123 -0.3415  0.9331
 2853SOL    HW2 9459   5.982   3.567   5.485 -1.8692  0.8749 -0.3074
 2854SOL     OW 9460   1.335   1.862   4.035 -0.7709  0.2153  0.2893
 2854SOL    HW1 9461   1.317   1.767   4.010  1.2852 -0.2599  0.5073
 2854SOL    HW2 9462   1.255   1.918   4.013 -1.6058 -1.3673 -0.8323
 2855SOL     OW 9463   0.197   0.497   3.059 -0.4708 -0.1366 -0.1695
 2855SOL    HW1 9464   0.116   0.555   3.052  0.3769  0.9718 -1.1105
 2855SOL    HW2 9465   0.169   0.405   3.085 -2.2769 -0.2680 -2.2152
 2856SOL     OW 9466   0.459   6.440   6.115  0.3003  0.7198 -0.1253
 2856SOL    HW1 9467   0.398   6.516   6.097 -0.0518  0.0087 -2.2250
 2856SOL    HW2 9468   0.480   6.436   6.212 -2.5079  1.3481  0.5962
 2857SOL     OW 9469   2.345   1.408   6.964 -0.2472  0.1405  0.3893
 2857SOL    HW1 9470   2.302   1.388   6.876 -1.0232 -0.8338  0.9777
 2857SOL    HW2 9471   2.279   1.452   7.025 -0.4398 -1.3530  1.2942
 2858SOL     OW 9472   2.192   4.640   3.330 -0.1104 -0.3433 -0.3159
 2858SOL    HW1 9473   2.140   4.559   3.303 -1.3082 -0.3905  1.8792
 2858SOL    HW2 9474   2.196   4.646   3.430  1.3479  1.4524 -0.4103
 2859SOL     OW 9475   0.316   2.292   0.528 -0.3158  0.1036  0.0904
 2859SOL    HW1 9476   0.217   2.296   0.541 -0.5799  1.5968 -1.9030
 2859SOL    HW2 9477   0.337   2.240   0.446  0.3263  2.0537 -1.0517
 2860SOL     OW 9478   6.377   3.930   5.369  0.2944  0.2676  0.0152
 2860SOL    HW1 9479   6.421   3.926   5.459 -1.8160  1.7586  1.2263
 2860SOL    HW2 9480   6.314   3.853   5.360  0.3594  0.2272 -0.0833
 2861SOL     OW 9481   4.587   6.096   4.646 -0.1027 -0.5406  0.4489
 2861SOL    HW1 9482   4.629   6.028   4.585  0.3820 -0.8407  1.0991
 2861SOL    HW2 9483   4.588   6.185   4.601  0.6216 -0.6738  0.1718
 2862SOL     OW 9484   3.323   2.196   5.817  0.5863 -0.1949 -0.4073
 2862SOL    HW1 9485   3.342   2.198   5.719 -0.6144  1.0179 -0.6496
 2862SOL    HW2 9486   3.245   2.255   5.837 -0.5131 -2.0211  1.0261
 2863SOL     OW 9487   0.535   6.839   2.873  0.1290 -0.5752 -0.3561
 2863SOL    HW1 9488   0.536   6.924   2.927  1.3124 -1.0411  0.4012
 2863SOL    HW2 9489   0.617   6.835   2.816  1.8295 -2.6553  2.0342
 2864SOL     OW 9490   4.175   6.943   4.145 -0.7068 -0.4165 -0.0130
 2864SOL    HW1 9491   4.195   7.039   4.165  0.6248 -1.0720  2.1418
 2864SOL    HW2 9492   4.076   6.930   4.140 -0.9107  1.2958 -1.8758
 2865SOL     OW 9493   4.128   2.018   6.225  0.1999 -0.1824  0.3906
 2865SOL    HW1 9494   4.138   2.067   6.139  0.4956  0.0322  0.5465
 2865SOL    HW2 9495   4.125   2.083   6.301 -0.2583 -0.3609  0.5250
 2866SOL     OW 9496   5.198   5.179   0.075  0.2788  0.1735  0.0335
 2866SOL    HW1 9497   5.126   5.249   0.080  0.9874  0.8520  1.3008
 2866SOL    HW2 9498   5.160   5.091   0.101 -0.0550  0.5735  0.9346
 2867SOL     OW 9499   2.138   3.629   2.634 -0.4868  0.0033  0.2952
 2867SOL    HW1 9500   2.177   3.681   2.710 -1.6673  0.6696  0.4812
 2867SOL    HW2 9501   2.129   3.689   2.554  2.9606 -1.2804 -1.2131
 2868SOL     OW 9502   3.146   2.085   0.498 -0.0419  0.2792  0.4633
 2868SOL    HW1 9503   3.210   2.106   0.425  0.2590  1.9089  1.1552
 2868SOL    HW2 9504   3.160   2.148   0.575 -1.7793  0.0218  1.0481
 2869SOL     OW 9505   1.125   1.749   5.642  0.0341 -0.3702 -0.7677
 2869SOL    HW1 9506   1.061   1.685   5.684 -0.5057  1.0275  0.6505
 2869SOL    HW2 9507   1.079   1.837   5.628  1.4346  0.4493 -0.4054
 2870SOL     OW 9508   6.286   3.984   3.019 -0.2154 -0.8982  0.4304
 2870SOL    HW1 9509   6.199   4.015   2.980  0.4748  0.5997  0.0182
 2870SOL    HW2 9510   6.326   3.915   2.959  0.6045  1.0437 -1.3571
 2871SOL     OW 9511   0.003   3.072   0.014  0.1670 -0.0277 -0.9227
 2871SOL    HW1 9512  -0.047   2.986   0.023  1.6165 -1.1444 -2.8181
 2871SOL    HW2 9513  -0.034   3.124  -0.063  0.0918  0.4948 -0.5409
 2872SOL     OW 9514   4.081   0.778   5.790  0.2800  0.5237  0.0707
 2872SOL    HW1 9515   4.137   0.858   5.811  0.5757  0.5991 -0.9411
 2872SOL    HW2 9516   3.985   0.805   5.781 -0.0070  0.3477  2.0977
 2873SOL     OW 9517   3.568   2.081   2.601 -0.1240  0.2832 -0.8076
 2873SOL    HW1 9518   3.628   2.099   2.523 -1.1144 -0.2232 -1.6997
 2873SOL    HW2 9519   3.544   1.984   2.603 -0.8842  0.4692 -0.4477
 2874SOL     OW 9520   2.617   5.855   2.810 -0.4288  0.2274  0.0836
 2874SOL    HW1 9521   2.662   5.942   2.791 -3.1480  1.5759 -0.6478
 2874SOL    HW2 9522   2.574   5.820   2.726  0.3093 -1.6696  0.4413
 2875SOL     OW 9523   4.957   4.134   2.700  0.3297  0.2322 -0.0587
 2875SOL    HW1 9524   4.883   4.197   2.723  0.2903  0.1678 -0.0094
 2875SOL    HW2 9525   5.033   4.146   2.765  0.6049  0.7123 -0.4611
 2876SOL     OW 9526   3.700   0.017   3.380  0.2071  0.0781 -0.2620
 2876SOL    HW1 9527   3.791  -0.024   3.386  0.0166 -0.1610  1.6849
 2876SOL    HW2 9528   3.654  -0.016   3.298  1.4312 -0.7207 -0.6591
 2877SOL     OW 9529   1.134   6.966   3.984 -0.0359 -0.3692  0.2967
 2877SOL    HW1 9530   1.125   6.873   3.948 -1.8717 -0.6562  1.3702
 2877SOL    HW2 9531   1.119   6.965   4.083 -1.2770  1.2152  0.1594
 2878SOL     OW 9532   5.502   4.434   0.324  0.0669 -0.0072 -0.2189
 2878SOL    HW1 9533   5.454   4.498   0.385 -2.3079 -0.0927 -1.8545
 2878SOL    HW2 9534   5.506   4.474   0.232  1.4962 -0.8558 -0.5438
 2879SOL     OW 9535   3.460   2.099   1.369 -0.1569  0.7438  0.2385
 2879SOL    HW1 9536   3.447   2.058   1.458 -2.9436  1.0702  0.0682
 2879SOL    HW2 9537   3.435   2.196   1.373  1.6031  1.2681 -0.4774
 2880SOL     OW 9538   5.320   6.955   5.923 -0.3704 -0.4566  0.5366
 2880SOL    HW1 9539   5.293   6.962   5.827 -0.3581  0.9502  0.6186
 2880SOL    HW2 9540   5.297   6.864   5.957 -0.5101 -0.9327 -0.7485
 2881SOL     OW 9541   6.440   4.640   6.133 -0.0203 -0.2565  0.1209
 2881SOL    HW1 9542   6.495   4.683   6.205  0.3143 -0.9822  0.3096
 2881SOL    HW2 9543   6.486   4.650   6.045  0.0197 -0.1698  0.1513
 2882SOL     OW 9544   1.104   3.018   5.233 -0.1123  0.8229  0.6275
 2882SOL    HW1 9545   1.161   3.064   5.165 -0.1629  1.1613  0.8102
 2882SOL    HW2 9546   1.144   3.032   5.324  0.7403 -0.8056  0.5449
 2883SOL     OW 9547   0.292   1.433   1.632 -0.6358 -0.8274  0.3675
 2883SOL    HW1 9548   0.392   1.439   1.632 -0.6008  0.4392  3.3916
 2883SOL    HW2 9549   0.265   1.341   1.659 -0.2789 -0.9126  0.4466
 2884SOL     OW 9550   6.809   3.990   4.705  0.3371  0.2119 -0.0267
 2884SOL    HW1 9551   6.750   4.066   4.679 -0.6333 -0.5266 -0.0219
 2884SOL    HW2 9552   6.809   3.980   4.805 -1.9443 -1.6283 -0.1371
 2885SOL     OW 9553   4.757   4.985   0.521  0.2072 -0.4425 -0.3569
 2885SOL    HW1 9554   4.719   5.068   0.562 -1.1635 -1.4488  0.4833
 2885SOL    HW2 9555   4.839   5.009   0.469  0.5028  1.2561  0.7998
 2886SOL     OW 9556   3.341   0.917   0.523 -0.1851 -0.0982  0.3536
 2886SOL    HW1 9557   3.438   0.932   0.508  0.4945 -3.6896  0.2276
 2886SOL    HW2 9558   3.313   0.961   0.608  1.2946  1.6540  0.0058
 2887SOL     OW 9559   5.532   1.192   4.733  0.5996 -0.1031 -0.1716
 2887SOL    HW1 9560   5.605   1.230   4.677 -0.4591 -0.8772 -2.1697
 2887SOL    HW2 9561   5.547   1.095   4.749 -0.2433 -0.4079 -1.1012
 2888SOL     OW 9562   4.079   3.295   4.877 -0.2293  0.6267  0.6305
 2888SOL    HW1 9563   4.082   3.270   4.780 -0.2079 -0.7428  0.9752
 2888SOL    HW2 9564   4.008   3.242   4.923  1.2179 -0.3469  1.8082
 2889SOL     OW 9565   5.508   4.554   1.480 -0.7801 -0.0678  0.0320
 2889SOL    HW1 9566   5.449   4.577   1.558 -0.2377 -0.2048  0.4941
 2889SOL    HW2 9567   5.551   4.465   1.497 -0.5765 -0.0474 -0.3819
 2890SOL     OW 9568   1.446   4.935   1.343  0.0115 -0.4779 -0.3831
 2890SOL    HW1 9569   1.385   4.863   1.310 -0.8253 -0.3453  0.8059
 2890SOL    HW2 9570   1.519   4.895   1.397 -0.4017 -0.4629  0.2006
 2891SOL     OW 9571   2.806   0.855   6.134  0.0366  0.0208  0.3541
 2891SOL    HW1 9572   2.746   0.922   6.177 -0.8476 -0.7648  0.3834
 2891SOL    HW2 9573   2.792   0.766   6.178  0.7213 -0.3226 -0.1123
 2892SOL     OW 9574   3.843   0.914   1.143  0.1494  0.0779 -0.5346
 2892SOL    HW1 9575   3.887   1.003   1.130 -0.8420  0.2353 -3.4386
 2892SOL    HW2 9576   3.748   0.920   1.112 -0.4324 -1.6019  0.7858
 2893SOL     OW 9577   2.328   4.652   4.215 -0.1189  0.1254  0.0215
 2893SOL    HW1 9578   2.399   4.594   4.255  0.3779  1.2622  0.8593
 2893SOL    HW2 9579   2.283   4.704   4.287  1.1160  2.5827 -0.8531
 2894SOL     OW 9580   4.394   2.883   0.366 -0.6176 -0.1519 -0.2146
 2894SOL    HW1 9581   4.403   2.873   0.465 -2.6345 -0.9424 -0.0465
 2894SOL    HW2 9582   4.380   2.793   0.325  0.3337  0.1576 -1.2566
 2895SOL     OW 9583   0.136   6.015   2.649 -0.1066 -0.3777 -0.1548
 2895SOL    HW1 9584   0.168   6.108   2.631 -0.3001 -0.4384 -0.8272
 2895SOL    HW2 9585   0.206   5.949   2.623 -0.4998 -0.4790 -0.9819
 2896SOL     OW 9586   5.398   3.725   5.939  0.5263  0.2310 -0.7517
 2896SOL    HW1 9587   5.312   3.708   5.987  0.8401  0.5039 -0.0866
 2896SOL    HW2 9588   5.398   3.674   5.853 -1.2692  1.9618 -1.8781
 2897SOL     OW 9589   4.647   4.308   4.647 -0.4156  0.0568 -0.3891
 2897SOL    HW1 9590   4.644   4.330   4.744  0.6096 -0.5880 -0.1866
 2897SOL    HW2 9591   4.634   4.210   4.634 -1.7985  0.2957 -1.0205
 2898SOL     OW 9592   2.455   3.774   6.854  0.0531 -0.0700 -0.1963
 2898SOL    HW1 9593   2.428   3.856   6.904 -0.0914  1.0841 -2.0804
 2898SOL    HW2 9594   2.523   3.723   6.907  1.2837  2.0544  0.3444
 2899SOL     OW 9595   0.277   3.614   2.833 -0.0686  0.0885  0.5944
 2899SOL    HW1 9596   0.365   3.590   2.792 -0.6657  0.0799 -0.7520
 2899SOL    HW2 9597   0.230   3.532   2.863  0.6514  0.1438  1.9362
 2900SOL     OW 9598   1.874   6.318   6.090 -0.5481 -0.2490  0.1791
 2900SOL    HW1 9599   1.790   6.299   6.141 -0.9107 -1.5546 -0.8406
 2900SOL    HW2 9600   1.851   6.360   6.002 -0.0187  0.8259  0.5421
 2901SOL     OW 9601   1.160   6.481   4.013 -0.2053 -0.7672  0.5555
 2901SOL    HW1 9602   1.249   6.440   3.993  1.0583  2.3544 -1.0519
 2901SOL    HW2 9603   1.169   6.543   4.091 -0.3913  0.9510 -0.7166
 2902SOL     OW 9604   0.676   4.144   4.728 -0.4232  0.2195  0.0563
 2902SOL    HW1 9605   0.595   4.142   4.787 -0.4754  0.7056  0.0093
 2902SOL    HW2 9606   0.743   4.077   4.761 -0.1849  0.9183  1.0715
 2903SOL     OW 9607   1.460   4.467   5.205  0.1443  0.7958 -0.2700
 2903SOL    HW1 9608   1.468   4.524   5.123 -0.1475  1.0559 -0.1185
 2903SOL    HW2 9609   1.389   4.398   5.192  1.1301 -0.1515 -0.8108
 2904SOL     OW 9610   2.915   0.002   3.108 -0.4019 -0.7542  0.6383
 2904SOL    HW1 9611   2.882   0.063   3.180 -0.8097 -1.2632  0.8930
 2904SOL    HW2 9612   2.996  -0.046   3.140  0.8324  0.7440 -0.1088
 2905SOL     OW 9613   3.471   5.488   0.172  0.1946 -0.4598 -0.0281
 2905SOL    HW1 9614   3.404   5.519   0.105 -0.5169 -1.2856  0.2906
 2905SOL    HW2 9615   3.502   5.566   0.227  0.3244  0.1106 -0.8915
 2906SOL     OW 9616   5.006   6.018   6.450  0.2300 -0.0070 -0.1293
 2906SOL    HW1 9617   5.094   5.977   6.474  0.2099  0.2900  0.4634
 2906SOL    HW2 9618   4.967   5.969   6.373  0.8744 -0.1987 -0.3415
 2907SOL     OW 9619   4.557   4.296   5.171 -0.1236 -0.5775 -0.2550
 2907SOL    HW1 9620   4.578   4.280   5.268  0.2116 -0.8428 -0.3689
 2907SOL    HW2 9621   4.460   4.314   5.161  0.1051  1.1084  0.3427
 2908SOL     OW 9622   2.471   2.448   0.125 -0.2357  0.4159  0.7019
 2908SOL    HW1 9623   2.375   2.422   0.138 -0.2889  0.4407  0.3805
 2908SOL    HW2 9624   2.476   2.539   0.085 -0.0781  0.4173  0.7241
 2909SOL     OW 9625   5.911   1.920   6.762  0.5369  0.1299  0.1537
 2909SOL    HW1 9626   5.950   2.012   6.763 -1.0128  1.0679 -4.5368
 2909SOL    HW2 9627   5.972   1.858   6.713 -0.2166 -0.4007 -0.1207
 2910SOL     OW 9628   5.708   6.375   4.391  0.3456 -0.4661 -0.4418
 2910SOL    HW1 9629   5.651   6.326   4.325  0.8574  0.0689 -1.3069
 2910SOL    HW2 9630   5.699   6.473   4.375  1.3424 -0.3727 -0.4516
 2911SOL     OW 9631   0.132   2.713   3.251  0.2661 -0.4459 -0.0648
 2911SOL    HW1 9632   0.167   2.661   3.173 -0.8881 -0.4465 -0.6038
 2911SOL    HW2 9633   0.076   2.789   3.218 -0.5522 -0.6717  0.7526
 2912SOL     OW 9634   4.867   6.347   3.949 -0.1756  0.0507 -0.1212
 2912SOL    HW1 9635   4.937   6.317   3.884  1.0576  1.9256  0.2519
 2912SOL    HW2 9636   4.854   6.446   3.941 -1.1191  0.0937  1.4185
 2913SOL     OW 9637   1.868   1.055   0.640 -0.1415  0.0282 -0.2362
 2913SOL    HW1 9638   1.780   1.064   0.686  0.0312 -1.7237  0.5491
 2913SOL    HW2 9639   1.936   1.020   0.705  1.2633  1.7004 -0.7260
 2914SOL     OW 9640   0.672   4.101   2.882 -0.8358  0.3122  0.2883
 2914SOL    HW1 9641   0.717   4.185   2.852  1.3467  0.1274  2.7023
 2914SOL    HW2 9642   0.600   4.123   2.947 -1.7500  0.3885 -0.7215
 2915SOL     OW 9643   3.767   0.047   1.135 -0.7066 -0.5157  0.0483
 2915SOL    HW1 9644   3.732   0.050   1.042  1.3394  0.3010 -0.7464
 2915SOL    HW2 9645   3.721  -0.027   1.185 -1.4858 -1.3133 -1.7487
 2916SOL     OW 9646   4.460   5.287   2.145  0.5735  0.0532 -0.3121
 2916SOL    HW1 9647   4.406   5.203   2.154 -1.5256  1.4325  1.2092
 2916SOL    HW2 9648   4.503   5.308   2.233 -0.4505  1.4779 -0.1169
 2917SOL     OW 9649   6.379   4.649   6.575 -0.3576  0.1414  0.3203
 2917SOL    HW1 9650   6.408   4.682   6.665  0.4620  1.9506 -0.5455
 2917SOL    HW2 9651   6.340   4.558   6.584  1.2608 -0.4310  2.2504
 2918SOL     OW 9652   6.358   3.580   5.473  0.1944 -0.0672 -0.3023
 2918SOL    HW1 9653   6.451   3.570   5.439  1.3250 -0.6744  2.6131
 2918SOL    HW2 9654   6.312   3.491   5.472 -0.2685  0.1748 -1.4567
 2919SOL     OW 9655   1.958   5.863   4.526 -0.8957 -0.1798  0.2729
 2919SOL    HW1 9656   2.013   5.835   4.605 -0.4867  0.7907  0.3439
 2919SOL    HW2 9657   1.995   5.821   4.443 -1.2848 -1.1496  0.5689
 2920SOL     OW 9658   1.192   1.815   0.121  0.4967 -0.9281  0.5459
 2920SOL    HW1 9659   1.189   1.826   0.021 -0.4895 -0.6075  0.6081
 2920SOL    HW2 9660   1.285   1.833   0.153  1.0024 -1.7365 -0.3914
 2921SOL     OW 9661   1.367   4.393   4.749 -0.3886 -0.1735  0.0412
 2921SOL    HW1 9662   1.375   4.295   4.765  0.7754 -0.2778 -1.0708
 2921SOL    HW2 9663   1.385   4.443   4.834  0.9118 -0.8590  0.1798
 2922SOL     OW 9664   4.004   3.890   2.220 -0.0244  0.0716  0.0212
 2922SOL    HW1 9665   4.073   3.828   2.183  0.2182 -0.1525  0.8321
 2922SOL    HW2 9666   3.990   3.966   2.156  0.6295 -0.1311 -0.3729
 2923SOL     OW 9667   4.513   0.804   1.102  0.4931  0.2634  0.4313
 2923SOL    HW1 9668   4.476   0.748   1.176 -1.7947  2.4884  1.1126
 2923SOL    HW2 9669   4.540   0.893   1.139  0.2009  1.0699 -1.2383
 2924SOL     OW 9670   5.903   6.246   1.505 -0.0777  0.3679 -0.1630
 2924SOL    HW1 9671   6.003   6.252   1.501 -0.1931  2.8463 -1.0490
 2924SOL    HW2 9672   5.875   6.216   1.597  1.4481 -0.7572 -0.0246
 2925SOL     OW 9673   3.624   0.284   5.092 -0.0851  0.3834  0.9092
 2925SOL    HW1 9674   3.581   0.220   5.156  0.4851 -0.9237  0.0327
 2925SOL    HW2 9675   3.724   0.278   5.102  0.0240 -0.1596 -0.3823
 2926SOL     OW 9676   0.778   4.046   1.199  0.2282 -0.1450 -0.7578
 2926SOL    HW1 9677   0.715   3.973   1.223 -0.6756  0.5165 -1.0301
 2926SOL    HW2 9678   0.775   4.118   1.269  0.6028 -0.0556 -0.8272
 2927SOL     OW 9679   0.047   5.640   3.755 -0.0717  0.3719  0.1322
 2927SOL    HW1 9680   0.017   5.565   3.696  0.8844  0.3317 -0.3135
 2927SOL    HW2 9681   0.048   5.725   3.704  1.5837  0.1953 -0.1882
 2928SOL     OW 9682   5.656   0.702   6.582 -0.2495 -0.8662  0.5211
 2928SOL    HW1 9683   5.709   0.650   6.515  0.4020 -0.6241  0.8360
 2928SOL    HW2 9684   5.612   0.780   6.537  1.1906  0.0136  0.5827
 2929SOL     OW 9685   3.757   3.620   4.367  0.1565  0.2073  0.2395
 2929SOL    HW1 9686   3.854   3.616   4.346  0.0226 -0.5864 -0.2789
 2929SOL    HW2 9687   3.723   3.713   4.355 -0.0851 -0.2409 -3.9442
 2930SOL     OW 9688   5.639   0.118   6.406 -0.7211  0.2611 -0.5325
 2930SOL    HW1 9689   5.560   0.156   6.455 -1.2450 -0.5156 -0.7548
 2930SOL    HW2 9690   5.673   0.038   6.455 -0.6392  0.0592 -0.9142
 2931SOL     OW 9691   4.258   6.237   2.743 -0.7774  0.3457  0.0252
 2931SOL    HW1 9692   4.208   6.284   2.671 -0.3971 -1.7906 -1.7336
 2931SOL    HW2 9693   4.343   6.287   2.763 -1.0638  1.1537 -0.7162
 2932SOL     OW 9694   1.054   5.935   3.032  0.0968 -0.1166 -0.1601
 2932SOL    HW1 9695   0.983   5.903   3.094 -0.8063  2.3305  0.1779
 2932SOL    HW2 9696   1.143   5.926   3.077 -0.0687 -2.1525 -0.1515
 2933SOL     OW 9697   5.668   5.753   6.843  0.7047 -0.4615  0.1271
 2933SOL    HW1 9698   5.722   5.788   6.766  1.3650  0.8129  1.1344
 2933SOL    HW2 9699   5.617   5.672   6.813  0.6826  0.1843 -1.7340
 2934SOL     OW 9700   3.959   6.350   3.601  0.6050  0.3246  0.2680
 2934SOL    HW1 9701   3.903   6.427   3.572  0.2424  0.0857  0.3275
 2934SOL    HW2 9702   4.036   6.339   3.538 -0.4878 -0.5524 -0.9937
 2935SOL     OW 9703   4.347   0.197   5.530 -0.5492 -0.2890  0.3189
 2935SOL    HW1 9704   4.368   0.273   5.470  0.7709 -1.8666 -1.3389
 2935SOL    HW2 9705   4.282   0.135   5.485  1.2311 -2.0260 -0.0011
 2936SOL     OW 9706   2.794   6.111   4.271 -0.3457 -0.1820 -0.1667
 2936SOL    HW1 9707   2.759   6.023   4.240 -0.7307 -0.3878  0.8332
 2936SOL    HW2 9708   2.889   6.122   4.240 -1.0632  0.1590 -2.4600
 2937SOL     OW 9709   3.774   0.894   6.029  0.4996 -0.3573  0.4531
 2937SOL    HW1 9710   3.780   0.918   5.932 -1.2570 -1.9282 -0.1099
 2937SOL    HW2 9711   3.827   0.811   6.046 -0.6708 -1.1295  0.4168
 2938SOL     OW 9712   4.801   2.866   2.746 -0.9477  0.1251  0.3941
 2938SOL    HW1 9713   4.762   2.784   2.789 -1.6786 -0.6543 -1.6295
 2938SOL    HW2 9714   4.854   2.839   2.665 -1.0660  1.6454 -0.2238
 2939SOL     OW 9715   2.320   2.639   6.510 -0.0369 -0.2342  0.7251
 2939SOL    HW1 9716   2.252   2.623   6.438 -0.8790  1.4949  1.0870
 2939SOL    HW2 9717   2.412   2.629   6.471 -0.4627 -2.3995  0.1778
 2940SOL     OW 9718   3.616   6.643   4.972  0.2547  0.0119  0.7967
 2940SOL    HW1 9719   3.617   6.725   4.915 -0.4038 -0.5897 -0.1071
 2940SOL    HW2 9720   3.682   6.577   4.938 -0.5776 -0.6007  0.3349
 2941SOL     OW 9721   5.379   5.734   1.949  0.4721  0.2536  0.0696
 2941SOL    HW1 9722   5.445   5.671   1.990  2.0845  0.2878 -2.2710
 2941SOL    HW2 9723   5.424   5.788   1.878 -1.4982  2.2008  0.1845
 2942SOL     OW 9724   4.501   5.893   2.668 -0.3443 -0.4415  0.6991
 2942SOL    HW1 9725   4.415   5.909   2.717 -0.7264  0.1715 -0.1588
 2942SOL    HW2 9726   4.577   5.893   2.734 -0.7389  1.2745  1.2135
 2943SOL     OW 9727   3.417   5.456   5.897  0.2807 -0.0984 -0.0671
 2943SOL    HW1 9728   3.348   5.520   5.864 -0.0921 -0.0963  0.6768
 2943SOL    HW2 9729   3.505   5.477   5.855 -0.2489 -0.3570 -1.3300
 2944SOL     OW 9730   6.895   1.373   3.095 -0.5103 -0.4203  0.0861
 2944SOL    HW1 9731   6.873   1.459   3.050  0.9279 -0.8140 -1.4532
 2944SOL    HW2 9732   6.889   1.298   3.030 -0.0708 -1.2587  0.9759
 2945SOL     OW 9733   0.581   0.235   4.273 -0.1182  0.4609  0.3408
 2945SOL    HW1 9734   0.599   0.177   4.352  0.1277  1.0980  0.7635
 2945SOL    HW2 9735   0.663   0.289   4.252  0.0039 -0.1219 -0.7038
 2946SOL     OW 9736   3.166   4.721   5.236  0.2756 -0.1716  0.3502
 2946SOL    HW1 9737   3.202   4.801   5.189  0.5568 -0.3652  0.2341
 2946SOL    HW2 9738   3.083   4.689   5.190  0.1398  0.0706  0.4194
 2947SOL     OW 9739   3.221   5.087   3.186 -0.1734 -0.1575 -0.1323
 2947SOL    HW1 9740   3.278   5.169   3.188 -0.2973 -0.0829  0.7847
 2947SOL    HW2 9741   3.144   5.098   3.249 -1.5326 -0.0460 -1.7530
 2948SOL     OW 9742   6.416   3.313   4.135  0.4079  0.1474 -0.3332
 2948SOL    HW1 9743   6.508   3.346   4.156 -0.2643  0.9092  1.6517
 2948SOL    HW2 9744   6.404   3.220   4.169  0.0537  0.5287  0.6179
 2949SOL     OW 9745   5.998   0.775   3.346 -0.3099  0.2601 -0.1156
 2949SOL    HW1 9746   6.050   0.733   3.422  1.3605  1.5460 -0.4857
 2949SOL    HW2 9747   6.040   0.862   3.322 -3.2849  1.8799  0.1825
 2950SOL     OW 9748   1.700   4.423   0.030  0.4069  0.2253  0.0167
 2950SOL    HW1 9749   1.627   4.356   0.042 -1.0491  1.4569 -1.4595
 2950SOL    HW2 9750   1.748   4.436   0.116 -0.5352 -1.2501  0.8150
 2951SOL     OW 9751   0.967   5.981   4.220 -0.5170 -0.2448  0.2918
 2951SOL    HW1 9752   0.959   6.069   4.266 -2.0006 -0.0414 -0.3044
 2951SOL    HW2 9753   0.897   5.919   4.255 -1.0047 -0.4157 -0.9242
 2952SOL     OW 9754   3.812   2.689   0.123  0.3170  0.1023  0.7382
 2952SOL    HW1 9755   3.895   2.744   0.132  0.3635  0.4038 -1.2019
 2952SOL    HW2 9756   3.743   2.740   0.071 -0.4668 -0.8139  0.8413
 2953SOL     OW 9757   1.085   5.668   5.920  0.0110 -0.2459 -0.2499
 2953SOL    HW1 9758   1.006   5.648   5.978 -0.9466  1.7156 -0.7895
 2953SOL    HW2 9759   1.096   5.595   5.852 -1.8579 -0.1735 -0.6860
 2954SOL     OW 9760   4.377   2.063   5.362  0.3345  0.2627  0.1367
 2954SOL    HW1 9761   4.475   2.061   5.381  0.4436  1.7881 -0.1138
 2954SOL    HW2 9762   4.349   2.157   5.344 -1.5763  0.2105  2.3118
 2955SOL     OW 9763   2.101   5.622   5.984 -0.3907 -0.1429 -0.4406
 2955SOL    HW1 9764   2.037   5.678   5.933 -1.4941 -2.1769 -1.3973
 2955SOL    HW2 9765   2.184   5.607   5.930  0.1764  0.9761  0.0634
 2956SOL     OW 9766   6.977   3.650   3.312  0.1023  0.1167  0.5567
 2956SOL    HW1 9767   7.014   3.721   3.371  1.8103  0.7511 -1.1799
 2956SOL    HW2 9768   6.878   3.644   3.325  0.0262  2.2529  1.3214
 2957SOL     OW 9769   6.694   3.285   3.522 -0.3916 -0.2947 -0.4045
 2957SOL    HW1 9770   6.641   3.329   3.594  1.6743  0.2125  0.8904
 2957SOL    HW2 9771   6.662   3.316   3.432 -0.0113  2.7549  0.4132
 2958SOL     OW 9772   5.540   2.609   1.702  0.3501 -0.3131  0.1810
 2958SOL    HW1 9773   5.553   2.583   1.797  0.2961  0.8074  0.5126
 2958SOL    HW2 9774   5.494   2.698   1.697 -3.8271 -2.2828 -0.9123
 2959SOL     OW 9775   2.607   0.537   0.910 -0.8672  0.2930 -0.8442
 2959SOL    HW1 9776   2.578   0.447   0.941 -0.4578  0.7621  1.0453
 2959SOL    HW2 9777   2.675   0.527   0.837 -0.1663 -0.9531 -0.0473
 2960SOL     OW 9778   0.001   0.688   5.980  1.3476  0.1397 -0.2157
 2960SOL    HW1 9779   0.041   0.667   6.069  2.4876 -1.9783 -1.1737
 2960SOL    HW2 9780  -0.033   0.604   5.938  1.4772  0.9957 -2.1018
 2961SOL     OW 9781   5.360   0.119   1.559 -0.3168  0.7780 -0.1572
 2961SOL    HW1 9782   5.318   0.057   1.626  0.3190 -2.2747 -2.3564
 2961SOL    HW2 9783   5.395   0.201   1.606  0.8946 -1.5311  3.3864
 2962SOL     OW 9784   5.560   1.691   5.630 -0.2212  0.0722 -0.3405
 2962SOL    HW1 9785   5.563   1.789   5.611  1.2136  0.1656  0.3038
 2962SOL    HW2 9786   5.577   1.675   5.727 -1.3136 -0.7787 -0.2696
 2963SOL     OW 9787   1.886   1.477   5.065 -0.5075  0.1166  0.0166
 2963SOL    HW1 9788   1.947   1.416   5.116  0.2941  0.1326 -0.8920
 2963SOL    HW2 9789   1.889   1.454   4.968 -1.9432  0.1413 -0.0627
 2964SOL     OW 9790   3.720   1.970   4.281  0.2526  0.3421  0.2001
 2964SOL    HW1 9791   3.763   2.016   4.358 -0.1712 -0.9906  1.2669
 2964SOL    HW2 9792   3.621   1.973   4.291  0.1585  0.8125 -0.7090
 2965SOL     OW 9793   5.436   1.204   0.214  0.5845 -0.0468  0.0515
 2965SOL    HW1 9794   5.425   1.122   0.159 -1.1419 -2.1734  3.2601
 2965SOL    HW2 9795   5.348   1.229   0.255  1.7476  1.4204  1.7949
 2966SOL     OW 9796   1.973   0.136   4.645  0.1029 -0.4323 -0.1652
 2966SOL    HW1 9797   2.042   0.194   4.690 -0.8481 -0.3468  1.2419
 2966SOL    HW2 9798   1.968   0.048   4.693 -0.2381 -0.7342 -0.7432
 2967SOL     OW 9799   2.920   3.082   5.206 -0.1195 -0.1720  0.3585
 2967SOL    HW1 9800   2.972   3.157   5.249  1.3118 -1.2449  0.5903
 2967SOL    HW2 9801   2.852   3.048   5.271 -2.5429  2.4687 -0.5837
 2968SOL     OW 9802   3.381   4.903   1.837 -0.5557 -0.0170 -0.0702
 2968SOL    HW1 9803   3.357   4.829   1.775 -1.2634  0.6817 -0.6466
 2968SOL    HW2 9804   3.465   4.880   1.886 -1.0144 -1.3967  0.1107
 2969SOL     OW 9805   5.423   3.762   4.727  0.5706 -0.3104  0.0319
 2969SOL    HW1 9806   5.460   3.680   4.684  2.6370 -0.2549  1.5588
 2969SOL    HW2 9807   5.329   3.776   4.696  0.9620 -1.8765 -2.1087
 2970SOL     OW 9808   4.627   2.606   0.670  0.2266 -0.7869 -0.5548
 2970SOL    HW1 9809   4.712   2.658   0.676  0.4103 -1.1002 -0.4141
 2970SOL    HW2 9810   4.609   2.583   0.574  0.5059 -1.0494 -0.5471
 2971SOL     OW 9811   2.302   4.881   4.863  0.2433 -0.6769 -0.4489
 2971SOL    HW1 9812   2.289   4.851   4.957 -0.8180 -0.2726 -0.4461
 2971SOL    HW2 9813   2.380   4.943   4.857 -0.4655  0.3293  0.4186
 2972SOL     OW 9814   0.493   4.575   6.565 -0.1145 -0.3201  0.0018
 2972SOL    HW1 9815   0.563   4.602   6.631 -0.3473  1.7567 -0.5529
 2972SOL    HW2 9816   0.403   4.603   6.598 -0.3827 -0.5121 -0.5546
 2973SOL     OW 9817   0.704   1.584   4.689  0.5040 -0.1530 -0.0256
 2973SOL    HW1 9818   0.609   1.616   4.686  0.1050 -1.1943  0.7213
 2973SOL    HW2 9819   0.706   1.484   4.691  1.7153 -0.2336 -2.2920
 2974SOL     OW 9820   4.148   1.621   6.183 -0.1746  0.3272 -0.0300
 2974SOL    HW1 9821   4.105   1.546   6.133 -0.9408  1.0180 -0.4270
 2974SOL    HW2 9822   4.081   1.695   6.196  1.0115  1.6554 -1.1308
 2975SOL     OW 9823   0.850   5.083   3.326 -0.1174  0.3682  0.2281
 2975SOL    HW1 9824   0.899   5.167   3.303 -0.4686  1.6164  3.4817
 2975SOL    HW2 9825   0.915   5.013   3.355 -0.0151  0.6565  0.6978
 2976SOL     OW 9826   1.823   1.612   5.745 -0.1961 -0.5547 -0.3197
 2976SOL    HW1 9827   1.726   1.635   5.736 -0.0173  1.0140  1.3037
 2976SOL    HW2 9828   1.835   1.548   5.820  0.2304  1.3767  1.3641
 2977SOL     OW 9829   4.600   4.780   0.448 -0.4728  0.1084  0.4021
 2977SOL    HW1 9830   4.655   4.697   0.453 -1.1579 -0.5093 -1.4073
 2977SOL    HW2 9831   4.659   4.860   0.460  0.3625 -0.6053  1.1720
 2978SOL     OW 9832   4.221   0.317   4.592 -0.7626  0.0804 -0.6587
 2978SOL    HW1 9833   4.187   0.243   4.534  1.3298 -1.1539 -0.4078
 2978SOL    HW2 9834   4.289   0.370   4.541 -1.2558  0.9951 -0.3804
 2979SOL     OW 9835   6.186   3.386   5.122 -0.4018  0.3385 -0.2667
 2979SOL    HW1 9836   6.087   3.398   5.111 -0.3752  0.3377 -0.5011
 2979SOL    HW2 9837   6.212   3.295   5.091 -0.5740 -0.2946  1.3228
 2980SOL     OW 9838   0.060   1.138   2.613  0.6069  0.1625  0.0100
 2980SOL    HW1 9839   0.149   1.147   2.569 -0.2505  0.4736 -1.7823
 2980SOL    HW2 9840   0.022   1.229   2.630  0.2175  0.0367 -0.1681
 2981SOL     OW 9841   6.609   3.627   1.107  0.5044  0.3966 -0.0524
 2981SOL    HW1 9842   6.630   3.718   1.069 -1.4858 -0.0626 -2.5530
 2981SOL    HW2 9843   6.551   3.637   1.188  0.8741  1.3522  0.1091
 2982SOL     OW 9844   2.234   1.154   0.710 -0.5494  0.2121  0.3276
 2982SOL    HW1 9845   2.334   1.161   0.706 -0.3527 -0.8286  2.2566
 2982SOL    HW2 9846   2.197   1.230   0.762 -0.5232 -0.6289  1.6085
 2983SOL     OW 9847   6.944   4.134   2.313  0.1684  0.3282  0.8608
 2983SOL    HW1 9848   6.879   4.127   2.238 -0.8090 -0.0742  1.7273
 2983SOL    HW2 9849   6.975   4.229   2.322 -0.5125  0.5748  0.6229
 2984SOL     OW 9850   0.423   4.967   1.357 -0.3900  0.0847  0.6928
 2984SOL    HW1 9851   0.415   5.033   1.431  0.3869  2.7626 -1.4711
 2984SOL    HW2 9852   0.332   4.935   1.331 -0.6881 -0.8300  2.6251
 2985SOL     OW 9853   5.675   6.625   5.196 -0.1530 -0.0741 -0.4434
 2985SOL    HW1 9854   5.679   6.724   5.181 -1.4116 -0.2338 -2.0032
 2985SOL    HW2 9855   5.582   6.592   5.181  0.1357 -1.4513  0.5505
 2986SOL     OW 9856   1.794   4.815   5.207 -0.1939  0.1595  0.2074
 2986SOL    HW1 9857   1.851   4.878   5.156 -0.6535  0.0342 -0.4828
 2986SOL    HW2 9858   1.844   4.730   5.223 -0.1294  0.1032 -0.2669
 2987SOL     OW 9859   3.606   6.460   6.625 -0.4069 -0.1838 -0.2378
 2987SOL    HW1 9860   3.575   6.385   6.684 -0.5094 -1.2716 -1.6124
 2987SOL    HW2 9861   3.563   6.545   6.654 -0.1667 -0.6114  1.4650
 2988SOL     OW 9862   0.216   1.522   1.899 -0.1155  0.2228  0.0133
 2988SOL    HW1 9863   0.289   1.548   1.963 -0.1439 -0.7905  0.4871
 2988SOL    HW2 9864   0.256   1.502   1.810  0.3456 -1.1128  0.4758
 2989SOL     OW 9865   0.574   2.905   2.993  0.0425  0.0071 -0.1925
 2989SOL    HW1 9866   0.561   2.807   2.979  1.1576 -0.1991  0.0853
 2989SOL    HW2 9867   0.644   2.938   2.930  1.1232  0.2013  1.0632
 2990SOL     OW 9868   4.259   0.932   0.299 -0.0738 -0.3109 -0.1669
 2990SOL    HW1 9869   4.206   0.921   0.214  2.0109 -1.5704 -1.3926
 2990SOL    HW2 9870   4.341   0.986   0.279  0.6951 -1.0423  0.9334
 2991SOL     OW 9871   0.630   3.206   2.934 -0.1724  0.1958 -0.2574
 2991SOL    HW1 9872   0.571   3.133   2.900  0.1673 -1.0670  1.6910
 2991SOL    HW2 9873   0.669   3.256   2.857  0.5672 -2.4682 -1.7253
 2992SOL     OW 9874   0.026   6.806   5.641 -0.6232  0.0073  0.3297
 2992SOL    HW1 9875  -0.053   6.791   5.582 -0.9659 -0.0260  0.7935
 2992SOL    HW2 9876   0.024   6.899   5.676  0.4583  0.5612 -0.9948
 2993SOL     OW 9877   3.669   0.672   2.061 -0.5457  0.1211 -0.1869
 2993SOL    HW1 9878   3.725   0.754   2.050  1.1860 -0.9270  0.4537
 2993SOL    HW2 9879   3.604   0.665   1.985  0.7021  0.9870 -1.3708
 2994SOL     OW 9880   5.932   5.024   5.149  0.3454  0.5672  0.0619
 2994SOL    HW1 9881   5.978   5.033   5.237 -2.7406  2.1567  1.6851
 2994SOL    HW2 9882   5.846   4.974   5.161 -1.2624  2.7593 -1.5118
 2995SOL     OW 9883   5.001   2.155   1.752 -0.7227  0.0862 -0.0750
 2995SOL    HW1 9884   4.951   2.129   1.834  1.6742  1.3389  1.9163
 2995SOL    HW2 9885   5.032   2.072   1.704 -1.9364 -0.6606  0.3872
 2996SOL     OW 9886   6.174   6.329   2.211 -0.2133 -0.2662 -0.6186
 2996SOL    HW1 9887   6.215   6.388   2.281 -2.4790  1.3866 -0.5406
 2996SOL    HW2 9888   6.193   6.233   2.232 -0.3239  0.2006  1.9712
 2997SOL     OW 9889   0.483   0.135   6.150  0.0356  0.0186 -0.2005
 2997SOL    HW1 9890   0.574   0.114   6.112 -0.0957  1.2815 -1.2951
 2997SOL    HW2 9891   0.449   0.220   6.109 -0.7778  0.6585  1.7152
 2998SOL     OW 9892   6.376   2.061   5.385 -0.1764  0.3844 -0.1160
 2998SOL    HW1 9893   6.422   2.150   5.380  3.7624 -1.2102  3.0231
 2998SOL    HW2 9894   6.347   2.044   5.479 -0.3805 -1.8787 -0.5333
 2999SOL     OW 9895   6.172   4.643   5.388  0.3348  0.0767 -0.1140
 2999SOL    HW1 9896   6.107   4.646   5.464  1.6919 -0.0858  1.0960
 2999SOL    HW2 9897   6.180   4.548   5.355  0.4934 -0.0238  0.2129
 3000SOL     OW 9898   3.288   0.494   5.633 -0.1729  0.2346  0.0744
 3000SOL    HW1 9899   3.260   0.452   5.720 -1.5654  1.8208  0.4327
 3000SOL    HW2 9900   3.242   0.447   5.558 -0.3001 -0.0457  0.3234
 3001SOL     OW 9901   5.438   0.842   5.813 -0.4642 -0.4654  0.0236
 3001SOL    HW1 9902   5.507   0.791   5.865 -0.6028 -0.0369  0.6400
 3001SOL    HW2 9903   5.354   0.847   5.866 -0.4041  0.5318  0.0405
 3002SOL     OW 9904   1.958   3.231   6.182 -0.2648  0.5043  0.4335
 3002SOL    HW1 9905   1.982   3.276   6.095  0.9151  0.3437  0.6483
 3002SOL    HW2 9906   2.014   3.270   6.255  0.9099 -1.3733  0.6109
 3003SOL     OW 9907   2.928   3.320   3.364  0.1936  0.0017  0.0628
 3003SOL    HW1 9908   2.897   3.310   3.270 -0.5496 -3.3636  0.5260
 3003SOL    HW2 9909   3.006   3.260   3.380  1.1499  1.5095  1.2920
 3004SOL     OW 9910   3.043   3.452   5.500  0.1547 -0.4805  0.2710
 3004SOL    HW1 9911   2.970   3.512   5.532 -0.4941 -1.3111  0.3701
 3004SOL    HW2 9912   3.130   3.479   5.542 -0.4643 -0.8077  1.8222
 3005SOL     OW 9913   1.508   1.873   1.448  0.2537  0.4096  0.3303
 3005SOL    HW1 9914   1.551   1.889   1.537  2.8129  1.2066 -0.9609
 3005SOL    HW2 9915   1.457   1.954   1.421  0.5481  0.6597  0.5122
 3006SOL     OW 9916   2.155   4.417   5.046  0.2932  0.5603  0.0361
 3006SOL    HW1 9917   2.126   4.452   4.957  0.2922  0.6500  0.0720
 3006SOL    HW2 9918   2.144   4.317   5.048  1.0537  0.4617 -0.3487
 3007SOL     OW 9919   1.983   6.122   6.494  0.4629 -0.4174 -0.3637
 3007SOL    HW1 9920   2.066   6.119   6.550  0.4669 -1.4995 -0.4146
 3007SOL    HW2 9921   1.910   6.070   6.538  0.1823 -0.4954 -0.9024
 3008SOL     OW 9922   5.911   4.800   4.431  0.4810  0.2620  0.4522
 3008SOL    HW1 9923   5.881   4.880   4.483  1.5664  1.0296 -0.0687
 3008SOL    HW2 9924   6.003   4.817   4.393  0.4551 -0.9722 -0.2128
 3009SOL     OW 9925   0.120   0.924   5.275  0.4811  0.1517  0.5170
 3009SOL    HW1 9926   0.063   1.000   5.305 -1.0910 -1.1640  1.0019
 3009SOL    HW2 9927   0.128   0.857   5.349  0.5133 -0.8964 -0.4027
 3010SOL     OW 9928   3.138   3.845   0.029 -0.4060  0.0097 -0.0850
 3010SOL    HW1 9929   3.124   3.747   0.039 -0.6181 -0.0099 -0.5445
 3010SOL    HW2 9930   3.068   3.883  -0.031  0.6316  0.1705 -1.2264
 3011SOL     OW 9931   5.836   6.925   5.414 -0.2421  0.6239 -0.2750
 3011SOL    HW1 9932   5.808   6.855   5.479  0.0345  1.5511  0.8753
 3011SOL    HW2 9933   5.858   7.009   5.463 -0.0979  1.3757 -1.5810
 3012SOL     OW 9934   0.483   3.582   0.999  0.9839  0.0218 -0.0285
 3012SOL    HW1 9935   0.551   3.543   1.061  0.7878 -0.6241 -0.2082
 3012SOL    HW2 9936   0.462   3.676   1.026  1.2541 -0.0929  0.5829
 3013SOL     OW 9937   7.013   6.559   5.153  0.8812 -0.5113 -0.4246
 3013SOL    HW1 9938   6.969   6.649   5.154  1.5805 -0.1285 -1.7653
 3013SOL    HW2 9939   6.985   6.507   5.234 -0.4514  0.4605 -0.2362
 3014SOL     OW 9940   2.194   5.282   0.449 -0.3151  0.0915 -0.1028
 3014SOL    HW1 9941   2.274   5.342   0.437  0.4309 -0.8822 -0.0932
 3014SOL    HW2 9942   2.206   5.200   0.394 -1.5528  0.1546 -0.4772
 3015SOL     OW 9943   3.268   2.399   6.850 -0.5045  0.2787  0.0695
 3015SOL    HW1 9944   3.269   2.483   6.796  0.1668  0.2891  0.0868
 3015SOL    HW2 9945   3.224   2.416   6.938 -2.2708  0.0884 -0.7277
 3016SOL     OW 9946   1.298   4.650   5.956 -0.2842 -0.0910 -0.6262
 3016SOL    HW1 9947   1.285   4.723   5.889 -2.5413 -1.4820 -1.8152
 3016SOL    HW2 9948   1.307   4.690   6.048  2.2679  1.8093 -1.5938
 3017SOL     OW 9949   0.924   5.125   4.216 -0.5547  0.1515  0.0333
 3017SOL    HW1 9950   0.835   5.081   4.212 -0.2989 -0.5597  1.3327
 3017SOL    HW2 9951   0.992   5.060   4.250  0.2918  0.9238 -0.1220
 3018SOL     OW 9952   2.545   4.092   5.784  0.2499 -0.1224 -0.0534
 3018SOL    HW1 9953   2.597   4.013   5.752 -0.5710 -0.0357 -1.6894
 3018SOL    HW2 9954   2.607   4.170   5.793  0.7194 -0.4651 -0.2526
 3019SOL     OW 9955   6.204   6.523   0.627 -0.0667 -0.6290 -0.3887
 3019SOL    HW1 9956   6.156   6.541   0.713  0.4421  1.2431 -0.4442
 3019SOL    HW2 9957   6.300   6.552   0.636  0.0643 -0.6950 -1.4791
 3020SOL     OW 9958   2.200   4.602   1.660 -0.1596 -0.5867 -0.7789
 3020SOL    HW1 9959   2.123   4.649   1.618 -1.7940 -0.0764  2.4835
 3020SOL    HW2 9960   2.275   4.666   1.675  0.3529 -0.7238 -2.5247
 3021SOL     OW 9961   6.338   4.164   0.143  0.0071  0.3448  0.6121
 3021SOL    HW1 9962   6.395   4.235   0.101  0.4221 -0.3397  0.0080
 3021SOL    HW2 9963   6.352   4.077   0.096 -1.9353  0.2663  0.1090
 3022SOL     OW 9964   0.679   6.066   4.342  0.5090  0.0713 -0.7597
 3022SOL    HW1 9965   0.700   6.141   4.278 -1.0167 -0.6056 -2.1215
 3022SOL    HW2 9966   0.696   5.979   4.297 -0.5065 -0.4249 -0.2040
 3023SOL     OW 9967   4.743   4.278   2.763  0.6636  0.2486 -0.0452
 3023SOL    HW1 9968   4.742   4.223   2.846  3.2603  1.4203  0.8669
 3023SOL    HW2 9969   4.701   4.367   2.782 -0.6660 -0.2261 -0.6352
 3024SOL     OW 9970   4.841   2.242   6.839 -0.4910  0.6714 -0.1532
 3024SOL    HW1 9971   4.794   2.312   6.786 -0.4432 -0.3126 -1.5563
 3024SOL    HW2 9972   4.777   2.196   6.900 -0.2561  2.8369  1.8722
 3025SOL     OW 9973   5.603   6.023   0.993  0.5712  0.1198 -0.3854
 3025SOL    HW1 9974   5.638   5.929   0.997  0.5173  0.0120 -1.8274
 3025SOL    HW2 9975   5.503   6.021   0.983  0.6483  0.2955 -1.2739
 3026SOL     OW 9976   5.407   6.996   0.283  0.5003  0.2136 -0.4777
 3026SOL    HW1 9977   5.499   6.964   0.263 -0.1419 -1.1786 -1.3938
 3026SOL    HW2 9978   5.351   6.990   0.200 -0.3246  1.4048 -0.0365
 3027SOL     OW 9979   1.687   2.985   0.390 -0.0490 -0.0744  0.1764
 3027SOL    HW1 9980   1.668   2.903   0.444 -0.3886  0.4587  0.8860
 3027SOL    HW2 9981   1.625   2.989   0.312  0.6029 -0.9778 -0.4133
 3028SOL     OW 9982   2.567   2.086   4.038  0.0088 -0.1836  0.0482
 3028SOL    HW1 9983   2.577   2.087   3.939 -0.6853  0.3571 -0.0257
 3028SOL    HW2 9984   2.591   2.176   4.075 -0.7696 -0.0499  0.2524
 3029SOL     OW 9985   5.560   6.262   3.393  0.3105  0.1523 -0.2716
 3029SOL    HW1 9986   5.585   6.264   3.490  0.0893 -1.9196 -0.1255
 3029SOL    HW2 9987   5.574   6.170   3.357  1.5185  1.1460 -2.5514
 3030SOL     OW 9988   0.868   0.784   1.501  0.3403  0.5954  0.0405
 3030SOL    HW1 9989   0.808   0.705   1.494  0.1907  0.7701 -0.6404
 3030SOL    HW2 9990   0.939   0.765   1.570  0.3964 -0.1862 -0.2206
 3031SOL     OW 9991   6.362   1.789   5.491  0.1334  0.4547 -0.1149
 3031SOL    HW1 9992   6.288   1.823   5.433  0.2920  0.8195 -0.1051
 3031SOL    HW2 9993   6.339   1.697   5.523 -0.3667  0.6054 -0.0223
 3032SOL     OW 9994   5.292   3.801   4.118 -0.5145 -0.4813 -0.6317
 3032SOL    HW1 9995   5.238   3.824   4.038 -1.2062 -0.6572 -0.2206
 3032SOL    HW2 9996   5.242   3.826   4.201  1.1018  1.7714 -0.2507
 3033SOL     OW 9997   0.337   1.378   5.252  0.2239  0.0956  0.2429
 3033SOL    HW1 9998   0.272   1.311   5.217 -0.4782  0.3081  1.1091
 3033SOL    HW2 9999   0.420   1.375   5.197 -0.9172  0.5891 -1.6007
 3034SOL     OW10000   6.878   2.839   0.058  0.1993 -0.2514  0.1124
 3034SOL    HW110001   6.844   2.780  -0.015  0.6690  0.8151 -0.9941
 3034SOL    HW210002   6.808   2.848   0.129 -0.1819 -1.4753 -0.0931
 3035SOL     OW10003   3.550   3.770   6.854 -0.2241 -0.4117 -0.1657
 3035SOL    HW110004   3.468   3.800   6.805  1.1762  0.2680 -2.1832
 3035SOL    HW210005   3.566   3.673   6.838 -0.8790 -0.6621  0.6345
 3036SOL     OW10006   0.062   5.421   4.009  0.1610 -0.2671 -0.0200
 3036SOL    HW110007   0.108   5.453   4.091  1.6794 -2.2700 -0.0384
 3036SOL    HW210008   0.126   5.420   3.933 -1.6754  3.6169 -1.9581
 3037SOL     OW10009   5.518   0.199   4.783 -0.3627 -0.0639 -0.3778
 3037SOL    HW110010   5.594   0.192   4.848  0.1813 -1.9521 -1.1559
 3037SOL    HW210011   5.471   0.110   4.777 -1.8369  0.7175 -0.8854
 3038SOL     OW10012   1.808   4.772   3.924 -0.3865  0.2630  0.2648
 3038SOL    HW110013   1.794   4.757   4.022 -1.5383 -1.8145 -0.1527
 3038SOL    HW210014   1.892   4.725   3.896 -0.6354 -0.0703  0.0725
 3039SOL     OW10015   1.488   1.296   4.128 -0.0416  0.0702 -0.4814
 3039SOL    HW110016   1.587   1.287   4.139 -0.1427  0.1772  0.6477
 3039SOL    HW210017   1.445   1.209   4.151 -0.4239  0.9081  2.3518
 3040SOL     OW10018   1.852   3.078   0.066 -0.3562 -0.3165  0.0182
 3040SOL    HW110019   1.933   3.112   0.019  0.7239 -1.1529  1.2013
 3040SOL    HW210020   1.774   3.136   0.044  1.0550  1.9556  0.7120
 3041SOL     OW10021   4.193   0.948   2.438 -0.2124 -0.2388  0.0251
 3041SOL    HW110022   4.280   0.993   2.420 -0.4769  0.2238 -0.1132
 3041SOL    HW210023   4.120   1.017   2.443 -0.5722 -0.6210  0.1276
 3042SOL     OW10024   1.772   2.002   3.724  0.8550 -0.1217 -0.4565
 3042SOL    HW110025   1.791   1.908   3.755  0.5591  0.0659  0.3244
 3042SOL    HW210026   1.698   2.000   3.656 -1.2229 -0.2392  1.6718
 3043SOL     OW10027   2.727   0.203   0.068 -0.0775 -0.2400  0.3656
 3043SOL    HW110028   2.824   0.185   0.084  0.9716  1.7761 -2.8757
 3043SOL    HW210029   2.682   0.117   0.040  1.0490 -0.9426  0.6429
 3044SOL     OW10030   3.665   3.481   4.614  0.4794  0.5449  0.7714
 3044SOL    HW110031   3.675   3.536   4.531 -1.3643 -0.2169 -0.0103
 3044SOL    HW210032   3.638   3.541   4.690  0.0183  0.9679  0.2896
 3045SOL     OW10033   3.309   5.157   6.511  0.3811 -0.7201  0.0974
 3045SOL    HW110034   3.282   5.233   6.570  2.6937 -0.3310  0.7775
 3045SOL    HW210035   3.298   5.071   6.561 -1.2814 -0.7861 -0.3173
 3046SOL     OW10036   2.685   6.160   2.690  0.0545  0.0928 -0.0019
 3046SOL    HW110037   2.589   6.187   2.706  0.2267 -0.9124  3.8154
 3046SOL    HW210038   2.728   6.225   2.628 -2.8894  0.9932 -1.2678
 3047SOL     OW10039   3.036   0.068   1.514  0.2376  0.3624  0.0705
 3047SOL    HW110040   2.940   0.082   1.538  0.0527 -2.2250  1.1233
 3047SOL    HW210041   3.042   0.006   1.436  1.0404 -0.0668  0.4587
 3048SOL     OW10042   1.744   0.505   2.477  0.2062  0.3652  0.2379
 3048SOL    HW110043   1.769   0.553   2.561  1.1685 -0.1123  0.2428
 3048SOL    HW210044   1.694   0.421   2.499  0.7069  0.0918  0.3667
 3049SOL     OW10045   5.274   0.226   5.927 -0.4652  0.7849  0.4994
 3049SOL    HW110046   5.176   0.212   5.934 -0.8595  1.6811 -2.0068
 3049SOL    HW210047   5.321   0.138   5.935 -1.5446  0.2112  0.7437
 3050SOL     OW10048   4.585   6.580   0.252 -0.1926  0.3528  0.0936
 3050SOL    HW110049   4.587   6.670   0.295 -1.2527  0.2860  0.2966
 3050SOL    HW210050   4.515   6.524   0.295  0.1467 -0.4211 -0.3414
 3051SOL     OW10051   1.681   1.748   6.682  0.2513  0.1979 -0.5809
 3051SOL    HW110052   1.603   1.742   6.620 -0.1830 -0.8712  0.0405
 3051SOL    HW210053   1.675   1.675   6.750  1.4397  0.5176 -0.1090
 3052SOL     OW10054   0.805   5.500   1.838  0.2809 -0.1139 -0.2178
 3052SOL    HW110055   0.761   5.436   1.902  2.2844  0.1711  1.5350
 3052SOL    HW210056   0.904   5.499   1.852  0.3803  3.9109  0.4688
 3053SOL     OW10057   5.246   3.534   3.963 -0.1379 -0.5546 -0.5919
 3053SOL    HW110058   5.267   3.615   3.909  1.6041 -0.4818  0.1303
 3053SOL    HW210059   5.298   3.536   4.048 -1.4308 -1.5696  0.2701
 3054SOL     OW10060   5.321   6.232   0.022 -0.4983 -0.1348 -0.2974
 3054SOL    HW110061   5.262   6.217   0.102  0.6343  0.1861  0.6163
 3054SOL    HW210062   5.263   6.248  -0.058 -1.6627 -0.9920  0.3321
 3055SOL     OW10063   6.284   4.456   5.813 -0.0158  0.3308  0.3715
 3055SOL    HW110064   6.260   4.381   5.752 -2.2077  0.9467  0.4105
 3055SOL    HW210065   6.233   4.538   5.787  0.8329  1.2647  1.5591
 3056SOL     OW10066   0.680   0.986   2.856  0.5483 -0.1901 -0.0521
 3056SOL    HW110067   0.778   1.000   2.869  0.6291 -0.2549 -0.5444
 3056SOL    HW210068   0.631   1.071   2.876  0.5485 -0.5588  1.6230
 3057SOL     OW10069   5.345   4.267   4.071  0.3925 -0.5805 -0.1570
 3057SOL    HW110070   5.265   4.212   4.095  1.1949 -1.7797 -0.1776
 3057SOL    HW210071   5.380   4.312   4.153 -0.8751  0.7601 -0.3181
 3058SOL     OW10072   1.015   0.629   0.169  0.0491 -0.3141  0.1483
 3058SOL    HW110073   0.969   0.656   0.085  4.3680  1.5820 -1.9375
 3058SOL    HW210074   1.017   0.706   0.232  2.9840  0.8771 -1.2211
 3059SOL     OW10075   3.600   6.059   3.295  0.3456 -0.5984 -0.2828
 3059SOL    HW110076   3.615   6.115   3.376 -0.7348  0.6007 -0.8790
 3059SOL    HW210077   3.601   5.962   3.321 -3.3850 -0.2579  1.8614
 3060SOL     OW10078   2.469   2.172   1.832 -0.2889 -0.2052  0.6135
 3060SOL    HW110079   2.509   2.202   1.746 -0.2798 -0.2123  0.6152
 3060SOL    HW210080   2.420   2.248   1.875  0.3560  0.0026  0.9815
 3061SOL     OW10081   1.512   4.464   1.580 -0.1959  0.2304 -0.1965
 3061SOL    HW110082   1.487   4.393   1.514  0.9320  1.7684 -2.4060
 3061SOL    HW210083   1.442   4.536   1.580 -1.0202 -0.5095  1.5725
 3062SOL     OW10084   5.751   4.715   1.476  0.2362  0.3151  0.4919
 3062SOL    HW110085   5.778   4.786   1.541 -1.1584 -0.2449  1.7322
 3062SOL    HW210086   5.686   4.652   1.519  0.8769 -1.3154 -0.8008
 3063SOL     OW10087   4.841   5.485   1.422  1.0372 -0.1132  0.7269
 3063SOL    HW110088   4.753   5.526   1.443 -0.0874 -2.1549  0.2493
 3063SOL    HW210089   4.898   5.483   1.504  0.2897  0.3821  1.2662
 3064SOL     OW10090   6.367   5.346   5.775 -0.7146 -0.3658  0.7641
 3064SOL    HW110091   6.308   5.277   5.816  0.5183 -0.6961  2.0657
 3064SOL    HW210092   6.434   5.378   5.842  1.3074 -0.8247 -0.8986
 3065SOL     OW10093   6.029   4.497   1.562 -0.3118 -0.0495  0.1114
 3065SOL    HW110094   6.114   4.537   1.599  0.0756 -0.3612 -0.4309
 3065SOL    HW210095   6.011   4.535   1.472 -0.1127 -0.8485 -0.2765
 3066SOL     OW10096   4.196   2.138   2.076  0.5694  0.0603  0.5001
 3066SOL    HW110097   4.170   2.043   2.057 -1.5511  0.3622  1.6710
 3066SOL    HW210098   4.281   2.139   2.129  1.0231 -1.1317 -0.1607
 3067SOL     OW10099   6.951   5.329   3.343  0.4749  0.4524 -0.9772
 3067SOL    HW110100   6.856   5.345   3.372  1.1266  2.0928  0.4354
 3067SOL    HW210101   6.961   5.354   3.247 -0.2170  1.7559 -0.7384
 3068SOL     OW10102   6.806   6.790   4.331 -0.5741 -0.2780  0.1775
 3068SOL    HW110103   6.825   6.798   4.233 -1.6185 -0.0981 -0.0199
 3068SOL    HW210104   6.789   6.694   4.353  1.2805 -0.5654  0.5108
 3069SOL     OW10105   3.095   6.440   0.379  0.3947  0.1822 -0.3248
 3069SOL    HW110106   3.059   6.498   0.453 -0.7719 -0.2607 -0.5155
 3069SOL    HW210107   3.136   6.358   0.418  1.3015  0.7327 -0.0961
 3070SOL     OW10108   6.210   2.352   2.676 -0.1056  0.3460 -0.5348
 3070SOL    HW110109   6.255   2.269   2.708 -0.5903  0.5416  0.7597
 3070SOL    HW210110   6.111   2.336   2.668 -0.3302  1.0058  0.5884
 3071SOL     OW10111   4.883   6.508   5.693  0.2604  0.0778  0.4076
 3071SOL    HW110112   4.887   6.440   5.621  3.0697  0.1649  0.3606
 3071SOL    HW210113   4.865   6.463   5.781  0.1084 -0.4461  0.1111
 3072SOL     OW10114   0.543   6.984   3.551  0.0824  0.5034  0.5262
 3072SOL    HW110115   0.579   7.077   3.548 -0.2717  0.6203 -0.8046
 3072SOL    HW210116   0.568   6.935   3.467 -1.9450  0.2730 -0.0043
 3073SOL     OW10117   4.266   2.000   3.146  0.0011 -0.6166  0.0106
 3073SOL    HW110118   4.202   1.979   3.221 -3.2057 -0.3372 -2.4286
 3073SOL    HW210119   4.285   2.098   3.145  1.5094 -0.8386  1.4006
 3074SOL     OW10120   3.867   2.725   0.564 -0.1443  0.6618 -0.6541
 3074SOL    HW110121   3.862   2.645   0.624  0.8760 -0.1862 -1.6631
 3074SOL    HW210122   3.793   2.789   0.588 -1.6727 -1.0637 -0.5369
 3075SOL     OW10123   1.306   3.235   3.223  0.0680 -0.7502 -0.7238
 3075SOL    HW110124   1.257   3.216   3.309  0.4893  1.7181  0.1512
 3075SOL    HW210125   1.260   3.309   3.174  0.5609 -1.2720 -2.0231
 3076SOL     OW10126   1.245   3.449   1.294 -0.1888 -0.8074  0.5432
 3076SOL    HW110127   1.206   3.398   1.217  1.1211 -0.1975 -0.5595
 3076SOL    HW210128   1.326   3.402   1.328  1.4828  0.8072 -0.9697
 3077SOL     OW10129   3.745   4.294   1.719 -0.1739  0.3642  0.2233
 3077SOL    HW110130   3.690   4.233   1.663  0.2798  0.7822 -0.7104
 3077SOL    HW210131   3.745   4.263   1.814 -1.3681 -0.0698  0.0863
 3078SOL     OW10132   6.308   2.184   5.875 -0.2887  0.0668 -0.0772
 3078SOL    HW110133   6.247   2.156   5.949  1.0758  0.0452  1.0819
 3078SOL    HW210134   6.258   2.240   5.809 -1.7372 -0.6172  0.4082
 3079SOL     OW10135   1.697   4.053   3.212  0.5625 -0.0983  0.3917
 3079SOL    HW110136   1.599   4.036   3.226  0.7070 -0.8658  0.4838
 3079SOL    HW210137   1.738   4.084   3.298 -0.0049  2.3304 -0.1251
 3080SOL     OW10138   6.877   5.880   4.998  0.1172 -0.0613  0.2103
 3080SOL    HW110139   6.804   5.944   4.971 -0.0443  0.5037  1.8887
 3080SOL    HW210140   6.913   5.835   4.916 -1.2581  0.5675 -0.7891
 3081SOL     OW10141   2.355   4.232   5.931  0.7712  0.5029 -0.4540
 3081SOL    HW110142   2.348   4.182   6.017 -0.5426 -0.1306 -0.8998
 3081SOL    HW210143   2.425   4.190   5.873  2.9290  1.9765  0.9282
 3082SOL     OW10144   6.555   6.345   6.059 -0.1400 -0.1083 -0.3938
 3082SOL    HW110145   6.542   6.335   6.158 -0.4141  0.2774 -0.3880
 3082SOL    HW210146   6.520   6.264   6.012  1.5855 -1.0930 -0.0625
 3083SOL     OW10147   4.531   4.219   6.124  0.2264  0.0816  0.5119
 3083SOL    HW110148   4.595   4.157   6.170 -1.1931 -0.3443  2.0139
 3083SOL    HW210149   4.437   4.186   6.139 -0.4149  1.2490 -0.7667
 3084SOL     OW10150   0.194   2.498   0.199 -0.2660 -0.2149 -0.4792
 3084SOL    HW110151   0.131   2.572   0.225  1.2617  1.7905 -2.1951
 3084SOL    HW210152   0.282   2.537   0.171  1.7010 -2.9017  1.4680
 3085SOL     OW10153   2.739   3.006   5.411  0.6878  0.3846 -0.1439
 3085SOL    HW110154   2.785   3.089   5.443  0.3394  0.3057  0.5644
 3085SOL    HW210155   2.646   3.029   5.381 -0.4439 -0.1650  2.6859
 3086SOL     OW10156   6.035   6.716   2.793  0.0381 -0.2634  0.0267
 3086SOL    HW110157   5.949   6.748   2.833 -0.2060  0.8970 -1.3304
 3086SOL    HW210158   6.037   6.739   2.695  2.7027  1.5301  0.3894
 3087SOL     OW10159   0.458   4.558   5.048 -0.0359  0.1754  0.5563
 3087SOL    HW110160   0.506   4.642   5.074  2.3167 -0.7641 -0.4397
 3087SOL    HW210161   0.525   4.485   5.032 -1.9187 -1.5374  0.0984
 3088SOL     OW10162   1.387   5.246   5.653  0.2103  0.3611 -0.1277
 3088SOL    HW110163   1.388   5.262   5.752  0.5741  0.5062 -0.1525
 3088SOL    HW210164   1.319   5.306   5.610 -0.6044 -0.3586  0.1391
 3089SOL     OW10165   2.984   2.644   6.259  0.1721  0.0477 -0.1238
 3089SOL    HW110166   3.051   2.709   6.224 -0.5570  1.0622  0.3303
 3089SOL    HW210167   2.975   2.655   6.358 -1.5004  0.7412 -0.3253
 3090SOL     OW10168   4.335   5.575   4.362 -0.1343  0.2352 -0.1964
 3090SOL    HW110169   4.398   5.555   4.437  0.1642  1.1351 -0.1872
 3090SOL    HW210170   4.262   5.508   4.361 -0.4574  0.5297  1.2590
 3091SOL     OW10171   3.335   6.103   4.874 -0.0979  0.0782  0.1681
 3091SOL    HW110172   3.251   6.083   4.924 -0.5606 -0.9132 -0.9695
 3091SOL    HW210173   3.313   6.132   4.781  0.8224 -1.5486 -0.6083
 3092SOL     OW10174   1.870   3.652   2.509 -0.6319 -0.3869  0.5171
 3092SOL    HW110175   1.960   3.679   2.475 -0.4486 -0.5091  0.9038
 3092SOL    HW210176   1.880   3.588   2.585 -1.0423 -0.2571  0.6840
 3093SOL     OW10177   6.415   4.097   6.213  0.0133  0.2989  0.1359
 3093SOL    HW110178   6.371   4.086   6.124 -0.5433 -0.0620  0.4529
 3093SOL    HW210179   6.481   4.022   6.227  0.6726  0.7822 -0.2940
 3094SOL     OW10180   3.991   4.211   1.332  0.0832 -0.0873  0.0768
 3094SOL    HW110181   3.955   4.146   1.265  0.3716  1.3595 -1.5675
 3094SOL    HW210182   4.088   4.192   1.349  1.4264  2.2437 -3.6510
 3095SOL     OW10183   3.599   2.769   5.577  0.4417 -0.0913 -0.1503
 3095SOL    HW110184   3.606   2.863   5.610 -0.2268 -0.0042 -0.2453
 3095SOL    HW210185   3.513   2.729   5.609 -1.5030  0.7937 -3.7493
 3096SOL     OW10186   0.926   5.970   6.210 -0.4418 -0.1077 -0.5424
 3096SOL    HW110187   0.912   5.883   6.164 -0.9248 -0.1900 -0.2461
 3096SOL    HW210188   0.918   5.958   6.309 -0.5905  0.2821 -0.5026
 3097SOL     OW10189   2.327   2.467   6.720 -0.0244 -0.7317  0.0078
 3097SOL    HW110190   2.309   2.530   6.644 -0.0290 -1.0637 -0.2681
 3097SOL    HW210191   2.252   2.474   6.786 -0.0076 -0.4206 -0.0031
 3098SOL     OW10192   4.616   1.611   1.686  0.7083 -0.3106  0.1923
 3098SOL    HW110193   4.661   1.524   1.706 -0.3910 -0.8741  0.2653
 3098SOL    HW210194   4.520   1.606   1.713  1.0502  1.5897  2.0743
 3099SOL     OW10195   5.672   5.743   1.006 -0.0263  0.0376  0.3520
 3099SOL    HW110196   5.594   5.736   1.068  0.1806  1.3909  0.7970
 3099SOL    HW210197   5.643   5.719   0.913 -1.2417  1.4452  0.3215
 3100SOL     OW10198   6.494   5.785   4.622  0.5611 -0.3769  0.3939
 3100SOL    HW110199   6.505   5.714   4.691 -0.7406 -1.3972 -0.3932
 3100SOL    HW210200   6.576   5.789   4.565  0.2056 -2.1331 -0.3105
 3101SOL     OW10201   2.154   2.008   6.219  0.0847 -0.0014  0.1812
 3101SOL    HW110202   2.112   1.978   6.133  0.5142 -0.7230  0.2161
 3101SOL    HW210203   2.151   2.108   6.224  0.6756  0.0972 -0.9941
 3102SOL     OW10204   4.398   5.885   0.568  0.6328  0.6057 -0.1084
 3102SOL    HW110205   4.467   5.943   0.611  0.6985 -0.1116  0.7941
 3102SOL    HW210206   4.353   5.829   0.638 -0.0360  0.2053 -0.8398
 3103SOL     OW10207   0.170   5.452   5.586  0.7085  0.0767  0.5068
 3103SOL    HW110208   0.199   5.457   5.491 -0.2375 -1.7694  0.0653
 3103SOL    HW210209   0.097   5.519   5.603  0.5722  0.1116 -0.2030
 3104SOL     OW10210   3.272   3.899   6.490 -0.0228  0.4489 -0.4523
 3104SOL    HW110211   3.296   3.954   6.410  0.1410  0.5656 -0.3246
 3104SOL    HW210212   3.260   3.803   6.463 -2.6027  0.8729 -1.1328
 3105SOL     OW10213   6.120   2.302   3.763 -0.7938  0.4447 -0.0128
 3105SOL    HW110214   6.035   2.290   3.813 -0.4910 -1.4892  0.1179
 3105SOL    HW210215   6.172   2.217   3.765  0.1508  0.9162 -1.9302
 3106SOL     OW10216   2.929   5.998   3.673  0.1517 -0.6848  0.3748
 3106SOL    HW110217   2.934   5.962   3.580 -0.6146 -0.8743  0.4004
 3106SOL    HW210218   2.938   5.923   3.739  0.5486 -0.5706  0.4522
 3107SOL     OW10219   0.342   1.520   3.614  0.1593 -0.2100  0.4802
 3107SOL    HW110220   0.374   1.439   3.565  0.1464 -0.8650  1.5258
 3107SOL    HW210221   0.261   1.557   3.569 -0.1204 -1.0644  0.2742
 3108SOL     OW10222   1.130   1.448   2.196  0.0417  0.2664 -0.0119
 3108SOL    HW110223   1.151   1.516   2.266 -1.3308  0.1109  0.5938
 3108SOL    HW210224   1.191   1.460   2.118  0.6282  1.3935  0.5911
 3109SOL     OW10225   6.863   6.181   3.800 -0.1368  0.1441 -0.3696
 3109SOL    HW110226   6.913   6.215   3.880 -0.2545  0.3602 -0.3873
 3109SOL    HW210227   6.767   6.168   3.824  0.1680 -1.5515  0.0487
 3110SOL     OW10228   4.235   0.859   2.076 -0.1945 -0.4531 -0.1510
 3110SOL    HW110229   4.203   0.944   2.034  1.4211 -1.0605 -2.8672
 3110SOL    HW210230   4.317   0.879   2.131  0.0540 -0.1908 -0.6030
 3111SOL     OW10231   0.195   3.473   1.621 -0.2688  0.4019 -0.3165
 3111SOL    HW110232   0.162   3.509   1.708  1.0193  2.0492 -0.4642
 3111SOL    HW210233   0.145   3.389   1.599 -0.3808 -0.2846  2.1741
 3112SOL     OW10234   0.939   3.146   2.860  0.1299  0.3581 -0.2296
 3112SOL    HW110235   0.962   3.159   2.956  1.8979 -1.8695 -0.2817
 3112SOL    HW210236   0.987   3.213   2.804  0.9592  0.1779  0.2632
 3113SOL     OW10237   0.486   3.422   6.067  0.5181  0.3607 -0.0821
 3113SOL    HW110238   0.486   3.387   6.161  0.6472  1.9981  0.5644
 3113SOL    HW210239   0.398   3.465   6.047  1.0940  1.5950 -0.0619
 3114SOL     OW10240   4.769   4.130   0.324 -0.7379 -1.0701 -0.1089
 3114SOL    HW110241   4.761   4.179   0.238 -2.0381 -2.2560 -0.6958
 3114SOL    HW210242   4.793   4.034   0.306 -0.5467 -1.2196  0.8703
 3115SOL     OW10243   1.537   6.169   0.419 -0.1251  0.3575 -0.2262
 3115SOL    HW110244   1.476   6.228   0.365  0.8571  0.0575 -1.7364
 3115SOL    HW210245   1.602   6.124   0.358  0.6083 -0.5473  1.1654
 3116SOL     OW10246   2.886   1.150   0.865  0.1797 -0.1329 -0.2894
 3116SOL    HW110247   2.872   1.234   0.917 -2.1719 -2.0470  2.5253
 3116SOL    HW210248   2.970   1.105   0.896  0.3143  0.1349 -0.2626
 3117SOL     OW10249   4.347   2.868   5.959  0.1169 -1.5890 -0.3660
 3117SOL    HW110250   4.375   2.817   6.040  0.8991 -0.9749 -0.2308
 3117SOL    HW210251   4.291   2.946   5.987  0.8189 -1.0788 -0.3584
 3118SOL     OW10252   0.041   2.046   0.229  0.8470 -0.0950 -0.3097
 3118SOL    HW110253  -0.010   2.132   0.223 -0.5105 -0.9660 -2.6073
 3118SOL    HW210254   0.124   2.053   0.174  0.1918 -0.5819 -1.3740
 3119SOL     OW10255   4.199   0.944   5.330  0.0423  0.1364 -0.2365
 3119SOL    HW110256   4.161   1.030   5.296  0.2333 -0.1518 -1.2142
 3119SOL    HW210257   4.282   0.922   5.279  1.5441  0.7245  1.8320
 3120SOL     OW10258   3.881   6.208   6.816  0.3754 -0.4369 -0.1123
 3120SOL    HW110259   3.825   6.126   6.807 -2.6305  1.3343  1.1103
 3120SOL    HW210260   3.884   6.255   6.728 -0.8925 -0.0978  0.0032
 3121SOL     OW10261   4.508   3.337   6.927 -0.1342 -0.6372 -0.1917
 3121SOL    HW110262   4.561   3.252   6.935 -1.4820 -1.4882  0.0545
 3121SOL    HW210263   4.467   3.358   7.016  1.3623  1.1087  0.1447
 3122SOL     OW10264   0.211   0.182   2.811 -0.7561 -0.0632 -0.3261
 3122SOL    HW110265   0.229   0.270   2.768 -1.2340 -0.2656 -0.9649
 3122SOL    HW210266   0.284   0.118   2.788 -1.0932 -0.2168 -0.9728
 3123SOL     OW10267   0.108   1.442   5.981  0.5405 -0.1247 -0.6001
 3123SOL    HW110268   0.132   1.354   6.021  0.9676 -0.9066 -2.4556
 3123SOL    HW210269   0.065   1.428   5.891 -3.8026  1.3393  0.9656
 3124SOL     OW10270   1.481   2.985   2.749  0.1427  0.7529 -0.1142
 3124SOL    HW110271   1.523   3.070   2.779  0.0697  0.5719  0.5331
 3124SOL    HW210272   1.515   2.960   2.659  0.7807  1.0446  0.0428
 3125SOL     OW10273   4.265   2.263   6.569  0.2284 -0.3720 -0.2457
 3125SOL    HW110274   4.303   2.171   6.575 -2.2041 -1.4727 -0.7293
 3125SOL    HW210275   4.178   2.261   6.519 -0.4883  1.9993  0.7446
 3126SOL     OW10276   1.299   5.439   3.679  0.1050  0.1464 -0.2887
 3126SOL    HW110277   1.262   5.439   3.586  1.9960  0.8125 -1.0943
 3126SOL    HW210278   1.368   5.368   3.687 -1.4976 -1.3130  1.2877
 3127SOL     OW10279   4.406   6.097   1.036  0.4849  0.7954 -0.0361
 3127SOL    HW110280   4.499   6.061   1.033  0.3616  0.4137  0.7283
 3127SOL    HW210281   4.404   6.180   1.092  0.8074  2.1740 -1.9318
 3128SOL     OW10282   2.117   1.364   1.218 -0.4745  0.2663  0.4814
 3128SOL    HW110283   2.088   1.382   1.312 -1.7269  2.1492 -0.1962
 3128SOL    HW210284   2.083   1.274   1.189 -0.4919 -0.1152  1.6608
 3129SOL     OW10285   3.236   4.090   2.297  0.2120 -0.1960  1.3949
 3129SOL    HW110286   3.229   4.131   2.206 -0.7904  0.6516  1.8366
 3129SOL    HW210287   3.302   4.015   2.294  2.5964  1.8022  0.7234
 3130SOL     OW10288   0.458   0.575   2.622  0.0998 -0.6809  0.2569
 3130SOL    HW110289   0.515   0.499   2.591 -1.2310 -1.8697  0.6396
 3130SOL    HW210290   0.516   0.656   2.637  1.7235 -1.9003  0.8772
 3131SOL     OW10291   5.020   3.747   6.823  0.2061 -0.0087  0.2575
 3131SOL    HW110292   5.040   3.649   6.829  2.7414  0.3985 -0.2949
 3131SOL    HW210293   5.070   3.795   6.894  1.4375  1.1314 -1.2942
 3132SOL     OW10294   4.974   3.285   0.241 -0.1519 -0.2355 -0.3966
 3132SOL    HW110295   5.048   3.344   0.272 -1.7151  1.3358  0.5493
 3132SOL    HW210296   4.906   3.341   0.193 -2.4405 -0.9065  1.8601
 3133SOL     OW10297   6.887   1.196   6.590  0.0649  0.3957 -0.0911
 3133SOL    HW110298   6.911   1.246   6.673  0.5271  0.7526 -0.4387
 3133SOL    HW210299   6.790   1.172   6.593 -0.1399  1.2252  0.1226
 3134SOL     OW10300   5.988   1.855   3.047 -0.1540  0.0361 -0.4696
 3134SOL    HW110301   6.009   1.799   3.127 -1.0992 -0.8429 -0.8186
 3134SOL    HW210302   6.042   1.939   3.050  1.1446 -0.7892  0.1748
 3135SOL     OW10303   1.555   6.075   1.029  0.2843 -0.1891 -0.2328
 3135SOL    HW110304   1.463   6.066   0.991  0.0908  1.1659 -0.1579
 3135SOL    HW210305   1.620   6.089   0.954  0.1664  0.5838 -0.2069
 3136SOL     OW10306   5.904   1.063   4.715 -0.1655 -0.4727  0.6721
 3136SOL    HW110307   5.992   1.095   4.749 -1.2552  0.7635  2.5195
 3136SOL    HW210308   5.848   1.140   4.686 -0.6284 -1.2484 -0.6165
 3137SOL     OW10309   6.292   0.181   5.615 -0.0587  0.1597  0.1909
 3137SOL    HW110310   6.240   0.262   5.589 -0.6720 -0.3800 -0.3192
 3137SOL    HW210311   6.231   0.113   5.655  0.5007  0.0625  0.8999
 3138SOL     OW10312   3.183   4.985   6.345  0.5649 -0.0474  0.5296
 3138SOL    HW110313   3.214   5.066   6.395  1.2859 -0.6634  1.1012
 3138SOL    HW210314   3.098   4.952   6.386 -1.2742  1.9927 -1.4116
 3139SOL     OW10315   1.103   0.341   3.265 -0.5769  0.1134  0.2328
 3139SOL    HW110316   1.168   0.265   3.270  0.7848  1.0689 -1.6822
 3139SOL    HW210317   1.088   0.378   3.356 -0.8533 -2.0800  1.1317
 3140SOL     OW10318   6.517   4.170   2.972 -0.0107 -0.0366  0.2895
 3140SOL    HW110319   6.543   4.246   3.031  1.2455  0.5968 -1.0027
 3140SOL    HW210320   6.442   4.119   3.013  0.9728  0.2101  2.5290
 3141SOL     OW10321   4.845   0.788   1.422  0.4478  0.0711  0.1604
 3141SOL    HW110322   4.766   0.845   1.446  0.1893  1.2246 -3.0134
 3141SOL    HW210323   4.910   0.843   1.369  1.1728 -2.0575 -1.2754
 3142SOL     OW10324   5.018   4.958   5.340  0.3136  0.8590 -0.0772
 3142SOL    HW110325   5.015   4.905   5.425 -1.5128  1.8492  0.5173
 3142SOL    HW210326   4.925   4.971   5.306  0.9652  1.1159 -1.8535
 3143SOL     OW10327   3.870   0.154   5.950 -0.3121 -0.5053  0.8028
 3143SOL    HW110328   3.902   0.081   5.890 -0.6340  2.0579 -2.8250
 3143SOL    HW210329   3.943   0.221   5.964 -0.7535 -0.2402  1.9783
 3144SOL     OW10330   3.990   3.938   2.759  0.1065 -0.1200 -0.4178
 3144SOL    HW110331   3.932   3.857   2.762  0.5750 -0.4380  0.5565
 3144SOL    HW210332   4.049   3.934   2.679  0.6503 -1.1266  0.0149
 3145SOL     OW10333   3.964   5.878   5.389  0.0599 -0.3642  0.0709
 3145SOL    HW110334   4.023   5.952   5.356 -0.4917  0.5189  0.9901
 3145SOL    HW210335   3.883   5.917   5.432 -0.5914 -1.5367 -0.0542
 3146SOL     OW10336   4.361   6.871   1.606  0.0128  0.1233  0.3273
 3146SOL    HW110337   4.417   6.947   1.640 -1.6740  1.5067  0.1359
 3146SOL    HW210338   4.418   6.789   1.600  2.0535  1.4707  0.0200
 3147SOL     OW10339   2.482   4.850   0.543  1.1620  0.0418 -0.3625
 3147SOL    HW110340   2.545   4.797   0.485  0.5575 -2.5821  1.2237
 3147SOL    HW210341   2.522   4.940   0.561  3.0825 -0.4542 -1.7547
 3148SOL     OW10342   3.472   0.528   2.208 -0.0181  0.0105 -0.0059
 3148SOL    HW110343   3.556   0.555   2.162  0.7333  2.0270  2.3551
 3148SOL    HW210344   3.451   0.432   2.186  2.8645 -0.5416 -0.6897
 3149SOL     OW10345   1.193   6.239   1.959  0.7614  0.2978 -0.0765
 3149SOL    HW110346   1.211   6.228   1.861  2.7397  0.4013  0.2326
 3149SOL    HW210347   1.214   6.153   2.006 -1.1199 -0.0614  0.1690
 3150SOL     OW10348   5.354   1.635   0.695  0.4173  0.3696 -0.3140
 3150SOL    HW110349   5.283   1.581   0.740  1.6257 -0.9562  0.0848
 3150SOL    HW210350   5.385   1.587   0.613  1.0583  0.7906 -0.3251
 3151SOL     OW10351   0.587   6.147   5.284  0.3691  0.5585 -0.5373
 3151SOL    HW110352   0.565   6.050   5.299  0.0442  0.4615 -1.5474
 3151SOL    HW210353   0.544   6.202   5.355  0.3849 -0.0150 -0.0680
 3152SOL     OW10354   2.550   0.894   0.580 -0.1967  0.4693 -0.1917
 3152SOL    HW110355   2.615   0.967   0.599  0.0573 -0.3726  2.4292
 3152SOL    HW210356   2.593   0.825   0.522  0.6257  0.8057  0.0084
 3153SOL     OW10357   1.726   5.404   0.445 -0.7541 -0.1941  0.9808
 3153SOL    HW110358   1.627   5.390   0.443 -0.8570  0.6143 -0.3406
 3153SOL    HW210359   1.750   5.482   0.388  0.5465  0.3485  2.2073
 3154SOL     OW10360   2.030   2.072   1.493 -0.4418  0.4017 -0.4625
 3154SOL    HW110361   1.992   1.986   1.457  0.8503 -0.6710  0.6241
 3154SOL    HW210362   2.129   2.072   1.482 -0.2193  0.9153  1.2285
 3155SOL     OW10363   4.248   0.487   6.913  0.1743  1.2150  0.0915
 3155SOL    HW110364   4.302   0.568   6.937 -0.3022  2.6340 -3.0817
 3155SOL    HW210365   4.296   0.435   6.842  0.4775 -1.4141  2.0687
 3156SOL     OW10366   0.193   4.633   4.067 -0.1725  0.1422  0.0264
 3156SOL    HW110367   0.274   4.604   4.119 -0.7341  2.1286  2.1499
 3156SOL    HW210368   0.222   4.679   3.983  0.8968  0.3439  0.4897
 3157SOL     OW10369   1.927   0.149   0.696 -0.4130  0.3030 -0.8260
 3157SOL    HW110370   1.911   0.142   0.794 -0.3537  1.9783 -0.6662
 3157SOL    HW210371   1.945   0.244   0.672  1.1481 -0.2834 -2.2338
 3158SOL     OW10372   1.167   0.164   3.538 -0.2112  0.0062 -0.1030
 3158SOL    HW110373   1.118   0.246   3.565  0.9153  0.2570  1.3038
 3158SOL    HW210374   1.195   0.113   3.620  0.9660 -0.6430 -0.8721
 3159SOL     OW10375   5.400   4.020   4.592 -0.8497  0.1961  0.1648
 3159SOL    HW110376   5.472   4.024   4.524 -1.7881  0.0794 -0.8652
 3159SOL    HW210377   5.432   4.060   4.678 -0.1079  1.6726 -0.7732
 3160SOL     OW10378   2.412   4.808   5.298  1.1615  0.2165  0.0580
 3160SOL    HW110379   2.371   4.768   5.216  1.8842 -0.5069  0.0343
 3160SOL    HW210380   2.449   4.898   5.277  1.0999  0.1503 -0.3423
 3161SOL     OW10381   0.538   3.438   0.270  0.4708  0.0992  0.1632
 3161SOL    HW110382   0.597   3.365   0.305 -0.0843  0.5806  2.2741
 3161SOL    HW210383   0.511   3.417   0.176  0.8511 -2.0792  0.4776
 3162SOL     OW10384   0.113   2.422   6.319  0.5915 -0.5019  0.2134
 3162SOL    HW110385   0.027   2.400   6.273  0.7845 -0.3999 -0.2024
 3162SOL    HW210386   0.183   2.443   6.251  0.9084 -0.4390  0.5525
 3163SOL     OW10387   3.272   3.775   6.792  0.0370 -0.7586  0.0211
 3163SOL    HW110388   3.219   3.807   6.870 -0.8881 -0.9913 -0.4985
 3163SOL    HW210389   3.267   3.841   6.718  1.6168 -0.1237  0.4232
 3164SOL     OW10390   5.620   3.989   5.462 -0.1201  0.3412  0.5244
 3164SOL    HW110391   5.543   3.926   5.473  0.4566 -0.3845  0.5253
 3164SOL    HW210392   5.633   4.009   5.365 -0.0207  0.0792  0.4812
 3165SOL     OW10393   0.991   0.936   6.243 -0.0619  0.0398 -0.4980
 3165SOL    HW110394   1.042   1.021   6.228 -0.7749  0.7392  0.8568
 3165SOL    HW210395   0.899   0.944   6.204 -0.6876  0.5332  0.9982
 3166SOL     OW10396   1.600   6.241   0.113  0.1610 -0.5888  0.1850
 3166SOL    HW110397   1.654   6.157   0.127 -0.2322 -0.6982  1.1057
 3166SOL    HW210398   1.657   6.320   0.135 -0.4617 -0.7607  2.6032
 3167SOL     OW10399   6.561   5.424   5.101 -0.0693 -0.1500  0.1062
 3167SOL    HW110400   6.549   5.505   5.158  0.0162 -0.2558  0.2758
 3167SOL    HW210401   6.497   5.427   5.024 -1.2972 -0.7696  1.0667
 3168SOL     OW10402   5.450   6.363   0.969  0.0419 -0.4514 -0.2290
 3168SOL    HW110403   5.406   6.451   0.952 -1.1682 -0.8445  0.7289
 3168SOL    HW210404   5.468   6.317   0.882 -1.6284 -0.3513 -0.6622
 3169SOL     OW10405   0.914   4.944   6.829  0.0972  0.2587 -0.0692
 3169SOL    HW110406   0.978   4.888   6.882 -1.1770 -1.2014  0.0041
 3169SOL    HW210407   0.884   5.021   6.884  2.6729  1.7126 -0.5297
 3170SOL     OW10408   2.229   6.877   6.893 -0.8316  0.7337  0.1607
 3170SOL    HW110409   2.310   6.818   6.896 -0.7703  0.8493  1.5627
 3170SOL    HW210410   2.235   6.945   6.966 -0.9234  2.4838 -1.3835
 3171SOL     OW10411   4.072   3.185   1.185  0.3953 -0.2040 -0.2339
 3171SOL    HW110412   4.103   3.279   1.190  0.8718 -0.2298 -2.0798
 3171SOL    HW210413   4.142   3.128   1.143 -0.3276 -1.1591 -0.1919
 3172SOL     OW10414   1.898   3.624   4.291  0.2260 -0.3281  0.6588
 3172SOL    HW110415   1.875   3.720   4.275 -0.3570 -0.6666 -0.7290
 3172SOL    HW210416   1.953   3.616   4.374 -0.8816  1.0272  1.5643
 3173SOL     OW10417   1.639   5.783   5.360  0.3329  0.0788  0.7602
 3173SOL    HW110418   1.566   5.734   5.311  1.8019 -0.8517 -0.6281
 3173SOL    HW210419   1.703   5.820   5.293  0.5546  1.8605  1.9154
 3174SOL     OW10420   3.855   5.141   0.747 -0.0824  0.3232 -0.0689
 3174SOL    HW110421   3.852   5.042   0.739  1.5807  0.3431 -1.5543
 3174SOL    HW210422   3.896   5.167   0.834 -1.7673 -0.2187  0.9444
 3175SOL     OW10423   5.090   4.280   2.183 -0.7206 -0.5773 -0.2768
 3175SOL    HW110424   5.111   4.239   2.094  0.4502  0.0690 -0.3179
 3175SOL    HW210425   5.135   4.227   2.255  0.5213  0.3782 -0.3048
 3176SOL     OW10426   1.561   6.225   6.338 -0.1538 -0.4558 -0.1929
 3176SOL    HW110427   1.648   6.275   6.347 -0.1694 -0.3599 -0.5465
 3176SOL    HW210428   1.571   6.153   6.269 -0.5230 -0.0573 -0.6761
 3177SOL     OW10429   3.828   4.985   3.597  0.2877 -0.0150 -0.4869
 3177SOL    HW110430   3.868   5.006   3.686  2.9894  3.6203 -2.2993
 3177SOL    HW210431   3.888   4.922   3.547 -2.3829 -3.9797  0.9071
 3178SOL     OW10432   3.512   5.974   1.325  0.5775 -0.0351 -0.3877
 3178SOL    HW110433   3.570   6.055   1.328  0.2369  0.2708 -1.6248
 3178SOL    HW210434   3.500   5.938   1.417  0.0870  1.7687  0.2763
 3179SOL     OW10435   4.372   6.513   3.467 -0.2272 -0.2958 -0.1922
 3179SOL    HW110436   4.446   6.572   3.434 -1.0631  1.4329  0.9154
 3179SOL    HW210437   4.394   6.482   3.560 -0.9784  0.4064  0.2275
 3180SOL     OW10438   0.152   0.751   0.667 -0.3265 -0.3482  0.4558
 3180SOL    HW110439   0.165   0.696   0.750 -1.8270 -1.4591 -0.0168
 3180SOL    HW210440   0.176   0.697   0.587  0.3187  0.4497  0.0942
 3181SOL     OW10441   2.261   1.026   5.203  0.3352 -0.1424  0.5368
 3181SOL    HW110442   2.303   0.982   5.282 -1.8306  1.2357  2.6009
 3181SOL    HW210443   2.198   0.963   5.159 -0.6045 -0.0448  1.7086
 3182SOL     OW10444   1.439   1.298   5.985 -0.5940 -0.2132 -0.8858
 3182SOL    HW110445   1.448   1.217   5.928  0.6065 -0.1882 -0.7589
 3182SOL    HW210446   1.464   1.379   5.932  1.8477 -0.3129 -0.0470
 3183SOL     OW10447   5.160   3.657   4.714  0.4993  0.3306  0.4086
 3183SOL    HW110448   5.128   3.708   4.793 -0.9704 -0.4509  0.3489
 3183SOL    HW210449   5.086   3.650   4.646  2.0305  1.9625 -1.5782
 3184SOL     OW10450   0.543   3.285   6.302  0.2309 -0.0821  0.0273
 3184SOL    HW110451   0.600   3.208   6.331 -0.1166 -0.2779  0.1838
 3184SOL    HW210452   0.450   3.274   6.336 -0.1843 -0.3068 -1.1362
 3185SOL     OW10453   6.188   5.926   3.002  0.0279  0.6673  0.2557
 3185SOL    HW110454   6.186   5.879   3.090  0.9291  1.0564  0.5064
 3185SOL    HW210455   6.178   6.024   3.016  0.2747  0.7428 -0.0597
 3186SOL     OW10456   5.755   3.133   2.913  0.0122 -0.2916 -0.0850
 3186SOL    HW110457   5.814   3.202   2.955 -1.0624  0.8294 -0.3479
 3186SOL    HW210458   5.789   3.111   2.822  0.4768 -0.2571  0.0762
 3187SOL     OW10459   1.704   5.379   3.991  0.4182 -0.0055  0.0368
 3187SOL    HW110460   1.690   5.420   3.901  0.0738  1.5768  0.7796
 3187SOL    HW210461   1.710   5.451   4.060  2.8420 -1.0481  1.0281
 3188SOL     OW10462   2.573   2.854   5.576  0.2713 -0.1069  0.5004
 3188SOL    HW110463   2.654   2.891   5.532 -0.7889 -0.8141 -2.2909
 3188SOL    HW210464   2.581   2.754   5.582 -0.6536 -0.2507 -0.4448
 3189SOL     OW10465   6.675   4.056   3.576  0.0021  0.1503 -0.4072
 3189SOL    HW110466   6.632   3.987   3.634  1.4060  1.1969  2.0044
 3189SOL    HW210467   6.605   4.118   3.541 -0.6944  0.7886  2.0013
 3190SOL     OW10468   0.206   3.587   2.206 -0.1596 -0.3329 -0.4546
 3190SOL    HW110469   0.238   3.661   2.265  0.6249 -0.7044 -0.4040
 3190SOL    HW210470   0.282   3.525   2.186 -0.1744  0.2196 -2.5262
 3191SOL     OW10471   6.138   4.148   6.519  0.2583  0.1291  0.2817
 3191SOL    HW110472   6.057   4.124   6.572  0.0920  0.1214  0.0266
 3191SOL    HW210473   6.190   4.065   6.499 -1.1672 -0.3105 -2.0050
 3192SOL     OW10474   0.883   2.491   0.930 -0.3915  0.2656  0.0106
 3192SOL    HW110475   0.829   2.566   0.967  0.7542  1.3257 -0.4163
 3192SOL    HW210476   0.951   2.463   0.997 -1.8185 -1.5154  0.8147
 3193SOL     OW10477   2.204   0.468   6.006 -0.6532  0.5837  0.2962
 3193SOL    HW110478   2.232   0.375   6.029  1.6920  0.9907 -0.6306
 3193SOL    HW210479   2.192   0.475   5.907 -2.1602  0.9708  0.4827
 3194SOL     OW10480   0.009   2.969   0.511 -0.1859  0.3229 -0.0763
 3194SOL    HW110481  -0.002   3.065   0.534  1.1022  0.0372  2.0873
 3194SOL    HW210482  -0.069   2.917   0.547 -0.3068  0.4153 -0.2048
 3195SOL     OW10483   6.935   0.328   5.137 -0.0578  0.2554 -0.0954
 3195SOL    HW110484   6.835   0.333   5.128 -0.0114 -0.7266 -1.4776
 3195SOL    HW210485   6.978   0.366   5.055  0.7364  0.9817  0.6328
 3196SOL     OW10486   0.376   0.007   2.569 -0.4102  0.2043 -0.6654
 3196SOL    HW110487   0.424  -0.061   2.513  0.1108  0.9145 -1.1055
 3196SOL    HW210488   0.443   0.064   2.617 -0.8502 -0.3698  0.6715
 3197SOL     OW10489   1.932   1.246   3.144 -0.6661 -0.2504 -0.9006
 3197SOL    HW110490   1.890   1.234   3.233  1.7021  0.1699  0.3674
 3197SOL    HW210491   1.866   1.287   3.080 -2.1146  0.3511  0.9150
 3198SOL     OW10492   0.214   0.156   5.114  0.0618  0.2092 -0.1078
 3198SOL    HW110493   0.257   0.188   5.198 -1.3259  0.9939  0.3426
 3198SOL    HW210494   0.191   0.059   5.122  1.7885 -0.2583 -0.4060
 3199SOL     OW10495   3.365   5.320   4.198 -0.2018  0.0508  0.1493
 3199SOL    HW110496   3.380   5.221   4.208  0.3355  0.0264 -0.7191
 3199SOL    HW210497   3.454   5.365   4.187  0.0219  1.2126  4.7877
 3200SOL     OW10498   3.426   5.975   2.593 -0.2663  0.0143 -0.1813
 3200SOL    HW110499   3.360   6.051   2.594 -0.4974 -0.1744 -0.7820
 3200SOL    HW210500   3.494   5.991   2.521 -0.3363 -0.3694 -0.3305
 3201SOL     OW10501   2.015   1.808   4.381 -0.1319  0.5267  0.4765
 3201SOL    HW110502   1.927   1.771   4.351 -0.3165  0.1660  1.4219
 3201SOL    HW210503   2.067   1.839   4.302 -0.5615 -0.4718 -0.2130
 3202SOL     OW10504   0.046   1.192   3.770  0.3977  0.3521  0.3837
 3202SOL    HW110505   0.143   1.172   3.756 -0.5148 -3.2595 -2.3493
 3202SOL    HW210506   0.005   1.119   3.824 -1.1426  0.8821 -0.0296
 3203SOL     OW10507   3.018   3.645   3.116 -0.2733  0.0694 -0.4240
 3203SOL    HW110508   3.059   3.702   3.187 -0.8638 -0.1820  0.1361
 3203SOL    HW210509   3.000   3.699   3.035  1.8848  0.0225 -0.9940
 3204SOL     OW10510   3.390   2.018   0.796  0.4792 -0.7106 -0.2633
 3204SOL    HW110511   3.391   2.028   0.896  3.0326 -0.5937 -0.2208
 3204SOL    HW210512   3.416   2.105   0.754 -0.1257 -0.8913 -1.0304
 3205SOL     OW10513   2.617   3.236   0.225 -0.4452 -0.0662 -0.5878
 3205SOL    HW110514   2.525   3.202   0.246  0.3623 -1.9021  0.1898
 3205SOL    HW210515   2.681   3.205   0.295  0.8880  0.7046 -1.4128
 3206SOL     OW10516   6.195   5.812   3.488  0.1285 -0.3165  0.0422
 3206SOL    HW110517   6.169   5.903   3.520  1.4097  0.4204 -0.9058
 3206SOL    HW210518   6.253   5.767   3.557  0.5707  0.1300 -0.0306
 3207SOL     OW10519   2.778   6.448   5.073  0.1149  0.3898 -0.6801
 3207SOL    HW110520   2.704   6.486   5.129 -1.0835 -0.3985 -1.6827
 3207SOL    HW210521   2.862   6.500   5.089  0.0658 -0.2522  2.4390
 3208SOL     OW10522   0.254   4.484   0.734 -0.0403  0.5425  0.3788
 3208SOL    HW110523   0.351   4.462   0.721 -0.5612 -2.0858  0.2991
 3208SOL    HW210524   0.208   4.484   0.645 -0.5325 -0.7491  0.6052
 3209SOL     OW10525   0.879   5.165   6.983  0.2240 -0.2095 -0.0803
 3209SOL    HW110526   0.934   5.189   7.062 -0.3180 -1.1458  0.6069
 3209SOL    HW210527   0.827   5.245   6.953  0.2830  0.1061  0.6398
 3210SOL     OW10528   6.781   2.870   2.878  0.0439 -0.2299  0.2794
 3210SOL    HW110529   6.746   2.778   2.897  1.6965 -0.3838  3.1369
 3210SOL    HW210530   6.731   2.937   2.933 -0.1305  0.4089 -0.6323
 3211SOL     OW10531   5.146   6.682   6.777 -0.5272 -0.1946 -0.1939
 3211SOL    HW110532   5.165   6.674   6.875  1.6342 -3.1258 -0.7090
 3211SOL    HW210533   5.218   6.737   6.734  0.9857 -2.4103 -0.6436
 3212SOL     OW10534   1.603   0.554   3.745 -0.0391  0.2595 -0.0354
 3212SOL    HW110535   1.551   0.469   3.748 -0.3069  0.3677 -1.1199
 3212SOL    HW210536   1.547   0.626   3.706  0.1187  1.0073  1.0695
 3213SOL     OW10537   4.518   3.628   6.174 -0.2354  0.2304 -0.0720
 3213SOL    HW110538   4.610   3.615   6.210 -0.7116 -0.3567  0.9971
 3213SOL    HW210539   4.503   3.567   6.096 -0.4750 -1.4419  1.2217
 3214SOL     OW10540   2.522   4.548   0.943 -0.7399 -0.1819  0.5788
 3214SOL    HW110541   2.484   4.567   0.853  4.2357  0.2874 -1.7589
 3214SOL    HW210542   2.512   4.628   1.002 -0.1029  1.2559 -1.1975
 3215SOL     OW10543   0.774   4.511   0.533 -0.0956 -0.5336  0.1897
 3215SOL    HW110544   0.766   4.420   0.572  1.5708 -1.1103 -0.7144
 3215SOL    HW210545   0.810   4.574   0.602  0.1051 -0.8875  0.4101
 3216SOL     OW10546   3.944   5.697   4.281  0.3105 -0.2759 -0.2525
 3216SOL    HW110547   3.928   5.604   4.249 -0.5708 -0.7352  1.3744
 3216SOL    HW210548   3.896   5.711   4.368  2.2882  0.9606  0.7354
 3217SOL     OW10549   5.412   0.201   5.090 -0.1951  0.6598  0.2358
 3217SOL    HW110550   5.385   0.221   4.996  0.2548 -0.3671 -0.1358
 3217SOL    HW210551   5.395   0.104   5.109  1.5687  0.3697  0.5372
 3218SOL     OW10552   5.895   5.696   4.228  0.3503 -0.2706  0.0622
 3218SOL    HW110553   5.987   5.691   4.267 -0.1857 -1.0971  1.2568
 3218SOL    HW210554   5.863   5.604   4.206  0.4512  0.1307 -1.9434
 3219SOL     OW10555   0.323   2.177   4.400 -0.2957  0.7771 -0.3446
 3219SOL    HW110556   0.244   2.120   4.379  0.0684  0.0897  0.0826
 3219SOL    HW210557   0.391   2.167   4.327 -0.1856  0.5667 -0.2156
 3220SOL     OW10558   1.738   6.153   0.829 -0.1204  0.4680  0.0637
 3220SOL    HW110559   1.664   6.161   0.763 -0.9498  1.6103  1.0857
 3220SOL    HW210560   1.821   6.196   0.792 -0.0802 -0.4005 -0.8903
 3221SOL     OW10561   1.814   0.373   2.867 -0.2434  0.1235  0.2604
 3221SOL    HW110562   1.838   0.325   2.952  2.2288 -0.8191 -0.9011
 3221SOL    HW210563   1.717   0.398   2.871 -0.4135 -0.5507  3.0177
 3222SOL     OW10564   4.489   1.354   2.523 -0.1269 -0.1292  0.5801
 3222SOL    HW110565   4.427   1.337   2.446  0.8167  0.4211 -0.3297
 3222SOL    HW210566   4.583   1.331   2.496  0.4017  1.2555  1.1457
 3223SOL     OW10567   6.456   3.105   1.011  0.0726 -0.2780  0.7200
 3223SOL    HW110568   6.417   3.193   1.038 -1.0440 -0.7604  0.7610
 3223SOL    HW210569   6.397   3.032   1.046  0.5311 -1.0105 -0.0237
 3224SOL     OW10570   1.948   0.217   3.190 -0.4172  0.0966 -0.3243
 3224SOL    HW110571   2.045   0.196   3.206 -0.3882 -0.3580 -1.0780
 3224SOL    HW210572   1.901   0.136   3.156 -1.2224  0.1263  0.6623
 3225SOL     OW10573   2.520   1.398   4.758  0.4753 -0.1623 -0.2332
 3225SOL    HW110574   2.576   1.431   4.835 -0.2251  1.5164 -0.4124
 3225SOL    HW210575   2.580   1.373   4.682  1.0321  1.9063 -0.5341
 3226SOL     OW10576   6.301   5.080   3.405  0.1744 -0.4099 -0.2105
 3226SOL    HW110577   6.356   5.161   3.385 -0.2900  0.2853  1.1869
 3226SOL    HW210578   6.358   4.998   3.396  0.8809  0.1349 -0.7793
 3227SOL     OW10579   4.927   0.316   6.356  0.4156 -0.0281 -0.2466
 3227SOL    HW110580   4.885   0.227   6.371 -0.3734  0.0066 -2.0564
 3227SOL    HW210581   5.005   0.306   6.294  0.6640  0.4605 -0.0164
 3228SOL     OW10582   0.559   2.928   4.986 -0.0294 -0.5400 -0.2885
 3228SOL    HW110583   0.551   2.984   5.068  1.4281 -0.4585 -0.1773
 3228SOL    HW210584   0.472   2.882   4.968 -0.4437 -0.3571  1.1469
 3229SOL     OW10585   5.027   1.894   2.813 -0.2350  0.2468 -0.1652
 3229SOL    HW110586   5.021   1.942   2.725  1.6029  0.4050 -0.2395
 3229SOL    HW210587   4.939   1.899   2.860 -1.1453  0.4761 -1.8246
 3230SOL     OW10588   5.625   4.162   1.245 -0.0487  0.0711 -0.5629
 3230SOL    HW110589   5.546   4.212   1.209 -0.4448  0.7940  1.2028
 3230SOL    HW210590   5.597   4.069   1.269 -1.2691  1.1286  2.7727
 3231SOL     OW10591   5.487   5.612   0.511 -0.6446  0.0520  0.9149
 3231SOL    HW110592   5.394   5.581   0.493  0.1004 -1.6722 -0.2484
 3231SOL    HW210593   5.513   5.681   0.443 -0.5996 -0.5176  0.3461
 3232SOL     OW10594   3.180   6.970   3.811  0.1895  0.4022 -0.4885
 3232SOL    HW110595   3.098   6.933   3.856  2.0170 -1.4786  1.5091
 3232SOL    HW210596   3.216   6.903   3.747  2.1822 -0.4395  1.3836
 3233SOL     OW10597   5.063   6.205   2.842  0.8996 -0.4429  0.3614
 3233SOL    HW110598   5.044   6.298   2.873 -1.6478 -0.6039 -0.4335
 3233SOL    HW210599   5.162   6.190   2.836  1.4684  3.2220 -2.4316
 3234SOL     OW10600   1.780   5.881   3.905 -0.1266 -0.4733  0.0516
 3234SOL    HW110601   1.806   5.830   3.987  0.1373  1.5677  1.3177
 3234SOL    HW210602   1.857   5.882   3.840  0.3890 -0.4252  0.6569
 3235SOL     OW10603   3.269   1.668   6.580 -0.7593 -0.3454  0.3609
 3235SOL    HW110604   3.302   1.729   6.652 -0.1234 -0.3695  0.0951
 3235SOL    HW210605   3.196   1.609   6.617  0.0625 -0.8681  1.1978
 3236SOL     OW10606   2.385   4.537   5.441 -0.5353  0.1807 -0.5124
 3236SOL    HW110607   2.393   4.451   5.391  0.4027 -0.4381  0.6516
 3236SOL    HW210608   2.422   4.611   5.385 -1.5919 -0.0918 -1.6379
 3237SOL     OW10609   1.571   2.135   2.487 -0.1100 -0.1584  0.5381
 3237SOL    HW110610   1.651   2.148   2.430  0.2077 -1.0933  0.7505
 3237SOL    HW210611   1.488   2.158   2.435  0.2697  0.4376  0.1976
 3238SOL     OW10612   4.710   2.613   0.398  0.9202  0.3928 -0.5874
 3238SOL    HW110613   4.690   2.517   0.380 -0.6541  0.6826 -0.4948
 3238SOL    HW210614   4.806   2.623   0.425  0.4988 -1.5368  2.0336
 3239SOL     OW10615   1.317   0.557   4.417 -0.2064  0.1607  0.1449
 3239SOL    HW110616   1.348   0.521   4.505 -0.4765  0.3598  0.3225
 3239SOL    HW210617   1.378   0.631   4.387  0.3485 -0.4344 -0.2199
 3240SOL     OW10618   2.632   1.920   3.534  0.2850 -0.0200 -0.4866
 3240SOL    HW110619   2.626   1.999   3.473  0.2558  0.6655  0.3859
 3240SOL    HW210620   2.542   1.878   3.543 -0.1200  0.9952  0.5090
 3241SOL     OW10621   0.562   3.181   2.402 -0.1104 -0.0400  0.0803
 3241SOL    HW110622   0.511   3.245   2.460 -2.4337  0.0738 -1.9448
 3241SOL    HW210623   0.624   3.232   2.343 -0.1863  0.1400  0.1546
 3242SOL     OW10624   3.355   5.319   3.139  0.1469 -0.1040  0.5838
 3242SOL    HW110625   3.448   5.355   3.137  0.9296 -2.0288  0.5563
 3242SOL    HW210626   3.315   5.326   3.047  0.5780 -0.0384  0.3972
 3243SOL     OW10627   4.273   5.016   5.259 -0.3988  0.0262  0.1137
 3243SOL    HW110628   4.297   4.934   5.207 -1.8268 -0.4674  0.1900
 3243SOL    HW210629   4.353   5.076   5.265  0.7865 -1.4954  0.3339
 3244SOL     OW10630   2.018   2.990   1.171 -0.0959  0.3709 -0.4591
 3244SOL    HW110631   2.023   3.034   1.081 -1.3263 -0.7948 -1.1462
 3244SOL    HW210632   2.099   2.932   1.183 -0.6763 -0.7198 -1.5497
 3245SOL     OW10633   1.114   3.436   5.492  0.1899 -0.0900  0.0089
 3245SOL    HW110634   1.204   3.414   5.454  0.3616 -1.0070  0.8836
 3245SOL    HW210635   1.043   3.404   5.430  0.4687 -0.2182 -0.2502
 3246SOL     OW10636   6.447   2.973   4.397  0.7091 -1.0313 -0.0145
 3246SOL    HW110637   6.514   3.011   4.333  0.3359 -2.3044 -1.2382
 3246SOL    HW210638   6.354   2.998   4.367  0.5587 -1.0359  0.4434
 3247SOL     OW10639   6.671   5.403   2.434  0.3173  0.4346  0.4225
 3247SOL    HW110640   6.598   5.465   2.405  0.4646  0.8859  0.9858
 3247SOL    HW210641   6.693   5.340   2.360 -0.6739  0.2618  0.2714
 3248SOL     OW10642   2.974   3.309   6.314 -0.2547  0.3092  0.2547
 3248SOL    HW110643   3.040   3.377   6.283  0.0844  0.5438  1.4636
 3248SOL    HW210644   2.975   3.231   6.252  1.1281  0.3237  0.2443
 3249SOL     OW10645   1.044   6.838   4.951 -0.2969  0.3925 -0.2764
 3249SOL    HW110646   1.116   6.850   4.883 -0.1814 -0.3168 -0.2854
 3249SOL    HW210647   1.085   6.806   5.037 -0.6188 -0.1928 -0.3374
 3250SOL     OW10648   2.414   1.940   5.368 -0.1120  0.1259 -0.5282
 3250SOL    HW110649   2.462   1.879   5.431 -0.5133 -1.5443 -1.7411
 3250SOL    HW210650   2.474   2.015   5.341  1.2419 -0.9892 -0.7312
 3251SOL     OW10651   6.732   6.524   4.411  0.9927  0.2339 -0.5002
 3251SOL    HW110652   6.681   6.468   4.476  2.6283  0.6634  1.2459
 3251SOL    HW210653   6.786   6.465   4.351 -0.4383 -0.1623 -1.4364
 3252SOL     OW10654   0.226   0.725   4.915  0.2326  0.3060 -0.0468
 3252SOL    HW110655   0.221   0.711   4.816  0.8443 -0.2354 -0.0046
 3252SOL    HW210656   0.135   0.748   4.950  0.1444  1.2322 -0.8362
 3253SOL     OW10657   5.956   6.962   0.913  0.2609 -0.1922 -0.3746
 3253SOL    HW110658   5.898   6.957   0.832  1.0426 -0.4725 -0.9235
 3253SOL    HW210659   5.940   6.882   0.971 -1.8924  1.0269  0.8806
 3254SOL     OW10660   4.541   6.037   7.003  0.1647 -0.4526 -0.5539
 3254SOL    HW110661   4.601   6.082   6.936 -1.1906 -0.7891 -2.0742
 3254SOL    HW210662   4.482   6.105   7.047  0.7217 -0.2904 -0.0519
 3255SOL     OW10663   1.596   1.568   3.232 -0.3845  0.2107  0.1253
 3255SOL    HW110664   1.534   1.642   3.256  0.8765  1.2202  0.3839
 3255SOL    HW210665   1.669   1.603   3.173  0.7170 -0.6150  0.9502
 3256SOL     OW10666   0.356   2.010   4.133 -0.1062  0.3842 -0.7692
 3256SOL    HW110667   0.288   2.013   4.206  0.0688  0.0489 -0.5849
 3256SOL    HW210668   0.411   2.093   4.134 -0.0232  0.3273 -0.4347
 3257SOL     OW10669   6.235   6.393   4.535 -0.3909 -0.3211  0.5457
 3257SOL    HW110670   6.264   6.331   4.462  0.0492  0.8593 -0.3195
 3257SOL    HW210671   6.142   6.369   4.565 -0.0670 -1.6388  0.5352
 3258SOL     OW10672   0.517   5.156   5.385  0.2955  0.5051 -0.0408
 3258SOL    HW110673   0.582   5.099   5.434  0.8795  0.7251 -0.5502
 3258SOL    HW210674   0.481   5.227   5.447 -0.1850 -0.1971  0.4970
 3259SOL     OW10675   0.505   2.857   6.891 -0.3158 -0.4719 -0.3560
 3259SOL    HW110676   0.416   2.860   6.938  0.1664  0.3366  0.5409
 3259SOL    HW210677   0.576   2.892   6.952  0.4614 -0.1505 -1.4124
 3260SOL     OW10678   6.269   3.112   0.552 -0.8979 -0.6281 -0.1876
 3260SOL    HW110679   6.192   3.161   0.591  0.6595 -0.5991  3.2062
 3260SOL    HW210680   6.354   3.162   0.571  0.3610 -2.7134  0.0395
 3261SOL     OW10681   4.330   1.914   0.186 -0.2799 -0.3642 -0.0277
 3261SOL    HW110682   4.329   1.895   0.284 -1.9813  0.5255  0.1671
 3261SOL    HW210683   4.316   1.829   0.135  0.6626 -0.8343  0.4883
 3262SOL     OW10684   0.633   3.637   5.729 -0.0628  0.2918  0.5930
 3262SOL    HW110685   0.607   3.679   5.642  0.4699 -1.2530 -0.3426
 3262SOL    HW210686   0.646   3.539   5.717  1.5360  0.2587  2.0666
 3263SOL     OW10687   2.760   1.687   3.920  0.2986  0.7450 -0.4303
 3263SOL    HW110688   2.811   1.688   3.834 -0.5403 -1.5258 -1.0303
 3263SOL    HW210689   2.722   1.596   3.935 -3.2324  2.1550  0.1796
 3264SOL     OW10690   6.295   5.654   5.507 -0.0302  0.2144  0.3357
 3264SOL    HW110691   6.346   5.734   5.536 -1.3263  0.5427  1.8616
 3264SOL    HW210692   6.342   5.571   5.537  1.5050  0.3120 -1.5600
 3265SOL     OW10693   0.584   3.973   2.234 -0.2409 -0.7012 -0.3740
 3265SOL    HW110694   0.607   4.056   2.284 -2.0141  0.6575 -1.6908
 3265SOL    HW210695   0.600   3.893   2.293  1.0527  0.5671  1.0803
 3266SOL     OW10696   5.007   1.921   6.093  0.4661 -0.3822  0.6827
 3266SOL    HW110697   5.052   1.967   6.169  0.6574  1.7048 -0.6296
 3266SOL    HW210698   4.910   1.948   6.091  0.8904  1.1523 -0.9229
 3267SOL     OW10699   1.013   3.914   1.167 -0.6425 -0.2987  0.2996
 3267SOL    HW110700   1.029   3.836   1.108 -2.2287 -0.5130  0.1040
 3267SOL    HW210701   0.917   3.941   1.162 -0.6755  0.1441  2.2150
 3268SOL     OW10702   2.085   5.421   2.038  0.0970 -0.4448  0.1382
 3268SOL    HW110703   2.099   5.343   1.977  0.7729  0.0783 -0.3905
 3268SOL    HW210704   2.173   5.463   2.058 -0.2302 -0.0267  0.6972
 3269SOL     OW10705   6.854   4.736   6.612 -0.4817 -0.9064 -0.4376
 3269SOL    HW110706   6.886   4.646   6.584 -1.2240 -1.1482 -0.5060
 3269SOL    HW210707   6.848   4.796   6.532 -0.3097 -0.8908 -0.4399
 3270SOL     OW10708   1.880   5.112   0.668  0.3464  0.0973 -0.1369
 3270SOL    HW110709   1.881   5.018   0.701 -1.4002  0.1686  0.2421
 3270SOL    HW210710   1.962   5.160   0.698 -0.5531 -0.1744  3.1622
 3271SOL     OW10711   6.447   6.633   3.049 -0.0464  0.1628 -0.4304
 3271SOL    HW110712   6.543   6.652   3.030 -0.3705  1.5594 -0.8409
 3271SOL    HW210713   6.439   6.579   3.133  1.0550  0.7530  0.0749
 3272SOL     OW10714   3.517   2.376   6.717 -0.2710  0.1997  0.4754
 3272SOL    HW110715   3.432   2.385   6.767 -0.6065 -5.1218  1.5067
 3272SOL    HW210716   3.588   2.340   6.777  1.3888  0.2092 -1.3532
 3273SOL     OW10717   3.711   2.443   0.152 -0.4808 -0.2099  0.1785
 3273SOL    HW110718   3.710   2.425   0.250 -0.6602  2.2918  0.7106
 3273SOL    HW210719   3.756   2.531   0.135 -0.9053 -0.3572 -1.9362
 3274SOL     OW10720   6.965   5.743   1.210 -0.0756 -0.2889 -0.1802
 3274SOL    HW110721   6.900   5.672   1.237  0.8447 -0.9215  0.4170
 3274SOL    HW210722   6.955   5.761   1.112  0.3576 -1.9743 -0.5733
 3275SOL     OW10723   6.738   2.255   3.392 -0.1182 -0.6226  0.0114
 3275SOL    HW110724   6.754   2.285   3.298 -0.1937  1.0500  0.5083
 3275SOL    HW210725   6.651   2.207   3.397  0.7201 -2.3767 -1.0971
 3276SOL     OW10726   5.843   0.786   2.009  0.3574  0.1145 -0.1719
 3276SOL    HW110727   5.924   0.802   2.067  1.6233 -0.9261 -1.5890
 3276SOL    HW210728   5.802   0.698   2.033 -0.6874  0.8442  0.8596
 3277SOL     OW10729   4.599   5.567   5.833  0.0970 -0.8560 -0.4650
 3277SOL    HW110730   4.567   5.605   5.746 -1.2039 -0.3860  0.1968
 3277SOL    HW210731   4.520   5.549   5.892  1.0655  1.0137  1.5235
 3278SOL     OW10732   4.370   0.738   6.993 -0.3422 -0.2928 -0.5420
 3278SOL    HW110733   4.414   0.754   7.081 -2.9289 -1.0458  0.9770
 3278SOL    HW210734   4.358   0.825   6.945  2.3882 -0.0297 -0.9005
 3279SOL     OW10735   3.830   2.942   2.755 -0.4220 -0.2906 -0.0022
 3279SOL    HW110736   3.742   2.905   2.782 -0.7751 -0.3409 -1.1576
 3279SOL    HW210737   3.833   2.951   2.655  1.2298 -1.2135 -0.0751
 3280SOL     OW10738   4.885   1.644   0.945 -0.2222  0.3854 -0.1731
 3280SOL    HW110739   4.859   1.548   0.958 -1.9426  0.8648  0.1129
 3280SOL    HW210740   4.861   1.697   1.026 -2.5774  1.6908 -1.6205
 3281SOL     OW10741   6.768   6.599   6.189 -0.7719  0.1362  0.0649
 3281SOL    HW110742   6.770   6.517   6.132 -2.8054  2.0817 -3.1443
 3281SOL    HW210743   6.860   6.616   6.226 -0.0836 -2.9669  0.0675
 3282SOL     OW10744   1.189   4.890   6.448 -0.6185  0.2510 -0.2216
 3282SOL    HW110745   1.100   4.873   6.407 -0.1132  0.6475 -1.5237
 3282SOL    HW210746   1.261   4.866   6.383  0.1881  3.1670 -0.5513
 3283SOL     OW10747   6.429   0.102   3.529 -0.1360 -0.3425  0.0809
 3283SOL    HW110748   6.367   0.030   3.497  1.0739 -0.9260 -1.0481
 3283SOL    HW210749   6.512   0.060   3.567  0.1977  0.4391  0.2333
 3284SOL     OW10750   0.664   3.883   3.278  0.0203  0.6780 -0.3195
 3284SOL    HW110751   0.762   3.891   3.295  0.0332 -0.5376  0.2804
 3284SOL    HW210752   0.641   3.787   3.265 -1.4671  0.6831  1.8928
 3285SOL     OW10753   1.458   4.206   0.429 -0.0332  0.0425 -0.4023
 3285SOL    HW110754   1.372   4.231   0.383  0.0549 -0.3953 -0.8218
 3285SOL    HW210755   1.525   4.279   0.416  0.7060 -0.9473 -2.8857
 3286SOL     OW10756   2.154   1.662   2.244 -0.7799 -0.0988 -0.0119
 3286SOL    HW110757   2.224   1.685   2.175 -1.7450 -0.0019 -0.9819
 3286SOL    HW210758   2.191   1.594   2.307  0.0400 -0.4008 -0.7900
 3287SOL     OW10759   2.861   1.319   3.320  0.1180  0.0866  0.4575
 3287SOL    HW110760   2.922   1.395   3.300 -0.6396  0.3833 -0.8335
 3287SOL    HW210761   2.771   1.354   3.346 -0.3812 -0.3501 -0.6268
 3288SOL     OW10762   5.115   5.230   6.365 -0.0981  0.3444 -0.1929
 3288SOL    HW110763   5.139   5.321   6.401  0.5193  0.3117 -0.5074
 3288SOL    HW210764   5.112   5.234   6.265  0.6789 -0.1533 -0.2445
 3289SOL     OW10765   2.833   3.828   5.322  0.5049  0.2143  0.4838
 3289SOL    HW110766   2.894   3.856   5.396  3.0390 -3.4080  0.0290
 3289SOL    HW210767   2.885   3.819   5.237 -1.6033  0.9357 -0.9721
 3290SOL     OW10768   5.764   6.453   4.916 -0.3416  0.2449  0.0096
 3290SOL    HW110769   5.702   6.397   4.972 -0.4001  0.5925  0.2925
 3290SOL    HW210770   5.824   6.392   4.863  0.2624 -0.0988  1.0547
 3291SOL     OW10771   1.307   0.179   3.324 -0.0149 -0.0060 -0.5791
 3291SOL    HW110772   1.247   0.176   3.403 -0.5746  1.2510 -0.9288
 3291SOL    HW210773   1.401   0.195   3.353 -0.3844  1.6523 -0.2013
 3292SOL     OW10774   3.646   3.332   4.901 -0.4128 -0.3175  0.4754
 3292SOL    HW110775   3.689   3.340   4.812 -0.3646  0.6527  0.5774
 3292SOL    HW210776   3.612   3.421   4.931 -1.4786 -0.8447  0.9091
 3293SOL     OW10777   6.933   0.131   4.620  0.3393  0.3906  0.4651
 3293SOL    HW110778   7.001   0.126   4.693  0.7174  1.4926  0.2093
 3293SOL    HW210779   6.937   0.048   4.565  1.2369  0.2934  0.6580
 3294SOL     OW10780   5.003   2.830   3.680 -0.1779  0.3079 -0.5293
 3294SOL    HW110781   4.917   2.783   3.703  0.1949 -0.7855 -1.2961
 3294SOL    HW210782   5.045   2.863   3.764 -1.8060  1.7199 -0.2087
 3295SOL     OW10783   1.257   3.210   0.544 -0.1549  0.0282 -0.0311
 3295SOL    HW110784   1.268   3.266   0.626 -0.0070 -0.2179  0.1194
 3295SOL    HW210785   1.342   3.212   0.491 -0.5285  0.8877 -0.6313
 3296SOL     OW10786   3.852   3.358   4.308 -0.3232  0.2744  0.7055
 3296SOL    HW110787   3.946   3.382   4.288 -0.7840  1.4787 -0.1344
 3296SOL    HW210788   3.796   3.441   4.312 -1.2237 -0.3450  1.9288
 3297SOL     OW10789   5.121   3.354   1.127  0.2483  0.5623 -0.0455
 3297SOL    HW110790   5.125   3.266   1.174 -0.7872  0.5196 -0.0174
 3297SOL    HW210791   5.152   3.343   1.032 -2.1660 -0.4085 -0.8170
 3298SOL     OW10792   6.042   1.151   1.161  0.3241  0.0318  0.4696
 3298SOL    HW110793   6.086   1.085   1.222 -0.6876  0.2992  1.5129
 3298SOL    HW210794   5.948   1.166   1.190  0.1814  1.0638 -0.4673
 3299SOL     OW10795   4.764   0.104   3.904 -0.1136  0.2540  0.4063
 3299SOL    HW110796   4.793   0.062   3.819 -1.0319  0.4170 -0.0020
 3299SOL    HW210797   4.767   0.036   3.978 -0.0272 -0.0848  0.0901
 3300SOL     OW10798   2.964   0.671   3.220 -0.1369  0.1125 -0.3239
 3300SOL    HW110799   3.028   0.644   3.148 -0.7120 -0.8427 -0.4983
 3300SOL    HW210800   2.988   0.762   3.253 -0.8440  1.3350 -2.8836
 3301SOL     OW10801   1.258   6.038   6.078  0.4258 -0.4695 -0.5776
 3301SOL    HW110802   1.242   5.987   6.163  2.0444  0.1196  0.1161
 3301SOL    HW210803   1.181   6.023   6.016  0.4495 -3.1053 -0.1048
 3302SOL     OW10804   3.796   1.763   6.973  0.1769  0.0922  0.2045
 3302SOL    HW110805   3.815   1.718   6.885  0.4057  0.9214 -0.1800
 3302SOL    HW210806   3.791   1.862   6.959  0.8517  0.2836  1.2352
 3303SOL     OW10807   5.071   3.868   1.158 -0.3841  0.2012 -0.0250
 3303SOL    HW110808   5.105   3.777   1.184 -0.2289 -0.4960 -2.4356
 3303SOL    HW210809   4.982   3.859   1.114  0.0653  1.0956 -1.1653
 3304SOL     OW10810   3.458   1.828   2.608 -0.3506  0.0696  0.8444
 3304SOL    HW110811   3.365   1.865   2.611  0.6125  2.8139  0.1658
 3304SOL    HW210812   3.467   1.766   2.531 -1.1374  1.3474 -0.3238
 3305SOL     OW10813   5.602   5.226   1.183  0.4615  0.2690 -0.9340
 3305SOL    HW110814   5.636   5.286   1.110 -0.0466  1.4000 -0.2718
 3305SOL    HW210815   5.523   5.174   1.149  0.1074  0.9276 -1.1593
 3306SOL     OW10816   5.974   3.035   4.356  0.1805  0.1904 -0.5271
 3306SOL    HW110817   5.898   2.971   4.361  0.2571  0.1713  0.7974
 3306SOL    HW210818   5.939   3.128   4.349  0.0594  0.0145 -3.6538
 3307SOL     OW10819   6.691   3.865   1.496  0.2470  0.3950 -0.3265
 3307SOL    HW110820   6.623   3.929   1.532 -1.4915 -1.6190  0.1336
 3307SOL    HW210821   6.776   3.875   1.547 -0.4298  1.3538  0.6712
 3308SOL     OW10822   6.341   4.480   4.796  0.6723 -0.0356  0.3193
 3308SOL    HW110823   6.407   4.419   4.840  0.7371 -0.2273 -0.0418
 3308SOL    HW210824   6.390   4.546   4.739  0.5472 -0.3164 -0.1228
 3309SOL     OW10825   3.379   0.966   2.898 -0.2002 -0.2426 -0.0143
 3309SOL    HW110826   3.287   0.955   2.936 -0.4398  1.3238 -0.0640
 3309SOL    HW210827   3.425   1.043   2.943  1.0117 -0.8638 -0.1509
 3310SOL     OW10828   6.016   0.805   6.159  0.4207 -0.0974 -0.0726
 3310SOL    HW110829   5.940   0.869   6.146  0.4256 -0.3120 -1.3047
 3310SOL    HW210830   5.984   0.712   6.138  0.0456 -0.7655  2.9248
 3311SOL     OW10831   4.806   4.174   3.383  0.3107 -0.1445 -0.4257
 3311SOL    HW110832   4.716   4.201   3.419  0.7864  0.6480  0.1932
 3311SOL    HW210833   4.819   4.215   3.292 -0.6284 -1.6279 -1.2642
 3312SOL     OW10834   3.387   4.057   5.481 -0.0603  0.5386 -0.3774
 3312SOL    HW110835   3.327   4.085   5.556  1.5434 -1.3057  1.7308
 3312SOL    HW210836   3.341   3.988   5.426 -1.0825  1.5754 -0.8737
 3313SOL     OW10837   4.264   0.943   6.149  0.2963  0.2203 -0.2796
 3313SOL    HW110838   4.288   1.035   6.117 -0.2144  0.2729 -0.5162
 3313SOL    HW210839   4.164   0.932   6.148  0.3837 -0.5459 -0.8211
 3314SOL     OW10840   1.289   5.722   2.424  0.1996 -0.4734  0.4057
 3314SOL    HW110841   1.204   5.767   2.452  1.8526  1.6178  2.4535
 3314SOL    HW210842   1.321   5.664   2.499  1.1590 -0.3316  0.1104
 3315SOL     OW10843   3.903   0.296   5.118  0.5070  0.3120  0.0506
 3315SOL    HW110844   3.926   0.296   5.021 -1.7895  1.4244 -0.5672
 3315SOL    HW210845   3.968   0.239   5.168  2.0072  0.0697 -2.0540
 3316SOL     OW10846   5.042   2.870   4.176  0.1938  0.1822 -0.1010
 3316SOL    HW110847   5.075   2.788   4.130  0.0120  0.1043 -0.0950
 3316SOL    HW210848   5.083   2.877   4.267 -0.1350 -0.1477  0.0773
 3317SOL     OW10849   1.877   5.138   5.874 -0.1603  0.0513 -0.2749
 3317SOL    HW110850   1.863   5.077   5.952  1.3594 -0.0647 -0.0635
 3317SOL    HW210851   1.954   5.199   5.893 -0.4881  0.7897 -1.2380
 3318SOL     OW10852   2.778   1.295   5.509  0.0663 -0.1709  0.1890
 3318SOL    HW110853   2.785   1.204   5.549 -0.5289 -0.3627 -0.1264
 3318SOL    HW210854   2.736   1.358   5.575 -1.1812 -0.5538 -0.2178
 3319SOL     OW10855   6.791   4.098   0.558  0.0785  0.5784  0.2020
 3319SOL    HW110856   6.790   4.106   0.458  0.0614  2.1055  0.2969
 3319SOL    HW210857   6.831   4.181   0.597 -1.2686  0.6378  1.5221
 3320SOL     OW10858   0.881   0.008   0.533 -0.7373 -0.5635  0.1872
 3320SOL    HW110859   0.871   0.097   0.488  0.6707 -0.5789 -0.2007
 3320SOL    HW210860   0.892  -0.063   0.463 -0.9060 -0.9222  0.5227
 3321SOL     OW10861   2.355   3.898   0.772 -0.1581  0.0866  0.6211
 3321SOL    HW110862   2.279   3.945   0.727 -0.3549 -1.0306 -0.2657
 3321SOL    HW210863   2.442   3.936   0.740 -0.3208  0.2865  0.4125
 3322SOL     OW10864   4.444   1.369   0.366  0.2418  0.1367 -0.2808
 3322SOL    HW110865   4.456   1.287   0.309  0.0763  0.0166 -0.1412
 3322SOL    HW210866   4.461   1.450   0.310 -0.9241  0.0568 -0.7684
 3323SOL     OW10867   5.595   2.622   2.769  0.5862 -0.6655 -0.3997
 3323SOL    HW110868   5.569   2.541   2.821 -2.1108 -0.9686 -1.9782
 3323SOL    HW210869   5.521   2.689   2.773  3.2013  2.3645  1.8360
 3324SOL     OW10870   0.276   3.007   3.252 -0.2976  0.3105  0.7595
 3324SOL    HW110871   0.229   2.970   3.172  0.1906  0.7056  0.2795
 3324SOL    HW210872   0.372   2.981   3.249 -0.7258 -1.6909  2.4608
 3325SOL     OW10873   2.124   5.658   0.340  0.5495 -0.0240  0.2085
 3325SOL    HW110874   2.071   5.697   0.265  0.6607  0.1012  0.1951
 3325SOL    HW210875   2.213   5.703   0.346  1.1465 -1.0594 -0.5473
 3326SOL     OW10876   1.020   2.414   6.805  0.0776 -0.2627  0.5433
 3326SOL    HW110877   1.078   2.337   6.779 -1.5527 -1.0004 -1.1273
 3326SOL    HW210878   0.950   2.383   6.870 -0.6906 -0.2632 -0.2668
 3327SOL     OW10879   5.899   6.350   2.261 -0.2739 -0.2871  0.3126
 3327SOL    HW110880   5.993   6.364   2.230  0.5236 -3.3729  1.0122
 3327SOL    HW210881   5.899   6.319   2.356 -1.9499 -0.7335  0.2082
 3328SOL     OW10882   6.667   0.101   6.592  0.3170 -0.1248 -0.6556
 3328SOL    HW110883   6.716   0.036   6.533 -1.5861 -1.2812 -1.0375
 3328SOL    HW210884   6.600   0.151   6.538 -1.4800 -1.2199  0.4370
 3329SOL     OW10885   6.327   0.190   4.536  0.0769 -0.1917 -0.0946
 3329SOL    HW110886   6.359   0.116   4.477  0.1927 -0.7256  0.6209
 3329SOL    HW210887   6.298   0.152   4.625  0.3347  0.6435  0.3557
 3330SOL     OW10888   3.807   3.988   5.836  0.5876  0.2608 -0.0584
 3330SOL    HW110889   3.717   4.025   5.813  0.5897 -0.5893 -1.5598
 3330SOL    HW210890   3.870   4.002   5.760  1.7375  0.7979  0.9470
 3331SOL     OW10891   4.915   3.605   3.413 -0.9025 -0.4147  0.6425
 3331SOL    HW110892   4.920   3.705   3.426 -1.8318 -0.0757 -1.2596
 3331SOL    HW210893   4.916   3.585   3.316 -0.2968 -2.3309  1.0091
 3332SOL     OW10894   5.964   1.996   3.748 -0.1657 -0.8968  0.4585
 3332SOL    HW110895   6.039   1.944   3.788  1.8547  1.7390  0.3172
 3332SOL    HW210896   5.991   2.030   3.658 -1.7766 -0.3435  0.1524
 3333SOL     OW10897   1.984   1.700   2.606  0.2101  0.1991 -0.4972
 3333SOL    HW110898   2.056   1.750   2.655 -1.2868  2.0135 -0.0435
 3333SOL    HW210899   1.925   1.765   2.559  2.3023 -1.3205 -6.1279
 3334SOL     OW10900   4.763   5.387   4.640  0.1884  0.7702  0.3568
 3334SOL    HW110901   4.781   5.454   4.712 -0.1962 -0.9614  2.1114
 3334SOL    HW210902   4.848   5.369   4.590  0.7525  1.0256  1.2024
 3335SOL     OW10903   3.456   2.690   6.270 -0.0940  0.0700 -0.1410
 3335SOL    HW110904   3.455   2.606   6.324  2.7015  0.7236  1.1280
 3335SOL    HW210905   3.479   2.668   6.175 -3.4075 -0.9093 -0.8571
 3336SOL     OW10906   6.685   3.941   5.972 -0.6095 -0.5127  0.1182
 3336SOL    HW110907   6.776   3.920   6.006 -0.9577 -0.7736  0.9041
 3336SOL    HW210908   6.676   4.040   5.961 -0.0003 -0.5306 -0.6500
 3337SOL     OW10909   4.946   6.801   6.507 -0.2960  0.3713  0.1542
 3337SOL    HW110910   4.898   6.759   6.429  0.0302  0.6249 -0.1817
 3337SOL    HW210911   4.916   6.756   6.591 -1.3504  0.7118 -0.0134
 3338SOL     OW10912   2.059   6.428   1.929  0.0038  0.1418  0.4249
 3338SOL    HW110913   1.969   6.421   1.887 -0.2574 -0.5154  1.0655
 3338SOL    HW210914   2.118   6.354   1.895  0.0469  0.0975  0.5902
 3339SOL     OW10915   3.685   3.732   5.065  0.1133 -0.2191  0.1691
 3339SOL    HW110916   3.649   3.649   5.108 -0.7942  0.9990  1.8636
 3339SOL    HW210917   3.714   3.796   5.136 -0.7983  1.6109 -1.0497
 3340SOL     OW10918   4.816   4.409   2.145  0.5183 -0.2805 -0.4772
 3340SOL    HW110919   4.736   4.389   2.088  1.3167  0.4736 -1.9097
 3340SOL    HW210920   4.888   4.343   2.125  0.1624 -1.1939  1.0866
 3341SOL     OW10921   3.288   0.419   1.135  0.4175  0.1573 -0.5650
 3341SOL    HW110922   3.236   0.399   1.218  1.0794 -0.7682 -0.3517
 3341SOL    HW210923   3.227   0.411   1.056  0.2160 -0.9195 -0.3215
 3342SOL     OW10924   6.902   1.538   0.975  0.1738 -0.8754  0.0230
 3342SOL    HW110925   6.866   1.481   1.050  2.0731 -2.3579 -0.1254
 3342SOL    HW210926   6.839   1.613   0.958 -0.9794 -1.2544  2.2171
 3343SOL     OW10927   6.916   3.481   0.902  0.3246 -0.4036  0.3212
 3343SOL    HW110928   6.828   3.436   0.916 -1.1167  1.9186 -0.6143
 3343SOL    HW210929   6.989   3.413   0.901 -1.5235 -2.4924  0.3928
 3344SOL     OW10930   6.133   6.912   6.546  0.1992 -0.0487  0.1642
 3344SOL    HW110931   6.040   6.947   6.554 -0.2452 -1.2633  0.5383
 3344SOL    HW210932   6.197   6.988   6.543 -0.7045  0.7848  1.2986
 3345SOL     OW10933   2.862   4.904   0.284 -0.4260 -0.0201 -0.3590
 3345SOL    HW110934   2.892   4.958   0.205  0.7869 -1.1301 -0.6986
 3345SOL    HW210935   2.908   4.937   0.367 -0.8738  0.4477 -0.2917
 3346SOL     OW10936   4.381   0.182   2.716 -0.4256  0.0099  0.2035
 3346SOL    HW110937   4.448   0.113   2.743 -0.3628  0.4535  1.2337
 3346SOL    HW210938   4.391   0.262   2.774 -0.7706  0.7301 -0.7143
 3347SOL     OW10939   2.290   5.862   0.183  0.0573  0.5943 -0.7597
 3347SOL    HW110940   2.374   5.897   0.142  0.2511  1.2442  0.1793
 3347SOL    HW210941   2.226   5.938   0.198  0.7584  0.7484  1.9768
 3348SOL     OW10942   3.901   3.501   3.452 -0.2190 -0.0881  0.2054
 3348SOL    HW110943   3.989   3.490   3.405  0.0240 -1.4461  0.9244
 3348SOL    HW210944   3.833   3.537   3.388  1.1168  2.1631 -0.0638
 3349SOL     OW10945   6.417   5.483   3.605 -0.3200 -0.2950 -0.6951
 3349SOL    HW110946   6.478   5.509   3.531 -0.9408  0.3276 -1.0051
 3349SOL    HW210947   6.322   5.488   3.573 -0.6185  0.3561  0.2488
 3350SOL     OW10948   4.828   5.588   6.674  0.0900  0.3708 -0.0926
 3350SOL    HW110949   4.770   5.668   6.659  0.0501  0.5202  0.7732
 3350SOL    HW210950   4.778   5.505   6.648 -0.6873  0.4669  1.0265
 3351SOL     OW10951   1.207   0.167   2.563  0.7791 -0.5970  0.1078
 3351SOL    HW110952   1.162   0.174   2.652 -1.2807 -2.2615 -0.7187
 3351SOL    HW210953   1.266   0.246   2.549 -0.2015  0.5793  2.1949
 3352SOL     OW10954   4.752   3.604   0.492  0.6063  0.7657 -0.2479
 3352SOL    HW110955   4.735   3.513   0.455 -1.6784  0.9689  0.2164
 3352SOL    HW210956   4.805   3.597   0.576 -1.4176 -0.3497  0.9950
 3353SOL     OW10957   1.703   6.430   0.656  0.1762  0.3442  0.3404
 3353SOL    HW110958   1.638   6.366   0.616 -0.3443  1.8877 -1.4582
 3353SOL    HW210959   1.762   6.467   0.584 -0.4903  2.9149  0.9984
 3354SOL     OW10960   6.205   6.890   5.079 -0.2327 -0.0889  0.2675
 3354SOL    HW110961   6.228   6.987   5.075  1.3488 -0.4442 -0.1082
 3354SOL    HW210962   6.113   6.876   5.042 -0.8219  1.3463  1.1150
 3355SOL     OW10963   0.986   2.820   6.339 -0.0619 -0.3920 -0.3745
 3355SOL    HW110964   1.025   2.744   6.288  0.4746 -0.0469 -0.4848
 3355SOL    HW210965   0.888   2.806   6.350  0.3212 -2.1711  1.4264
 3356SOL     OW10966   1.881   1.112   5.186 -0.5149 -0.0623  0.5605
 3356SOL    HW110967   1.887   1.023   5.232 -0.7776  0.0997  0.9067
 3356SOL    HW210968   1.920   1.183   5.244  0.7751 -0.1231 -0.2072
 3357SOL     OW10969   4.916   3.285   3.039  0.3126  0.3776  0.2721
 3357SOL    HW110970   4.872   3.227   2.970  1.9317 -0.1680 -0.3472
 3357SOL    HW210971   4.908   3.242   3.129  1.6121 -0.9164 -0.2024
 3358SOL     OW10972   0.418   6.186   1.419 -0.6281 -0.0731 -0.1742
 3358SOL    HW110973   0.459   6.180   1.327  1.3018  0.8507  0.5608
 3358SOL    HW210974   0.425   6.097   1.464 -0.0377 -0.1114 -0.3270
 3359SOL     OW10975   2.721   0.191   3.939  0.1420 -0.1230 -0.7439
 3359SOL    HW110976   2.758   0.115   3.992 -0.6941  1.1378  1.7934
 3359SOL    HW210977   2.636   0.163   3.895 -0.3472 -0.6143  0.4579
 3360SOL     OW10978   0.739   0.249   1.041  0.2769  0.0329 -0.1852
 3360SOL    HW110979   0.677   0.324   1.067 -1.8373 -0.4231 -3.3318
 3360SOL    HW210980   0.816   0.286   0.990  1.7376  0.4088  2.1495
 3361SOL     OW10981   3.256   2.106   1.021  0.9675  0.1584  0.0067
 3361SOL    HW110982   3.203   2.022   1.007  1.7287 -0.4968  0.8595
 3361SOL    HW210983   3.283   2.112   1.117  1.0174  1.3400 -0.0699
 3362SOL     OW10984   5.989   3.053   1.573  0.0791 -0.3157  0.7048
 3362SOL    HW110985   5.986   3.143   1.616 -0.8681 -0.4822  1.0002
 3362SOL    HW210986   5.952   3.059   1.480  0.3327 -0.3377  0.6007
 3363SOL     OW10987   5.758   4.585   3.582  0.4733  0.3536 -0.3234
 3363SOL    HW110988   5.720   4.585   3.489  0.2483  1.0449 -0.2337
 3363SOL    HW210989   5.854   4.560   3.578  0.7267  1.3442 -0.8550
 3364SOL     OW10990   5.997   2.867   2.301  0.0765  0.2160 -0.2914
 3364SOL    HW110991   5.991   2.768   2.285 -0.6441  0.0893  0.6282
 3364SOL    HW210992   5.905   2.905   2.311  0.3542  0.9643 -0.5075
 3365SOL     OW10993   2.465   6.321   5.060 -0.6472  0.3840 -0.5440
 3365SOL    HW110994   2.412   6.340   4.977 -0.3272 -0.8783 -1.0621
 3365SOL    HW210995   2.426   6.372   5.137 -0.6080  2.0268 -1.5599
 3366SOL     OW10996   5.781   5.717   4.637 -0.1410  0.2037  0.2104
 3366SOL    HW110997   5.707   5.697   4.572  1.0429 -2.1170 -0.5286
 3366SOL    HW210998   5.844   5.639   4.641  2.0998  1.9490  1.0817
 3367SOL     OW10999   0.627   0.210   3.524 -0.2253 -0.1369 -0.3188
 3367SOL    HW111000   0.712   0.230   3.573 -0.8473 -1.4007  1.3959
 3367SOL    HW211001   0.560   0.282   3.542 -0.6802 -0.9187  1.3779
 3368SOL     OW11002   6.171   1.076   0.876  0.2039 -0.2958  0.1482
 3368SOL    HW111003   6.254   1.108   0.923  0.6236 -1.9254  0.5718
 3368SOL    HW211004   6.148   1.141   0.803  0.8216  1.1120  1.1433
 3369SOL     OW11005   0.219   0.043   6.150 -0.3835 -0.0362 -0.6907
 3369SOL    HW111006   0.309   0.075   6.181  0.4663 -0.5061 -2.5047
 3369SOL    HW211007   0.178  -0.015   6.220  0.7347  0.1846  0.1767
 3370SOL     OW11008   5.616   5.690   4.390 -0.0814  0.0642 -0.6593
 3370SOL    HW111009   5.681   5.662   4.320 -2.4181  0.2141 -3.0136
 3370SOL    HW211010   5.557   5.613   4.413 -0.9829  0.7139 -0.7625
 3371SOL     OW11011   5.376   4.553   5.091 -0.1758  0.0273  0.2213
 3371SOL    HW111012   5.382   4.592   5.183  0.5686  1.2578 -0.3335
 3371SOL    HW211013   5.445   4.595   5.032  0.1339 -1.5870 -0.6155
 3372SOL     OW11014   2.000   4.143   1.785  0.6015 -0.2392  0.6878
 3372SOL    HW111015   1.998   4.229   1.734  1.8547 -0.6491 -0.1129
 3372SOL    HW211016   1.934   4.079   1.746  1.8648 -0.7143 -0.8164
 3373SOL     OW11017   4.931   0.225   4.159 -0.2085  0.4417  0.8078
 3373SOL    HW111018   4.910   0.294   4.090 -2.2461 -0.6311  0.2670
 3373SOL    HW211019   4.847   0.196   4.204  0.5801 -1.5474  1.1328
 3374SOL     OW11020   5.357   6.845   3.063  0.1147 -0.2956  0.3180
 3374SOL    HW111021   5.418   6.921   3.039 -0.3069  0.0355  0.2735
 3374SOL    HW211022   5.410   6.771   3.103  1.2130 -1.7546 -3.3918
 3375SOL     OW11023   3.686   5.498   4.899 -0.5098  0.2643 -0.4982
 3375SOL    HW111024   3.688   5.405   4.935  1.2865  0.9174  1.2842
 3375SOL    HW211025   3.598   5.540   4.920 -1.6026 -1.1926 -1.9125
 3376SOL     OW11026   6.733   2.492   5.341  0.2850 -0.2817  0.2314
 3376SOL    HW111027   6.759   2.412   5.395  0.0798 -0.6874 -0.2582
 3376SOL    HW211028   6.680   2.462   5.261 -3.0402  0.5596  1.9298
 3377SOL     OW11029   4.447   2.184   4.552  0.3334  0.1494  0.0880
 3377SOL    HW111030   4.392   2.257   4.594 -0.7005 -0.5480 -0.0119
 3377SOL    HW211031   4.490   2.219   4.469  0.4841  0.8666  0.4548
 3378SOL     OW11032   0.732   3.580   6.012  0.5362 -0.3334 -0.7648
 3378SOL    HW111033   0.711   3.603   5.917 -0.4738  0.9320 -0.2617
 3378SOL    HW211034   0.697   3.489   6.034  0.7853 -0.6359 -1.5901
 3379SOL     OW11035   1.162   2.522   5.943 -0.2377  0.5367 -0.5074
 3379SOL    HW111036   1.147   2.605   5.891 -2.0509  0.1891 -0.6207
 3379SOL    HW211037   1.074   2.489   5.979  0.7423 -0.0189  1.5571
 3380SOL     OW11038   2.923   2.177   3.740 -0.8472 -0.1026  0.6629
 3380SOL    HW111039   2.878   2.217   3.820 -0.6608 -0.3137  0.8751
 3380SOL    HW211040   2.968   2.092   3.766 -1.0140 -0.3132  0.2689
 3381SOL     OW11041   0.541   3.237   5.092  0.2859 -0.6716 -0.0528
 3381SOL    HW111042   0.521   3.208   5.186  3.0644 -0.8313  0.6040
 3381SOL    HW211043   0.547   3.337   5.090 -0.3677 -0.6330 -0.2131
 3382SOL     OW11044   1.563   3.660   4.301  0.0720  0.6942 -0.5611
 3382SOL    HW111045   1.650   3.654   4.349  0.6200  3.6895 -0.9554
 3382SOL    HW211046   1.580   3.670   4.203 -0.8564 -1.0708 -0.9378
 3383SOL     OW11047   3.253   1.606   1.780  0.0036 -0.4465 -0.0754
 3383SOL    HW111048   3.327   1.653   1.731  0.3561  0.1175  0.9749
 3383SOL    HW211049   3.291   1.534   1.838 -0.1485  0.4492  1.1788
 3384SOL     OW11050   2.735   0.429   4.058 -0.1456  0.0645 -0.5691
 3384SOL    HW111051   2.670   0.500   4.032 -0.2947  0.7679  1.5500
 3384SOL    HW211052   2.733   0.356   3.991 -2.1326  0.7016 -1.2678
 3385SOL     OW11053   0.085   4.674   2.484  0.2452 -0.3112 -0.5621
 3385SOL    HW111054   0.072   4.685   2.583  0.8880 -0.6131 -0.4400
 3385SOL    HW211055  -0.004   4.678   2.439 -0.1062 -0.6600  0.0782
 3386SOL     OW11056   1.172   1.695   5.084  0.1917 -0.3044  0.0483
 3386SOL    HW111057   1.178   1.603   5.121 -1.9565 -0.6700 -0.3811
 3386SOL    HW211058   1.112   1.751   5.141  1.3137  0.8010  0.1972
 3387SOL     OW11059   3.707   2.349   5.335  0.6557  0.6199  0.5766
 3387SOL    HW111060   3.639   2.310   5.273  1.4898 -0.7102  0.4561
 3387SOL    HW211061   3.695   2.448   5.340  0.4108  0.7275 -1.5168
 3388SOL     OW11062   4.642   1.321   6.750 -0.4731  0.1965  0.1082
 3388SOL    HW111063   4.710   1.287   6.685 -2.5403 -2.8474 -0.6929
 3388SOL    HW211064   4.550   1.306   6.713 -1.6866  0.2848  2.8451
 3389SOL     OW11065   6.501   0.708   1.570 -0.5859  0.5482  0.0407
 3389SOL    HW111066   6.585   0.759   1.549 -0.7564  0.4299 -0.9738
 3389SOL    HW211067   6.520   0.643   1.643  0.8485 -1.0624 -1.6368
 3390SOL     OW11068   6.681   1.997   2.618  0.0216  0.2086 -0.3987
 3390SOL    HW111069   6.650   1.926   2.555 -0.9261 -0.1686  0.4742
 3390SOL    HW211070   6.781   2.000   2.617  0.1766 -2.1551  0.5913
 3391SOL     OW11071   2.101   3.074   2.879 -0.0839  0.1892 -0.4383
 3391SOL    HW111072   2.103   3.100   2.975  0.0345  0.5735 -0.5433
 3391SOL    HW211073   2.124   2.977   2.870  0.0082  0.1774 -0.0894
 3392SOL     OW11074   3.051   1.032   4.344 -0.0843 -0.2239 -0.6602
 3392SOL    HW111075   3.028   0.935   4.344 -0.8055 -0.0598 -0.5038
 3392SOL    HW211076   3.150   1.043   4.357  0.0158 -0.9348 -0.7843
 3393SOL     OW11077   4.879   4.562   6.463  0.6171 -0.2834  0.4330
 3393SOL    HW111078   4.945   4.493   6.492 -1.2497 -2.3172  0.0985
 3393SOL    HW211079   4.884   4.572   6.363  1.2182  0.4600  0.5289
 3394SOL     OW11080   3.547   5.101   0.805  0.3707  0.5313 -0.3050
 3394SOL    HW111081   3.647   5.095   0.793  0.3830  1.8495 -1.0792
 3394SOL    HW211082   3.525   5.101   0.903  1.0865 -0.1673 -0.1301
 3395SOL     OW11083   1.543   6.477   3.646  0.0392  0.1329 -0.4330
 3395SOL    HW111084   1.577   6.418   3.573  0.7641 -0.0676  0.0565
 3395SOL    HW211085   1.444   6.488   3.637 -0.0640 -0.9441 -0.6736
 3396SOL     OW11086   5.001   4.415   3.157 -0.6870  0.2552  0.7148
 3396SOL    HW111087   5.020   4.457   3.245 -1.9625 -1.5669  1.9388
 3396SOL    HW211088   4.904   4.391   3.151 -0.1268 -2.1001 -0.0177
 3397SOL     OW11089   3.615   4.313   0.973  0.1900 -0.0969  0.0532
 3397SOL    HW111090   3.529   4.309   1.024  1.5727 -0.1599  2.5360
 3397SOL    HW211091   3.656   4.222   0.970 -0.0118 -0.1675 -1.5548
 3398SOL     OW11092   4.265   6.215   4.948 -0.4978 -0.0104 -0.3058
 3398SOL    HW111093   4.240   6.161   5.028 -0.5623  2.0094  1.1195
 3398SOL    HW211094   4.345   6.174   4.904  0.1624 -0.6271  1.3912
 3399SOL     OW11095   6.259   2.823   4.654 -0.1558  0.4418  0.5300
 3399SOL    HW111096   6.353   2.842   4.627 -0.4181  0.9272 -0.0795
 3399SOL    HW211097   6.228   2.738   4.611 -0.3712  0.8944 -0.2383
 3400SOL     OW11098   1.144   0.982   1.046 -0.2018  0.3336  0.3018
 3400SOL    HW111099   1.240   0.991   1.073 -0.5229 -1.2828  2.1540
 3400SOL    HW211100   1.127   0.890   1.012 -1.2593  0.3986  0.6302
 3401SOL     OW11101   1.739   3.145   2.950 -0.0975 -0.2757 -0.3118
 3401SOL    HW111102   1.790   3.220   2.993 -0.2304  0.0805 -0.7650
 3401SOL    HW211103   1.706   3.175   2.861  0.7882 -1.2413 -0.9871
 3402SOL     OW11104   2.245   0.486   2.732 -0.1551 -0.5924 -0.4585
 3402SOL    HW111105   2.200   0.510   2.817 -1.6111 -0.4849 -1.2269
 3402SOL    HW211106   2.339   0.520   2.733  0.4926 -2.2458  1.8335
 3403SOL     OW11107   1.750   1.809   4.276  0.3735 -0.9498  0.5181
 3403SOL    HW111108   1.751   1.907   4.252  2.8472 -0.9391  0.4062
 3403SOL    HW211109   1.689   1.760   4.214  1.6249  0.0675 -1.6485
 3404SOL     OW11110   3.195   0.296   2.331 -0.1475  0.3651 -0.3714
 3404SOL    HW111111   3.295   0.297   2.323 -0.2033  0.8466 -1.0927
 3404SOL    HW211112   3.166   0.369   2.393  0.0027 -0.4940  0.7560
 3405SOL     OW11113   4.906   3.284   0.814 -0.5493  0.1420 -0.3014
 3405SOL    HW111114   4.970   3.208   0.823  0.8788  1.4482  1.3057
 3405SOL    HW211115   4.857   3.297   0.900  0.1429  1.7758 -0.1151
 3406SOL     OW11116   5.215   2.506   0.671  0.2602 -0.5849 -0.1187
 3406SOL    HW111117   5.147   2.442   0.707 -0.1777  0.5500  1.1568
 3406SOL    HW211118   5.175   2.558   0.596 -0.3559  0.1672  0.7083
 3407SOL     OW11119   5.551   5.340   3.814 -0.3996 -0.0366  0.4140
 3407SOL    HW111120   5.472   5.305   3.766  1.1650 -2.6618 -0.4127
 3407SOL    HW211121   5.546   5.314   3.911 -0.0806 -1.1468  0.1477
 3408SOL     OW11122   1.179   3.433   1.738  0.0088 -0.2547  0.3683
 3408SOL    HW111123   1.165   3.463   1.833 -1.1887 -0.0539  0.1375
 3408SOL    HW211124   1.174   3.512   1.677  1.8383 -0.2162  0.2074
 3409SOL     OW11125   6.620   6.371   6.631  0.4542  0.1457 -0.0621
 3409SOL    HW111126   6.628   6.278   6.594  0.3911  0.2563 -0.3586
 3409SOL    HW211127   6.708   6.398   6.671  0.5117  0.0079 -0.0926
 3410SOL     OW11128   5.822   1.328   4.649  0.2221 -0.3615 -0.4559
 3410SOL    HW111129   5.884   1.398   4.683 -0.3319  1.3254 -2.6870
 3410SOL    HW211130   5.808   1.339   4.551 -1.9658 -1.9760 -0.4291
 3411SOL     OW11131   3.983   5.858   1.068 -0.0504 -0.3116  0.3457
 3411SOL    HW111132   3.934   5.898   0.990  0.1214  1.2384  0.9963
 3411SOL    HW211133   3.927   5.867   1.150 -0.8023 -3.1021  0.2578
 3412SOL     OW11134   5.755   5.746   2.884  0.2796 -0.3460 -0.4420
 3412SOL    HW111135   5.709   5.723   2.798  3.0907 -0.0658 -2.1579
 3412SOL    HW211136   5.727   5.837   2.914 -0.5173 -0.3293 -1.2134
 3413SOL     OW11137   4.910   6.581   1.805  0.0021 -0.1888 -0.5676
 3413SOL    HW111138   4.955   6.568   1.716  0.5412 -1.1461 -0.1708
 3413SOL    HW211139   4.828   6.524   1.810  0.6180 -1.0509 -0.0215
 3414SOL     OW11140   5.078   3.318   5.262  0.3105  0.0830 -0.1647
 3414SOL    HW111141   5.125   3.402   5.234  1.3026 -1.0142 -2.0651
 3414SOL    HW211142   5.127   3.239   5.224 -1.2297 -1.3008  0.6025
 3415SOL     OW11143   3.661   0.208   6.816  0.5165 -0.3690 -0.8704
 3415SOL    HW111144   3.672   0.146   6.893 -0.3667  0.0746 -0.3710
 3415SOL    HW211145   3.650   0.301   6.850  0.3237 -0.1392 -1.5490
 3416SOL     OW11146   6.558   2.969   5.863 -0.7603  0.6897  0.2797
 3416SOL    HW111147   6.616   3.044   5.895 -1.2546  0.7513  1.0613
 3416SOL    HW211148   6.502   3.001   5.786  0.2219  0.6259 -0.4868
 3417SOL     OW11149   0.041   4.562   2.088  1.0235  0.5150  0.1991
 3417SOL    HW111150  -0.000   4.490   2.033  2.7212  0.4692 -1.1000
 3417SOL    HW211151  -0.000   4.650   2.064  1.0495  0.3585 -0.4451
 3418SOL     OW11152   4.826   5.252   2.389  0.2627  0.4535  0.4649
 3418SOL    HW111153   4.748   5.294   2.343  0.2718  0.0935  0.1189
 3418SOL    HW211154   4.794   5.197   2.466  0.0601 -0.7072 -0.4252
 3419SOL     OW11155   3.970   2.995   6.573  0.0826 -0.0853 -0.4414
 3419SOL    HW111156   3.990   3.030   6.481 -2.1087 -1.2474 -1.4132
 3419SOL    HW211157   3.929   2.904   6.567 -3.6879  1.2772  1.3476
 3420SOL     OW11158   2.356   1.157   1.764  1.0712 -0.7871  0.1508
 3420SOL    HW111159   2.389   1.101   1.688 -0.7488 -0.5875 -0.8518
 3420SOL    HW211160   2.431   1.214   1.798  2.5149 -2.5301  0.0570
 3421SOL     OW11161   0.717   4.352   1.841  0.0654  0.5859  0.9491
 3421SOL    HW111162   0.641   4.290   1.822  0.2979  0.3195  0.8782
 3421SOL    HW211163   0.803   4.301   1.841  0.2097  0.8167  1.4020
 3422SOL     OW11164   0.930   0.178   0.113  0.1925 -0.4086  0.2440
 3422SOL    HW111165   0.987   0.229   0.178  2.3147 -2.3138  0.0206
 3422SOL    HW211166   0.980   0.169   0.026 -1.7408  0.3330 -1.0012
 3423SOL     OW11167   0.730   1.312   2.228  0.2119  0.2975  0.8402
 3423SOL    HW111168   0.815   1.259   2.224  0.1592  0.2502  0.1842
 3423SOL    HW211169   0.652   1.249   2.224  0.0706  0.1139  3.8706
 3424SOL     OW11170   2.482   0.757   4.240  0.0100 -0.4621 -0.1834
 3424SOL    HW111171   2.383   0.757   4.222  0.1441  1.0507 -1.0697
 3424SOL    HW211172   2.526   0.825   4.182  1.1019  1.5091  2.7583
 3425SOL     OW11173   5.124   0.699   3.780  0.1630 -0.0206  0.6659
 3425SOL    HW111174   5.030   0.680   3.752  0.9703 -1.0739 -1.6097
 3425SOL    HW211175   5.187   0.661   3.712  2.1863  3.3526  0.4414
 3426SOL     OW11176   4.518   4.597   2.205  0.3424 -0.6312 -0.6546
 3426SOL    HW111177   4.500   4.555   2.116 -0.9992  3.4157 -2.5258
 3426SOL    HW211178   4.435   4.640   2.240  1.1736 -0.9491  1.9948
 3427SOL     OW11179   1.935   2.446   0.279  0.3671  0.0682 -0.4905
 3427SOL    HW111180   1.936   2.355   0.321 -1.3456  0.8702  1.4368
 3427SOL    HW211181   1.896   2.439   0.187  1.7440 -1.3484 -1.0157
 3428SOL     OW11182   6.464   1.144   3.395  0.3043 -0.1397  0.6107
 3428SOL    HW111183   6.510   1.065   3.353 -1.3316 -0.5653 -0.4759
 3428SOL    HW211184   6.441   1.122   3.490 -1.2368 -1.5213 -0.0231
 3429SOL     OW11185   1.707   2.651   2.221  0.6058  0.1749  0.3962
 3429SOL    HW111186   1.683   2.693   2.134  0.0868 -0.8924  0.0042
 3429SOL    HW211187   1.743   2.720   2.283 -0.3083  1.2086 -0.1930
 3430SOL     OW11188   6.342   6.769   2.676  0.0405  0.8082 -0.4234
 3430SOL    HW111189   6.295   6.689   2.713 -1.7058  1.8962 -0.1928
 3430SOL    HW211190   6.288   6.851   2.695  0.9700  1.8558 -2.1035
 3431SOL     OW11191   0.229   4.093   3.144  1.0101 -0.0007 -0.1081
 3431SOL    HW111192   0.249   4.005   3.099 -0.7847  1.0080 -3.2287
 3431SOL    HW211193   0.263   4.167   3.087 -0.7798  1.3914  0.5398
 3432SOL     OW11194   0.653   0.411   4.066 -0.3376 -0.0286  0.5401
 3432SOL    HW111195   0.748   0.443   4.063  0.7996 -2.9375  2.0246
 3432SOL    HW211196   0.637   0.349   3.989  0.3247 -2.7243  2.4632
 3433SOL     OW11197   3.494   6.740   6.245  0.0110 -0.2795  0.4597
 3433SOL    HW111198   3.582   6.703   6.214 -0.1501  0.1225 -0.5362
 3433SOL    HW211199   3.420   6.690   6.200 -0.2196  0.7531 -0.3371
 3434SOL     OW11200   3.360   5.756   4.735 -0.3315  0.3328  0.2450
 3434SOL    HW111201   3.429   5.754   4.807 -0.1234 -3.5117  0.1572
 3434SOL    HW211202   3.404   5.765   4.646 -0.1699  0.4376  0.3361
 3435SOL     OW11203   4.855   1.047   5.613 -0.4483  0.2311 -0.5708
 3435SOL    HW111204   4.781   1.112   5.595 -0.7726 -0.2577 -1.0385
 3435SOL    HW211205   4.818   0.954   5.614  0.1981 -0.0350 -0.9915
 3436SOL     OW11206   2.937   3.584   0.753 -0.3899  0.6202 -0.0378
 3436SOL    HW111207   2.864   3.624   0.808 -1.5017 -0.9161 -0.3386
 3436SOL    HW211208   3.013   3.649   0.745 -0.3432  1.0681  2.9629
 3437SOL     OW11209   2.280   5.927   1.309 -0.3480  0.2624 -0.0135
 3437SOL    HW111210   2.218   5.850   1.323 -0.2887  0.2891  0.4123
 3437SOL    HW211211   2.235   5.998   1.255 -0.1419 -0.3990 -1.0659
 3438SOL     OW11212   4.899   1.651   4.871 -0.7288 -0.9603  0.5991
 3438SOL    HW111213   4.952   1.579   4.916 -1.2409 -1.1609  0.8843
 3438SOL    HW211214   4.919   1.739   4.914  1.2065 -0.6285 -0.8436
 3439SOL     OW11215   2.487   5.762   2.585  0.0178 -0.3123  0.0211
 3439SOL    HW111216   2.494   5.795   2.491  1.9491 -0.0699  0.2081
 3439SOL    HW211217   2.486   5.662   2.586 -3.4002 -0.3995 -0.3991
 3440SOL     OW11218   2.730   5.180   4.449  0.1217 -0.0236  0.2868
 3440SOL    HW111219   2.657   5.129   4.404 -0.0649  0.5594 -0.0868
 3440SOL    HW211220   2.748   5.264   4.398  1.7985 -0.6602 -0.2619
 3441SOL     OW11221   6.828   0.982   1.967 -0.2402  0.0605 -0.7561
 3441SOL    HW111222   6.811   0.883   1.970 -3.4014  0.5167  0.6140
 3441SOL    HW211223   6.790   1.019   1.882 -0.1626  0.2693 -0.6988
 3442SOL     OW11224   2.058   3.315   1.072  0.3118  0.1989 -0.0924
 3442SOL    HW111225   2.004   3.395   1.098 -0.6054 -0.2614 -0.5175
 3442SOL    HW211226   2.139   3.309   1.129  0.5075  1.5513 -0.1970
 3443SOL     OW11227   3.238   5.084   2.819  0.1955  0.0437  0.0472
 3443SOL    HW111228   3.316   5.092   2.757  1.2853  0.1927  1.4118
 3443SOL    HW211229   3.237   4.994   2.862 -1.5184 -0.6939 -1.3691
 3444SOL     OW11230   5.769   5.651   5.651  0.4152 -0.3531  0.0349
 3444SOL    HW111231   5.867   5.633   5.642  0.5197  0.1676  0.1206
 3444SOL    HW211232   5.754   5.749   5.664  0.2240 -0.7406  4.1586
 3445SOL     OW11233   1.478   6.203   2.138 -0.3241 -0.2162  0.0273
 3445SOL    HW111234   1.391   6.238   2.104 -0.2953  0.6842  0.8283
 3445SOL    HW211235   1.529   6.162   2.062 -0.7974  0.5995 -0.7557
 3446SOL     OW11236   5.696   4.929   2.207 -0.0450 -0.1025 -0.0575
 3446SOL    HW111237   5.668   4.986   2.285 -0.6813 -0.1383 -0.2473
 3446SOL    HW211238   5.748   4.985   2.143 -0.6065  0.2648 -0.2092
 3447SOL     OW11239   1.626   1.965   1.682 -0.3567  0.0226 -0.6585
 3447SOL    HW111240   1.724   1.978   1.696 -0.0050 -0.3810 -2.4837
 3447SOL    HW211241   1.582   1.946   1.770  0.9968  1.3762  0.3548
 3448SOL     OW11242   0.223   6.116   3.487  0.5416  0.4189  0.4516
 3448SOL    HW111243   0.127   6.092   3.500  1.1206 -1.0629  2.4529
 3448SOL    HW211244   0.235   6.214   3.501 -1.1234  1.2922 -3.1167
 3449SOL     OW11245   4.481   5.924   1.870  0.1844 -0.0520 -0.2476
 3449SOL    HW111246   4.493   5.978   1.787  1.6008 -0.7184 -0.5055
 3449SOL    HW211247   4.431   5.840   1.848  1.5461 -0.7827 -0.7054
 3450SOL     OW11248   4.338   6.244   5.338 -0.0150  0.1198 -0.0027
 3450SOL    HW111249   4.276   6.291   5.401  0.6104  0.7042  0.1831
 3450SOL    HW211250   4.284   6.186   5.277 -0.8510  1.2884 -0.4213
 3451SOL     OW11251   0.036   1.697   4.472 -0.1860  0.5366 -0.4418
 3451SOL    HW111252   0.070   1.659   4.386 -1.0836 -1.1621 -0.0942
 3451SOL    HW211253  -0.048   1.747   4.455 -1.4526 -1.4422 -0.3668
 3452SOL     OW11254   5.328   6.383   5.566  0.2659 -0.4654  0.2533
 3452SOL    HW111255   5.396   6.360   5.635 -1.6539 -0.3451  2.2937
 3452SOL    HW211256   5.269   6.305   5.549 -0.5733  0.1309  0.3405
 3453SOL     OW11257   0.529   2.987   1.894  0.3519 -0.3926  0.0500
 3453SOL    HW111258   0.518   2.892   1.924  2.1945  0.0670  2.4687
 3453SOL    HW211259   0.503   3.049   1.968 -0.8921  1.0500 -1.5114
 3454SOL     OW11260   5.818   5.341   3.337 -0.1062 -0.3564  0.2510
 3454SOL    HW111261   5.912   5.343   3.373 -0.4125  0.8182  1.0399
 3454SOL    HW211262   5.754   5.333   3.413 -0.6421 -1.9578 -0.3402
 3455SOL     OW11263   1.286   3.946   1.754  0.0310  0.8351 -0.4774
 3455SOL    HW111264   1.284   4.039   1.791 -1.5893  0.5030  0.3793
 3455SOL    HW211265   1.340   3.888   1.815  0.3159  1.0264 -0.5437
 3456SOL     OW11266   4.785   5.466   6.295  0.7613  0.2985 -0.4395
 3456SOL    HW111267   4.697   5.427   6.320  1.9714 -2.4250 -0.1258
 3456SOL    HW211268   4.772   5.537   6.225 -1.6980  0.5902  0.2325
 3457SOL     OW11269   5.880   1.278   1.457  0.2404  0.5559  0.5917
 3457SOL    HW111270   5.835   1.357   1.414 -0.0390  0.7644  1.2534
 3457SOL    HW211271   5.810   1.212   1.485  0.4465  0.2660  0.4268
 3458SOL     OW11272   0.488   2.588   4.531 -0.3432 -0.9798 -0.3726
 3458SOL    HW111273   0.561   2.656   4.529 -1.2546  0.1840  1.9434
 3458SOL    HW211274   0.527   2.497   4.541  0.8183 -0.3916  0.7404
 3459SOL     OW11275   1.284   5.130   3.032 -0.4170  0.3516 -0.2212
 3459SOL    HW111276   1.381   5.112   3.021 -0.4920  0.5107 -1.3278
 3459SOL    HW211277   1.248   5.076   3.108  0.4175 -0.1355 -0.1611
 3460SOL     OW11278   6.112   6.599   0.914 -0.2281  0.1024  0.3354
 3460SOL    HW111279   6.033   6.640   0.869  1.1011 -0.1694 -2.4528
 3460SOL    HW211280   6.178   6.671   0.937  1.0072 -0.0711 -2.2972
 3461SOL     OW11281   5.828   3.778   6.635 -0.3359 -0.1962  0.2576
 3461SOL    HW111282   5.868   3.869   6.641  0.0536 -0.3756  0.4592
 3461SOL    HW211283   5.883   3.714   6.689 -0.7376 -0.5041  0.3066
 3462SOL     OW11284   3.188   3.311   2.350  0.2250  0.4618 -0.1369
 3462SOL    HW111285   3.131   3.387   2.319 -0.1051  0.2299 -0.1045
 3462SOL    HW211286   3.147   3.224   2.320  0.2541  0.2648  0.3780
 3463SOL     OW11287   0.313   0.360   4.706 -0.3953  0.2958  0.0328
 3463SOL    HW111288   0.285   0.266   4.725 -1.3102  0.7009  0.7389
 3463SOL    HW211289   0.411   0.369   4.725 -0.2396 -0.5678 -0.2784
 3464SOL     OW11290   6.352   2.666   2.317  0.2883  0.1347 -0.0528
 3464SOL    HW111291   6.254   2.684   2.331  0.7617  1.6777  1.5643
 3464SOL    HW211292   6.385   2.604   2.387  0.8392  1.1033  0.5743
 3465SOL     OW11293   3.082   0.339   4.387  0.3192 -0.4032 -0.0085
 3465SOL    HW111294   3.129   0.390   4.314 -1.0868  2.0482  0.7107
 3465SOL    HW211295   2.986   0.325   4.361 -0.3412  0.9766  1.5395
 3466SOL     OW11296   5.715   5.452   0.129 -0.2027  0.1639  0.4083
 3466SOL    HW111297   5.655   5.532   0.118  0.3398  0.7101  1.3706
 3466SOL    HW211298   5.707   5.417   0.222  0.1969 -0.4001  0.2338
 3467SOL     OW11299   0.712   5.694   0.279 -0.3774 -0.1165  0.2013
 3467SOL    HW111300   0.625   5.664   0.239  0.6439 -0.4853 -1.8646
 3467SOL    HW211301   0.747   5.622   0.339 -0.8183 -0.5770 -0.0819
 3468SOL     OW11302   5.196   4.942   1.262 -0.2165  0.2116 -0.3878
 3468SOL    HW111303   5.146   4.877   1.319  1.2828  0.4282  1.2364
 3468SOL    HW211304   5.164   4.935   1.168 -0.4068 -2.5291 -0.1795
 3469SOL     OW11305   1.779   3.599   6.624  0.8415 -0.1119  0.1549
 3469SOL    HW111306   1.745   3.531   6.689  0.7562 -0.2832 -0.0723
 3469SOL    HW211307   1.701   3.648   6.584  0.8699 -0.3692 -0.2164
 3470SOL     OW11308   1.731   3.564   3.349  0.5045 -0.0404  0.0611
 3470SOL    HW111309   1.636   3.558   3.321  0.6144 -0.2506 -0.2834
 3470SOL    HW211310   1.743   3.523   3.439 -0.4150  3.3574  1.8750
 3471SOL     OW11311   3.957   2.167   6.760 -0.7121  0.2832  0.2622
 3471SOL    HW111312   3.940   2.081   6.712 -1.3586  0.3650  0.3364
 3471SOL    HW211313   3.924   2.243   6.703 -0.0325  0.4975  0.1410
 3472SOL     OW11314   6.780   6.886   2.389 -0.1708  0.3395  0.3792
 3472SOL    HW111315   6.706   6.908   2.326  2.0406  2.4141 -1.7190
 3472SOL    HW211316   6.803   6.967   2.443  0.8949 -0.0839  0.5979
 3473SOL     OW11317   5.957   4.031   5.867  0.3013  0.2516 -0.3511
 3473SOL    HW111318   5.910   3.997   5.948  3.7573 -1.8600  0.9483
 3473SOL    HW211319   5.894   4.029   5.789 -2.5118  0.3653  1.7686
 3474SOL     OW11320   4.889   4.401   4.811  0.0455  0.3811 -0.2254
 3474SOL    HW111321   4.803   4.453   4.805  0.5474  1.1330 -1.1182
 3474SOL    HW211322   4.946   4.439   4.883 -0.3911 -0.1801  0.4355
 3475SOL     OW11323   3.889   5.498   4.673 -0.2606 -0.3174 -0.0053
 3475SOL    HW111324   3.836   5.506   4.757  0.4446 -3.9937  0.9786
 3475SOL    HW211325   3.985   5.519   4.692 -0.2197 -0.4463 -0.0686
 3476SOL     OW11326   1.213   1.377   5.706 -0.5495  0.0671 -0.0079
 3476SOL    HW111327   1.147   1.429   5.652 -1.2597  0.4825  1.2237
 3476SOL    HW211328   1.165   1.320   5.772  0.1797 -2.5934 -1.6218
 3477SOL     OW11329   6.617   4.722   2.238 -0.2240  0.2992  0.0003
 3477SOL    HW111330   6.521   4.707   2.215 -0.2568  1.6528 -0.8628
 3477SOL    HW211331   6.626   4.739   2.336 -1.0028  1.0705 -0.0492
 3478SOL     OW11332   5.664   5.821   0.297 -0.6306 -0.3285 -0.0474
 3478SOL    HW111333   5.651   5.915   0.267 -2.2275 -1.2806 -2.6729
 3478SOL    HW211334   5.631   5.758   0.227 -0.2356 -2.8872  1.8859
 3479SOL     OW11335   1.262   4.255   4.265 -0.0252 -0.0079  0.3711
 3479SOL    HW111336   1.237   4.199   4.344  1.5520 -1.2345  0.0491
 3479SOL    HW211337   1.241   4.351   4.285 -0.0594 -0.3405  2.1201
 3480SOL     OW11338   4.908   3.193   4.326  0.1916 -0.4787  0.0581
 3480SOL    HW111339   4.984   3.186   4.392 -0.3554 -1.3076  0.6253
 3480SOL    HW211340   4.848   3.114   4.337  0.1736 -0.7168 -1.5688
 3481SOL     OW11341   1.594   4.842   4.429  0.1990 -0.7396  0.1211
 3481SOL    HW111342   1.602   4.925   4.374 -1.6947  0.2958  1.3218
 3481SOL    HW211343   1.630   4.859   4.521  0.1780 -1.3931  0.2570
 3482SOL     OW11344   5.848   4.599   0.248  0.5590  0.1003 -0.5543
 3482SOL    HW111345   5.775   4.667   0.255 -0.5578 -1.2466  2.2360
 3482SOL    HW211346   5.930   4.634   0.293  0.5376  0.2655 -0.6426
 3483SOL     OW11347   4.943   5.345   0.768 -0.2292 -0.2089  0.2150
 3483SOL    HW111348   5.005   5.342   0.690  1.7522 -0.7274  1.7205
 3483SOL    HW211349   4.851   5.366   0.737  0.7445  1.0035 -2.0865
 3484SOL     OW11350   6.770   4.903   1.685 -0.2999 -0.4019  0.4332
 3484SOL    HW111351   6.696   4.957   1.724 -0.5295 -2.3734  2.9723
 3484SOL    HW211352   6.850   4.909   1.743  1.7642  1.7762 -2.3224
 3485SOL     OW11353   4.577   6.605   4.383  0.3895  0.2999 -0.0855
 3485SOL    HW111354   4.634   6.565   4.310  0.5303  1.2986 -0.5441
 3485SOL    HW211355   4.499   6.651   4.342  1.8466  3.1807  0.1303
 3486SOL     OW11356   3.040   6.605   0.591  0.2941 -0.1330  0.0113
 3486SOL    HW111357   3.016   6.578   0.684  0.6242  0.0607  0.1559
 3486SOL    HW211358   3.134   6.639   0.590  0.4466 -0.5555 -0.4741
 3487SOL     OW11359   3.019   4.506   0.866  0.4943 -0.2259 -0.4310
 3487SOL    HW111360   3.091   4.440   0.843  0.5654 -0.1110 -0.5420
 3487SOL    HW211361   2.931   4.460   0.869  0.5573 -0.3454 -0.4117
 3488SOL     OW11362   6.476   3.430   6.031  0.0936  0.1685 -0.5970
 3488SOL    HW111363   6.384   3.448   5.997  0.6290  1.8999 -1.2164
 3488SOL    HW211364   6.534   3.510   6.017  1.1633 -0.1086  1.6922
 3489SOL     OW11365   5.298   6.360   3.463 -0.1889 -0.3453 -0.6673
 3489SOL    HW111366   5.220   6.297   3.459  0.5990 -1.5476  1.4950
 3489SOL    HW211367   5.381   6.313   3.433  0.2119  0.0060 -0.1388
 3490SOL     OW11368   2.313   5.574   6.171 -0.0376  0.0496 -0.0870
 3490SOL    HW111369   2.371   5.655   6.167 -1.7213  1.2690 -1.8662
 3490SOL    HW211370   2.237   5.585   6.107 -0.8261 -2.5706  0.2907
 3491SOL     OW11371   1.194   6.298   2.454  0.1144 -0.4966 -0.2132
 3491SOL    HW111372   1.120   6.275   2.517  0.2797  0.3150  0.2917
 3491SOL    HW211373   1.175   6.386   2.411  0.8413 -0.2252  0.0114
 3492SOL     OW11374   0.951   2.116   2.351 -0.3852 -0.1305  0.9364
 3492SOL    HW111375   0.982   2.104   2.445 -0.2909  1.1215  1.0812
 3492SOL    HW211376   0.890   2.195   2.346  2.5065  2.2139 -0.6232
 3493SOL     OW11377   0.095   0.418   4.425 -0.4643 -0.3145  0.5517
 3493SOL    HW111378   0.026   0.390   4.491 -1.2566 -3.4321 -1.3842
 3493SOL    HW211379   0.182   0.373   4.445  0.1995  1.1765  1.1871
 3494SOL     OW11380   1.744   4.077   1.965 -0.2161  0.0078  0.0459
 3494SOL    HW111381   1.719   4.151   1.902  1.8881  0.9384  0.2032
 3494SOL    HW211382   1.725   4.106   2.059 -0.2275 -0.0195  0.0519
 3495SOL     OW11383   6.823   5.279   0.237  0.3370  0.2065 -0.1938
 3495SOL    HW111384   6.829   5.260   0.335  1.7496  1.1730 -0.0707
 3495SOL    HW211385   6.733   5.249   0.204  0.8278 -2.7065  0.7819
 3496SOL     OW11386   0.644   6.576   5.407  0.6910 -0.4194 -0.5198
 3496SOL    HW111387   0.558   6.601   5.362  0.9738  0.1010 -0.7818
 3496SOL    HW211388   0.689   6.658   5.440  0.5214 -0.7819  0.6815
 3497SOL     OW11389   3.932   6.829   1.641 -0.0569  0.2906 -0.0882
 3497SOL    HW111390   3.992   6.831   1.722 -0.3849 -0.0700  0.1682
 3497SOL    HW211391   3.887   6.918   1.632  0.3909  0.5097 -0.1873
 3498SOL     OW11392   5.314   0.687   5.358  0.4090  0.1253 -0.3629
 3498SOL    HW111393   5.226   0.688   5.311  1.4927  0.4534 -2.5086
 3498SOL    HW211394   5.335   0.779   5.391  0.9589  0.5919 -1.9304
 3499SOL     OW11395   3.766   5.999   5.512  0.7343 -0.5322 -0.3170
 3499SOL    HW111396   3.810   6.074   5.562 -0.4129 -1.1346  1.7416
 3499SOL    HW211397   3.697   6.037   5.450 -0.4151  0.1494  1.2920
 3500SOL     OW11398   1.121   2.815   1.180 -0.0443 -0.0437  0.5184
 3500SOL    HW111399   1.104   2.817   1.278  0.1043 -2.0313  0.6200
 3500SOL    HW211400   1.191   2.747   1.159 -1.4701 -1.1187 -1.1240
 3501SOL     OW11401   2.497   1.285   6.078 -0.1934 -0.1397 -0.2665
 3501SOL    HW111402   2.532   1.197   6.110  1.8657  0.7485  0.1377
 3501SOL    HW211403   2.574   1.341   6.046 -1.4840  1.3917 -0.8071
 3502SOL     OW11404   2.926   5.096   3.626 -0.2599 -0.4488 -0.5224
 3502SOL    HW111405   2.831   5.124   3.612  0.1826  0.5553 -1.7243
 3502SOL    HW211406   2.972   5.161   3.687 -0.2990 -0.8155 -0.1060
 3503SOL     OW11407   0.021   5.397   1.528 -0.1657 -0.1003 -0.0373
 3503SOL    HW111408  -0.016   5.470   1.586  0.7395 -0.7453  1.4163
 3503SOL    HW211409   0.049   5.320   1.585 -0.8843 -1.5133 -1.5282
 3504SOL     OW11410   4.206   5.967   1.641 -0.0395  0.5676 -0.4522
 3504SOL    HW111411   4.299   5.934   1.659 -0.6803  0.8243  4.6729
 3504SOL    HW211412   4.199   6.062   1.670 -1.7073  0.9253 -1.8733
 3505SOL     OW11413   3.626   1.605   6.349 -0.2802 -0.0752  0.5614
 3505SOL    HW111414   3.643   1.522   6.297  0.4560  0.4326 -0.0128
 3505SOL    HW211415   3.631   1.585   6.447  0.6304 -0.5655  0.4221
 3506SOL     OW11416   1.868   0.957   2.302  0.2264 -0.3008  0.4190
 3506SOL    HW111417   1.896   0.862   2.286 -1.0563 -0.7938  1.0364
 3506SOL    HW211418   1.917   1.017   2.237  0.0474 -1.5159 -0.8884
 3507SOL     OW11419   1.410   0.149   0.388 -0.1409  0.2152  0.0014
 3507SOL    HW111420   1.478   0.122   0.320 -0.3522 -1.3179  0.3728
 3507SOL    HW211421   1.337   0.081   0.392 -0.1636  0.2997  1.7264
 3508SOL     OW11422   1.804   6.346   6.387 -0.6854  0.3089 -0.2474
 3508SOL    HW111423   1.866   6.281   6.430 -0.5146  2.3113  2.8140
 3508SOL    HW211424   1.842   6.438   6.391 -2.0265  1.0347 -2.1856
 3509SOL     OW11425   1.458   3.255   2.975  0.2843  0.5382  0.1108
 3509SOL    HW111426   1.541   3.310   2.968  0.2043  0.6685  0.1662
 3509SOL    HW211427   1.443   3.230   3.070  0.7977 -0.3308 -0.0287
 3510SOL     OW11428   5.043   2.018   1.098 -0.1294 -0.8034  0.3246
 3510SOL    HW111429   5.094   1.932   1.092 -1.1649 -1.4312  0.2007
 3510SOL    HW211430   5.017   2.047   1.006 -1.6104 -1.5091  0.4936
 3511SOL     OW11431   2.580   3.889   6.055 -0.2868  0.0858 -0.5451
 3511SOL    HW111432   2.546   3.796   6.073  0.7003  0.0554  1.4260
 3511SOL    HW211433   2.632   3.890   5.970 -1.8557 -0.7152 -1.5748
 3512SOL     OW11434   2.164   6.346   0.628 -0.2833 -0.2159 -0.2007
 3512SOL    HW111435   2.204   6.255   0.645  1.3781  0.5811  0.4470
 3512SOL    HW211436   2.068   6.336   0.604 -0.3460 -2.1019  0.6015
 3513SOL     OW11437   1.134   1.865   0.606 -0.6497 -0.6534 -0.0758
 3513SOL    HW111438   1.079   1.908   0.534 -1.3083  0.6646  1.1702
 3513SOL    HW211439   1.227   1.904   0.604 -1.3493  1.2463  1.2964
 3514SOL     OW11440   3.173   1.342   5.559 -0.1613 -0.7440 -0.0742
 3514SOL    HW111441   3.144   1.349   5.464 -1.6422 -1.1376  0.3114
 3514SOL    HW211442   3.272   1.328   5.564  0.1100  0.4941 -1.4924
 3515SOL     OW11443   0.171   2.797   1.709 -0.1087 -0.1131  0.3683
 3515SOL    HW111444   0.153   2.870   1.643 -0.7807 -0.3382  0.2927
 3515SOL    HW211445   0.181   2.710   1.660  0.9584 -0.0443  0.4334
 3516SOL     OW11446   6.374   5.610   0.764  0.1972 -0.3170 -0.3809
 3516SOL    HW111447   6.329   5.694   0.794 -1.4841 -1.4944  0.5716
 3516SOL    HW211448   6.351   5.591   0.668  0.4111  0.1830 -0.5323
 3517SOL     OW11449   1.230   0.397   3.827  0.1675  0.2382  0.6206
 3517SOL    HW111450   1.322   0.432   3.810 -0.4664  0.6208 -2.6046
 3517SOL    HW211451   1.188   0.448   3.902  2.2426  0.5878  1.6091
 3518SOL     OW11452   1.522   1.890   1.021  0.0042  0.4987 -0.2068
 3518SOL    HW111453   1.550   1.865   1.113 -0.3014 -0.1385 -0.2844
 3518SOL    HW211454   1.556   1.982   0.999  0.2240  0.5793  0.4709
 3519SOL     OW11455   0.084   3.418   6.507 -0.0834 -0.4379  0.1565
 3519SOL    HW111456   0.096   3.375   6.597 -1.3506 -1.3023 -0.0740
 3519SOL    HW211457   0.174   3.440   6.469  0.4806 -0.0213  1.6389
 3520SOL     OW11458   2.005   3.931   3.388  0.3385 -0.1515  0.2492
 3520SOL    HW111459   2.048   3.868   3.453 -0.4188 -0.4265  0.5025
 3520SOL    HW211460   1.961   3.878   3.315 -1.7325 -0.0563  1.3346
 3521SOL     OW11461   6.250   0.885   1.823 -0.0200 -0.0297  0.1373
 3521SOL    HW111462   6.222   0.896   1.919  1.1941  1.2599  0.3939
 3521SOL    HW211463   6.264   0.976   1.783  0.4453 -0.5797 -0.9655
 3522SOL     OW11464   4.238   3.728   6.044  0.1462  0.0358  0.4185
 3522SOL    HW111465   4.249   3.826   6.059 -1.8150  0.7424 -2.0831
 3522SOL    HW211466   4.165   3.692   6.102 -0.7197  0.5983 -0.3015
 3523SOL     OW11467   2.164   0.667   3.818 -0.3276  0.1740  0.3093
 3523SOL    HW111468   2.111   0.585   3.796  1.8483 -1.4255  0.6684
 3523SOL    HW211469   2.206   0.655   3.908  0.7582  1.2954 -0.0284
 3524SOL     OW11470   6.440   1.709   0.564 -0.2160 -0.0396 -0.5734
 3524SOL    HW111471   6.463   1.676   0.656  0.9556 -1.0260 -1.1863
 3524SOL    HW211472   6.477   1.646   0.496  1.3578  2.0664 -1.8049
 3525SOL     OW11473   1.935   2.703   3.828 -0.1961 -0.3006 -0.2756
 3525SOL    HW111474   1.846   2.666   3.802  0.0982 -0.7006 -0.7335
 3525SOL    HW211475   1.927   2.755   3.913 -0.7168 -0.9669  0.0863
 3526SOL     OW11476   4.873   5.050   1.955 -0.0120  0.0443 -0.1575
 3526SOL    HW111477   4.825   5.110   1.892 -1.1272 -0.5921  0.0639
 3526SOL    HW211478   4.898   4.965   1.908  0.9195  0.3609 -0.2696
 3527SOL     OW11479   0.959   4.107   2.296  0.5282  0.0641  0.5373
 3527SOL    HW111480   0.885   4.165   2.263  2.0066  1.8449  0.1651
 3527SOL    HW211481   0.979   4.036   2.228  0.5947  0.9462 -0.3901
 3528SOL     OW11482   6.402   0.416   1.084 -0.4675 -0.0621 -0.4391
 3528SOL    HW111483   6.399   0.510   1.118  1.4110 -0.6168  1.5347
 3528SOL    HW211484   6.309   0.377   1.084 -0.9163  0.8685  1.6454
 3529SOL     OW11485   6.710   5.481   5.480  0.0681  0.2384  0.6719
 3529SOL    HW111486   6.768   5.406   5.450  0.0868  1.1046 -1.6425
 3529SOL    HW211487   6.620   5.446   5.505 -0.2379 -0.4825 -1.2947
 3530SOL     OW11488   1.943   4.233   2.437 -0.1135  0.5682  0.1713
 3530SOL    HW111489   1.962   4.297   2.362  0.3144 -0.6684 -0.8050
 3530SOL    HW211490   1.965   4.277   2.524  0.7180  1.5480 -0.5048
 3531SOL     OW11491   0.594   1.810   5.330 -0.4370 -1.3653 -0.7759
 3531SOL    HW111492   0.528   1.805   5.255 -0.4930 -0.5856 -0.7910
 3531SOL    HW211493   0.546   1.824   5.416 -0.3538 -1.9501 -0.6299
 3532SOL     OW11494   3.860   1.229   1.441 -0.1783 -0.3476 -0.4541
 3532SOL    HW111495   3.860   1.143   1.492  2.1222 -0.4030 -0.4687
 3532SOL    HW211496   3.793   1.224   1.367 -1.3609 -1.4123  0.6290
 3533SOL     OW11497   1.063   2.653   4.623  0.1619  0.0242 -0.1034
 3533SOL    HW111498   1.005   2.574   4.645 -0.0180 -0.0954 -0.9777
 3533SOL    HW211499   1.082   2.704   4.707 -0.9028 -0.1426  0.2642
 3534SOL     OW11500   1.866   2.035   4.940 -0.1843  0.0932  0.1087
 3534SOL    HW111501   1.952   2.085   4.947 -0.4450  0.7469 -1.1219
 3534SOL    HW211502   1.789   2.098   4.948 -0.5513 -0.3874  0.4886
 3535SOL     OW11503   4.635   1.024   6.088  0.3452 -0.2364  0.1995
 3535SOL    HW111504   4.714   1.082   6.067 -0.0008  1.1796  2.4661
 3535SOL    HW211505   4.652   0.974   6.172 -1.0545 -0.0965  0.5942
 3536SOL     OW11506   3.396   0.593   4.084  0.5528  0.5370  0.2480
 3536SOL    HW111507   3.312   0.648   4.086  0.6679  0.8002 -1.3271
 3536SOL    HW211508   3.462   0.635   4.022  0.8574 -1.0946 -0.5849
 3537SOL     OW11509   2.229   4.996   1.703  0.0995 -0.1635  0.4385
 3537SOL    HW111510   2.295   4.921   1.700 -1.4224 -1.5667  0.5459
 3537SOL    HW211511   2.144   4.968   1.657 -0.7056  1.2954  0.9662
 3538SOL     OW11512   0.659   4.868   4.495  0.3574  0.8458  0.0889
 3538SOL    HW111513   0.692   4.794   4.554 -1.4256 -1.0413 -1.1784
 3538SOL    HW211514   0.619   4.940   4.552  0.4583  0.0000  1.2653
 3539SOL     OW11515   5.275   4.079   3.417 -0.1570 -0.2219  0.1916
 3539SOL    HW111516   5.207   4.145   3.451 -0.7715 -0.8455  0.1836
 3539SOL    HW211517   5.363   4.097   3.461 -0.6386 -0.2199  1.1819
 3540SOL     OW11518   0.446   5.862   1.101  0.7981 -0.8302 -0.4792
 3540SOL    HW111519   0.435   5.866   1.001 -0.2186  0.0907 -0.3448
 3540SOL    HW211520   0.541   5.840   1.122  1.0732 -0.8679 -1.6571
 3541SOL     OW11521   6.152   0.946   0.334 -0.1620 -0.2181 -0.5362
 3541SOL    HW111522   6.193   0.945   0.426 -0.5273 -1.5922 -0.3582
 3541SOL    HW211523   6.053   0.963   0.343 -0.5122 -2.0826 -0.4897
 3542SOL     OW11524   0.262   0.104   1.621  0.0857 -0.0844  0.6366
 3542SOL    HW111525   0.315   0.149   1.550  1.1791  0.8395  1.9858
 3542SOL    HW211526   0.193   0.167   1.657 -2.2486 -1.3593 -1.3008
 3543SOL     OW11527   6.021   0.989   3.087 -0.1899  0.3911  0.2115
 3543SOL    HW111528   5.958   1.065   3.069 -0.0706  0.0435 -1.9105
 3543SOL    HW211529   6.081   1.013   3.163 -0.2847  2.3663 -0.2783
 3544SOL     OW11530   5.115   2.906   4.443  0.1493 -0.8722  0.2489
 3544SOL    HW111531   5.086   2.997   4.473  1.6850  0.6221 -2.4800
 3544SOL    HW211532   5.184   2.871   4.506  1.9569  1.3550 -0.3669
 3545SOL     OW11533   0.447   1.083   1.404  0.5017  0.5376  0.0896
 3545SOL    HW111534   0.451   1.088   1.304  1.3456  1.4693  0.1550
 3545SOL    HW211535   0.400   0.999   1.431  3.3845 -1.6195 -1.0776
 3546SOL     OW11536   0.064   3.880   3.411  0.8932 -0.0418 -0.3395
 3546SOL    HW111537   0.096   3.975   3.410 -0.6146  0.5059  0.6463
 3546SOL    HW211538   0.138   3.821   3.445  1.0123  1.1507  1.6265
 3547SOL     OW11539   1.485   2.475   0.006 -0.2345  0.5994  0.3645
 3547SOL    HW111540   1.513   2.410  -0.065 -0.6275  1.6616 -0.7942
 3547SOL    HW211541   1.427   2.428   0.073  0.3519 -0.4799  0.1443
 3548SOL     OW11542   3.509   3.791   1.469 -0.3148  0.2604  0.0205
 3548SOL    HW111543   3.545   3.733   1.396  0.4201 -0.2821  0.7893
 3548SOL    HW211544   3.451   3.736   1.529 -0.3059  0.5178  0.2675
 3549SOL     OW11545   5.038   3.536   6.493 -0.1563  0.1589  0.4541
 3549SOL    HW111546   5.103   3.534   6.417 -0.0023 -0.0087  0.5908
 3549SOL    HW211547   4.998   3.628   6.500 -0.0388  0.2238  0.2821
 3550SOL     OW11548   5.335   4.676   3.398  0.0916 -0.0815 -0.4851
 3550SOL    HW111549   5.396   4.622   3.457 -1.0566 -1.3360 -0.4077
 3550SOL    HW211550   5.375   4.681   3.306  0.1507 -1.2038 -0.5345
 3551SOL     OW11551   6.793   6.538   1.563 -0.1753  0.3648 -0.1712
 3551SOL    HW111552   6.738   6.593   1.500  1.3389  0.3878 -1.5448
 3551SOL    HW211553   6.813   6.449   1.521 -0.7370 -0.3821  1.0974
 3552SOL     OW11554   4.744   5.417   2.722 -0.5812 -0.1072  0.6400
 3552SOL    HW111555   4.756   5.327   2.679 -2.0703 -0.3058  0.6019
 3552SOL    HW211556   4.762   5.489   2.655  1.8334 -0.2937  0.9708
 3553SOL     OW11557   1.659   1.748   1.265  0.1495  0.5767  0.2152
 3553SOL    HW111558   1.667   1.652   1.291 -0.7527  0.3424 -0.3300
 3553SOL    HW211559   1.602   1.797   1.332 -1.0890  0.2636 -0.5840
 3554SOL     OW11560   6.140   0.328   6.186 -0.5793  0.1084  0.8729
 3554SOL    HW111561   6.105   0.258   6.247 -0.8301 -0.5481 -0.0197
 3554SOL    HW211562   6.201   0.287   6.118 -2.9332  0.2378 -1.4806
 3555SOL     OW11563   5.553   4.693   4.120 -0.1422  0.1363 -0.3772
 3555SOL    HW111564   5.609   4.658   4.195  0.9723  0.1903 -1.1492
 3555SOL    HW211565   5.613   4.721   4.045 -1.0713  2.4070 -0.3346
 3556SOL     OW11566   3.560   2.937   2.331 -0.1091  0.2257 -0.5749
 3556SOL    HW111567   3.643   2.939   2.275 -1.7526 -2.0585 -3.3806
 3556SOL    HW211568   3.553   2.848   2.377 -1.3344  0.0921 -0.9912
 3557SOL     OW11569   1.104   3.182   1.396 -0.2566  0.0304 -0.0712
 3557SOL    HW111570   1.200   3.207   1.409 -0.4539  1.0056 -0.3604
 3557SOL    HW211571   1.053   3.205   1.479 -0.0603 -1.5459  0.5206
 3558SOL     OW11572   3.751   0.435   2.667 -0.1364  0.7016  0.3496
 3558SOL    HW111573   3.821   0.462   2.733 -0.4188 -0.0975  0.9944
 3558SOL    HW211574   3.688   0.512   2.653  0.4398  1.1779  0.3133
 3559SOL     OW11575   0.841   1.455   1.567  0.0906  0.8149 -0.6268
 3559SOL    HW111576   0.890   1.373   1.596  0.4960  0.4066 -2.3664
 3559SOL    HW211577   0.889   1.537   1.598 -0.9069  0.4695  2.1136
 3560SOL     OW11578   6.964   3.724   5.487  0.2334  0.3485  0.0796
 3560SOL    HW111579   6.994   3.631   5.509  1.9112  0.8104 -0.1192
 3560SOL    HW211580   7.013   3.756   5.406 -1.0495  1.0727 -0.4505
 3561SOL     OW11581   0.801   0.690   2.303  0.1256  0.0931  0.4624
 3561SOL    HW111582   0.706   0.660   2.313  0.1186  0.2975  1.0789
 3561SOL    HW211583   0.804   0.789   2.290  0.2060 -0.0321 -0.5238
 3562SOL     OW11584   0.919   0.414   1.585 -0.4646  0.0300 -0.1870
 3562SOL    HW111585   0.934   0.318   1.563  0.6088  0.1953 -0.2278
 3562SOL    HW211586   0.975   0.440   1.663  1.2709  1.2455 -1.7381
 3563SOL     OW11587   2.065   6.497   4.789 -0.5253  0.0953 -0.5916
 3563SOL    HW111588   2.042   6.400   4.795  0.1976 -0.1328 -1.2682
 3563SOL    HW211589   1.986   6.549   4.757 -1.0278 -0.2083  0.1256
 3564SOL     OW11590   4.753   5.019   1.101  0.6373  0.2808  0.5323
 3564SOL    HW111591   4.809   5.040   1.021 -0.8122 -0.0549 -0.6269
 3564SOL    HW211592   4.808   5.027   1.184  3.0847 -2.4150 -0.6695
 3565SOL     OW11593   3.835   5.076   1.381  0.1860  0.2883 -0.2403
 3565SOL    HW111594   3.841   4.989   1.331  0.4628  0.1456  0.0379
 3565SOL    HW211595   3.831   5.151   1.316  0.5817  0.1058 -0.4847
 3566SOL     OW11596   5.094   0.089   0.150  0.7185 -0.1250  0.4202
 3566SOL    HW111597   5.173   0.042   0.111 -0.5458 -1.8354 -0.1488
 3566SOL    HW211598   5.051   0.146   0.080 -0.0374 -1.1799  0.0215
 3567SOL     OW11599   3.179   0.957   5.133  0.2574  0.1544  0.1677
 3567SOL    HW111600   3.241   1.033   5.113 -1.0240  1.0481 -0.6250
 3567SOL    HW211601   3.220   0.896   5.200  1.0056  1.9979  1.4661
 3568SOL     OW11602   2.479   6.581   4.282 -0.4079 -0.0122 -0.2616
 3568SOL    HW111603   2.539   6.508   4.251  0.3478  0.2223  0.6045
 3568SOL    HW211604   2.385   6.547   4.288 -0.0100 -1.0374  0.4891
 3569SOL     OW11605   2.950   3.218   3.652 -0.1563  0.3288 -0.3193
 3569SOL    HW111606   3.009   3.298   3.649 -0.2314  0.3662 -1.0771
 3569SOL    HW211607   2.910   3.203   3.561 -0.6475 -0.1867 -0.0229
 3570SOL     OW11608   1.809   1.528   1.113  0.4041 -0.3368  0.0935
 3570SOL    HW111609   1.785   1.619   1.078 -0.0118 -0.6849 -0.5456
 3570SOL    HW211610   1.907   1.525   1.132  0.4361  0.2222  0.0447
 3571SOL     OW11611   0.531   0.083   0.368  0.7141  0.5193  0.2230
 3571SOL    HW111612   0.516   0.179   0.394  0.2058  0.4780  0.0740
 3571SOL    HW211613   0.518   0.025   0.448 -2.1108  0.2620 -0.3503
 3572SOL     OW11614   1.575   0.731   6.678 -0.1043 -0.3012  0.0721
 3572SOL    HW111615   1.499   0.761   6.621  1.1930 -0.9281 -2.1216
 3572SOL    HW211616   1.593   0.634   6.663  0.8600 -0.2719  0.8683
 3573SOL     OW11617   5.973   1.728   2.428 -0.0383  0.7333 -0.3004
 3573SOL    HW111618   5.931   1.653   2.480 -2.2890  1.5589 -0.8119
 3573SOL    HW211619   6.019   1.691   2.348 -2.1057 -0.0992 -1.1857
 3574SOL     OW11620   0.147   5.318   4.496  0.4715  0.7550 -0.4921
 3574SOL    HW111621   0.150   5.224   4.528 -0.6624  0.7393 -0.3915
 3574SOL    HW211622   0.066   5.332   4.438  1.0058  1.4855 -1.0932
 3575SOL     OW11623   4.898   4.845   1.664  0.1443  0.1356  0.5415
 3575SOL    HW111624   4.800   4.824   1.662  0.3664 -0.9256 -0.2661
 3575SOL    HW211625   4.946   4.776   1.718  0.4438  0.6717  0.9647
 3576SOL     OW11626   6.597   4.992   4.140  0.3223 -0.4493 -0.1031
 3576SOL    HW111627   6.695   4.987   4.118  0.3521  2.0787 -0.9197
 3576SOL    HW211628   6.546   4.934   4.076  1.1047  0.4108 -1.5676
 3577SOL     OW11629   3.020   0.903   3.344 -0.2366 -0.2121  0.3327
 3577SOL    HW111630   3.107   0.866   3.377  0.3366 -0.1802 -1.0675
 3577SOL    HW211631   2.972   0.948   3.419  1.0335 -0.0768  1.0893
 3578SOL     OW11632   3.874   4.303   6.162 -0.3770  0.3993  0.1144
 3578SOL    HW111633   3.948   4.327   6.224 -1.0296 -0.1944  1.1744
 3578SOL    HW211634   3.787   4.335   6.200 -0.9159 -0.9154  0.0732
 3579SOL     OW11635   3.901   4.856   3.059 -0.2057 -0.3288 -0.6082
 3579SOL    HW111636   3.947   4.777   3.098 -2.3940 -0.6670  1.5283
 3579SOL    HW211637   3.966   4.909   3.004  1.8280 -2.4214 -0.3615
 3580SOL     OW11638   3.428   4.759   5.477 -0.2314  0.2835 -0.1819
 3580SOL    HW111639   3.472   4.713   5.554 -0.2984 -1.8447 -1.3173
 3580SOL    HW211640   3.329   4.753   5.487 -0.2403  0.2064 -0.3139
 3581SOL     OW11641   2.735   5.834   0.952  0.1509  0.1902 -0.9979
 3581SOL    HW111642   2.822   5.801   0.916  0.3208  1.5394 -1.8930
 3581SOL    HW211643   2.738   5.934   0.960 -0.2007  0.0603  1.9535
 3582SOL     OW11644   4.332   2.573   5.409  0.2412 -0.2035 -0.2673
 3582SOL    HW111645   4.234   2.577   5.390  0.0209  0.8351  0.9356
 3582SOL    HW211646   4.376   2.654   5.371  0.3831  0.0620  0.4478
 3583SOL     OW11647   4.860   7.019   3.658  0.5754  0.1954 -0.0803
 3583SOL    HW111648   4.815   6.973   3.581  1.0698  1.0800 -0.9237
 3583SOL    HW211649   4.937   6.964   3.690 -0.6168 -0.9754  0.8883
 3584SOL     OW11650   4.431   5.289   3.723 -0.0548  0.3260  0.5054
 3584SOL    HW111651   4.356   5.224   3.721  0.5725 -0.4127 -0.2132
 3584SOL    HW211652   4.410   5.364   3.786 -1.1461 -0.1387  0.7105
 3585SOL     OW11653   3.270   1.650   5.277  0.1367  0.0555 -0.3297
 3585SOL    HW111654   3.312   1.627   5.365  0.1507 -0.4645 -0.4647
 3585SOL    HW211655   3.171   1.647   5.285  0.1373  0.0957 -0.3094
 3586SOL     OW11656   5.555   3.939   1.397  0.1632  0.3000  0.1658
 3586SOL    HW111657   5.481   4.002   1.422 -1.1575 -0.9468 -0.4796
 3586SOL    HW211658   5.516   3.851   1.371  1.7839  0.0541 -1.6216
 3587SOL     OW11659   3.507   0.905   4.912 -0.0142  0.6558  0.2496
 3587SOL    HW111660   3.560   0.936   4.991  0.7154 -1.1893  0.5362
 3587SOL    HW211661   3.411   0.898   4.936  0.0419  1.1628  0.6364
 3588SOL     OW11662   4.344   4.656   4.770 -0.0694  0.5801  0.1026
 3588SOL    HW111663   4.322   4.624   4.862 -0.0613  0.6850  0.1412
 3588SOL    HW211664   4.439   4.632   4.748  0.0458  0.8818  0.2634
 3589SOL     OW11665   2.598   4.560   1.792 -0.1821  0.5759 -0.4178
 3589SOL    HW111666   2.640   4.532   1.705 -1.5500  1.9189 -1.5675
 3589SOL    HW211667   2.670   4.578   1.859  0.8736 -1.9146 -0.7483
 3590SOL     OW11668   2.619   5.401   1.628 -0.1588  0.6662  0.4183
 3590SOL    HW111669   2.561   5.408   1.709 -0.5662  0.9766  0.1010
 3590SOL    HW211670   2.605   5.480   1.569 -0.4270  0.0722 -0.3241
 3591SOL     OW11671   1.351   0.403   1.373 -0.0501  0.2487 -0.0993
 3591SOL    HW111672   1.333   0.469   1.300  0.5660 -0.6334 -1.0855
 3591SOL    HW211673   1.283   0.413   1.445 -1.1869  0.5897 -1.1809
 3592SOL     OW11674   3.368   2.347   1.336  0.0888  0.0965 -0.6548
 3592SOL    HW111675   3.275   2.323   1.365  0.8032 -0.7652  1.0789
 3592SOL    HW211676   3.402   2.421   1.392  1.9068 -2.3321  1.6841
 3593SOL     OW11677   7.005   5.629   6.893 -0.3104 -0.4152 -0.3428
 3593SOL    HW111678   6.996   5.560   6.821  2.8134 -2.4666  0.9966
 3593SOL    HW211679   6.942   5.607   6.968 -0.1246 -1.1859 -0.3992
 3594SOL     OW11680   5.594   5.477   5.758  0.3958  0.3289  0.4610
 3594SOL    HW111681   5.620   5.393   5.710 -0.7825  1.1781 -1.8146
 3594SOL    HW211682   5.659   5.549   5.734  0.5887  0.4394  1.2872
 3595SOL     OW11683   3.970   2.081   3.826 -0.4979  0.3635  0.3530
 3595SOL    HW111684   4.015   2.017   3.889 -0.6445 -0.3995 -0.3028
 3595SOL    HW211685   3.879   2.046   3.803  0.4337 -0.6457 -2.1470
 3596SOL     OW11686   0.865   6.792   6.542  0.0156  0.2540  0.7060
 3596SOL    HW111687   0.785   6.765   6.597  0.6074 -0.7819  1.0960
 3596SOL    HW211688   0.867   6.891   6.532 -2.1513  0.2374 -0.5709
 3597SOL     OW11689   0.884   3.320   5.209 -0.7295  0.1309  0.0134
 3597SOL    HW111690   0.858   3.257   5.136  1.2122  0.2103 -0.7892
 3597SOL    HW211691   0.901   3.411   5.172 -0.9917  0.5051  0.7780
 3598SOL     OW11692   6.285   2.216   0.470 -0.5034  0.4704 -0.3804
 3598SOL    HW111693   6.347   2.223   0.392  0.4533  0.9767  0.4068
 3598SOL    HW211694   6.301   2.130   0.518 -0.1609  0.7526  0.0192
 3599SOL     OW11695   0.922   1.156   0.157  0.2844  0.3955 -0.6720
 3599SOL    HW111696   0.991   1.104   0.207  0.5082 -0.4521 -1.8186
 3599SOL    HW211697   0.874   1.218   0.220  2.3288  1.2932  0.0949
 3600SOL     OW11698   5.086   3.251   5.720 -0.6361 -0.5097 -0.2686
 3600SOL    HW111699   5.118   3.317   5.652  0.7313 -1.3874 -0.5180
 3600SOL    HW211700   4.997   3.216   5.692 -0.7630  0.2274 -0.8313
 3601SOL     OW11701   1.645   4.794   6.893 -0.2071  0.1334  0.1202
 3601SOL    HW111702   1.630   4.795   6.992 -0.2440 -1.1868  0.1480
 3601SOL    HW211703   1.677   4.703   6.865 -1.9151 -0.0828 -1.3140
 3602SOL     OW11704   6.961   0.171   2.018  0.0862  0.4902 -0.0309
 3602SOL    HW111705   6.881   0.217   1.980 -0.9310  0.1703  1.5961
 3602SOL    HW211706   7.007   0.232   2.082  1.6373  0.9448 -1.5258
 3603SOL     OW11707   0.773   3.906   1.974  0.0476  0.0725 -0.2176
 3603SOL    HW111708   0.868   3.886   1.998  0.3175  1.4392 -0.0418
 3603SOL    HW211709   0.726   3.943   2.054 -0.3961  0.1770 -0.5291
 3604SOL     OW11710   6.708   6.852   6.143 -0.4020  0.1189 -0.2958
 3604SOL    HW111711   6.733   6.874   6.049  4.0308  0.5975  0.7841
 3604SOL    HW211712   6.721   6.754   6.159 -0.4866  0.1592  0.0284
 3605SOL     OW11713   1.805   0.711   2.140 -0.0139  0.0206 -0.1726
 3605SOL    HW111714   1.740   0.689   2.213  0.4311  1.1022  0.5685
 3605SOL    HW211715   1.864   0.632   2.123  2.0723  0.7309  2.9628
 3606SOL     OW11716   5.422   2.703   5.409  0.2669 -0.0175  0.1256
 3606SOL    HW111717   5.407   2.689   5.311 -0.0913 -1.4566  0.3658
 3606SOL    HW211718   5.476   2.786   5.423  0.2730  0.2368 -1.2817
 3607SOL     OW11719   3.466   4.969   1.324 -0.7888  0.0056 -0.0944
 3607SOL    HW111720   3.480   4.973   1.225 -1.6302 -1.4847 -0.2925
 3607SOL    HW211721   3.539   4.915   1.366 -0.0801  1.1514  0.2074
 3608SOL     OW11722   1.305   2.238   3.492 -0.0326  0.0752  0.3080
 3608SOL    HW111723   1.306   2.171   3.566  0.4929  0.2594  0.4734
 3608SOL    HW211724   1.399   2.254   3.461 -0.1643  0.6870  0.2236
 3609SOL     OW11725   6.459   0.656   4.526 -0.3101 -0.6133  0.1679
 3609SOL    HW111726   6.533   0.612   4.577 -0.6534 -1.1181  0.2340
 3609SOL    HW211727   6.386   0.590   4.509 -1.0674  0.0545  0.7236
 3610SOL     OW11728   5.484   6.282   4.244  0.7954 -0.1191 -0.1105
 3610SOL    HW111729   5.441   6.195   4.272 -0.0608  0.3457  0.0462
 3610SOL    HW211730   5.429   6.325   4.173  1.2904  0.2392 -0.2797
 3611SOL     OW11731   5.154   6.418   2.985 -0.3090 -0.0179 -0.6619
 3611SOL    HW111732   5.152   6.518   2.988 -0.2996  0.0047 -1.2110
 3611SOL    HW211733   5.231   6.384   3.038  0.4592  0.3277 -1.5275
 3612SOL     OW11734   0.525   5.149   5.739  0.2234  0.2410  0.3322
 3612SOL    HW111735   0.480   5.235   5.714 -0.7203 -0.1987  0.4838
 3612SOL    HW211736   0.484   5.074   5.688  1.1452 -0.1054  0.0921
 3613SOL     OW11737   1.137   0.820   1.601  0.5297  0.6083  0.2104
 3613SOL    HW111738   1.128   0.808   1.502 -0.7355 -1.8067  0.5390
 3613SOL    HW211739   1.166   0.733   1.642 -4.1939 -0.1980  2.4694
 3614SOL     OW11740   3.820   3.700   6.613 -0.2344 -0.3120  1.0609
 3614SOL    HW111741   3.915   3.669   6.602 -0.1496  0.5743 -1.2839
 3614SOL    HW211742   3.819   3.797   6.634 -0.6128  0.1493 -0.9359
 3615SOL     OW11743   4.689   5.207   1.814  0.4839  0.0544  0.2690
 3615SOL    HW111744   4.712   5.302   1.791 -0.4212  0.2371  0.0964
 3615SOL    HW211745   4.591   5.192   1.801  0.3389 -0.4787  1.7909
 3616SOL     OW11746   2.679   2.402   2.799 -0.0448  0.4093  0.5485
 3616SOL    HW111747   2.703   2.446   2.885  2.1130 -0.4214  0.4282
 3616SOL    HW211748   2.734   2.320   2.787 -0.8278  0.1063 -1.3029
 3617SOL     OW11749   1.862   3.042   2.069  0.2667  0.1765 -0.0852
 3617SOL    HW111750   1.786   3.033   2.004  0.9117 -2.3423 -0.5962
 3617SOL    HW211751   1.949   3.025   2.022  0.7797 -1.3663  1.3373
 3618SOL     OW11752   4.100   5.072   4.683 -0.0601 -0.3623 -0.5154
 3618SOL    HW111753   4.154   5.092   4.765  0.0801  0.8568 -0.8813
 3618SOL    HW211754   4.123   4.981   4.649  2.6750  0.5352 -1.3239
 3619SOL     OW11755   3.972   5.588   1.076  0.6299  0.4543 -0.4843
 3619SOL    HW111756   4.049   5.564   1.135  0.6352  1.5058 -0.0614
 3619SOL    HW211757   3.969   5.687   1.063 -1.1833  0.5219  0.2257
 3620SOL     OW11758   1.797   6.975   5.880  0.3866 -0.0068  0.0498
 3620SOL    HW111759   1.854   6.894   5.896  0.3193 -0.7660 -2.9410
 3620SOL    HW211760   1.756   7.004   5.966  2.5258 -1.5165  1.6865
 3621SOL     OW11761   6.299   1.752   2.499  0.1527  0.0033 -0.2146
 3621SOL    HW111762   6.275   1.663   2.540 -3.6164  1.3945  1.0291
 3621SOL    HW211763   6.282   1.825   2.565  2.0907  1.7879 -1.5704
 3622SOL     OW11764   1.321   6.394   6.331  0.5910  0.3358  0.2427
 3622SOL    HW111765   1.403   6.339   6.312 -0.8933 -3.0339  2.4587
 3622SOL    HW211766   1.312   6.406   6.430 -1.8957 -0.0115  0.1085
 3623SOL     OW11767   0.384   5.709   5.162  0.5722 -0.3746  0.0956
 3623SOL    HW111768   0.291   5.728   5.132  1.1157 -0.5031 -1.8419
 3623SOL    HW211769   0.448   5.739   5.091  2.0494  0.1254  1.5685
 3624SOL     OW11770   1.819   0.335   5.306  0.0256 -0.0570 -0.3480
 3624SOL    HW111771   1.722   0.342   5.283  0.6657  0.9420 -3.2537
 3624SOL    HW211772   1.868   0.412   5.265  1.9416  0.0485  1.9487
 3625SOL     OW11773   5.332   4.865   6.600  0.6458  0.5164  0.5227
 3625SOL    HW111774   5.409   4.814   6.560 -1.0749 -2.1821  0.3990
 3625SOL    HW211775   5.256   4.802   6.617 -1.3858  2.9854  1.1064
 3626SOL     OW11776   0.335   5.094   4.897  0.1890  0.0539 -0.7859
 3626SOL    HW111777   0.423   5.081   4.943 -0.4503  0.1316  0.5155
 3626SOL    HW211778   0.272   5.142   4.959 -0.5270  0.7061 -1.9819
 3627SOL     OW11779   3.500   6.641   5.203  0.0622 -0.0620 -0.3505
 3627SOL    HW111780   3.533   6.652   5.109 -0.9520 -0.4261 -0.7616
 3627SOL    HW211781   3.427   6.707   5.220 -1.0386 -1.2255 -0.4441
 3628SOL     OW11782   3.655   6.623   2.774 -0.7626 -0.3327  0.3710
 3628SOL    HW111783   3.631   6.713   2.738  1.4884  0.2487  0.1593
 3628SOL    HW211784   3.720   6.633   2.849 -0.2759 -1.7964  0.1841
 3629SOL     OW11785   5.481   6.732   1.070 -0.3390 -0.4299  0.4373
 3629SOL    HW111786   5.441   6.819   1.042 -1.4792 -0.7861  0.8758
 3629SOL    HW211787   5.483   6.669   0.993 -0.0476 -0.2060  0.2617
 3630SOL     OW11788   6.883   0.440   2.930 -0.4118 -0.0144 -0.4430
 3630SOL    HW111789   6.816   0.466   2.861  1.3233 -0.8624 -2.5709
 3630SOL    HW211790   6.907   0.521   2.985 -1.7112  0.7278 -0.9219
 3631SOL     OW11791   2.176   3.305   0.786 -0.2900  0.3084  0.2961
 3631SOL    HW111792   2.124   3.365   0.726  0.0193  0.1196 -0.1653
 3631SOL    HW211793   2.143   3.316   0.880 -0.7867  0.5949  0.0962
 3632SOL     OW11794   3.112   2.527   1.712 -0.0269 -0.0427  0.1910
 3632SOL    HW111795   3.038   2.505   1.775 -1.0047 -2.8281 -1.7813
 3632SOL    HW211796   3.175   2.450   1.705  0.6702  0.6189 -1.3997
 3633SOL     OW11797   6.646   5.997   1.735 -0.1310  0.1932 -0.0465
 3633SOL    HW111798   6.621   5.959   1.646  2.2345  1.0783 -1.1970
 3633SOL    HW211799   6.686   6.088   1.722  1.0408  0.0008  1.8150
 3634SOL     OW11800   0.410   4.526   0.148 -0.1776  0.6428 -0.1812
 3634SOL    HW111801   0.328   4.530   0.090 -0.6575  0.9772  0.5068
 3634SOL    HW211802   0.392   4.467   0.227  0.7933 -0.5883 -0.8421
 3635SOL     OW11803   6.559   5.653   0.395 -0.0670 -0.5910  0.2818
 3635SOL    HW111804   6.532   5.558   0.383 -1.4803 -0.3778  1.5073
 3635SOL    HW211805   6.550   5.702   0.308  1.4000 -1.7141 -0.5381
 3636SOL     OW11806   5.556   1.225   3.429  0.2159  0.2803 -0.0313
 3636SOL    HW111807   5.554   1.126   3.413  1.6194  0.1550  0.4438
 3636SOL    HW211808   5.556   1.272   3.341  0.3156 -0.1622 -0.2748
 3637SOL     OW11809   2.367   2.713   3.237 -0.3301  0.5685  0.1601
 3637SOL    HW111810   2.427   2.706   3.157 -1.8542 -0.4033 -0.9682
 3637SOL    HW211811   2.273   2.729   3.206 -1.1217 -0.8257  1.7001
 3638SOL     OW11812   6.868   5.529   2.598 -0.7245  0.0241  0.3577
 3638SOL    HW111813   6.933   5.563   2.531 -1.4090  0.6989  0.0188
 3638SOL    HW211814   6.795   5.478   2.552 -1.0561  0.2630  0.6098
 3639SOL     OW11815   3.304   3.688   3.955  0.8687  0.1319  0.5575
 3639SOL    HW111816   3.349   3.648   3.875  0.7172  1.0672 -0.0069
 3639SOL    HW211817   3.233   3.626   3.988 -1.3610  1.1046 -2.0507
 3640SOL     OW11818   1.736   2.109   5.769  0.2746  0.0564  0.2210
 3640SOL    HW111819   1.778   2.034   5.717  0.7611  1.5443 -1.6459
 3640SOL    HW211820   1.751   2.195   5.720 -0.7252  1.3129  2.0420
 3641SOL     OW11821   3.410   3.125   5.604 -0.0236 -1.3059  0.0340
 3641SOL    HW111822   3.431   3.050   5.668 -0.5022  0.0127  1.8322
 3641SOL    HW211823   3.455   3.208   5.635 -1.7464 -0.1949 -0.3130
 3642SOL     OW11824   2.939   6.852   0.066  0.5273 -0.1236  0.2130
 3642SOL    HW111825   3.011   6.819   0.126  0.4006  0.9324  0.9720
 3642SOL    HW211826   2.852   6.850   0.115  0.1014 -0.9548 -0.5436
 3643SOL     OW11827   5.779   6.901   0.660 -0.1560  0.6130 -0.3564
 3643SOL    HW111828   5.687   6.864   0.666  0.2110 -0.3780 -0.5462
 3643SOL    HW211829   5.787   6.959   0.579 -0.4020  0.0715 -0.7739
 3644SOL     OW11830   2.973   5.197   4.284 -0.2822 -0.0063  0.2160
 3644SOL    HW111831   2.878   5.186   4.314 -0.3781 -0.2957 -0.1904
 3644SOL    HW211832   3.022   5.111   4.299  0.1816  0.4358  1.3516
 3645SOL     OW11833   0.772   1.343   5.279 -0.2430 -0.3446  0.0106
 3645SOL    HW111834   0.865   1.326   5.246  0.2978  0.2846  1.1515
 3645SOL    HW211835   0.759   1.441   5.294 -1.7773 -0.1665 -2.0561
 3646SOL     OW11836   5.508   0.385   3.742  0.1686 -0.1761  0.4894
 3646SOL    HW111837   5.452   0.429   3.813  0.0888  0.4020  0.0689
 3646SOL    HW211838   5.471   0.407   3.652  0.6597 -0.3734  0.2378
 3647SOL     OW11839   5.673   0.836   0.787 -1.2375 -0.1335 -0.7824
 3647SOL    HW111840   5.741   0.904   0.758 -0.2220 -0.8405 -0.1081
 3647SOL    HW211841   5.690   0.750   0.740 -2.2195 -0.0834 -1.2560
 3648SOL     OW11842   4.382   5.340   6.929 -0.0978  0.4978  0.3250
 3648SOL    HW111843   4.320   5.417   6.918 -1.8882 -0.7967  0.9090
 3648SOL    HW211844   4.412   5.308   6.839 -1.4148  0.2641 -0.0433
 3649SOL     OW11845   0.292   3.928   6.178  0.3648  0.3903 -0.0890
 3649SOL    HW111846   0.351   3.858   6.137  0.4703  0.5191 -0.1582
 3649SOL    HW211847   0.331   3.956   6.265 -0.1006 -0.2118  0.3182
 3650SOL     OW11848   5.914   3.756   0.241  0.2662  0.2152  0.5052
 3650SOL    HW111849   5.898   3.740   0.338 -0.8881 -0.7025  0.1774
 3650SOL    HW211850   5.994   3.816   0.231  0.1832  0.6419  2.0169
 3651SOL     OW11851   2.394   6.454   5.757  0.2079 -0.1919 -0.1865
 3651SOL    HW111852   2.365   6.362   5.785 -1.1402 -0.0059 -0.8666
 3651SOL    HW211853   2.416   6.508   5.838 -1.5773 -0.3131  0.4249
 3652SOL     OW11854   1.089   1.185   2.575 -0.1103  0.1128 -0.1526
 3652SOL    HW111855   1.143   1.203   2.657 -0.2815  0.0772 -0.0314
 3652SOL    HW211856   1.145   1.202   2.494  0.1669 -0.1706 -0.0274
 3653SOL     OW11857   2.164   3.897   4.680 -0.3499 -0.1569  0.0948
 3653SOL    HW111858   2.221   3.980   4.680  1.5494 -1.3854  0.5175
 3653SOL    HW211859   2.174   3.850   4.767 -0.5400 -1.3911 -0.5251
 3654SOL     OW11860   5.650   4.279   4.592  0.5504 -0.6623  0.0220
 3654SOL    HW111861   5.674   4.342   4.519  2.2927  0.5337  1.5324
 3654SOL    HW211862   5.558   4.299   4.625  1.4137  1.8954  1.1587
 3655SOL     OW11863   1.997   2.570   0.865 -0.1038  0.2017 -0.1977
 3655SOL    HW111864   1.940   2.629   0.922 -0.6829  1.7813 -2.2782
 3655SOL    HW211865   2.092   2.601   0.868 -0.1238  0.2525 -0.0773
 3656SOL     OW11866   1.928   0.348   4.465  0.7355  0.0877 -0.0546
 3656SOL    HW111867   1.936   0.256   4.503  1.3498  0.8736  1.7915
 3656SOL    HW211868   1.998   0.361   4.395  0.1673 -1.0666 -0.8904
 3657SOL     OW11869   6.206   3.638   1.950 -0.0381 -0.7118 -0.6218
 3657SOL    HW111870   6.161   3.621   2.038  1.9441 -1.1363  0.3721
 3657SOL    HW211871   6.275   3.710   1.961  0.6932 -1.2278 -1.6629
 3658SOL     OW11872   1.873   5.604   2.580  0.0587  0.1233 -0.1063
 3658SOL    HW111873   1.916   5.588   2.491 -0.1635  1.4271 -0.4633
 3658SOL    HW211874   1.781   5.641   2.566 -0.0139  0.2513  0.6713
 3659SOL     OW11875   1.796   2.379   0.854  0.0072  0.1345  0.2741
 3659SOL    HW111876   1.706   2.402   0.818  0.5711  1.3174 -0.4443
 3659SOL    HW211877   1.862   2.448   0.823  1.4067 -1.4151 -0.3022
 3660SOL     OW11878   6.026   2.668   6.830  0.0067  0.3968 -0.3988
 3660SOL    HW111879   6.056   2.700   6.740  0.8148 -1.7887 -0.9603
 3660SOL    HW211880   6.098   2.686   6.897 -0.1027  0.9470 -0.4247
 3661SOL     OW11881   6.389   6.416   0.262 -0.2012  0.2087  0.1340
 3661SOL    HW111882   6.390   6.512   0.237  0.0848  0.1525 -0.0721
 3661SOL    HW211883   6.483   6.381   0.267 -0.1847  0.4294  2.1275
 3662SOL     OW11884   3.323   1.836   6.055 -0.3385 -0.0816 -0.3933
 3662SOL    HW111885   3.293   1.791   6.139  1.1902 -0.3396  0.0369
 3662SOL    HW211886   3.400   1.785   6.015  0.1200  1.0410 -0.9768
 3663SOL     OW11887   6.170   1.269   6.311 -1.0054  0.1025 -0.4006
 3663SOL    HW111888   6.161   1.171   6.328 -3.1103  0.0331 -1.5693
 3663SOL    HW211889   6.111   1.320   6.374 -2.1253  0.3849 -1.6208
 3664SOL     OW11890   2.277   1.530   1.530 -0.1058 -0.0425 -0.4617
 3664SOL    HW111891   2.192   1.478   1.519 -1.0824  1.5770 -0.8726
 3664SOL    HW211892   2.288   1.594   1.454  0.8730  0.6096  0.2007
 3665SOL     OW11893   1.604   3.344   4.377 -0.3887 -0.0945 -0.2490
 3665SOL    HW111894   1.607   3.346   4.277  0.5812  0.9061 -0.2296
 3665SOL    HW211895   1.568   3.431   4.411  3.5488  1.5615  0.2813
 3666SOL     OW11896   6.930   1.343   0.804  0.7743  0.1604  0.9095
 3666SOL    HW111897   6.940   1.424   0.862 -0.8371 -0.0416  1.5000
 3666SOL    HW211898   6.926   1.372   0.708  1.8452  0.6211  0.9865
 3667SOL     OW11899   4.683   4.455   3.848 -0.5488  0.1407  0.0607
 3667SOL    HW111900   4.740   4.537   3.844  2.0141 -1.3968  2.0263
 3667SOL    HW211901   4.618   4.464   3.924  1.0822 -0.3459  1.5871
 3668SOL     OW11902   2.777   0.391   5.053  0.1055  0.6580 -0.2474
 3668SOL    HW111903   2.842   0.455   5.093 -0.7759  1.2717  0.2396
 3668SOL    HW211904   2.743   0.428   4.967  0.1306  0.5040 -0.3244
 3669SOL     OW11905   2.803   4.739   2.767 -0.0752 -0.0269 -0.1960
 3669SOL    HW111906   2.794   4.713   2.863 -0.4245  0.3783 -0.1164
 3669SOL    HW211907   2.889   4.786   2.752  0.2841 -0.6804 -0.2180
 3670SOL     OW11908   0.733   5.067   0.711  0.0565  0.1646  0.3932
 3670SOL    HW111909   0.829   5.094   0.709 -0.3417  1.6252 -0.8821
 3670SOL    HW211910   0.718   4.991   0.647  0.2019  0.6200 -0.1959
 3671SOL     OW11911   1.474   1.749   5.043  0.0488 -0.3320  0.1850
 3671SOL    HW111912   1.383   1.707   5.039 -0.4330  0.7226 -0.4008
 3671SOL    HW211913   1.482   1.818   4.972  0.6466  0.8990  1.3985
 3672SOL     OW11914   6.765   5.943   1.327 -0.1399 -0.0222 -0.1175
 3672SOL    HW111915   6.852   5.897   1.310 -0.0113 -0.5613  1.7161
 3672SOL    HW211916   6.721   5.965   1.240  1.3827 -0.5791 -1.0690
 3673SOL     OW11917   0.272   4.904   2.514  0.7668  0.2464  0.4424
 3673SOL    HW111918   0.354   4.901   2.572 -0.7404  0.1484  2.6858
 3673SOL    HW211919   0.248   4.812   2.484  1.4924  0.2879 -0.3294
 3674SOL     OW11920   2.362   3.665   6.458 -0.1298  0.3801  0.7154
 3674SOL    HW111921   2.339   3.584   6.404 -0.3434  1.1314 -0.3671
 3674SOL    HW211922   2.283   3.726   6.463  0.3799  1.0838  0.4698
 3675SOL     OW11923   1.997   3.107   0.309  0.3146 -0.0100  0.1383
 3675SOL    HW111924   1.956   3.092   0.219  0.5356 -0.1542  0.0616
 3675SOL    HW211925   2.016   3.018   0.352  0.0533  0.0580  0.3987
 3676SOL     OW11926   5.728   5.311   5.956  0.3810  0.6473 -0.0473
 3676SOL    HW111927   5.684   5.224   5.935  3.3960 -1.0673  0.2328
 3676SOL    HW211928   5.670   5.386   5.923 -1.3312 -1.4719 -2.2556
 3677SOL     OW11929   5.062   4.632   3.796 -0.6202 -0.0074 -0.0053
 3677SOL    HW111930   5.087   4.548   3.749  2.4154  0.9513 -0.3006
 3677SOL    HW211931   5.095   4.629   3.890 -3.2331 -0.3065  1.0118
 3678SOL     OW11932   3.454   0.253   6.166 -0.8421  0.5352 -0.3233
 3678SOL    HW111933   3.454   0.160   6.128  0.1911  0.7334 -0.8465
 3678SOL    HW211934   3.372   0.266   6.222 -1.9442 -0.0843 -1.7136
 3679SOL     OW11935   4.914   5.904   6.196  0.1563  0.1749 -0.0030
 3679SOL    HW111936   4.818   5.897   6.223  0.0503 -0.4344 -0.5265
 3679SOL    HW211937   4.922   5.892   6.097  0.9675 -1.7075  0.2585
 3680SOL     OW11938   6.225   1.201   5.577 -0.1650 -0.5682 -0.3676
 3680SOL    HW111939   6.165   1.134   5.533 -0.5661  1.2069 -2.7226
 3680SOL    HW211940   6.185   1.293   5.569  1.2497  0.2394  1.0887
 3681SOL     OW11941   4.890   5.250   4.232 -0.0118 -0.1361 -0.6178
 3681SOL    HW111942   4.951   5.174   4.209  0.8228  1.0899 -2.7384
 3681SOL    HW211943   4.795   5.220   4.221  0.1261 -1.7932  1.8382
 3682SOL     OW11944   4.139   4.154   6.613  0.7893 -0.7259 -0.2407
 3682SOL    HW111945   4.121   4.064   6.574  2.0671 -1.2711  0.3660
 3682SOL    HW211946   4.062   4.215   6.595 -0.7704 -2.3616  0.6702
 3683SOL     OW11947   7.017   2.835   4.047 -0.0289 -0.3327 -0.0155
 3683SOL    HW111948   7.026   2.744   4.006 -2.7644 -0.0142 -1.5843
 3683SOL    HW211949   7.006   2.903   3.974 -0.5065  0.9202  1.1839
 3684SOL     OW11950   2.681   4.694   2.538  0.9037  0.6086 -0.1798
 3684SOL    HW111951   2.705   4.680   2.634 -0.7487 -0.4415  0.1157
 3684SOL    HW211952   2.611   4.629   2.511 -0.5975  2.5844 -1.3560
 3685SOL     OW11953   6.714   0.796   5.924 -0.5473  0.1441  1.0797
 3685SOL    HW111954   6.717   0.896   5.925  1.1051  0.1888 -1.3737
 3685SOL    HW211955   6.751   0.761   6.010  2.3225  1.6861  0.6045
 3686SOL     OW11956   2.423   6.014   0.534  0.0821 -0.4383  0.4252
 3686SOL    HW111957   2.482   6.091   0.512  0.0351 -0.3165  0.7210
 3686SOL    HW211958   2.420   6.001   0.634 -3.1055  1.7725  0.7527
 3687SOL     OW11959   2.315   0.988   3.228 -0.0511  0.2436 -0.3595
 3687SOL    HW111960   2.325   0.999   3.326  0.5755  0.5160 -0.4490
 3687SOL    HW211961   2.405   0.975   3.186 -0.0233  2.7113 -1.2014
 3688SOL     OW11962   1.593   6.862   1.795  0.1004 -0.3839  0.2507
 3688SOL    HW111963   1.614   6.958   1.812  0.8281 -0.6492  0.9090
 3688SOL    HW211964   1.541   6.824   1.872 -1.8697 -0.0503 -0.8344
 3689SOL     OW11965   5.827   3.878   6.108 -0.1294 -0.1939  0.0111
 3689SOL    HW111966   5.905   3.826   6.144  0.4248 -0.0058 -0.8999
 3689SOL    HW211967   5.787   3.830   6.030 -0.5892 -0.0232  0.1375
 3690SOL     OW11968   1.863   6.653   5.297  0.3793  0.3856 -0.3444
 3690SOL    HW111969   1.896   6.738   5.338 -0.2475 -0.0480  1.1101
 3690SOL    HW211970   1.874   6.578   5.362  0.4611 -0.5728 -1.4215
 3691SOL     OW11971   6.597   2.596   4.572  0.3059 -0.0381  1.0957
 3691SOL    HW111972   6.580   2.621   4.476 -0.0995 -1.2070  0.8557
 3691SOL    HW211973   6.570   2.673   4.631 -2.3752 -0.4214  0.4714
 3692SOL     OW11974   4.093   2.174   4.973 -0.2263 -0.2932  0.2693
 3692SOL    HW111975   4.163   2.233   5.014 -0.1764 -1.0396  1.3033
 3692SOL    HW211976   4.012   2.172   5.032 -0.2199 -1.2572  0.2723
 3693SOL     OW11977   2.552   6.142   2.140  0.2011  0.4701  0.1242
 3693SOL    HW111978   2.553   6.200   2.221  1.5114  2.4788 -1.2356
 3693SOL    HW211979   2.643   6.137   2.101 -0.1327 -1.5476 -0.5395
 3694SOL     OW11980   3.081   5.545   3.075  0.6002 -0.3034  0.1344
 3694SOL    HW111981   3.105   5.460   3.028  1.1684  0.6118 -1.2992
 3694SOL    HW211982   3.076   5.528   3.173  1.1744 -1.8839 -0.0764
 3695SOL     OW11983   0.833   1.640   6.990 -0.2742  0.1218 -0.6403
 3695SOL    HW111984   0.758   1.599   7.043  0.9176 -0.6229  0.5336
 3695SOL    HW211985   0.803   1.654   6.895 -2.2802  0.9676  0.0635
 3696SOL     OW11986   0.693   4.602   6.200 -0.0486  0.2290  0.1240
 3696SOL    HW111987   0.636   4.664   6.255  0.2280  0.7263 -0.1473
 3696SOL    HW211988   0.637   4.563   6.127 -0.7095 -1.2671  1.3627
 3697SOL     OW11989   1.401   4.146   2.787 -0.2201  0.2345  0.2149
 3697SOL    HW111990   1.439   4.215   2.848 -1.6205  1.3603 -0.1445
 3697SOL    HW211991   1.378   4.064   2.839  2.6281 -0.5214  0.4487
 3698SOL     OW11992   4.780   5.062   6.156  0.7617 -0.0710  0.1319
 3698SOL    HW111993   4.727   4.977   6.166  0.1351  0.5208  2.5033
 3698SOL    HW211994   4.847   5.068   6.230  2.3702  0.4774 -1.3040
 3699SOL     OW11995   0.849   4.951   5.054  0.5504  0.1373  0.3825
 3699SOL    HW111996   0.927   4.933   5.114  0.2602 -1.6895  0.2867
 3699SOL    HW211997   0.861   4.900   4.968  0.3133  1.6341 -0.5842
 3700SOL     OW11998   2.179   4.340   4.416  0.1627 -0.5121  0.6282
 3700SOL    HW111999   2.138   4.365   4.503 -0.4225  0.0245  0.2153
 3700SOL    HW212000   2.204   4.424   4.366  0.0918 -0.7980  0.1021
 3701SOL     OW12001   5.646   4.051   5.791  0.4937 -0.6289 -0.5017
 3701SOL    HW112002   5.595   4.123   5.838 -2.3326 -1.6296 -1.7909
 3701SOL    HW212003   5.650   4.072   5.693  3.2601 -0.2689 -0.3795
 3702SOL     OW12004   5.307   2.580   6.296 -0.2301 -0.2389  0.4978
 3702SOL    HW112005   5.300   2.647   6.370  1.4586 -1.3259  1.7021
 3702SOL    HW212006   5.402   2.574   6.265 -0.4980 -1.5130 -0.1314
 3703SOL     OW12007   4.316   1.573   6.372  0.8231  0.0289 -0.0554
 3703SOL    HW112008   4.409   1.553   6.340 -0.3787 -2.8360 -2.2515
 3703SOL    HW212009   4.256   1.587   6.294 -1.2552 -1.8138  1.0793
 3704SOL     OW12010   5.096   5.844   6.771  0.2155  0.0743 -0.3327
 3704SOL    HW112011   5.138   5.875   6.685 -0.9413 -1.0910 -1.3594
 3704SOL    HW212012   5.105   5.745   6.778 -0.8428  0.0144  0.2673
 3705SOL     OW12013   4.341   0.142   0.501  0.4019  0.5561 -0.4420
 3705SOL    HW112014   4.245   0.120   0.482 -0.0484  2.2133 -0.2658
 3705SOL    HW212015   4.348   0.183   0.592  1.6545 -1.6462  0.5402
 3706SOL     OW12016   1.356   2.045   0.865  0.3575 -0.3357  0.5198
 3706SOL    HW112017   1.277   2.077   0.917  1.4581  0.7485  1.5786
 3706SOL    HW212018   1.416   1.991   0.924  0.2260 -1.5465 -0.3909
 3707SOL     OW12019   1.767   0.522   5.019  0.5992 -0.5663 -0.5095
 3707SOL    HW112020   1.676   0.542   5.057  1.1942  0.7398  0.2654
 3707SOL    HW212021   1.768   0.428   4.985 -0.5879 -1.1380  0.8920
 3708SOL     OW12022   2.193   5.168   4.840 -0.7011 -0.1599  0.0035
 3708SOL    HW112023   2.170   5.265   4.847 -0.1248  0.1487 -1.8481
 3708SOL    HW212024   2.222   5.134   4.930 -1.1676  1.2905  0.7382
 3709SOL     OW12025   4.530   1.423   4.953 -0.0904 -0.3033 -0.6540
 3709SOL    HW112026   4.528   1.456   4.858  1.5903  0.4924 -0.4495
 3709SOL    HW212027   4.437   1.420   4.989 -0.5206  2.4229 -1.3134
 3710SOL     OW12028   5.532   3.706   6.336 -0.6705  0.0803 -0.7999
 3710SOL    HW112029   5.589   3.783   6.309  0.2814 -0.1251  0.5390
 3710SOL    HW212030   5.590   3.626   6.354 -1.5917 -0.8052 -1.6174
 3711SOL     OW12031   4.260   5.854   1.005  0.2050  0.0572  0.1079
 3711SOL    HW112032   4.302   5.945   1.008 -0.6933  0.4679  2.3247
 3711SOL    HW212033   4.164   5.862   1.031  0.0644 -1.5036  0.1356
 3712SOL     OW12034   2.109   5.652   4.406  0.0368  0.3212  0.4099
 3712SOL    HW112035   2.189   5.615   4.455 -1.0007 -2.3373  0.2756
 3712SOL    HW212036   2.060   5.577   4.362 -2.5385  1.8732  0.4590
 3713SOL     OW12037   3.076   6.764   5.975 -0.0706  0.2562 -0.2918
 3713SOL    HW112038   3.018   6.840   5.948 -2.0072 -1.6535 -1.8833
 3713SOL    HW212039   3.063   6.744   6.072  0.2991  1.7550  0.0873
 3714SOL     OW12040   1.061   2.235   0.706  0.4089  0.5913 -0.2779
 3714SOL    HW112041   0.962   2.225   0.695  0.0011  3.7715 -0.4853
 3714SOL    HW212042   1.090   2.192   0.792 -1.3549  0.5541  0.3314
 3715SOL     OW12043   4.761   1.370   1.669 -0.2416  0.8175  0.0202
 3715SOL    HW112044   4.799   1.400   1.581  0.7867  0.0402  0.1832
 3715SOL    HW212045   4.832   1.376   1.740  0.0124 -1.7730  0.1008
 3716SOL     OW12046   0.436   3.687   3.861 -0.2664  0.6688  0.1299
 3716SOL    HW112047   0.464   3.591   3.869 -0.6660  0.5975  0.7042
 3716SOL    HW212048   0.515   3.743   3.837 -0.0734  0.1672 -0.4521
 3717SOL     OW12049   2.051   2.309   4.359  0.5067  0.1804 -0.0840
 3717SOL    HW112050   2.082   2.398   4.325  1.4773 -0.6501 -1.4418
 3717SOL    HW212051   2.129   2.260   4.397 -0.2810  0.4713  2.0977
 3718SOL     OW12052   5.357   1.876   1.067  0.4681  0.1623 -0.1356
 3718SOL    HW112053   5.373   1.866   0.968  0.3125  3.6892 -0.6417
 3718SOL    HW212054   5.399   1.960   1.099 -1.6244  0.3997  2.2799
 3719SOL     OW12055   3.041   3.101   2.254  0.0920 -0.4526  0.1327
 3719SOL    HW112056   3.121   3.042   2.248  0.0616 -0.4021 -0.9179
 3719SOL    HW212057   2.961   3.052   2.218 -0.1480 -0.1374  0.2296
 3720SOL     OW12058   3.785   2.591   1.393  0.1928  0.5799 -0.1821
 3720SOL    HW112059   3.821   2.646   1.318  1.0925 -1.5007 -1.3766
 3720SOL    HW212060   3.826   2.620   1.479  1.0938  1.3662 -0.8588
 3721SOL     OW12061   1.989   0.855   6.330  0.1304 -0.0868 -0.1567
 3721SOL    HW112062   1.932   0.928   6.369 -1.7660 -1.2608 -0.6026
 3721SOL    HW212063   2.034   0.805   6.404 -0.9127 -0.2946  0.3559
 3722SOL     OW12064   6.768   2.138   3.642 -1.1823  0.1264  0.2830
 3722SOL    HW112065   6.753   2.194   3.560  1.5551 -0.6992 -0.9261
 3722SOL    HW212066   6.756   2.194   3.724  2.0596  2.8339 -0.8520
 3723SOL     OW12067   5.072   0.828   4.691  0.6240 -0.0026  0.3154
 3723SOL    HW112068   5.056   0.784   4.779  1.3640 -0.1302  0.3871
 3723SOL    HW212069   5.101   0.760   4.624  2.6383  0.4543  0.6482
 3724SOL     OW12070   2.281   5.824   1.034 -0.1990 -0.4555  0.3131
 3724SOL    HW112071   2.226   5.902   1.064 -1.0618 -0.2620 -1.6146
 3724SOL    HW212072   2.377   5.841   1.055 -0.2599  1.5521 -0.8120
 3725SOL     OW12073   1.228   2.108   1.623  0.1936 -0.6402 -0.3549
 3725SOL    HW112074   1.135   2.131   1.650  0.6669  1.8183 -0.5441
 3725SOL    HW212075   1.261   2.032   1.679 -1.8339 -1.4435 -0.1699
 3726SOL     OW12076   3.729   2.107   3.263 -0.9026  0.1380 -0.4271
 3726SOL    HW112077   3.665   2.074   3.193  0.6175  0.9393 -2.2911
 3726SOL    HW212078   3.813   2.139   3.218  0.0607  0.8685  1.7878
 3727SOL     OW12079   1.426   3.435   3.878 -0.2682  0.2663  0.2218
 3727SOL    HW112080   1.461   3.401   3.966 -1.8742  0.0051  0.7933
 3727SOL    HW212081   1.480   3.396   3.804 -0.0932 -1.0702  1.0073
 3728SOL     OW12082   6.805   4.817   5.585 -0.1085 -0.0922 -0.6516
 3728SOL    HW112083   6.777   4.852   5.675  0.4228  0.2019 -0.5928
 3728SOL    HW212084   6.863   4.884   5.540 -1.9270  0.5861 -2.0556
 3729SOL     OW12085   0.381   3.381   4.522 -0.6598  0.4917  0.4336
 3729SOL    HW112086   0.435   3.297   4.536 -2.0044 -0.6105 -0.7594
 3729SOL    HW212087   0.409   3.424   4.437 -1.4567  0.0489 -0.0651
 3730SOL     OW12088   0.158   1.122   5.889  0.3717  0.1509 -0.0168
 3730SOL    HW112089   0.093   1.049   5.865  1.9747 -0.9566 -1.2001
 3730SOL    HW212090   0.192   1.164   5.805  0.5699  1.2850  0.6217
 3731SOL     OW12091   6.653   5.201   5.791 -0.7289 -0.4871  0.4182
 3731SOL    HW112092   6.725   5.241   5.734 -0.6989 -0.7373  0.2782
 3731SOL    HW212093   6.573   5.182   5.734 -1.0914  0.2468  0.6690
 3732SOL     OW12094   1.252   0.612   4.043 -0.3735 -0.0226 -0.0456
 3732SOL    HW112095   1.305   0.545   4.095  1.4176  1.1174 -0.3369
 3732SOL    HW212096   1.196   0.666   4.106  2.2184  1.7455  0.8479
 3733SOL     OW12097   4.131   1.997   1.454  0.3434 -0.3585  0.2218
 3733SOL    HW112098   4.211   1.947   1.485  1.7863  2.1002  0.7393
 3733SOL    HW212099   4.089   2.046   1.532 -0.5045 -0.0817 -0.3869
 3734SOL     OW12100   1.409   0.839   6.029 -0.0497  0.6041 -0.0049
 3734SOL    HW112101   1.446   0.834   6.122 -0.2722 -0.4667  0.0412
 3734SOL    HW212102   1.473   0.796   5.965 -0.7845 -0.4739 -0.0469
 3735SOL     OW12103   7.015   2.492   2.871 -0.0962  0.1121  0.0294
 3735SOL    HW112104   6.922   2.529   2.876 -0.0259  0.3422 -0.2961
 3735SOL    HW212105   7.067   2.543   2.802  0.3125  0.0789  0.3066
 3736SOL     OW12106   4.120   0.035   1.784  1.1837 -0.0830 -0.6330
 3736SOL    HW112107   4.127   0.070   1.690  0.0059 -0.1067 -0.7467
 3736SOL    HW212108   4.082   0.106   1.843  0.2184 -0.6460 -0.5539
 3737SOL     OW12109   2.585   6.805   3.563  0.2468 -0.3397 -0.1197
 3737SOL    HW112110   2.581   6.902   3.541 -1.4476 -0.0100  1.3977
 3737SOL    HW212111   2.613   6.793   3.658 -3.0272 -1.0592  0.8754
 3738SOL     OW12112   1.920   2.600   4.112 -0.2791 -0.3393 -0.0377
 3738SOL    HW112113   1.820   2.602   4.109 -0.2737  0.4613  0.1265
 3738SOL    HW212114   1.957   2.686   4.078  0.3040  0.0184  1.3977
 3739SOL     OW12115   0.651   6.337   4.903  0.1750 -0.5832 -0.4401
 3739SOL    HW112116   0.676   6.357   4.998  0.6769  2.4384 -1.1160
 3739SOL    HW212117   0.696   6.253   4.874 -0.3389 -1.8224  2.0774
 3740SOL     OW12118   5.241   3.151   4.824 -0.9820 -0.0136 -0.3684
 3740SOL    HW112119   5.237   3.136   4.725 -1.0997 -0.2617 -0.3254
 3740SOL    HW212120   5.282   3.071   4.868 -1.1974 -0.0226 -0.1870
 3741SOL     OW12121   0.015   5.028   4.234  0.1524  0.1371  0.0491
 3741SOL    HW112122   0.017   4.930   4.213  0.8651  0.5115 -1.8999
 3741SOL    HW212123   0.096   5.053   4.286 -0.0307 -0.3114  0.5516
 3742SOL     OW12124   6.326   3.312   1.098  0.0219  0.1573 -0.0701
 3742SOL    HW112125   6.348   3.324   1.195  0.5066  1.3629 -0.3097
 3742SOL    HW212126   6.262   3.383   1.069  0.4041  0.2145 -0.7943
 3743SOL     OW12127   4.435   2.018   0.753 -0.1432 -0.3044  0.2035
 3743SOL    HW112128   4.519   2.073   0.759  0.0930 -0.6375  0.0133
 3743SOL    HW212129   4.391   2.015   0.842 -0.2373  0.3154  0.1810
 3744SOL     OW12130   1.271   6.025   5.260  0.1944  0.2793  0.4068
 3744SOL    HW112131   1.341   6.031   5.331  1.6880  0.7587 -1.0487
 3744SOL    HW212132   1.227   6.115   5.250 -0.6894 -0.0305  1.3453
 3745SOL     OW12133   5.621   5.875   6.051 -0.1952  0.5117  0.4036
 3745SOL    HW112134   5.590   5.792   6.004  0.9356  0.2699  0.0719
 3745SOL    HW212135   5.704   5.910   6.008 -1.1203  2.3333 -0.0233
 3746SOL     OW12136   1.800   2.746   6.234 -0.2004 -0.2025  1.0409
 3746SOL    HW112137   1.770   2.821   6.175  0.4023 -0.0721  0.9013
 3746SOL    HW212138   1.871   2.778   6.296  0.5124 -0.8088  0.5565
 3747SOL     OW12139   1.662   4.813   0.130  0.3486 -0.4821 -0.3208
 3747SOL    HW112140   1.613   4.729   0.152 -1.4359  0.5026 -0.2533
 3747SOL    HW212141   1.742   4.823   0.189  1.7300 -3.0261 -1.6269
 3748SOL     OW12142   1.124   5.444   0.944 -0.2138  0.5406 -0.8454
 3748SOL    HW112143   1.117   5.453   1.043 -0.3346 -0.5178 -0.7439
 3748SOL    HW212144   1.167   5.357   0.921  0.9329  1.2969 -1.7156
 3749SOL     OW12145   4.212   5.034   6.155 -0.2372 -0.0571 -0.6941
 3749SOL    HW112146   4.135   5.051   6.216 -0.1052  1.2170 -0.8539
 3749SOL    HW212147   4.249   4.943   6.173 -1.8318 -0.7480 -0.6959
 3750SOL     OW12148   6.615   1.871   2.886  0.4454 -0.0959  1.2745
 3750SOL    HW112149   6.650   1.900   2.797 -1.2292 -2.3317 -0.2172
 3750SOL    HW212150   6.619   1.772   2.894 -2.5102 -0.2438  2.2585
 3751SOL     OW12151   5.461   0.733   1.646 -0.4558  0.7187  0.6500
 3751SOL    HW112152   5.539   0.770   1.696  0.4001  0.7656 -0.6801
 3751SOL    HW212153   5.469   0.633   1.641  0.1493  0.8139 -0.4830
 3752SOL     OW12154   1.283   1.633   2.974  0.6706  0.3820 -0.3804
 3752SOL    HW112155   1.371   1.668   3.004  0.5968  0.6156 -0.4343
 3752SOL    HW212156   1.277   1.535   2.995  0.9366  0.3673 -0.3668
 3753SOL     OW12157   1.829   6.178   2.831 -0.4644  0.0565 -0.0228
 3753SOL    HW112158   1.851   6.262   2.881  0.1178  0.8148 -1.5202
 3753SOL    HW212159   1.764   6.198   2.758 -0.1143 -0.7312 -0.5690
 3754SOL     OW12160   6.254   2.256   4.180  0.2642  0.5721  0.2576
 3754SOL    HW112161   6.346   2.296   4.170 -0.2269  1.4912 -0.8434
 3754SOL    HW212162   6.259   2.157   4.165  0.8555  0.8258 -1.4718
 3755SOL     OW12163   3.287   6.712   0.582  0.0402 -0.2108  0.7157
 3755SOL    HW112164   3.316   6.807   0.579 -0.3381 -0.1136 -1.2189
 3755SOL    HW212165   3.362   6.653   0.553 -0.4274 -0.2678 -0.4674
 3756SOL     OW12166   2.676   2.391   1.836  0.4341 -0.2796  0.0162
 3756SOL    HW112167   2.641   2.358   1.924  1.6167 -0.2460  0.5160
 3756SOL    HW212168   2.776   2.389   1.837  0.5040  1.2884 -0.7369
 3757SOL     OW12169   1.439   5.666   2.070  0.0103  0.1094 -0.5959
 3757SOL    HW112170   1.482   5.756   2.079 -0.0300  0.0548  0.2803
 3757SOL    HW212171   1.367   5.656   2.139 -1.7717  0.3747 -2.3413
 3758SOL     OW12172   2.171   3.421   4.649 -0.8072  0.1010 -0.3732
 3758SOL    HW112173   2.150   3.391   4.557 -2.9058  0.9559 -0.2256
 3758SOL    HW212174   2.259   3.383   4.678  1.0697  1.6248 -3.5194
 3759SOL     OW12175   1.387   6.110   4.548  0.5130  0.2363  0.8052
 3759SOL    HW112176   1.357   6.044   4.479  0.5627 -0.4517  1.4287
 3759SOL    HW212177   1.393   6.201   4.507  0.6624 -0.1819 -0.1235
 3760SOL     OW12178   4.877   2.484   1.870 -0.5250  0.3859  0.4028
 3760SOL    HW112179   4.799   2.547   1.870 -0.2741  0.7428 -1.2734
 3760SOL    HW212180   4.943   2.513   1.941  0.0435  2.6615 -0.9364
 3761SOL     OW12181   2.372   5.741   0.461  0.0003  0.4223  0.4005
 3761SOL    HW112182   2.429   5.711   0.537 -0.6507 -0.0699  0.7000
 3761SOL    HW212183   2.363   5.841   0.464 -2.4704  0.2270  2.7778
 3762SOL     OW12184   0.630   1.884   0.016 -0.1002  0.3443 -0.1318
 3762SOL    HW112185   0.543   1.844   0.045 -0.7104  1.2230 -0.7243
 3762SOL    HW212186   0.679   1.818  -0.041 -0.4300 -0.1037  0.0910
 3763SOL     OW12187   6.474   3.106   4.772 -0.0647 -0.2816  0.4833
 3763SOL    HW112188   6.462   3.028   4.833  1.0258 -0.6160  0.2966
 3763SOL    HW212189   6.571   3.115   4.747 -0.0262  1.5928  1.1020
 3764SOL     OW12190   6.623   6.931   1.761  0.3644  0.0964 -0.2265
 3764SOL    HW112191   6.557   6.985   1.709 -0.4001 -0.8049 -0.2027
 3764SOL    HW212192   6.690   6.891   1.699  1.9454  2.3511 -0.1167
 3765SOL     OW12193   3.344   0.646   3.068 -0.0543 -0.3280 -0.0989
 3765SOL    HW112194   3.260   0.668   3.017  0.6834 -1.5256 -1.9231
 3765SOL    HW212195   3.321   0.590   3.148 -1.0462 -0.0851 -0.1992
 3766SOL     OW12196   2.093   1.741   0.650  0.2023 -0.0666  0.5711
 3766SOL    HW112197   2.040   1.706   0.727  0.6884 -0.1964  0.8497
 3766SOL    HW212198   2.037   1.805   0.597 -0.7536 -1.3505 -0.0203
 3767SOL     OW12199   4.720   6.234   4.853  0.4887  0.0971  0.3365
 3767SOL    HW112200   4.689   6.329   4.854  1.2643  0.3671 -0.2691
 3767SOL    HW212201   4.655   6.179   4.800  0.9658  0.6400 -0.8503
 3768SOL     OW12202   1.939   0.094   4.953  0.4957  0.2400  0.8949
 3768SOL    HW112203   2.001   0.057   4.884 -0.4565  0.1905  0.0321
 3768SOL    HW212204   1.934   0.194   4.943 -2.6697 -0.0062 -1.8887
 3769SOL     OW12205   5.619   6.109   1.335  0.6981  0.1521 -0.5641
 3769SOL    HW112206   5.540   6.051   1.315  0.3161 -0.1985  1.6719
 3769SOL    HW212207   5.622   6.186   1.271 -0.7453 -0.4982 -1.4437
 3770SOL     OW12208   2.124   3.675   0.249 -0.5799 -0.4254 -0.0655
 3770SOL    HW112209   2.031   3.653   0.279  0.3961 -2.8055  1.5018
 3770SOL    HW212210   2.175   3.717   0.324  0.1930 -1.0067 -0.2568
 3771SOL     OW12211   0.362   1.651   6.534 -0.0396  0.2798 -0.4763
 3771SOL    HW112212   0.287   1.644   6.468 -0.1894 -0.1706 -0.2573
 3771SOL    HW212213   0.332   1.703   6.614 -0.6898 -1.4055  0.4115
 3772SOL     OW12214   5.786   6.662   3.620 -0.5507  0.2727 -0.1773
 3772SOL    HW112215   5.752   6.613   3.700 -0.0541  0.1869 -0.0135
 3772SOL    HW212216   5.709   6.699   3.568 -1.2041 -3.1223 -1.9284
 3773SOL     OW12217   5.173   6.550   4.266 -0.5006  0.5926 -0.0683
 3773SOL    HW112218   5.107   6.589   4.330 -0.8357 -0.8882  0.5338
 3773SOL    HW212219   5.261   6.537   4.312 -0.9927 -1.3218  0.4272
 3774SOL     OW12220   4.015   6.141   1.253  0.0489 -0.0511 -0.0955
 3774SOL    HW112221   4.057   6.223   1.292 -0.1132 -0.0387  0.0532
 3774SOL    HW212222   4.076   6.063   1.266  0.5449  0.1832 -0.9044
 3775SOL     OW12223   4.161   7.002   6.135 -0.5170 -0.2368 -0.5375
 3775SOL    HW112224   4.108   7.009   6.219 -3.0724 -0.5126 -2.0222
 3775SOL    HW212225   4.209   7.088   6.118  0.0903 -0.1962  1.1689
 3776SOL     OW12226   3.923   0.576   0.879 -0.3063 -0.3129 -0.5374
 3776SOL    HW112227   3.862   0.498   0.862  1.2916 -1.6271 -0.4667
 3776SOL    HW212228   4.012   0.543   0.911  0.2319  1.5871  0.0806
 3777SOL     OW12229   1.477   5.150   4.823 -0.5336 -0.1196  0.0618
 3777SOL    HW112230   1.479   5.156   4.923 -3.4402  0.6883  0.1603
 3777SOL    HW212231   1.426   5.069   4.796  0.4598 -0.4737 -0.8210
 3778SOL     OW12232   2.151   0.538   1.271 -0.7870 -0.2812 -0.6143
 3778SOL    HW112233   2.213   0.487   1.331 -0.2347  0.0333 -0.9125
 3778SOL    HW212234   2.061   0.545   1.315 -0.3765 -0.0176  0.1979
 3779SOL     OW12235   5.987   0.532   1.378 -0.5644 -0.4660  0.4069
 3779SOL    HW112236   5.984   0.594   1.300 -1.4451 -0.6445  0.2849
 3779SOL    HW212237   5.964   0.582   1.461 -0.8519 -0.5320  0.3692
 3780SOL     OW12238   4.753   2.323   4.504  0.0716  0.0959  0.0044
 3780SOL    HW112239   4.707   2.306   4.416 -0.1726 -2.1845  0.5258
 3780SOL    HW212240   4.779   2.236   4.545  1.5510  1.2000  1.5067
 3781SOL     OW12241   2.223   4.376   0.244  0.1683  0.2631  0.7886
 3781SOL    HW112242   2.316   4.414   0.240 -0.3083  1.5141  1.2119
 3781SOL    HW212243   2.182   4.380   0.153  0.3045  0.2929  0.7276
 3782SOL     OW12244   5.431   4.271   4.374  1.1639 -0.1901  0.2373
 3782SOL    HW112245   5.482   4.185   4.363  0.3444 -0.5580 -0.9715
 3782SOL    HW212246   5.430   4.297   4.470  2.4501 -0.8960  0.4646
 3783SOL     OW12247   3.593   4.110   2.792 -0.3188  0.3176  0.5495
 3783SOL    HW112248   3.561   4.077   2.881 -0.2273 -1.9731 -0.1852
 3783SOL    HW212249   3.516   4.114   2.728 -0.2696  1.3002  0.5470
 3784SOL     OW12250   2.145   6.000   0.609 -0.1939  0.2675  0.3573
 3784SOL    HW112251   2.057   5.995   0.561  0.2622  1.2637 -0.6302
 3784SOL    HW212252   2.219   5.989   0.543  0.4424  0.4305  1.0292
 3785SOL     OW12253   3.571   5.154   0.550  0.3746 -0.1139 -0.1292
 3785SOL    HW112254   3.568   5.142   0.649 -0.5358 -1.2820 -0.2759
 3785SOL    HW212255   3.650   5.210   0.525  1.0423 -0.4494  1.1897
 3786SOL     OW12256   6.204   4.652   6.849  0.2832  0.1332  0.0730
 3786SOL    HW112257   6.162   4.618   6.764 -0.7624  3.1162 -0.7287
 3786SOL    HW212258   6.151   4.619   6.927  0.2367 -1.2420 -0.5016
 3787SOL     OW12259   1.150   1.039   3.390  0.0248  0.8096 -0.0104
 3787SOL    HW112260   1.247   1.018   3.374  0.0323 -1.8977  2.6022
 3787SOL    HW212261   1.096   1.009   3.312  1.0166 -1.2466  0.0070
 3788SOL     OW12262   1.667   4.355   3.768  0.1673  0.9955  0.0642
 3788SOL    HW112263   1.630   4.407   3.845 -2.7399  1.7730 -1.6878
 3788SOL    HW212264   1.689   4.262   3.798 -0.5211  1.3787  1.8986
 3789SOL     OW12265   5.280   0.978   2.160  0.0637  0.8278 -0.3412
 3789SOL    HW112266   5.312   1.019   2.075  0.4364  3.2464  0.8793
 3789SOL    HW212267   5.290   1.044   2.235  1.9106 -1.8957  2.0703
 3790SOL     OW12268   2.305   6.973   1.565 -0.5714 -0.3264  0.8957
 3790SOL    HW112269   2.277   6.929   1.651  0.3498 -2.6094  0.0984
 3790SOL    HW212270   2.298   6.907   1.490  0.8728  0.9240 -0.3987
 3791SOL     OW12271   0.613   0.393   0.316 -0.2499  0.1119 -0.1439
 3791SOL    HW112272   0.554   0.390   0.235  2.1171 -0.3783 -1.9322
 3791SOL    HW212273   0.566   0.444   0.388 -3.9635 -2.4328 -0.4593
 3792SOL     OW12274   2.031   3.743   5.193 -0.9998 -0.2740 -0.0495
 3792SOL    HW112275   1.946   3.717   5.238 -0.1070  0.1001  1.9655
 3792SOL    HW212276   2.049   3.840   5.210 -1.1818  0.2103 -2.2534
 3793SOL     OW12277   2.692   5.864   4.197 -0.4599 -0.0799  0.6412
 3793SOL    HW112278   2.781   5.824   4.180  0.0881  1.2855  0.1216
 3793SOL    HW212279   2.620   5.797   4.177  0.3276 -0.2142 -2.1248
 3794SOL     OW12280   3.779   1.838   4.033  0.1130  0.7099  0.2162
 3794SOL    HW112281   3.751   1.864   4.126  0.0416 -2.3375  1.1618
 3794SOL    HW212282   3.879   1.834   4.029  0.1201 -1.1999  0.9056
 3795SOL     OW12283   5.053   4.932   1.005  0.4514  0.3638  0.0158
 3795SOL    HW112284   5.022   5.025   1.021  2.8132  1.4342 -1.2173
 3795SOL    HW212285   5.037   4.906   0.910 -0.1591 -0.5015  0.3383
 3796SOL     OW12286   5.189   3.180   3.232 -0.0308 -0.1049  0.3252
 3796SOL    HW112287   5.137   3.109   3.185  0.7880 -0.3916 -0.1573
 3796SOL    HW212288   5.129   3.227   3.297 -1.2593  0.4319 -1.1306
 3797SOL     OW12289   4.168   2.901   6.275 -0.2152  0.0247  0.5459
 3797SOL    HW112290   4.111   2.978   6.247 -0.1930 -0.4725 -0.9265
 3797SOL    HW212291   4.257   2.935   6.306  0.0634  0.5551 -0.7911
 3798SOL     OW12292   3.574   1.098   4.116 -0.6574 -0.5123  0.0948
 3798SOL    HW112293   3.639   1.067   4.185  0.5243  0.2280 -0.6435
 3798SOL    HW212294   3.497   1.143   4.161  0.9375  1.5821  0.9502
 3799SOL     OW12295   4.516   2.917   5.765  0.2132  0.3315  0.0776
 3799SOL    HW112296   4.533   2.840   5.705  1.5691  0.3334  0.4347
 3799SOL    HW212297   4.461   2.887   5.843  1.9266 -0.6543  0.9657
 3800SOL     OW12298   4.637   0.254   4.240 -0.6266  0.2430 -0.0566
 3800SOL    HW112299   4.639   0.318   4.317  0.1973  0.4842 -0.2683
 3800SOL    HW212300   4.593   0.169   4.268  2.9020 -1.1426  1.8566
 3801SOL     OW12301   1.766   1.069   0.122 -0.0649  0.1937  0.3640
 3801SOL    HW112302   1.825   0.996   0.089 -2.0407 -1.2833 -0.0640
 3801SOL    HW212303   1.769   1.071   0.222  0.9424  0.3851  0.3455
 3802SOL     OW12304   4.565   6.943   2.416  0.2719 -0.1622 -0.6722
 3802SOL    HW112305   4.564   6.965   2.319  0.8227 -0.1945 -0.6894
 3802SOL    HW212306   4.473   6.953   2.454  0.3294  1.3208 -0.8724
 3803SOL     OW12307   5.079   0.682   0.359  0.2649 -0.2428 -0.0433
 3803SOL    HW112308   5.134   0.699   0.277  2.7588  0.3137  1.6644
 3803SOL    HW212309   5.099   0.591   0.395 -1.3456 -0.7675 -0.3888
 3804SOL     OW12310   5.854   2.425   0.317 -0.0056 -0.2046  0.3322
 3804SOL    HW112311   5.834   2.428   0.219 -2.5590  2.2641  0.7952
 3804SOL    HW212312   5.774   2.392   0.367  0.5585  0.4137  1.7071
 3805SOL     OW12313   3.113   1.186   5.830  0.1654 -0.3315  0.1115
 3805SOL    HW112314   3.071   1.097   5.808 -1.4177  0.7216 -1.3721
 3805SOL    HW212315   3.115   1.243   5.748  1.2541  0.9810  1.0170
 3806SOL     OW12316   3.201   5.336   2.546 -0.3220 -0.2897  0.3918
 3806SOL    HW112317   3.177   5.412   2.606 -0.6998  0.5508 -0.8079
 3806SOL    HW212318   3.292   5.302   2.571  0.3936  1.3586  0.1514
 3807SOL     OW12319   5.924   0.751   3.017 -0.2821  0.3828  0.2856
 3807SOL    HW112320   5.959   0.845   3.010 -1.0204  0.7096  0.8903
 3807SOL    HW212321   5.990   0.695   3.067 -0.2265  0.7871  0.6716
 3808SOL     OW12322   4.033   6.712   4.296  0.3731  0.0530  0.1849
 3808SOL    HW112323   3.976   6.767   4.235 -1.1867 -0.6848  0.9044
 3808SOL    HW212324   4.034   6.617   4.264  3.1370  0.4201 -1.1164
 3809SOL     OW12325   1.998   2.850   4.061  0.4904 -0.4968  0.1851
 3809SOL    HW112326   2.080   2.887   4.105  0.9140  2.7771 -2.9472
 3809SOL    HW212327   1.921   2.911   4.078 -0.6243 -1.9619  0.5871
 3810SOL     OW12328   6.994   5.132   1.168  0.3224  0.1055 -0.3284
 3810SOL    HW112329   7.016   5.218   1.214  0.0415  1.2476 -2.2105
 3810SOL    HW212330   6.918   5.088   1.216  0.8191  0.6145  0.9860
 3811SOL     OW12331   1.330   5.657   0.363 -0.7671 -0.2434 -0.4994
 3811SOL    HW112332   1.360   5.739   0.411 -1.9863 -1.0471  1.8173
 3811SOL    HW212333   1.389   5.580   0.388 -2.7303 -1.1775  1.7570
 3812SOL     OW12334   5.979   2.983   0.495  0.2106  0.6088 -0.1038
 3812SOL    HW112335   6.002   3.051   0.565 -0.5002  0.6625  0.0880
 3812SOL    HW212336   5.891   2.941   0.518  0.8476 -0.7041  0.0349
 3813SOL     OW12337   0.401   0.386   0.155  0.6381 -0.1960  0.0705
 3813SOL    HW112338   0.352   0.448   0.093  0.4750  0.9974  1.3505
 3813SOL    HW212339   0.334   0.330   0.205  0.8069 -2.5196 -2.0824
 3814SOL     OW12340   4.321   0.030   7.020  0.1270 -0.2160 -0.0589
 3814SOL    HW112341   4.337   0.094   7.096  0.1888  1.8941 -1.7368
 3814SOL    HW212342   4.226  -0.002   7.023 -0.6095  1.7536 -0.3718
 3815SOL     OW12343   5.759   1.006   5.564 -0.3620  0.3958  0.7746
 3815SOL    HW112344   5.719   1.088   5.522 -0.7144 -0.0451  0.2443
 3815SOL    HW212345   5.693   0.931   5.562  0.7749 -0.6307 -0.9541
 3816SOL     OW12346   2.961   2.236   4.242  0.1066  0.3787  0.2192
 3816SOL    HW112347   2.882   2.286   4.278  0.3305  1.0923 -0.2606
 3816SOL    HW212348   3.019   2.207   4.318 -0.5314 -0.0165  0.5677
 3817SOL     OW12349   2.352   4.390   2.370 -0.0103  0.4287  0.1343
 3817SOL    HW112350   2.260   4.427   2.367 -0.2256 -0.1274 -0.3272
 3817SOL    HW212351   2.393   4.394   2.279  0.3035  0.3808  0.2702
 3818SOL     OW12352   3.893   6.222   1.017  0.1399 -0.5300 -0.7219
 3818SOL    HW112353   3.926   6.170   1.096  0.0281  2.3196  1.3276
 3818SOL    HW212354   3.796   6.204   1.004  0.5326 -2.4006 -1.4341
 3819SOL     OW12355   6.996   2.636   2.287  0.1266  0.4441 -0.3048
 3819SOL    HW112356   6.937   2.638   2.369 -0.0311  2.4136 -0.3987
 3819SOL    HW212357   6.969   2.710   2.226  1.9278  0.6424 -0.9190
 3820SOL     OW12358   3.804   5.403   1.377  0.5628  0.0380 -0.0819
 3820SOL    HW112359   3.726   5.362   1.425 -0.7408  1.9173 -0.4772
 3820SOL    HW212360   3.860   5.454   1.442 -0.4122  1.3957 -0.2460
 3821SOL     OW12361   6.122   4.843   0.839  0.0122 -0.0238 -0.1733
 3821SOL    HW112362   6.146   4.887   0.925  1.3451  0.8182 -0.9615
 3821SOL    HW212363   6.034   4.797   0.850  1.0931 -1.7393  2.2817
 3822SOL     OW12364   3.641   4.172   0.451  0.5986 -0.1994  0.1788
 3822SOL    HW112365   3.579   4.096   0.469 -0.3586  0.4876 -0.1798
 3822SOL    HW212366   3.649   4.228   0.533 -0.5210  0.6041 -0.2401
 3823SOL     OW12367   6.031   1.034   5.493 -0.3434 -0.4154 -0.0145
 3823SOL    HW112368   6.071   1.016   5.404 -0.2866  0.0007 -0.0774
 3823SOL    HW212369   5.935   1.005   5.494 -0.2483 -0.7262 -0.1044
 3824SOL     OW12370   1.048   5.180   1.178  0.0359  0.2014  0.3561
 3824SOL    HW112371   1.069   5.139   1.089  0.2842  1.4785 -0.1947
 3824SOL    HW212372   1.103   5.136   1.249 -1.0129 -1.6589  0.1032
 3825SOL     OW12373   0.018   3.778   3.037  0.1343 -0.3023 -0.4291
 3825SOL    HW112374  -0.045   3.705   3.009 -2.1823  0.5822  2.0871
 3825SOL    HW212375   0.045   3.763   3.132  1.7441  0.7653 -0.6823
 3826SOL     OW12376   5.490   4.143   0.531  0.4073  0.0780 -0.3882
 3826SOL    HW112377   5.496   4.183   0.622 -0.2019 -0.5931 -0.0432
 3826SOL    HW212378   5.581   4.137   0.491  0.8288 -0.6128  0.6224
 3827SOL     OW12379   3.560   2.580   1.768 -0.4128  0.2240  0.3253
 3827SOL    HW112380   3.529   2.626   1.851  1.0546  0.8976  0.5220
 3827SOL    HW212381   3.590   2.487   1.790  1.0781  0.7911  0.7865
 3828SOL     OW12382   5.775   4.561   4.339 -0.4928  0.2322  0.2430
 3828SOL    HW112383   5.849   4.499   4.314 -2.3222 -1.1547 -2.2294
 3828SOL    HW212384   5.812   4.650   4.362  2.0838 -1.1308  1.7997
 3829SOL     OW12385   0.855   3.292   0.238  0.3002  0.2278  0.4458
 3829SOL    HW112386   0.837   3.204   0.195 -1.0648  0.2821  0.8526
 3829SOL    HW212387   0.834   3.286   0.336  1.2870  0.7033  0.7013
 3830SOL     OW12388   1.239   0.307   1.061  0.2803 -0.0325 -0.4833
 3830SOL    HW112389   1.253   0.220   1.108  1.5995 -1.0306 -2.5955
 3830SOL    HW212390   1.308   0.373   1.092  0.1965 -0.1862  0.0463
 3831SOL     OW12391   5.800   2.896   3.375 -0.1707 -0.3977 -0.1113
 3831SOL    HW112392   5.743   2.856   3.446 -0.2309 -0.5955 -0.2686
 3831SOL    HW212393   5.894   2.863   3.384 -0.2206 -0.5796 -0.2424
 3832SOL     OW12394   5.990   4.569   0.641 -0.0163  0.5653 -0.2938
 3832SOL    HW112395   5.927   4.624   0.696  0.1775  0.6153 -0.1199
 3832SOL    HW212396   6.052   4.629   0.591 -1.1988  0.5932 -1.8229
 3833SOL     OW12397   2.237   0.666   6.757  0.2217 -0.2269 -0.8645
 3833SOL    HW112398   2.289   0.742   6.717 -0.0544  0.8882  0.7703
 3833SOL    HW212399   2.278   0.640   6.844  0.2432 -1.9267 -1.3476
 3834SOL     OW12400   2.333   1.115   6.452 -0.2161  0.4096  0.5719
 3834SOL    HW112401   2.426   1.151   6.461 -0.0062 -0.4603  2.2440
 3834SOL    HW212402   2.283   1.169   6.384  1.7188  0.4204 -0.9398
 3835SOL     OW12403   3.011   1.721   2.339 -0.2639  0.6231  0.5300
 3835SOL    HW112404   2.931   1.774   2.365 -2.0089 -1.7010  0.2357
 3835SOL    HW212405   3.074   1.715   2.417 -2.0028 -0.2843  1.9376
 3836SOL     OW12406   3.070   5.934   5.309 -0.4005  0.0131 -0.4073
 3836SOL    HW112407   3.049   5.967   5.401 -0.5172 -0.9347 -0.0869
 3836SOL    HW212408   3.169   5.940   5.292  0.1536 -3.0238  1.1069
 3837SOL     OW12409   5.678   3.693   5.480 -0.3352 -0.1092 -0.1660
 3837SOL    HW112410   5.757   3.751   5.498 -0.4546 -0.7760  3.0821
 3837SOL    HW212411   5.599   3.750   5.457  0.4205  0.7506 -0.6586
 3838SOL     OW12412   6.152   4.989   3.625  0.7557  0.3072  0.0895
 3838SOL    HW112413   6.060   5.025   3.608  0.0842 -1.5944 -0.5009
 3838SOL    HW212414   6.210   5.009   3.547 -0.0063 -1.0466 -0.8706
 3839SOL     OW12415   6.041   0.811   0.727 -0.0809 -0.0847 -0.6093
 3839SOL    HW112416   6.125   0.773   0.687  1.2686  2.7242 -0.6426
 3839SOL    HW212417   6.019   0.762   0.811  1.0371 -1.4835 -1.0856
 3840SOL     OW12418   5.005   4.951   0.731 -0.0059  0.9519 -0.4196
 3840SOL    HW112419   5.068   5.010   0.681  0.2020  1.1048  0.0280
 3840SOL    HW212420   4.959   4.890   0.666  0.4856  0.9439 -0.7609
 3841SOL     OW12421   5.702   4.286   5.142  0.3173  0.2780  0.1400
 3841SOL    HW112422   5.763   4.209   5.121 -0.4436 -0.3315  0.1165
 3841SOL    HW212423   5.747   4.347   5.206  0.8192 -0.3573  0.4075
 3842SOL     OW12424   5.708   2.093   0.063  0.4815  0.0399  0.4465
 3842SOL    HW112425   5.710   2.178   0.010  0.0597 -0.1632  0.1075
 3842SOL    HW212426   5.799   2.078   0.104  1.3815 -0.7329 -1.6974
 3843SOL     OW12427   0.600   4.597   5.619 -0.1254 -0.4580 -0.4073
 3843SOL    HW112428   0.642   4.651   5.692 -2.2517  0.8479 -0.0496
 3843SOL    HW212429   0.536   4.531   5.659 -1.1752  0.1419 -1.0522
 3844SOL     OW12430   2.321   4.253   3.823  0.1831  0.3988  0.4974
 3844SOL    HW112431   2.365   4.269   3.735 -1.2148  1.8955  0.0272
 3844SOL    HW212432   2.226   4.284   3.819 -0.5942 -1.6033  1.8376
 3845SOL     OW12433   1.881   3.585   0.358 -0.1246  0.2435 -0.3701
 3845SOL    HW112434   1.864   3.653   0.429 -0.2224 -0.3132  0.1406
 3845SOL    HW212435   1.854   3.495   0.390 -0.8938  0.0898 -1.3824
 3846SOL     OW12436   4.833   1.550   3.209 -0.3488 -0.0206 -0.1930
 3846SOL    HW112437   4.783   1.561   3.124 -0.3306 -2.2466 -0.5476
 3846SOL    HW212438   4.776   1.579   3.286 -0.5789  1.4407 -0.8871
 3847SOL     OW12439   1.353   0.932   4.468 -0.3159  0.7857  0.0090
 3847SOL    HW112440   1.265   0.931   4.422 -0.0806  2.0824 -0.5196
 3847SOL    HW212441   1.414   0.865   4.425 -1.1485 -0.4351  0.6623
 3848SOL     OW12442   1.065   2.824   3.572  0.2438  0.2735  0.5458
 3848SOL    HW112443   1.013   2.808   3.656  0.9124 -0.5779  0.8094
 3848SOL    HW212444   1.133   2.752   3.561  0.0065  0.2495 -0.8571
 3849SOL     OW12445   3.865   3.948   0.687  0.2714 -0.4514  0.1474
 3849SOL    HW112446   3.841   3.887   0.611 -0.3308  1.3301 -1.1364
 3849SOL    HW212447   3.965   3.958   0.691  0.4602 -2.1307  0.9296
 3850SOL     OW12448   4.628   5.791   6.681 -0.6621 -0.3576 -0.6981
 3850SOL    HW112449   4.576   5.718   6.637 -0.5498  0.2185 -1.8240
 3850SOL    HW212450   4.592   5.806   6.773 -2.9419  0.4386 -1.6389
 3851SOL     OW12451   0.404   3.327   3.841 -0.1916  0.6856  0.0388
 3851SOL    HW112452   0.450   3.252   3.795 -1.6229 -0.0380 -0.2749
 3851SOL    HW212453   0.305   3.310   3.843 -0.4286  1.9680  1.0520
 3852SOL     OW12454   6.840   3.276   4.218 -0.1616  0.7534 -0.0848
 3852SOL    HW112455   6.877   3.188   4.245 -3.0531 -0.6118 -0.1440
 3852SOL    HW212456   6.868   3.346   4.283  0.7127 -0.5730  1.0087
 3853SOL     OW12457   2.869   6.797   0.378  0.0946 -0.1787  0.0304
 3853SOL    HW112458   2.839   6.721   0.436  0.4026 -0.8590 -0.6830
 3853SOL    HW212459   2.864   6.883   0.430  1.6139 -0.9152  1.5224
 3854SOL     OW12460   0.406   5.562   2.208  0.4411 -0.3474  0.7531
 3854SOL    HW112461   0.442   5.650   2.178  1.0468 -0.3278  1.5097
 3854SOL    HW212462   0.357   5.519   2.132  0.4997  0.4442  0.2508
 3855SOL     OW12463   1.204   2.336   5.705  0.4926  0.1174 -0.1768
 3855SOL    HW112464   1.248   2.402   5.765  0.9660  1.4864 -1.9709
 3855SOL    HW212465   1.137   2.282   5.758  1.1412  1.0115  1.6170
 3856SOL     OW12466   5.894   1.002   0.396  0.0867 -0.0707  0.5124
 3856SOL    HW112467   5.859   1.048   0.478 -1.5515  0.4466 -0.4217
 3856SOL    HW212468   5.817   0.971   0.340  1.1451 -2.3412  0.1802
 3857SOL     OW12469   1.621   3.378   4.795 -0.3912  0.5164  0.4125
 3857SOL    HW112470   1.692   3.312   4.772 -0.6154  0.4212 -0.0254
 3857SOL    HW212471   1.635   3.461   4.742 -1.1851  0.1229 -0.4401
 3858SOL     OW12472   6.693   1.747   6.205 -0.4728 -0.5286 -0.1050
 3858SOL    HW112473   6.689   1.831   6.259  1.2115 -1.8431  2.2421
 3858SOL    HW212474   6.603   1.705   6.202 -0.5515 -0.5925  2.0685
 3859SOL     OW12475   5.185   5.143   5.037 -0.2994 -0.3304  0.7581
 3859SOL    HW112476   5.198   5.136   5.136 -2.7802  2.6721  1.4483
 3859SOL    HW212477   5.213   5.057   4.994 -1.3349 -2.6757  4.3147
 3860SOL     OW12478   3.958   1.809   6.260  0.1804 -0.1638 -0.1051
 3860SOL    HW112479   3.867   1.843   6.283  0.1284 -1.0421  1.1047
 3860SOL    HW212480   4.023   1.885   6.263 -0.5259  0.5042 -1.1707
 3861SOL     OW12481   1.335   3.839   4.263 -0.2648 -0.3585 -0.2505
 3861SOL    HW112482   1.316   3.903   4.337 -1.1725  0.7098 -1.3588
 3861SOL    HW212483   1.425   3.798   4.276 -0.3156 -0.0347  1.3110
 3862SOL     OW12484   2.903   4.246   6.092 -0.2416  0.1428 -0.7495
 3862SOL    HW112485   2.862   4.337   6.092  1.2037  0.8340 -1.5540
 3862SOL    HW212486   2.983   4.246   6.153  0.5368 -0.1940 -1.7450
 3863SOL     OW12487   2.855   5.235   0.344 -0.3053 -0.1483  0.2917
 3863SOL    HW112488   2.801   5.318   0.331 -0.8291 -0.5425 -0.1108
 3863SOL    HW212489   2.840   5.199   0.436  2.7692  2.1994  1.8904
 3864SOL     OW12490   2.511   6.747   4.674 -0.0901  0.4225 -0.5273
 3864SOL    HW112491   2.578   6.697   4.729 -1.7458  0.3025  1.4956
 3864SOL    HW212492   2.518   6.845   4.694 -2.2381  0.2011  1.8893
 3865SOL     OW12493   2.492   2.724   0.075 -0.2344  0.0229 -0.3641
 3865SOL    HW112494   2.501   2.788  -0.001 -0.3739  0.7337  0.1998
 3865SOL    HW212495   2.548   2.755   0.152 -0.8703 -0.1201  0.1759
 3866SOL     OW12496   4.852   5.861   1.209 -0.3485  0.6229  0.1087
 3866SOL    HW112497   4.929   5.918   1.238  0.1765 -0.4097  0.8057
 3866SOL    HW212498   4.883   5.767   1.196 -1.2934  0.3934 -0.5749
 3867SOL     OW12499   1.380   2.769   0.223  0.1203 -0.1923  0.0946
 3867SOL    HW112500   1.455   2.713   0.257  1.1229 -0.1533 -1.8656
 3867SOL    HW212501   1.303   2.710   0.197  0.0952 -0.3907  0.6208
 3868SOL     OW12502   6.046   4.459   0.921 -0.7408  0.8202 -0.9450
 3868SOL    HW112503   6.081   4.372   0.886  0.4549  0.8070  0.2103
 3868SOL    HW212504   6.035   4.523   0.844  0.2554  0.2669 -1.5754
 3869SOL     OW12505   6.511   6.313   3.206 -0.1690 -0.3757 -0.4229
 3869SOL    HW112506   6.522   6.273   3.297  0.3345 -1.7093 -1.0467
 3869SOL    HW212507   6.591   6.292   3.150  0.6317  2.4147 -0.5052
 3870SOL     OW12508   0.132   4.943   1.542 -0.1326  0.6149  0.0536
 3870SOL    HW112509   0.074   4.865   1.567 -1.5228  1.9112  1.1137
 3870SOL    HW212510   0.146   4.945   1.443 -1.6003  0.0380 -0.1900
 3871SOL     OW12511   5.305   2.673   6.951 -0.3622  0.5336  0.7458
 3871SOL    HW112512   5.301   2.741   7.023 -1.5873  0.7266  0.5098
 3871SOL    HW212513   5.374   2.604   6.974  0.9130  1.8479  0.9679
 3872SOL     OW12514   6.444   0.905   3.180  0.0935 -0.0209 -0.4766
 3872SOL    HW112515   6.451   0.924   3.082  1.2082  0.6523 -0.2874
 3872SOL    HW212516   6.536   0.899   3.220 -0.3065  1.6510  0.8620
 3873SOL     OW12517   6.415   4.069   2.407 -0.1496  0.0396  0.4148
 3873SOL    HW112518   6.380   4.031   2.492 -0.7358  0.9597  0.5973
 3873SOL    HW212519   6.339   4.102   2.351  0.1289 -1.4596 -0.9435
 3874SOL     OW12520   0.474   0.644   1.622  0.0179  0.3854 -0.0790
 3874SOL    HW112521   0.445   0.690   1.706 -0.1325  0.5280 -0.2081
 3874SOL    HW212522   0.428   0.555   1.615  0.3726  0.1769  0.2117
 3875SOL     OW12523   1.786   0.552   3.338  0.1819 -0.1565 -0.3423
 3875SOL    HW112524   1.846   0.504   3.275  0.2499  0.6173 -0.8773
 3875SOL    HW212525   1.695   0.560   3.298  0.6413  1.8077 -1.1108
 3876SOL     OW12526   2.093   6.271   6.270 -0.4171 -0.1039  0.1802
 3876SOL    HW112527   2.074   6.228   6.358  0.2907 -1.9118 -0.4998
 3876SOL    HW212528   2.012   6.265   6.212 -0.3179 -0.5858  0.0833
 3877SOL     OW12529   2.752   2.110   4.943 -0.0318 -0.0694 -0.0309
 3877SOL    HW112530   2.760   2.014   4.914  1.7990  0.2716 -0.8470
 3877SOL    HW212531   2.742   2.168   4.863 -1.7321  0.4101  0.4948
 3878SOL     OW12532   1.538   6.043   5.442  0.3120  0.2587 -0.3345
 3878SOL    HW112533   1.558   5.951   5.407 -1.1976 -0.1176 -0.2764
 3878SOL    HW212534   1.558   6.111   5.371  1.6960 -0.0662 -0.2893
 3879SOL     OW12535   3.470   0.354   2.423  0.4814  0.4123  0.0928
 3879SOL    HW112536   3.473   0.436   2.365  0.3734 -1.1525 -2.2678
 3879SOL    HW212537   3.417   0.374   2.506  0.4055  2.6900 -0.4419
 3880SOL     OW12538   3.130   1.433   3.688  0.1428  0.2747 -0.3276
 3880SOL    HW112539   3.154   1.403   3.781 -1.1397 -2.8583 -0.8726
 3880SOL    HW212540   3.147   1.358   3.624 -0.4971  1.8278 -2.4127
 3881SOL     OW12541   6.206   3.223   5.647  0.2822 -0.5986 -0.1654
 3881SOL    HW112542   6.216   3.289   5.573  0.1593 -1.1898 -0.7170
 3881SOL    HW212543   6.225   3.131   5.613  1.3959 -0.7575  0.8150
 3882SOL     OW12544   2.317   4.966   2.314 -1.1110  0.3198 -0.1367
 3882SOL    HW112545   2.401   5.008   2.348  0.0365 -0.5688 -1.7348
 3882SOL    HW212546   2.262   5.034   2.267 -0.3447  0.5384 -0.7426
 3883SOL     OW12547   5.768   1.890   6.150 -0.5908  0.0258 -0.4739
 3883SOL    HW112548   5.680   1.914   6.108 -0.7134  0.6515  0.1148
 3883SOL    HW212549   5.758   1.888   6.249 -0.5564 -2.4620 -0.4653
 3884SOL     OW12550   1.016   2.653   2.778  0.3955 -0.0089 -0.5777
 3884SOL    HW112551   1.034   2.734   2.834  0.4270 -0.3747 -0.0520
 3884SOL    HW212552   1.014   2.571   2.836 -2.1974 -0.1018 -0.6597
 3885SOL     OW12553   6.100   6.893   6.195 -0.1283 -0.2684 -0.4132
 3885SOL    HW112554   6.189   6.881   6.240  0.1920  1.9389 -0.3184
 3885SOL    HW212555   6.113   6.898   6.096 -0.4445 -1.9583 -0.5744
 3886SOL     OW12556   5.580   1.139   3.896 -0.5073 -0.2267 -0.4037
 3886SOL    HW112557   5.673   1.104   3.880  0.1141  0.4080  1.5463
 3886SOL    HW212558   5.535   1.155   3.809  1.4114 -0.0426 -1.4040
 3887SOL     OW12559   3.053   1.589   1.599  0.3912 -0.4657 -0.1539
 3887SOL    HW112560   2.960   1.599   1.635  0.3953  1.8536 -0.6866
 3887SOL    HW212561   3.119   1.609   1.672  0.4323  0.3854 -0.4158
 3888SOL     OW12562   3.437   6.981   3.976 -0.0195 -0.1257 -0.2291
 3888SOL    HW112563   3.487   6.895   3.983  0.3114  0.1749  1.6152
 3888SOL    HW212564   3.368   6.974   3.904  1.8538 -0.9418 -2.0884
 3889SOL     OW12565   5.482   5.638   1.643 -0.7371  0.4673  0.8676
 3889SOL    HW112566   5.543   5.617   1.566 -1.7176 -0.5717  0.3441
 3889SOL    HW212567   5.387   5.633   1.613 -1.1909 -0.9585  2.3520
 3890SOL     OW12568   1.949   4.421   6.039  0.2666  0.0446  0.3671
 3890SOL    HW112569   2.024   4.474   6.078 -0.2287  1.1222 -0.1232
 3890SOL    HW212570   1.868   4.479   6.029 -0.2341 -0.7508 -0.3484
 3891SOL     OW12571   6.286   6.204   4.835  0.3843 -0.2081  0.2409
 3891SOL    HW112572   6.305   6.222   4.932 -3.2635  0.2627  1.0211
 3891SOL    HW212573   6.280   6.291   4.786  1.3657 -0.4065 -0.2551
 3892SOL     OW12574   6.120   4.547   2.311  0.0921  0.2187  0.0925
 3892SOL    HW112575   6.042   4.499   2.351  0.4442  0.6623  1.3561
 3892SOL    HW212576   6.170   4.595   2.383  1.9060 -0.5635 -0.5971
 3893SOL     OW12577   0.469   4.503   1.793 -0.3046  0.1359 -0.2921
 3893SOL    HW112578   0.529   4.424   1.784  0.1624  0.5257 -0.6050
 3893SOL    HW212579   0.506   4.580   1.741  0.7571  1.4643  2.2674
 3894SOL     OW12580   2.730   6.657   6.413  0.9403  0.6467 -0.3359
 3894SOL    HW112581   2.736   6.563   6.378 -0.4304  0.6194 -0.5334
 3894SOL    HW212582   2.797   6.714   6.367  2.2918 -0.3740  0.2872
 3895SOL     OW12583   2.408   6.030   4.886 -0.3960 -0.4458  0.2506
 3895SOL    HW112584   2.439   6.010   4.978  0.4065  2.2427  0.6555
 3895SOL    HW212585   2.482   6.073   4.834 -0.5215 -2.7128 -2.0197
 3896SOL     OW12586   4.151   6.348   1.377 -0.0240  0.3242  0.0032
 3896SOL    HW112587   4.102   6.427   1.342  1.1359  0.9755 -0.2043
 3896SOL    HW212588   4.249   6.359   1.359  0.2448 -0.7853  0.6881
 3897SOL     OW12589   3.575   1.889   1.222  1.6022 -0.6108 -0.0106
 3897SOL    HW112590   3.671   1.896   1.251  1.8624  0.3529 -1.0504
 3897SOL    HW212591   3.521   1.958   1.270  1.9443  0.6571 -1.3818
 3898SOL     OW12592   3.767   1.757   0.975  0.2448  0.4668 -0.2524
 3898SOL    HW112593   3.813   1.741   0.887  0.4919  1.0740 -0.2433
 3898SOL    HW212594   3.746   1.854   0.983 -0.8199  0.2320 -0.1373
 3899SOL     OW12595   1.521   0.738   2.695 -0.2295  0.2566  0.3138
 3899SOL    HW112596   1.476   0.746   2.606  0.0936  1.2652  0.2253
 3899SOL    HW212597   1.609   0.690   2.683  0.6932  2.0024 -0.2616
 3900SOL     OW12598   6.581   2.173   4.031  0.1934  0.7681  0.3367
 3900SOL    HW112599   6.557   2.256   3.981  0.6026  1.6834  1.6267
 3900SOL    HW212600   6.641   2.195   4.107  1.5880 -0.9208 -0.1973
 3901SOL     OW12601   2.765   2.905   1.676 -0.1082 -0.4185 -0.5480
 3901SOL    HW112602   2.782   2.811   1.646  0.2689 -1.2608  2.0595
 3901SOL    HW212603   2.680   2.938   1.635  0.1645 -1.5770 -2.1365
 3902SOL     OW12604   6.098   7.015   5.651  0.5030  0.4531  0.0038
 3902SOL    HW112605   6.100   6.929   5.600  0.8105  1.5148 -1.8598
 3902SOL    HW212606   6.024   7.072   5.616  0.6498  1.1693  0.8379
 3903SOL     OW12607   4.967   2.296   6.166  0.1849 -0.1650  0.2047
 3903SOL    HW112608   5.040   2.245   6.120 -0.6605 -0.0073 -1.3732
 3903SOL    HW212609   4.909   2.233   6.217  1.2493 -0.3216  1.2480
 3904SOL     OW12610   3.206   1.455   2.120  0.0283 -0.1877  0.3384
 3904SOL    HW112611   3.260   1.373   2.138  0.4037  0.0566  0.3449
 3904SOL    HW212612   3.110   1.437   2.138  0.0434 -0.7750 -0.1512
 3905SOL     OW12613   6.730   2.097   1.122 -0.1939 -0.7777  0.0616
 3905SOL    HW112614   6.818   2.053   1.136  0.5222  0.5011 -0.3089
 3905SOL    HW212615   6.743   2.195   1.110 -1.9536  0.1666  4.0685
 3906SOL     OW12616   2.041   6.757   3.771  0.1255  0.4920 -0.1850
 3906SOL    HW112617   1.970   6.708   3.722 -0.0122  0.0810  0.4121
 3906SOL    HW212618   2.127   6.706   3.767 -0.0249  0.1719  0.4620
 3907SOL     OW12619   0.126   5.571   4.258 -0.2606  0.0749 -0.0770
 3907SOL    HW112620   0.173   5.578   4.346 -1.1983  1.1219  0.3586
 3907SOL    HW212621   0.090   5.660   4.231 -2.9331 -0.8310  0.1459
 3908SOL     OW12622   0.061   1.500   6.634 -0.5870 -0.3984  0.4153
 3908SOL    HW112623   0.068   1.477   6.537 -0.0485  2.0351 -0.1991
 3908SOL    HW212624   0.125   1.444   6.687  0.3526 -0.5929 -0.8801
 3909SOL     OW12625   0.287   2.606   3.021 -0.2276  0.4072 -0.1988
 3909SOL    HW112626   0.386   2.601   3.009 -0.1503  1.6388 -0.2702
 3909SOL    HW212627   0.247   2.515   3.010  0.9509 -0.2109  0.4361
 3910SOL     OW12628   1.982   0.627   6.081 -0.0509  0.3197 -0.2856
 3910SOL    HW112629   2.057   0.571   6.044  0.1845  1.1715 -1.1561
 3910SOL    HW212630   2.012   0.722   6.085 -0.9653  0.6090 -0.2791
 3911SOL     OW12631   6.365   1.950   1.993  0.4341 -0.3870 -0.3233
 3911SOL    HW112632   6.406   2.010   2.062  0.9826 -2.6703  1.4615
 3911SOL    HW212633   6.433   1.929   1.923  0.5605  0.2384 -0.3918
 3912SOL     OW12634   6.384   3.430   0.691 -0.0895 -0.5708  0.4748
 3912SOL    HW112635   6.327   3.511   0.680 -0.5150 -1.0767 -1.3553
 3912SOL    HW212636   6.451   3.446   0.764 -1.1144  0.8583  1.1463
 3913SOL     OW12637   6.419   3.716   2.437 -0.0549 -0.0148  0.7885
 3913SOL    HW112638   6.517   3.730   2.454 -0.0594 -0.2658  1.0267
 3913SOL    HW212639   6.409   3.656   2.357  0.0301 -1.6178  1.9319
 3914SOL     OW12640   1.066   0.767   5.582 -0.2158 -0.1430 -0.6677
 3914SOL    HW112641   1.057   0.865   5.598 -0.4151 -0.4587  1.5078
 3914SOL    HW212642   1.087   0.721   5.669 -1.7003 -2.2042 -1.3147
 3915SOL     OW12643   5.650   1.388   5.042  0.2215 -0.1042  0.3542
 3915SOL    HW112644   5.633   1.457   5.113 -3.0920 -0.5614  0.1227
 3915SOL    HW212645   5.644   1.432   4.952  1.7695 -0.0484  0.2524
 3916SOL     OW12646   2.138   5.250   0.744  0.1757  1.0050  0.4628
 3916SOL    HW112647   2.146   5.266   0.646  0.1674 -0.0955  0.2729
 3916SOL    HW212648   2.205   5.180   0.772 -0.0939  1.0192  1.1709
 3917SOL     OW12649   5.006   4.000   6.359  0.7972  0.2858  0.0980
 3917SOL    HW112650   5.103   3.985   6.373  0.6331  0.2444  1.3107
 3917SOL    HW212651   4.954   3.938   6.417  0.0716  1.8364  1.1817
 3918SOL     OW12652   3.459   0.468   4.766 -0.1350  0.5156 -0.4199
 3918SOL    HW112653   3.513   0.471   4.682 -1.0257  0.5851 -1.0078
 3918SOL    HW212654   3.464   0.377   4.807 -1.7450 -0.3331 -1.9652
 3919SOL     OW12655   1.898   3.814   0.547  0.0736 -0.2292  0.3743
 3919SOL    HW112656   1.943   3.808   0.636  0.7027 -0.1633  0.0660
 3919SOL    HW212657   1.838   3.893   0.545  1.6553  1.0304  0.0424
 3920SOL     OW12658   5.078   0.073   2.168  0.2780  0.1452  0.0546
 3920SOL    HW112659   5.106   0.018   2.247  0.8865  0.6953  0.2326
 3920SOL    HW212660   5.118   0.035   2.085 -0.2365 -0.3433  0.0197
 3921SOL     OW12661   0.979   4.398   5.557 -0.2061 -0.5667  0.0105
 3921SOL    HW112662   0.944   4.476   5.505 -0.9801 -1.0827 -0.2464
 3921SOL    HW212663   1.009   4.327   5.494  0.9847 -0.2967  0.2279
 3922SOL     OW12664   1.601   2.356   6.028  0.5010  0.1748 -0.1852
 3922SOL    HW112665   1.639   2.264   6.022 -1.6581 -0.7257 -0.7838
 3922SOL    HW212666   1.540   2.362   6.108 -2.3796 -0.1671 -2.2195
 3923SOL     OW12667   2.485   2.317   6.312  0.2789 -0.2453 -0.5146
 3923SOL    HW112668   2.450   2.235   6.356 -1.1776  0.5977 -0.0225
 3923SOL    HW212669   2.567   2.349   6.359 -1.1662  0.5724  1.6105
 3924SOL     OW12670   2.094   6.806   2.197  0.1525  0.1038  0.0637
 3924SOL    HW112671   2.047   6.719   2.217 -0.5578  0.2382 -0.9442
 3924SOL    HW212672   2.104   6.858   2.281  1.0250 -1.1565  0.7827
 3925SOL     OW12673   2.621   6.382   3.625 -0.2081  0.2303  0.3931
 3925SOL    HW112674   2.712   6.406   3.659  0.8977 -1.3404 -1.2725
 3925SOL    HW212675   2.585   6.305   3.679  1.4914 -2.1778 -1.6826
 3926SOL     OW12676   0.201   4.059   6.753 -0.3477 -0.0469 -0.1590
 3926SOL    HW112677   0.133   4.064   6.680 -2.2621 -1.9082  1.3561
 3926SOL    HW212678   0.208   4.147   6.799 -1.7947  0.1974 -0.3640
 3927SOL     OW12679   1.257   2.225   2.682 -0.1204  0.2133 -0.1210
 3927SOL    HW112680   1.357   2.228   2.690 -0.1076  0.9278 -0.4136
 3927SOL    HW212681   1.226   2.131   2.683  0.6274 -0.0509 -0.8337
 3928SOL     OW12682   5.422   4.941   2.581 -0.2800 -0.4309 -0.3175
 3928SOL    HW112683   5.329   4.919   2.550  0.1077 -0.1562 -1.7315
 3928SOL    HW212684   5.444   4.887   2.662 -1.0321 -1.7936 -0.9944
 3929SOL     OW12685   0.145   0.266   1.870 -0.0236 -0.5071 -0.1550
 3929SOL    HW112686   0.067   0.252   1.808 -0.8739 -1.6676  1.1190
 3929SOL    HW212687   0.132   0.211   1.952  1.9584 -0.3850  0.2772
 3930SOL     OW12688   6.276   0.171   0.244 -0.2986 -0.0702 -0.1733
 3930SOL    HW112689   6.308   0.175   0.150 -0.2580  1.6499 -0.1275
 3930SOL    HW212690   6.348   0.203   0.305  0.0024 -2.0364  0.5598
 3931SOL     OW12691   1.929   6.615   1.035  0.6182  0.1768  0.3579
 3931SOL    HW112692   1.866   6.576   0.968  1.0565 -1.2642  0.7480
 3931SOL    HW212693   2.003   6.664   0.988 -0.5938  1.6407 -0.1055
 3932SOL     OW12694   0.027   5.233   0.100 -0.2710 -0.0597 -0.9090
 3932SOL    HW112695  -0.059   5.229   0.151  1.3835  1.1011  2.2768
 3932SOL    HW212696   0.067   5.325   0.110  0.5550 -0.0192 -3.7930
 3933SOL     OW12697   0.240   2.014   6.412  0.4107 -0.3881 -0.4288
 3933SOL    HW112698   0.213   1.918   6.410 -1.2878  0.0537 -0.8485
 3933SOL    HW212699   0.228   2.054   6.320 -0.6615  0.6383  0.1295
 3934SOL     OW12700   0.927   0.294   5.185  0.1157  0.1787  0.4628
 3934SOL    HW112701   0.909   0.311   5.281  0.3085  0.0882  0.5169
 3934SOL    HW212702   0.876   0.214   5.155  1.4223 -0.8913  0.9602
 3935SOL     OW12703   3.738   2.854   6.196  0.3116 -0.2997 -0.1812
 3935SOL    HW112704   3.782   2.764   6.202  1.4747  0.3576  1.9505
 3935SOL    HW212705   3.646   2.848   6.235  0.5394 -0.4818  0.3402
 3936SOL     OW12706   2.696   1.411   3.985 -0.0788  0.1266  0.0864
 3936SOL    HW112707   2.705   1.312   3.976 -1.9000 -0.0291 -0.5313
 3936SOL    HW212708   2.645   1.432   4.068  0.2811  0.5585  0.2016
 3937SOL     OW12709   0.176   0.093   4.394  0.2582  0.0040  0.1119
 3937SOL    HW112710   0.240   0.137   4.331  1.0178 -1.2548 -0.0149
 3937SOL    HW212711   0.220   0.016   4.440 -1.3311 -1.2975 -0.4332
 3938SOL     OW12712   6.398   1.306   2.226  0.0594 -0.0424  0.1408
 3938SOL    HW112713   6.477   1.252   2.254 -0.3887 -0.0053  1.5530
 3938SOL    HW212714   6.408   1.400   2.258 -0.6994 -0.1141  0.6193
 3939SOL     OW12715   0.223   2.504   3.897  0.2815  0.1706  0.1405
 3939SOL    HW112716   0.187   2.488   3.805 -0.1164 -0.8294  0.4587
 3939SOL    HW212717   0.315   2.464   3.903  0.1831 -0.0360  0.2684
 3940SOL     OW12718   6.748   1.943   5.708  0.0921  0.3075  0.3946
 3940SOL    HW112719   6.687   2.022   5.716 -0.5942 -0.1641 -0.1329
 3940SOL    HW212720   6.696   1.860   5.725  0.7691 -0.0505  0.7281
 3941SOL     OW12721   4.564   1.754   3.608  0.3040  0.0040 -0.1859
 3941SOL    HW112722   4.539   1.756   3.511 -0.8262 -0.9337  0.0684
 3941SOL    HW212723   4.499   1.809   3.661  1.1016  0.7775  0.0267
 3942SOL     OW12724   5.321   1.650   6.860  0.0623  0.2658 -0.3909
 3942SOL    HW112725   5.341   1.558   6.891  0.5089  0.0327 -1.3452
 3942SOL    HW212726   5.360   1.665   6.769  3.3854  2.6437  1.2026
 3943SOL     OW12727   1.272   3.654   3.766  0.6195 -0.0655 -0.0274
 3943SOL    HW112728   1.313   3.563   3.778  1.5140  0.4362  0.8086
 3943SOL    HW212729   1.336   3.713   3.717 -0.3471 -0.1400 -1.4483
 3944SOL     OW12730   0.005   1.359   4.302 -0.6561 -0.2789  0.2484
 3944SOL    HW112731  -0.007   1.458   4.290 -1.7720 -0.5786 -1.3545
 3944SOL    HW212732   0.102   1.337   4.295 -0.4281  0.6587  0.2884
 3945SOL     OW12733   0.894   6.693   1.970  0.1620 -0.0162 -0.0113
 3945SOL    HW112734   0.911   6.787   2.000 -0.8290  0.0946  0.2622
 3945SOL    HW212735   0.934   6.629   2.035 -0.6076  0.2283  0.7270
 3946SOL     OW12736   3.001   5.334   6.800  0.7750  0.2885 -0.1567
 3946SOL    HW112737   2.910   5.344   6.759  0.8924 -2.0422 -1.1796
 3946SOL    HW212738   2.992   5.296   6.892  0.6742  1.7350  0.4511
 3947SOL     OW12739   3.138   6.242   5.512 -0.6312 -0.4882  0.6145
 3947SOL    HW112740   3.231   6.220   5.484 -1.0149 -2.5970  0.8320
 3947SOL    HW212741   3.088   6.158   5.532 -2.5473  0.5940  0.6793
 3948SOL     OW12742   3.041   3.842   4.442  0.3782  0.7290 -0.0969
 3948SOL    HW112743   3.039   3.888   4.353  1.1395  0.7535 -0.1072
 3948SOL    HW212744   3.003   3.750   4.432  3.2288 -0.4379 -1.1765
 3949SOL     OW12745   2.188   1.386   4.484 -0.9824 -0.3889  0.0291
 3949SOL    HW112746   2.263   1.447   4.511  0.2015 -2.2034  1.0492
 3949SOL    HW212747   2.101   1.428   4.511 -0.4300  1.9080 -1.4533
 3950SOL     OW12748   3.237   3.059   6.292 -0.0927  0.4911  0.2591
 3950SOL    HW112749   3.233   2.965   6.256  1.7530  0.1363  0.8557
 3950SOL    HW212750   3.330   3.077   6.325 -0.7180  2.1681  1.1705
 3951SOL     OW12751   3.732   5.755   6.143  0.2706  0.2168  0.1184
 3951SOL    HW112752   3.800   5.827   6.132 -0.9443  1.1766 -1.6886
 3951SOL    HW212753   3.723   5.705   6.057  0.0189 -1.1281  0.9037
 3952SOL     OW12754   4.248   1.032   5.832  0.2371  0.5036  0.3046
 3952SOL    HW112755   4.225   1.111   5.775  1.9574 -0.2253 -1.5375
 3952SOL    HW212756   4.284   1.063   5.919 -0.2555  1.7068  0.1028
 3953SOL     OW12757   3.699   0.939   2.362 -0.3339 -0.2798  0.2917
 3953SOL    HW112758   3.608   0.925   2.324 -0.4164 -1.3948  0.8472
 3953SOL    HW212759   3.700   0.908   2.457 -0.0031  1.9683  1.0813
 3954SOL     OW12760   3.549   0.107   0.680  0.4754 -0.0237  0.3154
 3954SOL    HW112761   3.582   0.189   0.634  1.9081 -0.2527  0.8908
 3954SOL    HW212762   3.486   0.133   0.753 -0.7543  0.4112 -0.8494
 3955SOL     OW12763   6.892   4.481   1.624  0.0519 -0.3643  0.4780
 3955SOL    HW112764   6.794   4.500   1.615 -0.6400 -3.3150  0.4810
 3955SOL    HW212765   6.918   4.410   1.559  2.0657 -0.0894  0.9158
 3956SOL     OW12766   6.197   3.046   3.969  0.2253 -0.7452 -0.2523
 3956SOL    HW112767   6.209   3.124   3.907 -1.0775  0.3474  0.7795
 3956SOL    HW212768   6.142   2.976   3.925  0.4947 -0.6082 -0.8147
 3957SOL     OW12769   6.144   2.723   1.272  0.0959  0.7407 -0.5537
 3957SOL    HW112770   6.219   2.786   1.251 -0.3504  1.3246 -0.4196
 3957SOL    HW212771   6.057   2.768   1.252 -0.2487  0.3602  0.0661
 3958SOL     OW12772   6.357   3.522   2.259 -0.5220  0.1423 -0.1034
 3958SOL    HW112773   6.390   3.453   2.322  0.8422  0.7468 -0.1165
 3958SOL    HW212774   6.430   3.547   2.196 -0.5655  2.4389  0.6626
 3959SOL     OW12775   2.874   5.182   4.858  0.6027  0.0691 -0.8619
 3959SOL    HW112776   2.973   5.180   4.863  0.6360  1.5621 -0.2416
 3959SOL    HW212777   2.844   5.275   4.838 -0.7346  0.2273  1.4925
 3960SOL     OW12778   2.282   1.704   4.490 -0.2909  0.9188  0.2609
 3960SOL    HW112779   2.355   1.739   4.431 -0.6686 -0.9413 -1.4516
 3960SOL    HW212780   2.193   1.724   4.448 -0.6825  1.2834  1.2318
 3961SOL     OW12781   6.219   6.040   0.034 -0.6526 -0.5803  0.3742
 3961SOL    HW112782   6.157   6.004  -0.036 -0.5514  1.4573 -0.8703
 3961SOL    HW212783   6.289   5.973   0.055 -2.5085 -2.4565  0.8829
 3962SOL     OW12784   0.365   5.521   0.190  0.1241 -0.0070 -0.8351
 3962SOL    HW112785   0.389   5.576   0.110  0.7019  0.3753 -0.4008
 3962SOL    HW212786   0.266   5.515   0.198  0.0558  1.0934 -0.8032
 3963SOL     OW12787   4.421   2.448   1.253 -0.5905  0.4492  0.1147
 3963SOL    HW112788   4.343   2.429   1.313  0.0157  2.3357  1.6193
 3963SOL    HW212789   4.403   2.533   1.202 -0.3382 -0.1842 -1.0487
 3964SOL     OW12790   5.501   5.085   5.469  0.5486 -0.8276 -0.0415
 3964SOL    HW112791   5.528   5.005   5.521 -0.0506 -0.9689  0.0562
 3964SOL    HW212792   5.412   5.069   5.426  0.3893 -0.1912  0.0415
 3965SOL     OW12793   6.584   1.619   1.928 -0.1185 -0.5047  0.5076
 3965SOL    HW112794   6.515   1.581   1.866  1.1411 -1.4210 -0.3776
 3965SOL    HW212795   6.618   1.705   1.891 -0.3126 -0.3827  0.6106
 3966SOL     OW12796   0.615   0.155   2.758 -0.0188 -0.1894  0.1836
 3966SOL    HW112797   0.579   0.122   2.845  0.8394 -0.4782  0.4378
 3966SOL    HW212798   0.712   0.134   2.751 -0.1341 -0.4336 -0.9829
 3967SOL     OW12799   1.403   0.715   6.908 -0.0129 -0.2361 -0.1713
 3967SOL    HW112800   1.485   0.725   6.851  0.3956  0.0854  0.4719
 3967SOL    HW212801   1.341   0.792   6.892  1.0974  1.0590  1.4319
 3968SOL     OW12802   4.043   4.788   2.496  0.6049 -0.0713  0.0114
 3968SOL    HW112803   3.956   4.806   2.543 -0.2643 -1.6687 -0.8856
 3968SOL    HW212804   4.024   4.753   2.404  2.2424  1.0259 -0.7854
 3969SOL     OW12805   1.760   3.397   6.339  0.6138 -0.4046 -0.0811
 3969SOL    HW112806   1.814   3.446   6.407  0.0558 -0.6049  0.5229
 3969SOL    HW212807   1.814   3.323   6.299  0.9473 -0.2806  0.1402
 3970SOL     OW12808   2.178   4.118   0.377  0.5769 -0.3247  0.0283
 3970SOL    HW112809   2.169   4.171   0.293  1.1993 -0.5466 -0.1882
 3970SOL    HW212810   2.252   4.156   0.433  2.4801 -2.1714 -1.0968
 3971SOL     OW12811   6.053   5.741   5.909  0.2204 -0.4468 -0.7813
 3971SOL    HW112812   6.104   5.827   5.904  0.7920 -0.7305 -0.0226
 3971SOL    HW212813   6.042   5.703   5.817 -1.8890  1.4769 -1.4012
 3972SOL     OW12814   4.834   3.108   2.814 -0.1107 -0.0188  0.3801
 3972SOL    HW112815   4.823   3.157   2.727 -1.8592  0.4321  0.8090
 3972SOL    HW212816   4.820   3.010   2.798 -0.1909  0.0349  0.1166
 3973SOL     OW12817   4.778   5.554   6.942 -0.0523 -0.2670  0.3073
 3973SOL    HW112818   4.824   5.541   6.854 -0.7841  1.3481 -0.3428
 3973SOL    HW212819   4.834   5.612   7.000  0.6969 -1.7842  1.1687
 3974SOL     OW12820   1.706   1.473   2.260  0.2756  0.1369  0.2854
 3974SOL    HW112821   1.643   1.397   2.250  2.4277 -1.6198 -0.7946
 3974SOL    HW212822   1.758   1.462   2.346 -0.1841  1.0428  0.6971
 3975SOL     OW12823   1.957   4.801   4.920 -0.4617 -0.5141 -0.3076
 3975SOL    HW112824   1.975   4.840   4.830  0.5767 -1.2710 -0.4441
 3975SOL    HW212825   1.983   4.868   4.991  0.0186 -0.4379 -0.5533
 3976SOL     OW12826   4.871   3.703   1.774 -0.8834  0.0986  0.1822
 3976SOL    HW112827   4.785   3.748   1.749  0.2008  2.0884 -0.1061
 3976SOL    HW212828   4.944   3.734   1.714 -0.0076 -1.9048  0.1401
 3977SOL     OW12829   2.865   2.481   6.644 -0.1355  0.8669 -0.3635
 3977SOL    HW112830   2.843   2.415   6.572  1.7054  0.1161 -0.2940
 3977SOL    HW212831   2.793   2.481   6.713 -1.7230  1.2726 -1.9415
 3978SOL     OW12832   5.181   3.313   6.883 -0.0089  0.3711 -0.1713
 3978SOL    HW112833   5.217   3.323   6.791  2.4307 -0.5565  0.5907
 3978SOL    HW212834   5.253   3.334   6.949 -0.9727 -1.1933  1.4917
 3979SOL     OW12835   3.043   1.536   3.234  0.5177 -0.4499 -0.1484
 3979SOL    HW112836   3.134   1.504   3.261  0.1155 -0.1939  1.6921
 3979SOL    HW212837   3.052   1.606   3.164  1.6721 -1.1654 -0.7478
 3980SOL     OW12838   5.076   5.268   6.829  0.1004 -0.4816  0.4740
 3980SOL    HW112839   5.023   5.191   6.864  0.5123 -0.0028  2.2178
 3980SOL    HW212840   5.121   5.241   6.744 -0.7319 -1.7591  0.4044
 3981SOL     OW12841   5.562   3.859   4.026  0.0479  0.2651 -0.8464
 3981SOL    HW112842   5.466   3.864   4.055 -0.0401  1.0460 -1.2665
 3981SOL    HW212843   5.585   3.764   4.007 -1.3045  0.2806 -2.9201
 3982SOL     OW12844   3.727   2.095   2.385  0.9441 -0.5115  0.3431
 3982SOL    HW112845   3.822   2.123   2.384  0.2429  2.0567 -0.5758
 3982SOL    HW212846   3.716   2.011   2.332  2.6959 -0.9676  0.6596
 3983SOL     OW12847   3.286   6.568   3.412 -0.3329 -0.4083 -0.0879
 3983SOL    HW112848   3.186   6.572   3.409 -0.3718 -1.3093 -0.4542
 3983SOL    HW212849   3.315   6.477   3.443  0.3245 -2.1827 -4.9563
 3984SOL     OW12850   2.358   6.205   6.145  0.1696 -0.3830 -0.3142
 3984SOL    HW112851   2.351   6.208   6.046  0.1508 -0.8952 -0.3286
 3984SOL    HW212852   2.274   6.243   6.186  0.7100  1.0869 -0.4820
 3985SOL     OW12853   4.597   3.968   5.732  0.2052 -0.4082 -1.0042
 3985SOL    HW112854   4.530   3.895   5.745 -0.2257  0.0808 -0.3783
 3985SOL    HW212855   4.557   4.055   5.761  2.0063 -0.4733  2.2302
 3986SOL     OW12856   6.396   0.654   2.386 -0.1672 -0.0911 -0.2365
 3986SOL    HW112857   6.432   0.747   2.377  0.8717 -0.5341 -0.7428
 3986SOL    HW212858   6.308   0.648   2.338 -0.3837  0.6944  0.0432
 3987SOL     OW12859   1.961   5.893   0.248 -0.6857 -0.1576  0.0632
 3987SOL    HW112860   1.966   5.827   0.173 -2.3893 -0.3323  0.0677
 3987SOL    HW212861   2.028   5.965   0.233  2.4997 -2.6876  0.9373
 3988SOL     OW12862   6.576   0.004   4.666  0.1574 -0.3812  0.1037
 3988SOL    HW112863   6.611   0.013   4.573  1.0823  1.1810  0.5620
 3988SOL    HW212864   6.638  -0.056   4.718 -0.0251 -0.7692 -0.1239
 3989SOL     OW12865   4.911   2.159   1.317  0.3338 -0.1594  0.9103
 3989SOL    HW112866   4.938   2.120   1.229  0.1694  0.1594  0.7143
 3989SOL    HW212867   4.940   2.255   1.321  0.4245 -0.1989  1.2423
 3990SOL     OW12868   1.989   4.726   1.329 -0.0133  0.4438 -0.1185
 3990SOL    HW112869   1.941   4.804   1.291 -0.8105 -0.3638 -0.8039
 3990SOL    HW212870   2.041   4.680   1.257 -0.3446 -0.2303  0.0650
 3991SOL     OW12871   6.981   1.709   3.307 -0.2324 -0.1611 -0.1312
 3991SOL    HW112872   7.048   1.699   3.381  0.6374 -1.5201 -1.0721
 3991SOL    HW212873   6.962   1.807   3.293  0.7964  0.1968  0.8152
 3992SOL     OW12874   5.435   4.910   5.120  0.5744  0.2521  0.4269
 3992SOL    HW112875   5.364   4.889   5.052 -0.0742 -1.5331  1.5721
 3992SOL    HW212876   5.395   4.966   5.192  0.0667 -1.2841  1.4043
 3993SOL     OW12877   0.799   1.495   3.695 -0.1769 -0.4247 -0.0835
 3993SOL    HW112878   0.740   1.574   3.714  0.1575 -0.0653 -0.5165
 3993SOL    HW212879   0.893   1.517   3.721  0.0968 -0.3190 -1.1188
 3994SOL     OW12880   5.670   1.202   1.798  0.1072  0.1195 -0.5235
 3994SOL    HW112881   5.743   1.138   1.825  0.3765  0.4620 -0.4261
 3994SOL    HW212882   5.625   1.169   1.716 -1.2416 -1.3509  0.7511
 3995SOL     OW12883   2.648   4.023   5.342 -0.0638  0.0056 -0.0083
 3995SOL    HW112884   2.561   4.031   5.295 -0.4045  0.4139  0.6730
 3995SOL    HW212885   2.696   3.942   5.310 -1.6594 -1.4735  1.1427
 3996SOL     OW12886   5.102   3.001   2.788 -1.2672 -0.0989  0.5505
 3996SOL    HW112887   5.005   3.023   2.797 -1.5187 -1.3004  1.0980
 3996SOL    HW212888   5.124   2.926   2.852 -0.4601 -1.2568 -1.0285
 3997SOL     OW12889   4.187   5.496   3.330 -0.1765  0.1663  0.6560
 3997SOL    HW112890   4.248   5.545   3.392 -1.5719  0.1701  2.1063
 3997SOL    HW212891   4.175   5.402   3.363  0.2150 -0.2903 -0.4641
 3998SOL     OW12892   1.697   6.094   4.620  0.1097 -0.2614  0.0582
 3998SOL    HW112893   1.642   6.122   4.542 -0.2055 -2.6432 -0.6607
 3998SOL    HW212894   1.794   6.103   4.598  0.0292  0.6821  0.0491
 3999SOL     OW12895   3.090   2.234   4.724 -0.6471 -0.8447  0.2826
 3999SOL    HW112896   3.003   2.284   4.729 -0.2237  0.1488 -1.4630
 3999SOL    HW212897   3.143   2.250   4.807  0.4906  3.6504 -1.0361
 4000SOL     OW12898   3.381   5.782   0.208  0.5214 -0.1409 -0.8689
 4000SOL    HW112899   3.369   5.787   0.307 -0.5419  0.5007 -1.0154
 4000SOL    HW212900   3.417   5.869   0.174  0.0622 -0.0556 -1.1432
 4001SOL     OW12901   4.265   3.156   5.723  0.4971 -0.2190 -0.6201
 4001SOL    HW112902   4.220   3.129   5.638  0.7604  0.7172 -1.0727
 4001SOL    HW212903   4.363   3.135   5.717  0.0277 -3.4102  0.8401
 4002SOL     OW12904   2.928   0.945   2.286  0.2710 -0.5059 -0.2606
 4002SOL    HW112905   3.016   0.984   2.314  0.1288 -1.7323  2.1097
 4002SOL    HW212906   2.854   0.990   2.336 -0.3738 -0.3330 -1.3339
 4003SOL     OW12907   3.143   2.105   5.254  0.0204 -0.2046 -0.0398
 4003SOL    HW112908   3.101   2.070   5.170 -0.4314  0.2426 -0.0066
 4003SOL    HW212909   3.169   2.201   5.241 -1.8914  0.5022  0.9507
 4004SOL     OW12910   2.942   4.856   4.943 -0.4226 -0.0569 -0.6439
 4004SOL    HW112911   2.997   4.896   5.016  0.4840 -0.7670 -0.9108
 4004SOL    HW212912   2.905   4.768   4.975 -2.5271  0.9947 -0.0006
 4005SOL     OW12913   3.287   3.013   2.328 -0.0675 -0.8701 -0.1340
 4005SOL    HW112914   3.245   3.021   2.419 -1.9556  0.1654 -1.0439
 4005SOL    HW212915   3.361   2.946   2.332 -0.7820 -1.6288  1.9210
 4006SOL     OW12916   1.321   1.519   2.003  0.3684 -0.2563  0.0375
 4006SOL    HW112917   1.310   1.461   1.922  0.9385  0.0463 -0.2670
 4006SOL    HW212918   1.257   1.596   1.997 -1.0220 -1.2978  0.8780
 4007SOL     OW12919   6.804   6.846   1.576  0.0396  0.4437 -0.3260
 4007SOL    HW112920   6.790   6.757   1.532 -0.4566 -0.1402  0.9589
 4007SOL    HW212921   6.900   6.873   1.567 -0.0612  0.4158 -1.8362
 4008SOL     OW12922   1.864   5.338   3.282  0.3766 -0.0720 -0.0672
 4008SOL    HW112923   1.896   5.409   3.345 -2.7182  0.4607  1.0718
 4008SOL    HW212924   1.853   5.376   3.191  0.9828  0.2558 -0.0116
 4009SOL     OW12925   0.362   0.134   3.728 -0.7385 -0.1734 -0.2301
 4009SOL    HW112926   0.341   0.040   3.701 -1.5061 -0.4509  1.2395
 4009SOL    HW212927   0.277   0.186   3.738 -0.3472  0.5275 -0.5081
 4010SOL     OW12928   6.947   1.906   1.148 -0.5734 -0.5368  0.3873
 4010SOL    HW112929   6.961   1.830   1.085  1.1775  0.1014 -0.0278
 4010SOL    HW212930   7.035   1.946   1.173 -1.4413  1.2214  0.7720
 4011SOL     OW12931   1.832   5.664   6.265 -0.0873 -0.1119 -0.0588
 4011SOL    HW112932   1.831   5.703   6.357  0.1820  0.4726 -0.2969
 4011SOL    HW212933   1.839   5.565   6.271 -2.4028 -0.2927  0.5922
 4012SOL     OW12934   5.829   2.846   4.791  0.2621 -0.3532  0.5311
 4012SOL    HW112935   5.865   2.927   4.744 -0.5870  0.1928  0.7923
 4012SOL    HW212936   5.905   2.795   4.831  0.7342  1.1197  1.6211
 4013SOL     OW12937   4.979   1.689   1.832 -0.0204  0.2860 -0.7497
 4013SOL    HW112938   4.903   1.677   1.896 -0.0067 -1.8630 -1.0604
 4013SOL    HW212939   5.053   1.739   1.877 -1.2152  1.5424 -0.1286
 4014SOL     OW12940   6.906   6.749   6.539  0.0214  0.0772 -0.2576
 4014SOL    HW112941   6.951   6.806   6.608  0.5797 -1.5832  0.8312
 4014SOL    HW212942   6.826   6.705   6.579  0.8986 -1.6646 -0.3000
 4015SOL     OW12943   2.112   6.971   5.978 -0.0676  0.2329  0.2584
 4015SOL    HW112944   2.069   6.882   5.995 -1.9673  1.3706  1.9967
 4015SOL    HW212945   2.114   7.024   6.064  3.9938  0.7192  0.0675
 4016SOL     OW12946   3.349   6.706   0.169  0.4559  0.5749 -0.3358
 4016SOL    HW112947   3.365   6.629   0.107  0.8172  1.0266 -0.8027
 4016SOL    HW212948   3.276   6.681   0.233 -0.6560  0.4771 -1.5963
 4017SOL     OW12949   0.653   2.319   2.864 -0.3165 -0.4072 -0.6048
 4017SOL    HW112950   0.564   2.274   2.875 -0.8349  0.1808 -2.1345
 4017SOL    HW212951   0.648   2.412   2.902  0.7588 -1.5067  2.5698
 4018SOL     OW12952   3.418   3.396   6.398  0.2826 -0.2027 -0.1004
 4018SOL    HW112953   3.510   3.436   6.390 -0.2106  0.9625 -0.1991
 4018SOL    HW212954   3.415   3.335   6.477  0.9624  0.2628  0.3008
 4019SOL     OW12955   6.867   1.277   0.299  0.1186 -0.3820 -0.4206
 4019SOL    HW112956   6.775   1.261   0.335 -0.5947 -0.1405 -2.0582
 4019SOL    HW212957   6.862   1.296   0.201  1.7137  1.7293 -0.1535
 4020SOL     OW12958   4.106   0.065   4.871 -0.0226 -0.0113  0.3255
 4020SOL    HW112959   4.102   0.165   4.867 -3.2384  0.0964  2.5075
 4020SOL    HW212960   4.065   0.027   4.788  0.6431  0.4471 -0.2288
 4021SOL     OW12961   1.113   4.218   4.840 -0.0487 -0.2475  0.1164
 4021SOL    HW112962   1.079   4.157   4.912 -0.1291 -0.4021 -0.0531
 4021SOL    HW212963   1.213   4.216   4.839 -0.0006  0.6808  1.0304
 4022SOL     OW12964   5.663   1.352   3.624 -0.2181  0.6868  0.1916
 4022SOL    HW112965   5.609   1.301   3.556  0.8041 -1.6435  1.0277
 4022SOL    HW212966   5.603   1.416   3.671 -1.9645 -0.7228  0.0502
 4023SOL     OW12967   2.913   1.207   6.292 -0.5620 -0.0007  0.2656
 4023SOL    HW112968   2.935   1.127   6.236 -2.2289  0.0109 -0.4360
 4023SOL    HW212969   2.933   1.290   6.241 -0.6001  0.0252  0.2932
 4024SOL     OW12970   4.134   6.242   5.810 -0.0146  0.2785  0.1020
 4024SOL    HW112971   4.225   6.216   5.780  0.0944  0.4767  0.2597
 4024SOL    HW212972   4.121   6.215   5.906  0.6076  2.0271  0.7280
 4025SOL     OW12973   4.147   6.780   1.831 -0.0534 -0.7407  0.3894
 4025SOL    HW112974   4.223   6.745   1.777 -0.2236  1.1839 -1.2421
 4025SOL    HW212975   4.155   6.880   1.839 -1.3559 -0.7064  1.8893
 4026SOL     OW12976   6.402   3.414   6.418  0.2138 -0.0777  0.8642
 4026SOL    HW112977   6.469   3.346   6.448 -1.1326 -1.1339  1.5736
 4026SOL    HW212978   6.313   3.394   6.460 -0.2898  1.9596  0.8617
 4027SOL     OW12979   1.920   1.250   6.440 -0.0038  0.2719 -0.2264
 4027SOL    HW112980   1.920   1.246   6.540 -0.4136 -0.6765 -0.2603
 4027SOL    HW212981   2.014   1.240   6.407  0.2402  1.4036  0.0813
 4028SOL     OW12982   5.280   2.143   6.644  0.0854  0.1220 -0.8569
 4028SOL    HW112983   5.321   2.231   6.665  1.2079 -0.3604 -0.9662
 4028SOL    HW212984   5.241   2.103   6.727 -0.6468  0.8190 -0.8557
 4029SOL     OW12985   6.414   6.177   1.112  0.3342 -0.0513 -0.4076
 4029SOL    HW112986   6.396   6.108   1.182  1.0324 -0.0351 -0.2034
 4029SOL    HW212987   6.328   6.207   1.071  0.0500 -1.5196 -0.9516
 4030SOL     OW12988   4.521   4.879   3.724 -0.0958 -0.0597 -0.3007
 4030SOL    HW112989   4.545   4.847   3.816  0.4754  0.9033 -0.0939
 4030SOL    HW212990   4.568   4.823   3.656 -0.6832 -0.9081 -0.0224
 4031SOL     OW12991   0.534   0.465   3.301 -0.0036  0.1390  0.5513
 4031SOL    HW112992   0.517   0.454   3.203 -1.0452  0.4796  0.6856
 4031SOL    HW212993   0.448   0.459   3.351  0.3822  1.0010  1.3531
 4032SOL     OW12994   1.656   3.407   4.111 -0.3242  0.3335  0.0450
 4032SOL    HW112995   1.697   3.346   4.044  0.7882  0.1956  0.8229
 4032SOL    HW212996   1.697   3.498   4.103 -0.3586  0.3790  0.3831
 4033SOL     OW12997   4.351   6.274   3.215  0.4234 -0.0491 -0.1662
 4033SOL    HW112998   4.272   6.302   3.270 -0.2911 -1.6641 -0.3390
 4033SOL    HW212999   4.427   6.251   3.276 -0.0050 -0.7602  0.1028
 4034SOL     OW13000   0.229   1.768   6.790 -0.0888 -0.2539 -0.4966
 4034SOL    HW113001   0.165   1.694   6.772 -0.2014 -0.1518 -0.5235
 4034SOL    HW213002   0.179   1.855   6.791  0.2801  0.0254 -2.2203
 4035SOL     OW13003   6.622   2.009   6.336  0.3696 -0.3408  0.4653
 4035SOL    HW113004   6.681   2.020   6.417  0.7604 -1.7974  0.4007
 4035SOL    HW213005   6.569   2.092   6.323  2.5021  1.1190  0.4582
 4036SOL     OW13006   7.004   3.957   4.143  0.2066  0.3805  0.0674
 4036SOL    HW113007   7.042   4.011   4.219  1.0401 -0.7254  0.4556
 4036SOL    HW213008   6.932   4.010   4.098 -0.2212  1.1266  1.5410
 4037SOL     OW13009   4.837   1.262   4.821  0.1324 -0.0078  0.5221
 4037SOL    HW113010   4.813   1.317   4.901  1.8547  0.3756  0.8033
 4037SOL    HW213011   4.881   1.177   4.850 -1.1399 -0.8773  0.0255
 4038SOL     OW13012   3.790   4.053   5.191  0.3521  0.2550  0.7202
 4038SOL    HW113013   3.875   4.043   5.241  0.0944 -2.5237  0.7370
 4038SOL    HW213014   3.810   4.078   5.096  0.9509  2.9244  1.4641
 4039SOL     OW13015   5.671   3.174   4.915  0.0326 -0.0502  0.3497
 4039SOL    HW113016   5.581   3.170   4.958  0.1852  2.4402  1.0845
 4039SOL    HW213017   5.665   3.228   4.831  0.8320  0.0825  0.3692
 4040SOL     OW13018   2.150   6.629   6.885  0.3940 -0.5297 -0.0919
 4040SOL    HW113019   2.169   6.727   6.881  1.3317 -0.7287 -1.5644
 4040SOL    HW213020   2.235   6.579   6.906  0.0046 -1.0491  0.2775
 4041SOL     OW13021   0.081   5.892   5.397 -0.1177 -0.9930  0.0067
 4041SOL    HW113022   0.072   5.983   5.356 -0.6266 -1.2017 -0.3620
 4041SOL    HW213023   0.120   5.901   5.489 -2.6353 -0.0921  1.0978
 4042SOL     OW13024   6.721   0.396   6.546 -0.1420  1.0123 -0.1510
 4042SOL    HW113025   6.630   0.413   6.584 -0.7057 -0.2825 -0.8553
 4042SOL    HW213026   6.736   0.298   6.538  0.2273  1.1907 -2.5396
 4043SOL     OW13027   0.493   0.179   2.258  0.0554  0.0594  0.5139
 4043SOL    HW113028   0.465   0.103   2.317 -1.2803 -0.2106 -0.4187
 4043SOL    HW213029   0.444   0.173   2.171  0.2508  1.7401  0.2559
 4044SOL     OW13030   2.654   0.194   2.557 -0.2397 -0.3397 -0.5552
 4044SOL    HW113031   2.750   0.184   2.583 -0.7177 -1.2772  0.9256
 4044SOL    HW213032   2.607   0.106   2.568 -1.0897 -0.1258 -2.1339
 4045SOL     OW13033   3.021   1.803   0.017 -0.0772 -0.1263  0.2037
 4045SOL    HW113034   2.928   1.825  -0.012 -0.2095  0.4489  1.0163
 4045SOL    HW213035   3.028   1.816   0.116  1.3907  1.7931 -0.1001
 4046SOL     OW13036   1.538   0.480   3.252 -0.6748  0.0985 -0.1469
 4046SOL    HW113037   1.504   0.508   3.162 -0.8933  0.1840 -0.0391
 4046SOL    HW213038   1.539   0.380   3.258 -1.2744  0.0981 -0.0162
 4047SOL     OW13039   1.842   0.738   0.487 -0.2963  0.2406 -0.7743
 4047SOL    HW113040   1.761   0.734   0.428 -0.7633  0.3343 -0.1485
 4047SOL    HW213041   1.819   0.785   0.572  0.1025 -0.7431 -0.1058
 4048SOL     OW13042   1.927   1.890   6.956 -0.2011  0.4656  0.0207
 4048SOL    HW113043   1.950   1.900   6.860 -0.7454  1.8043 -0.0068
 4048SOL    HW213044   1.981   1.817   6.997  0.7471  0.5346 -1.0673
 4049SOL     OW13045   2.188   5.205   1.400 -0.0483  0.2754 -0.1488
 4049SOL    HW113046   2.217   5.233   1.309 -0.0713  0.3101 -0.1457
 4049SOL    HW213047   2.263   5.217   1.464  0.1220 -0.2187 -0.2573
 4050SOL     OW13048   1.034   5.460   3.522 -0.3756  0.2611  0.2872
 4050SOL    HW113049   0.991   5.541   3.562 -0.7492  0.1676  0.0816
 4050SOL    HW213050   0.964   5.405   3.477  0.2326  1.1635 -1.8842
 4051SOL     OW13051   5.124   6.932   3.474 -0.6163  0.1930  0.4400
 4051SOL    HW113052   5.172   7.005   3.424  0.2339 -0.6010  0.0575
 4051SOL    HW213053   5.165   6.922   3.564 -1.1497  0.6043  0.7326
 4052SOL     OW13054   5.036   0.277   5.331 -0.0878 -0.0235 -0.3244
 4052SOL    HW113055   5.123   0.308   5.292 -0.3936  1.5239  0.1681
 4052SOL    HW213056   5.024   0.317   5.422 -1.5802  0.2359 -0.6201
 4053SOL     OW13057   2.007   6.723   6.054 -0.1268  0.3320 -0.4086
 4053SOL    HW113058   2.037   6.711   6.148  1.3908  1.2088 -0.7458
 4053SOL    HW213059   2.009   6.635   6.006  0.1635  0.0749  0.0753
 4054SOL     OW13060   4.205   0.882   1.391 -0.4661  0.3484 -0.6872
 4054SOL    HW113061   4.140   0.817   1.351 -0.6253  0.5739 -0.7936
 4054SOL    HW213062   4.257   0.836   1.463  0.4852 -0.3363 -1.7735
 4055SOL     OW13063   0.326   6.566   3.868  0.6681  0.0470 -0.1944
 4055SOL    HW113064   0.312   6.641   3.933  1.2478 -0.7981  0.9532
 4055SOL    HW213065   0.365   6.487   3.917  0.9895 -0.6618 -1.5548
 4056SOL     OW13066   3.452   4.023   3.011  0.1961  0.5131 -0.1902
 4056SOL    HW113067   3.431   3.926   3.021  0.4180  0.4098 -0.6850
 4056SOL    HW213068   3.474   4.062   3.101 -0.0132  0.1357  0.0264
 4057SOL     OW13069   4.604   5.824   1.361 -0.6497  0.4369  0.0384
 4057SOL    HW113070   4.616   5.853   1.456  1.5042 -0.2518  0.0201
 4057SOL    HW213071   4.683   5.853   1.307 -1.2078 -0.3718 -1.2477
 4058SOL     OW13072   2.550   5.374   3.715  0.1780 -0.4219 -0.3136
 4058SOL    HW113073   2.571   5.298   3.654 -1.4307 -0.4065 -0.9341
 4058SOL    HW213074   2.461   5.358   3.758  0.6890  0.2116  1.0101
 4059SOL     OW13075   2.499   4.527   3.286 -0.7346  0.1170 -0.3501
 4059SOL    HW113076   2.448   4.445   3.310 -0.3868 -0.3082 -1.0272
 4059SOL    HW213077   2.522   4.524   3.189  1.1658 -0.0227  0.0813
 4060SOL     OW13078   3.721   3.517   5.287  0.0151  0.1016 -0.0476
 4060SOL    HW113079   3.754   3.474   5.203 -1.0357 -1.4120  0.2706
 4060SOL    HW213080   3.742   3.459   5.366 -4.4495 -1.8100  0.0553
 4061SOL     OW13081   4.286   1.854   5.776  0.3281  0.5095 -0.1672
 4061SOL    HW113082   4.256   1.894   5.689  0.0355 -0.3360 -0.4671
 4061SOL    HW213083   4.225   1.779   5.801  0.3310  0.8330  0.8468
 4062SOL     OW13084   1.916   0.978   3.389 -0.7990 -0.0056  0.1869
 4062SOL    HW113085   1.921   0.916   3.311 -1.8555 -0.3135  0.3418
 4062SOL    HW213086   1.863   0.935   3.462 -2.4529  1.4451 -0.0734
 4063SOL     OW13087   0.258   2.156   6.174 -0.0474 -0.4488 -0.1967
 4063SOL    HW113088   0.250   2.126   6.079  0.1809  1.4104 -0.8424
 4063SOL    HW213089   0.254   2.255   6.178  0.5128 -0.4644  1.7038
 4064SOL     OW13090   0.501   0.031   6.827  0.2106 -0.5559 -0.0055
 4064SOL    HW113091   0.505   0.094   6.905  1.9312  0.5194 -0.8982
 4064SOL    HW213092   0.472  -0.059   6.859  0.2181  0.0332  1.7665
 4065SOL     OW13093   5.168   0.559   1.661 -0.6356  0.0964 -0.1680
 4065SOL    HW113094   5.211   0.650   1.663  0.9881 -0.5937  2.2143
 4065SOL    HW213095   5.102   0.552   1.735 -1.4338 -0.3832 -0.9124
 4066SOL     OW13096   0.209   4.221   0.808 -0.4585 -0.0467  0.4187
 4066SOL    HW113097   0.206   4.167   0.724 -1.0887 -0.4395  0.6893
 4066SOL    HW213098   0.195   4.317   0.786 -1.5527 -0.2475  0.1545
 4067SOL     OW13099   5.029   6.245   6.278  0.0073  0.1545  0.1501
 4067SOL    HW113100   5.046   6.158   6.326  2.1508  0.3518 -0.1570
 4067SOL    HW213101   5.037   6.231   6.180  0.0879  0.6572  0.0853
 4068SOL     OW13102   4.456   4.850   1.553 -1.0185  0.7002  0.3393
 4068SOL    HW113103   4.495   4.846   1.644 -1.3368 -2.6647  0.4280
 4068SOL    HW213104   4.357   4.837   1.558 -0.9537 -0.2647 -0.5106
 4069SOL     OW13105   4.435   0.527   0.875 -0.9180  0.3513 -0.1766
 4069SOL    HW113106   4.530   0.545   0.901 -0.5487  0.9132 -1.7933
 4069SOL    HW213107   4.398   0.606   0.827 -2.3295  0.2558  0.7027
 4070SOL     OW13108   1.458   1.016   0.157  0.0303  0.3710 -0.6887
 4070SOL    HW113109   1.556   1.038   0.156 -0.0377  0.8309  0.8658
 4070SOL    HW213110   1.443   0.930   0.108  1.1010  0.6684 -1.5886
 4071SOL     OW13111   2.919   6.337   0.198 -0.5541 -0.2224  0.2236
 4071SOL    HW113112   2.952   6.244   0.184 -1.1595 -0.5430  0.8897
 4071SOL    HW213113   2.980   6.384   0.262 -0.2740 -0.1759 -0.0769
 4072SOL     OW13114   2.544   0.965   4.077 -0.0012 -0.0453 -0.3231
 4072SOL    HW113115   2.521   1.059   4.101  1.7116  0.5258 -0.8086
 4072SOL    HW213116   2.504   0.943   3.988 -0.1511  0.3238 -0.3484
 4073SOL     OW13117   2.169   6.991   3.056 -0.2599 -0.1667 -0.4144
 4073SOL    HW113118   2.207   6.974   2.965  0.0145 -2.2688  0.0331
 4073SOL    HW213119   2.126   6.907   3.090  1.1594  0.0113  2.0930
 4074SOL     OW13120   2.870   6.824   2.493  0.1614 -0.0671  0.7764
 4074SOL    HW113121   2.867   6.727   2.472  1.4065 -0.1983  1.0756
 4074SOL    HW213122   2.943   6.841   2.560 -0.2352  1.0297  0.9580
 4075SOL     OW13123   5.128   5.582   0.803  0.1837 -0.3810  0.2388
 4075SOL    HW113124   5.063   5.508   0.786 -1.2155  0.8124  0.1331
 4075SOL    HW213125   5.078   5.662   0.838  1.4846  0.8405 -0.6087
 4076SOL     OW13126   4.653   2.897   6.512  0.2934 -0.1869 -0.0757
 4076SOL    HW113127   4.740   2.906   6.560 -0.2830 -1.7496  1.3178
 4076SOL    HW213128   4.608   2.811   6.537 -1.2082  0.1063 -1.5234
 4077SOL     OW13129   1.831   5.174   4.122 -0.4243 -0.6448 -0.1692
 4077SOL    HW113130   1.897   5.112   4.080 -1.4701 -2.2144  0.4045
 4077SOL    HW213131   1.799   5.239   4.053  1.4783 -0.0148 -0.5220
 4078SOL     OW13132   5.410   2.265   1.746  0.2945 -0.1794 -0.8349
 4078SOL    HW113133   5.342   2.193   1.732 -2.6189  2.1762  0.1118
 4078SOL    HW213134   5.410   2.326   1.668 -1.3416  1.7463  0.5487
 4079SOL     OW13135   6.610   6.868   2.758 -0.2237 -0.1974  0.3334
 4079SOL    HW113136   6.512   6.860   2.739 -0.3905 -0.9901  1.4608
 4079SOL    HW213137   6.661   6.810   2.694 -0.4958 -0.0169 -0.0578
 4080SOL     OW13138   1.841   2.548   5.121  0.4673  0.2192 -0.3474
 4080SOL    HW113139   1.873   2.455   5.139 -0.8137 -0.0088  0.9341
 4080SOL    HW213140   1.777   2.576   5.193 -0.4151  1.4939 -1.5794
 4081SOL     OW13141   6.870   0.959   3.137  0.1085 -0.2150  0.1498
 4081SOL    HW113142   6.830   1.035   3.085 -0.1085  0.2479  0.9728
 4081SOL    HW213143   6.961   0.986   3.170  1.0995 -1.2142 -1.6029
 4082SOL     OW13144   6.450   1.534   2.374  0.6475 -0.0036 -0.4050
 4082SOL    HW113145   6.382   1.519   2.445  1.5155  0.9581  0.6693
 4082SOL    HW213146   6.417   1.605   2.311 -0.5844 -1.6013 -1.6386
 4083SOL     OW13147   6.576   5.396   1.099  0.3490  0.0525  0.1710
 4083SOL    HW113148   6.637   5.415   1.176 -2.0674  3.4544  1.5178
 4083SOL    HW213149   6.598   5.459   1.024  0.3209 -0.7067 -0.4808
 4084SOL     OW13150   0.243   3.877   5.787  0.3444  0.2771 -0.0977
 4084SOL    HW113151   0.317   3.941   5.770  0.2145  0.5054  0.1952
 4084SOL    HW213152   0.270   3.785   5.756  0.4048  0.5338 -0.8294
 4085SOL     OW13153   5.189   6.959   5.692 -0.2145 -0.0655  0.5821
 4085SOL    HW113154   5.133   7.037   5.665  0.1240  0.5436  1.5732
 4085SOL    HW213155   5.146   6.875   5.661 -0.9373  0.4718  0.0820
 4086SOL     OW13156   4.749   5.655   6.108 -0.5896  0.3392  0.3402
 4086SOL    HW113157   4.704   5.725   6.164 -0.6919  1.3359 -0.9531
 4086SOL    HW213158   4.682   5.616   6.044 -0.3890 -0.5289  0.6487
 4087SOL     OW13159   0.243   2.628   5.889 -0.1460 -0.7240  0.5749
 4087SOL    HW113160   0.227   2.625   5.791  0.7055 -0.6259  0.4281
 4087SOL    HW213161   0.338   2.603   5.909  0.2619  1.1198  1.2028
 4088SOL     OW13162   6.971   0.729   1.453 -0.1081  0.2730 -0.2642
 4088SOL    HW113163   7.036   0.784   1.400  0.3296  0.0523  0.0394
 4088SOL    HW213164   6.882   0.773   1.452  0.4964  1.5884  0.9313
 4089SOL     OW13165   0.717   5.710   1.989 -0.5447  0.1483 -0.1747
 4089SOL    HW113166   0.769   5.656   1.923 -0.7563 -1.0892  0.6378
 4089SOL    HW213167   0.775   5.731   2.067 -0.4055  1.3021 -0.5667
 4090SOL     OW13168   3.391   0.637   4.528 -0.1505  0.2620 -0.5892
 4090SOL    HW113169   3.315   0.606   4.586 -0.4102 -0.1179 -1.1330
 4090SOL    HW213170   3.477   0.599   4.562  0.0339  1.8783  0.9429
 4091SOL     OW13171   6.102   5.353   6.403 -0.1439 -0.6328  0.1358
 4091SOL    HW113172   6.070   5.287   6.471 -0.9502 -1.1295 -0.7046
 4091SOL    HW213173   6.045   5.347   6.321  0.1304  0.7165 -0.1780
 4092SOL     OW13174   0.735   2.719   4.261 -0.6190 -0.4203 -0.2987
 4092SOL    HW113175   0.816   2.775   4.244 -1.8383  1.0969 -1.5181
 4092SOL    HW213176   0.762   2.625   4.280  1.4205  0.1257 -0.2876
 4093SOL     OW13177   6.010   5.688   2.994 -0.1905  0.3641  0.8284
 4093SOL    HW113178   6.049   5.775   2.965 -1.4907  0.8735  0.5358
 4093SOL    HW213179   5.914   5.683   2.965  0.0860 -1.5154  0.1058
 4094SOL     OW13180   6.970   1.612   5.054  0.4420  0.4780 -0.9009
 4094SOL    HW113181   6.872   1.601   5.037  0.0496 -0.6553  1.6101
 4094SOL    HW213182   7.004   1.692   5.005 -1.9576  1.4812 -1.0635
 4095SOL     OW13183   1.022   4.849   4.576 -0.4192  0.3108  0.1599
 4095SOL    HW113184   1.012   4.844   4.477 -1.2809 -1.4756  0.3029
 4095SOL    HW213185   1.057   4.763   4.611 -2.0619  0.1705  1.5971
 4096SOL     OW13186   0.365   6.239   4.640  0.2717 -0.5051 -0.4503
 4096SOL    HW113187   0.399   6.154   4.600 -2.5986 -1.8167 -0.3084
 4096SOL    HW213188   0.266   6.237   4.643  0.0992  2.9228 -0.4576
 4097SOL     OW13189   5.484   0.897   6.437 -0.2911 -0.1188 -0.2080
 4097SOL    HW113190   5.547   0.888   6.360 -0.2657  1.1117 -0.3569
 4097SOL    HW213191   5.391   0.911   6.403 -0.5674 -1.3385  0.0089
 4098SOL     OW13192   2.904   5.644   0.247 -0.4583  0.4438  0.0741
 4098SOL    HW113193   2.931   5.610   0.337  1.0284  1.0694 -0.0969
 4098SOL    HW213194   2.823   5.702   0.256 -2.8631 -2.6994  0.4150
 4099SOL     OW13195   3.559   3.213   1.133 -0.4908 -0.1947 -0.3081
 4099SOL    HW113196   3.520   3.133   1.088  2.0063 -1.2814 -0.7194
 4099SOL    HW213197   3.659   3.205   1.135 -0.2941  1.5747  2.1752
 4100SOL     OW13198   4.572   5.156   0.623  0.3572 -0.2849 -0.4256
 4100SOL    HW113199   4.478   5.172   0.591  0.1808  1.2262  0.7599
 4100SOL    HW213200   4.570   5.113   0.713  0.7043  2.4446  0.9645
 4101SOL     OW13201   3.002   4.009   5.491 -0.1759 -0.1408  0.0575
 4101SOL    HW113202   3.042   4.062   5.416 -0.6718  1.2198  0.7300
 4101SOL    HW213203   2.990   4.068   5.571 -0.8911 -1.2439  0.7887
 4102SOL     OW13204   5.118   3.672   1.541 -0.1039 -0.6367  0.5305
 4102SOL    HW113205   5.146   3.606   1.611  0.7877 -0.5960  0.2227
 4102SOL    HW213206   5.074   3.623   1.466  1.3771 -1.0132 -0.1222
 4103SOL     OW13207   3.243   5.399   5.321 -0.2179 -0.5770  0.2449
 4103SOL    HW113208   3.306   5.466   5.359  0.4018 -0.0897 -1.5886
 4103SOL    HW213209   3.275   5.307   5.344 -0.4725 -0.2970  1.8232
 4104SOL     OW13210   0.167   5.791   1.537  0.1097  0.0045  0.6259
 4104SOL    HW113211   0.211   5.701   1.527 -0.5316 -0.1754 -0.7486
 4104SOL    HW213212   0.211   5.856   1.475 -1.2110 -0.0602 -0.4255
 4105SOL     OW13213   6.843   1.600   0.616  0.3589 -0.8787 -0.5212
 4105SOL    HW113214   6.765   1.613   0.555  0.0995  1.3216  0.1836
 4105SOL    HW213215   6.901   1.526   0.582 -1.7131 -2.1877 -1.3631
 4106SOL     OW13216   1.052   2.518   1.529 -1.1635 -0.6523  0.1826
 4106SOL    HW113217   1.038   2.496   1.625 -1.3652  0.4908  0.4351
 4106SOL    HW213218   1.150   2.534   1.512 -1.0500 -1.4416  0.0536
 4107SOL     OW13219   4.157   0.303   2.055 -0.3280 -0.5837  0.2669
 4107SOL    HW113220   4.073   0.356   2.043  0.2497  0.8683  2.1611
 4107SOL    HW213221   4.215   0.313   1.974 -1.5567 -0.8395 -0.6640
 4108SOL     OW13222   1.130   5.531   3.008 -0.5430  0.2166 -0.2064
 4108SOL    HW113223   1.182   5.452   2.975 -1.3853  0.4077 -2.1694
 4108SOL    HW213224   1.045   5.539   2.955 -0.6399  2.2397  0.1771
 4109SOL     OW13225   6.343   0.071   4.787 -0.2434  0.5257 -0.0661
 4109SOL    HW113226   6.288  -0.013   4.789  2.3347 -1.3899  3.9741
 4109SOL    HW213227   6.429   0.054   4.739  0.5315  0.5593  1.2415
 4110SOL     OW13228   6.333   4.835   5.228 -0.3444 -0.8630 -0.1509
 4110SOL    HW113229   6.261   4.766   5.239 -0.9489 -0.4295 -1.2403
 4110SOL    HW213230   6.326   4.903   5.301 -0.8853 -0.9575 -0.1123
 4111SOL     OW13231   1.951   6.719   4.050 -0.1369  0.0148 -0.2428
 4111SOL    HW113232   1.998   6.746   3.965  0.7647  1.0355  0.5488
 4111SOL    HW213233   2.019   6.696   4.119 -0.8599 -0.4007  0.3317
 4112SOL     OW13234   6.544   5.972   4.313 -0.0815 -0.2362 -0.4271
 4112SOL    HW113235   6.483   6.021   4.376  1.9255  1.5419  0.2760
 4112SOL    HW213236   6.575   5.888   4.355  0.9545  0.7604  0.8795
 4113SOL     OW13237   0.277   6.247   2.548  0.3143  0.1368  0.7777
 4113SOL    HW113238   0.303   6.328   2.602 -0.4688  1.2434 -0.4369
 4113SOL    HW213239   0.339   6.237   2.471 -1.3045  1.4103 -0.7894
 4114SOL     OW13240   1.705   2.970   5.324  0.2419 -0.0272 -0.1776
 4114SOL    HW113241   1.784   2.938   5.271  0.4933  0.3289 -0.0263
 4114SOL    HW213242   1.731   2.976   5.421  0.2875  0.8936 -0.2409
 4115SOL     OW13243   4.706   2.623   5.279  0.2273 -0.2983  0.1076
 4115SOL    HW113244   4.779   2.683   5.313 -0.7049  1.2630 -0.5246
 4115SOL    HW213245   4.736   2.580   5.194  0.4759  0.2441 -0.0900
 4116SOL     OW13246   3.405   1.852   6.742  0.0401 -0.7510 -0.2236
 4116SOL    HW113247   3.369   1.942   6.716  0.6343 -1.0361 -2.2605
 4116SOL    HW213248   3.398   1.840   6.841  0.4967  1.7638  0.1858
 4117SOL     OW13249   5.120   4.020   2.401 -0.2966  0.1053  0.0209
 4117SOL    HW113250   5.076   3.966   2.472 -0.0909  1.2205  1.0210
 4117SOL    HW213251   5.153   4.106   2.440 -0.1168  0.7086 -1.4078
 4118SOL     OW13252   5.137   5.604   1.891  0.4371 -0.4007  0.5629
 4118SOL    HW113253   5.106   5.615   1.797  1.5732 -0.5632  0.1557
 4118SOL    HW213254   5.209   5.671   1.912  0.4269 -0.5786  1.2062
 4119SOL     OW13255   2.735   2.247   1.433 -0.5932 -0.3794  0.2813
 4119SOL    HW113256   2.810   2.254   1.498  0.0125 -1.1630 -0.3092
 4119SOL    HW213257   2.678   2.167   1.456  0.3801 -1.4589 -0.8692
 4120SOL     OW13258   3.424   2.156   5.537 -0.1008  0.8818  0.2309
 4120SOL    HW113259   3.524   2.148   5.535 -0.0566  1.1312  0.9268
 4120SOL    HW213260   3.396   2.232   5.478  0.0108 -0.0071 -0.9835
 4121SOL     OW13261   0.985   2.629   2.492  0.2793  0.4125 -0.2693
 4121SOL    HW113262   0.978   2.637   2.591 -1.0536 -2.1274 -0.0800
 4121SOL    HW213263   1.042   2.704   2.457  0.4234  1.6385  2.3169
 4122SOL     OW13264   3.691   0.727   4.766 -0.5277 -0.1665 -0.5523
 4122SOL    HW113265   3.757   0.721   4.840  0.7116  1.0538 -1.5043
 4122SOL    HW213266   3.599   0.734   4.804  0.1331  1.2253  0.9106
 4123SOL     OW13267   1.457   5.190   4.384  0.4121 -0.4789 -0.2132
 4123SOL    HW113268   1.472   5.137   4.301  2.1945 -0.9309  0.3506
 4123SOL    HW213269   1.373   5.243   4.375  0.1589 -1.1103 -1.9774
 4124SOL     OW13270   6.242   6.049   1.944  0.5095 -0.5963 -0.1321
 4124SOL    HW113271   6.204   6.141   1.935  1.6597 -0.0397  0.4978
 4124SOL    HW213272   6.289   6.024   1.859  3.2981  0.8929  0.8438
 4125SOL     OW13273   3.865   4.004   3.289 -0.2335 -0.3338  0.0171
 4125SOL    HW113274   3.929   3.947   3.341  0.9033 -0.0233 -0.9855
 4125SOL    HW213275   3.892   4.004   3.192 -1.7234 -0.1235 -0.4163
 4126SOL     OW13276   0.510   5.402   4.911  0.4557 -0.0779  0.1623
 4126SOL    HW113277   0.457   5.440   4.834  1.4365  4.2655  1.3322
 4126SOL    HW213278   0.555   5.318   4.882 -1.6790 -0.3448 -2.9557
 4127SOL     OW13279   6.436   3.717   3.357  0.3664 -0.1495 -0.3483
 4127SOL    HW113280   6.503   3.724   3.282 -1.3634  1.3700 -1.8451
 4127SOL    HW213281   6.349   3.757   3.328 -0.9774 -1.3049  1.8333
 4128SOL     OW13282   0.557   5.030   2.127 -0.3754 -0.3768 -0.2549
 4128SOL    HW113283   0.564   5.097   2.201 -1.8532 -0.3937 -0.0673
 4128SOL    HW213284   0.614   4.951   2.148 -0.5144 -0.2383  0.7005
 4129SOL     OW13285   0.775   1.626   4.139  0.3297  0.2644 -0.3976
 4129SOL    HW113286   0.752   1.550   4.200 -2.1592  1.4078  0.2371
 4129SOL    HW213287   0.791   1.708   4.192 -0.5270  0.9757 -1.1957
 4130SOL     OW13288   2.173   5.041   4.312 -0.2709 -0.0644 -0.3125
 4130SOL    HW113289   2.184   4.944   4.336 -2.1521 -0.5736 -1.3057
 4130SOL    HW213290   2.125   5.048   4.224 -0.9825  1.7770  0.1805
 4131SOL     OW13291   2.045   1.612   3.709  0.1151  0.2303 -0.0777
 4131SOL    HW113292   1.978   1.644   3.776 -0.1088 -0.1450 -0.1207
 4131SOL    HW213293   2.011   1.630   3.617  1.5890  3.2372 -0.1436
 4132SOL     OW13294   3.779   0.516   6.074 -0.7102  0.7945 -0.0056
 4132SOL    HW113295   3.867   0.563   6.070 -0.4113  0.2053 -0.6844
 4132SOL    HW213296   3.762   0.484   6.167  1.1586 -1.5759 -0.3867
 4133SOL     OW13297   0.156   6.145   5.040 -0.1331  0.7711  0.1999
 4133SOL    HW113298   0.101   6.132   4.958 -1.2164  0.6096  0.9357
 4133SOL    HW213299   0.232   6.208   5.020  1.0298 -1.0833 -1.5391
 4134SOL     OW13300   3.494   3.260   0.607  0.4111 -0.0643 -0.0012
 4134SOL    HW113301   3.548   3.289   0.686 -0.2557  1.2960 -0.0049
 4134SOL    HW213302   3.555   3.242   0.530  0.9988 -0.5092  0.5654
 4135SOL     OW13303   1.051   6.841   0.035 -0.3435 -0.5853 -0.5018
 4135SOL    HW113304   1.044   6.848  -0.065 -1.9378 -1.9830 -0.5399
 4135SOL    HW213305   1.082   6.748   0.059 -2.3517 -1.0797  0.3306
 4136SOL     OW13306   4.171   4.915   6.696  0.2219  0.1042  0.2954
 4136SOL    HW113307   4.204   4.847   6.631 -0.5027 -0.6073  0.6587
 4136SOL    HW213308   4.074   4.934   6.678  0.3500  0.8723  0.3503
 4137SOL     OW13309   2.009   6.460   6.682  0.0157  0.4046 -0.1638
 4137SOL    HW113310   1.922   6.446   6.729 -0.0387  1.1801 -0.0265
 4137SOL    HW213311   2.069   6.516   6.738  1.2695 -1.5089  0.5105
 4138SOL     OW13312   3.557   4.264   1.385  0.2880 -0.6533 -0.8705
 4138SOL    HW113313   3.598   4.216   1.463 -1.1012 -0.2834  0.1453
 4138SOL    HW213314   3.595   4.357   1.379  1.5401 -1.1968 -1.6227
 4139SOL     OW13315   0.498   5.292   0.076  0.9491  0.1999 -0.7608
 4139SOL    HW113316   0.435   5.216   0.059 -0.0519  0.2573  2.1497
 4139SOL    HW213317   0.449   5.367   0.121  3.1824 -0.2915  2.9608
 4140SOL     OW13318   3.088   5.225   2.043  0.2322  0.4226 -0.0216
 4140SOL    HW113319   3.112   5.221   2.141  1.7774 -0.7254 -0.4131
 4140SOL    HW213320   3.052   5.137   2.014  2.0615 -0.0631 -0.9942
 4141SOL     OW13321   3.303   2.881   5.132  0.1178  0.1077 -0.1154
 4141SOL    HW113322   3.305   2.941   5.212 -0.3356  2.1568 -1.5695
 4141SOL    HW213323   3.209   2.872   5.099  0.5470  1.1200 -1.7054
 4142SOL     OW13324   3.240   0.694   2.665 -0.7993 -0.1683  0.9817
 4142SOL    HW113325   3.253   0.792   2.648 -1.7425 -0.2295 -0.2280
 4142SOL    HW213326   3.152   0.680   2.711 -1.9920 -0.6024 -1.2602
 4143SOL     OW13327   7.005   2.166   4.489 -0.5311 -1.0153  0.2117
 4143SOL    HW113328   6.936   2.182   4.560 -1.1964  0.1636 -0.6698
 4143SOL    HW213329   7.077   2.235   4.497 -0.9296 -0.4905 -0.6375
 4144SOL     OW13330   1.217   5.789   6.283 -0.3900  0.2994  0.2443
 4144SOL    HW113331   1.166   5.853   6.341 -0.1774  0.6965 -0.0035
 4144SOL    HW213332   1.256   5.716   6.339 -1.8882 -0.4658  0.3557
 4145SOL     OW13333   1.359   3.927   2.997  0.3439 -0.4412 -0.4261
 4145SOL    HW113334   1.306   3.929   3.082 -0.4634  1.1340 -0.9151
 4145SOL    HW213335   1.399   3.836   2.984  0.1380 -0.8257  1.4112
 4146SOL     OW13336   1.093   6.681   3.070  0.3861  0.3856  0.5162
 4146SOL    HW113337   1.066   6.778   3.075  0.9944  0.6272 -0.4819
 4146SOL    HW213338   1.090   6.652   2.974 -4.1523 -1.8815  1.0729
 4147SOL     OW13339   6.063   5.915   1.089  0.5113 -0.2949  0.5803
 4147SOL    HW113340   6.085   5.952   0.999  0.3130 -1.0049  0.2308
 4147SOL    HW213341   6.025   5.987   1.147 -1.0261 -0.2163 -0.4835
 4148SOL     OW13342   1.052   2.349   5.223 -0.0214  0.3310 -0.1851
 4148SOL    HW113343   1.151   2.350   5.235  0.0709 -1.4611 -0.4223
 4148SOL    HW213344   1.030   2.290   5.145 -1.3051  0.2561  0.2253
 4149SOL     OW13345   3.977   0.769   3.664  0.2182  0.6907 -0.1604
 4149SOL    HW113346   3.914   0.715   3.608 -0.1335  1.2506 -0.3129
 4149SOL    HW213347   4.020   0.709   3.732  1.5643 -0.2740 -1.7713
 4150SOL     OW13348   1.979   0.488   1.663  0.3012  0.3100 -0.3314
 4150SOL    HW113349   2.013   0.533   1.745  1.5549  0.7459 -1.0556
 4150SOL    HW213350   2.034   0.406   1.644 -1.6370 -1.3102  0.6896
 4151SOL     OW13351   3.875   6.775   3.396 -0.1239  0.6759 -0.2080
 4151SOL    HW113352   3.836   6.722   3.472  0.6364  0.8500  0.3238
 4151SOL    HW213353   3.968   6.804   3.421  0.9335 -0.9366 -1.9791
 4152SOL     OW13354   5.491   1.356   1.223  0.0332 -0.6930 -0.0440
 4152SOL    HW113355   5.511   1.261   1.197  0.3122 -0.7444  0.3535
 4152SOL    HW213356   5.546   1.381   1.302 -1.7001 -0.9535  1.3162
 4153SOL     OW13357   3.289   5.275   1.883 -0.3823  0.2230  0.3390
 4153SOL    HW113358   3.228   5.278   1.961 -0.2056 -0.9750  0.5344
 4153SOL    HW213359   3.377   5.236   1.911 -1.0424 -2.3594 -0.8943
 4154SOL     OW13360   5.897   3.301   5.718  0.2420 -0.5077 -0.0859
 4154SOL    HW113361   5.919   3.398   5.715  0.0020 -0.2982  2.3846
 4154SOL    HW213362   5.982   3.248   5.730  0.4106 -0.6823 -1.7740
 4155SOL     OW13363   2.526   0.956   2.048  0.4830 -0.2815 -0.2781
 4155SOL    HW113364   2.433   0.958   2.011  0.7703  0.4775 -1.0015
 4155SOL    HW213365   2.551   1.048   2.080  0.8226 -0.5801  0.3373
 4156SOL     OW13366   4.259   5.167   0.060 -0.0968  0.0037  0.0398
 4156SOL    HW113367   4.306   5.218  -0.012  3.3320 -1.3153  1.1410
 4156SOL    HW213368   4.262   5.219   0.145 -3.1130  1.0463 -0.3832
 4157SOL     OW13369   1.315   1.920   2.416 -0.0364 -0.2640 -0.2416
 4157SOL    HW113370   1.359   2.001   2.377  2.1122 -0.2098  2.0483
 4157SOL    HW213371   1.258   1.947   2.494 -0.6412 -0.8295 -0.4736
 4158SOL     OW13372   3.254   1.586   2.835 -0.4984 -0.0031  0.4035
 4158SOL    HW113373   3.182   1.611   2.899 -0.5626  1.0861 -0.0666
 4158SOL    HW213374   3.270   1.487   2.839  0.1592  0.1505  2.7547
 4159SOL     OW13375   0.903   6.198   1.780 -0.3159 -0.0933  0.2273
 4159SOL    HW113376   0.857   6.267   1.724 -0.0204 -0.2382 -0.1945
 4159SOL    HW213377   1.001   6.200   1.762 -0.4833 -1.8385 -1.1375
 4160SOL     OW13378   6.864   6.447   4.753 -0.0255 -0.5432 -0.3622
 4160SOL    HW113379   6.781   6.499   4.772 -0.3129 -0.9511 -0.4860
 4160SOL    HW213380   6.893   6.399   4.836 -0.0536 -0.5944 -0.3814
 4161SOL     OW13381   6.243   1.099   5.819  0.2636  0.3325  0.0655
 4161SOL    HW113382   6.258   1.147   5.733 -1.7069  1.0647  0.0729
 4161SOL    HW213383   6.211   1.164   5.888 -1.6283 -0.7936  0.3228
 4162SOL     OW13384   5.072   2.644   2.786 -0.2636 -0.3618 -0.0651
 4162SOL    HW113385   5.037   2.628   2.694  0.3502  0.9651 -0.5613
 4162SOL    HW213386   5.164   2.684   2.780 -0.3490  0.0535  1.1128
 4163SOL     OW13387   1.507   5.046   2.308 -0.0528  0.4166 -0.5049
 4163SOL    HW113388   1.435   4.996   2.259 -1.6863  0.4666  1.6886
 4163SOL    HW213389   1.563   4.982   2.360 -1.3176  0.6923  1.2597
 4164SOL     OW13390   2.522   0.551   2.759 -0.4405  0.9854 -0.0542
 4164SOL    HW113391   2.573   0.543   2.845 -0.8105 -0.8421  0.0506
 4164SOL    HW213392   2.585   0.540   2.682 -0.6866 -2.6066  0.0810
 4165SOL     OW13393   6.441   2.837   3.888  0.1532 -0.0761 -0.6443
 4165SOL    HW113394   6.375   2.828   3.963  1.4785 -0.8205  0.4976
 4165SOL    HW213395   6.528   2.798   3.917  1.1223  0.9418 -2.0778
 4166SOL     OW13396   4.409   3.868   6.692  0.2794 -0.7274  0.0653
 4166SOL    HW113397   4.457   3.814   6.762  1.3029  0.6813  0.4911
 4166SOL    HW213398   4.446   3.846   6.602  1.6986  0.2506  0.3744
 4167SOL     OW13399   0.446   1.672   4.765  0.5408  0.1853 -0.5178
 4167SOL    HW113400   0.411   1.601   4.827  0.4717 -0.2270 -1.0242
 4167SOL    HW213401   0.370   1.729   4.735  0.6129  0.5465 -0.0215
 4168SOL     OW13402   3.008   0.672   2.360 -0.4035 -0.5467  0.5211
 4168SOL    HW113403   2.996   0.771   2.367  0.3008 -0.3466 -0.7583
 4168SOL    HW213404   2.959   0.638   2.279  1.9460 -0.7121 -0.9396
 4169SOL     OW13405   6.800   2.650   4.316  0.2331  0.1969  0.4282
 4169SOL    HW113406   6.895   2.671   4.294  0.0292  0.7995  0.1127
 4169SOL    HW213407   6.792   2.554   4.343  0.8446  0.0198 -0.0189
 4170SOL     OW13408   4.103   1.071   1.850 -0.8130 -0.3898 -0.7260
 4170SOL    HW113409   4.125   1.152   1.796 -0.2068 -0.3175 -0.3841
 4170SOL    HW213410   4.051   1.098   1.931  0.0625 -0.2223 -0.1966
 4171SOL     OW13411   5.515   6.090   5.311 -0.1350 -0.2935 -0.0384
 4171SOL    HW113412   5.511   5.994   5.338  0.6831 -0.5218 -0.6993
 4171SOL    HW213413   5.429   6.116   5.267 -1.2564 -0.0884  2.1058
 4172SOL     OW13414   1.461   4.346   1.356  0.0533 -0.0810  0.3745
 4172SOL    HW113415   1.399   4.370   1.281  0.2174  2.4500  0.9425
 4172SOL    HW213416   1.457   4.248   1.373 -0.4453 -0.6468 -2.5132
 4173SOL     OW13417   0.860   5.872   0.670 -0.1152 -0.0531 -0.2895
 4173SOL    HW113418   0.884   5.931   0.594 -0.0932 -0.4278 -0.5741
 4173SOL    HW213419   0.927   5.798   0.678  0.5032  0.5866  0.7646
 4174SOL     OW13420   2.884   6.818   6.263  0.3001  0.8371 -0.2382
 4174SOL    HW113421   2.909   6.913   6.285  0.5423  0.2158  2.5539
 4174SOL    HW213422   2.965   6.760   6.270 -0.1137  0.2159 -0.5697
 4175SOL     OW13423   1.218   5.302   0.601  0.4114  0.6413  0.1167
 4175SOL    HW113424   1.158   5.378   0.579 -0.9105 -0.4758 -0.2476
 4175SOL    HW213425   1.232   5.299   0.700  2.7802  2.9993 -0.0278
 4176SOL     OW13426   2.495   6.429   2.003  0.7663  0.0394 -0.0001
 4176SOL    HW113427   2.557   6.408   1.928  0.9064 -0.1841  0.1786
 4176SOL    HW213428   2.539   6.408   2.090  0.7045  0.5438  0.1594
 4177SOL     OW13429   5.535   1.439   1.792  0.0923 -0.0093  0.5792
 4177SOL    HW113430   5.572   1.347   1.779  1.3730  0.7079 -1.4787
 4177SOL    HW213431   5.588   1.488   1.862  2.2844  0.5200 -1.3259
 4178SOL     OW13432   5.859   3.079   1.000 -0.1704 -0.0169  0.4686
 4178SOL    HW113433   5.958   3.072   0.982 -0.1952  0.4603  0.1270
 4178SOL    HW213434   5.842   3.155   1.062 -0.1895 -1.0133  1.7314
 4179SOL     OW13435   2.603   1.023   5.458 -0.0536  0.1299  0.2241
 4179SOL    HW113436   2.640   1.043   5.549  3.0853  1.2813 -1.1426
 4179SOL    HW213437   2.610   1.105   5.402 -1.4855 -0.6919 -1.2071
 4180SOL     OW13438   5.862   0.964   4.167  0.4016 -0.2027  0.5134
 4180SOL    HW113439   5.818   0.938   4.253 -0.8059 -0.2605 -0.1055
 4180SOL    HW213440   5.853   0.889   4.101 -0.2039  0.4828 -0.2107
 4181SOL     OW13441   2.650   0.673   0.443  0.4674 -0.7812 -0.1658
 4181SOL    HW113442   2.700   0.678   0.357 -1.0710 -1.2954 -1.1304
 4181SOL    HW213443   2.665   0.583   0.485 -0.3944 -1.3151 -0.9569
 4182SOL     OW13444   6.016   4.069   6.981 -0.3010  0.8355 -0.1614
 4182SOL    HW113445   6.047   4.143   6.921  0.0738 -0.2246 -1.3093
 4182SOL    HW213446   5.920   4.050   6.964 -0.3825  0.9977  0.0952
 4183SOL     OW13447   1.175   0.931   2.468 -0.2251 -0.3577 -0.3955
 4183SOL    HW113448   1.193   0.967   2.560  2.7217 -0.1125 -0.9849
 4183SOL    HW213449   1.090   0.972   2.433 -0.3517  1.0829  1.4274
 4184SOL     OW13450   0.072   6.941   6.340 -0.1628 -0.6559 -0.5630
 4184SOL    HW113451  -0.018   6.986   6.339  0.6656  1.0693 -1.4461
 4184SOL    HW213452   0.122   6.969   6.422  1.1571  1.8681 -2.0864
 4185SOL     OW13453   4.300   1.217   4.662 -0.4501 -0.4932  0.4880
 4185SOL    HW113454   4.279   1.284   4.734 -3.4305 -0.8077  0.0273
 4185SOL    HW213455   4.393   1.232   4.629 -0.3382  2.1437  1.7354
 4186SOL     OW13456   3.937   2.135   2.608  0.0421  0.3958  0.3443
 4186SOL    HW113457   3.949   2.234   2.619  0.7378  0.2506  0.9760
 4186SOL    HW213458   3.970   2.107   2.518  0.0315  0.7044  0.2432
 4187SOL     OW13459   2.527   1.615   2.928 -0.8158 -0.3646 -0.1028
 4187SOL    HW113460   2.505   1.573   3.016  0.9841  0.7612  0.9454
 4187SOL    HW213461   2.523   1.714   2.937  1.0224 -0.1948 -0.7889
 4188SOL     OW13462   6.605   2.813   2.292  0.7603 -0.4824 -0.5155
 4188SOL    HW113463   6.670   2.781   2.224  1.8048 -1.0226  0.6844
 4188SOL    HW213464   6.554   2.735   2.329  1.1289 -0.3815  0.2273
 4189SOL     OW13465   0.094   6.091   6.151  0.2243 -1.0838  0.5947
 4189SOL    HW113466   0.188   6.126   6.140  0.3421 -1.4470  0.4450
 4189SOL    HW213467   0.098   5.995   6.177 -0.1277 -1.3611 -0.3705
 4190SOL     OW13468   6.303   0.853   6.552 -0.0887  0.4400  0.5894
 4190SOL    HW113469   6.264   0.800   6.627 -1.5326  1.5961  0.6998
 4190SOL    HW213470   6.377   0.801   6.509 -0.2688 -0.8813  1.8153
 4191SOL     OW13471   5.590   3.250   3.941 -0.4520  0.3631 -0.0149
 4191SOL    HW113472   5.509   3.279   3.991 -0.8676 -0.2147 -0.3399
 4191SOL    HW213473   5.564   3.218   3.850  0.3687  2.1218 -0.9241
 4192SOL     OW13474   1.154   6.882   5.845  0.4040  0.1130 -0.3754
 4192SOL    HW113475   1.068   6.857   5.799 -0.7442 -0.4095  1.9381
 4192SOL    HW213476   1.207   6.942   5.784 -2.1640  1.5313 -1.4217
 4193SOL     OW13477   5.165   6.123   4.369  0.1408 -0.0838 -0.3333
 4193SOL    HW113478   5.253   6.087   4.338  0.5442 -1.5079  2.2125
 4193SOL    HW213479   5.167   6.136   4.468 -1.8866  1.7875 -0.4612
 4194SOL     OW13480   0.040   1.128   6.154 -0.4514 -0.2293 -0.1836
 4194SOL    HW113481   0.120   1.165   6.201 -0.4406 -0.9158  0.3525
 4194SOL    HW213482   0.064   1.104   6.060 -0.0439 -0.3823 -0.0403
 4195SOL     OW13483   3.412   0.872   6.590 -0.6487 -0.0962  0.0254
 4195SOL    HW113484   3.421   0.953   6.532  1.3834 -0.8666 -0.8170
 4195SOL    HW213485   3.496   0.857   6.641 -0.5179 -2.3133 -0.7276
 4196SOL     OW13486   0.849   4.703   4.018  0.2353 -0.0958  0.4326
 4196SOL    HW113487   0.840   4.609   3.984 -0.6478  0.3147 -0.5116
 4196SOL    HW213488   0.871   4.701   4.116 -1.1817 -1.2897  0.7697
 4197SOL     OW13489   4.348   1.718   7.014  0.1847 -0.2417 -0.2708
 4197SOL    HW113490   4.284   1.715   6.937  0.8092  0.9853 -0.8625
 4197SOL    HW213491   4.428   1.773   6.989  0.9863 -0.8776  0.8254
 4198SOL     OW13492   1.317   1.870   2.072 -0.0907  0.1076  0.6080
 4198SOL    HW113493   1.379   1.862   2.151 -0.0767  0.5520  0.6468
 4198SOL    HW213494   1.247   1.938   2.092 -0.5413 -0.3323  0.5280
 4199SOL     OW13495   3.316   4.156   2.765 -0.3715 -0.4083 -0.0134
 4199SOL    HW113496   3.374   4.143   2.845  0.3292  1.0862 -0.2458
 4199SOL    HW213497   3.227   4.191   2.794 -0.8860 -1.8787  0.2675
 4200SOL     OW13498   4.732   2.117   0.026  0.5759 -0.8872 -0.2554
 4200SOL    HW113499   4.777   2.051   0.087  1.0135 -1.0448 -0.7407
 4200SOL    HW213500   4.636   2.093   0.017  0.7349 -1.4745 -0.4395
 4201SOL     OW13501   3.289   4.759   6.670 -0.0591 -0.4557  0.0322
 4201SOL    HW113502   3.266   4.856   6.667  0.0041 -0.4273  0.4050
 4201SOL    HW213503   3.266   4.722   6.760  0.1031 -0.7388 -0.0403
 4202SOL     OW13504   3.459   6.058   0.143 -0.1728 -1.1687 -0.4784
 4202SOL    HW113505   3.382   6.119   0.123  1.3597  0.1944 -2.6870
 4202SOL    HW213506   3.505   6.091   0.226 -1.3281 -1.3991  0.2844
 4203SOL     OW13507   5.902   6.295   5.226 -0.1453 -0.2808  0.1220
 4203SOL    HW113508   5.913   6.382   5.274  1.3251 -1.4894  2.1640
 4203SOL    HW213509   5.823   6.300   5.165  0.1437  2.5851 -0.1448
 4204SOL     OW13510   0.540   0.633   0.147  0.0423  0.2493  0.4331
 4204SOL    HW113511   0.493   0.567   0.088  1.7343 -0.0632 -0.6408
 4204SOL    HW213512   0.530   0.606   0.242 -1.0917 -0.3303  0.1718
 4205SOL     OW13513   5.267   3.453   6.310 -0.1732 -0.0612 -0.1923
 4205SOL    HW113514   5.257   3.469   6.211 -1.4631 -1.1891 -0.2779
 4205SOL    HW213515   5.359   3.422   6.330 -0.3568 -1.4296 -1.3039
 4206SOL     OW13516   3.789   4.189   0.231  0.8652 -0.1731 -0.0390
 4206SOL    HW113517   3.875   4.149   0.264 -0.0770 -0.9276  1.6246
 4206SOL    HW213518   3.722   4.190   0.305  0.1132  2.4906 -0.6627
 4207SOL     OW13519   6.828   0.125   0.832  0.2765  0.0011 -0.2319
 4207SOL    HW113520   6.860   0.219   0.826 -0.7428  0.4966  1.3310
 4207SOL    HW213521   6.737   0.123   0.875  0.5518 -1.7258  0.3768
 4208SOL     OW13522   4.129   6.671   2.388  0.4392  0.5204  0.0035
 4208SOL    HW113523   4.170   6.757   2.359 -0.6928  1.3591  0.8250
 4208SOL    HW213524   4.201   6.602   2.401  1.3592  1.3540 -0.5768
 4209SOL     OW13525   1.911   2.564   1.346 -0.4173 -0.2389  0.0634
 4209SOL    HW113526   1.944   2.620   1.271  0.1661 -0.7183 -0.0407
 4209SOL    HW213527   1.825   2.602   1.380  0.6792  1.5581  0.9466
 4210SOL     OW13528   3.143   3.039   3.873  0.3912  0.0760  0.1411
 4210SOL    HW113529   3.087   3.059   3.793  0.7020 -0.3445 -0.1851
 4210SOL    HW213530   3.104   3.084   3.953  0.2617  0.7679 -0.3064
 4211SOL     OW13531   5.260   0.399   5.224  0.0395 -0.0859  0.1992
 4211SOL    HW113532   5.302   0.486   5.247  0.2016  0.1273 -0.8349
 4211SOL    HW213533   5.331   0.335   5.194 -0.3004  0.1536 -1.1878
 4212SOL     OW13534   5.535   4.641   6.730  0.3578 -0.0896  0.6791
 4212SOL    HW113535   5.573   4.672   6.644  1.3032 -0.2629  1.0272
 4212SOL    HW213536   5.581   4.557   6.759  1.3297  0.9519  2.2616
 4213SOL     OW13537   1.782   3.034   1.638 -1.0498  0.7910 -0.4550
 4213SOL    HW113538   1.813   3.017   1.544 -0.8812  1.3678 -0.5039
 4213SOL    HW213539   1.815   3.123   1.669  0.1692 -0.0277  0.6903
 4214SOL     OW13540   1.279   3.900   1.270 -0.0864  0.3722  0.8112
 4214SOL    HW113541   1.309   3.866   1.358 -1.1065  1.4891  1.6273
 4214SOL    HW213542   1.185   3.869   1.253 -0.4866  1.4968  0.8920
 4215SOL     OW13543   6.851   3.882   1.219  0.1697 -0.2626  0.2175
 4215SOL    HW113544   6.890   3.790   1.206 -1.1390 -0.6435 -1.4317
 4215SOL    HW213545   6.789   3.881   1.298 -0.0486 -0.8932  0.0493
 4216SOL     OW13546   0.513   6.251   6.539  0.3199 -0.4051 -0.1585
 4216SOL    HW113547   0.426   6.208   6.563 -0.6337  1.9768  1.0157
 4216SOL    HW213548   0.559   6.284   6.622  2.7099 -2.1219 -0.6825
 4217SOL     OW13549   5.672   5.438   0.414 -0.3407 -0.1219 -0.3134
 4217SOL    HW113550   5.763   5.437   0.455 -0.7701 -2.7545  0.8229
 4217SOL    HW213551   5.607   5.479   0.478 -0.3069 -0.3328 -0.1407
 4218SOL     OW13552   5.623   3.086   5.431 -0.4449  0.1145  0.7354
 4218SOL    HW113553   5.659   2.995   5.451 -0.0986 -0.0160 -0.3832
 4218SOL    HW213554   5.540   3.077   5.376  1.1953  0.4301 -2.0037
 4219SOL     OW13555   1.567   2.804   0.575  0.5495  0.3503 -0.1738
 4219SOL    HW113556   1.628   2.844   0.643  1.3003 -1.1551  0.0932
 4219SOL    HW213557   1.483   2.773   0.620 -0.3641  2.2007 -0.5013
 4220SOL     OW13558   3.367   6.564   2.927 -0.4894  0.0553 -0.2738
 4220SOL    HW113559   3.450   6.509   2.924 -0.4379 -0.0882  1.9545
 4220SOL    HW213560   3.375   6.641   2.864  1.7985  0.6315  0.6205
 4221SOL     OW13561   6.180   2.562   4.539  0.1523  0.1854  0.2668
 4221SOL    HW113562   6.093   2.524   4.569 -0.8952  0.9702 -1.6128
 4221SOL    HW213563   6.237   2.489   4.501 -0.6170 -0.0118 -0.5466
 4222SOL     OW13564   6.676   5.582   6.237  0.3819  0.6033 -0.0108
 4222SOL    HW113565   6.724   5.667   6.215  1.2169  0.3482  0.7602
 4222SOL    HW213566   6.724   5.504   6.195  0.3950  0.3935  0.3811
 4223SOL     OW13567   3.184   2.356   6.384 -0.4120 -0.1471 -0.5682
 4223SOL    HW113568   3.219   2.326   6.296  1.5934  1.1906 -0.2985
 4223SOL    HW213569   3.259   2.396   6.438 -1.3819 -1.5889  2.0603
 4224SOL     OW13570   0.655   2.858   3.767 -0.1579  0.4842 -0.2384
 4224SOL    HW113571   0.608   2.804   3.697  0.5431 -0.8565  0.2781
 4224SOL    HW213572   0.595   2.869   3.847  0.5414 -1.8119  0.7002
 4225SOL     OW13573   3.997   1.287   3.071  0.1851 -0.4969 -0.1376
 4225SOL    HW113574   3.962   1.261   2.981  1.2837  2.2249 -1.4611
 4225SOL    HW213575   4.097   1.291   3.068  0.1705  1.6408  0.5201
 4226SOL     OW13576   3.671   5.253   4.599  0.3818  0.0715 -0.7389
 4226SOL    HW113577   3.742   5.253   4.529 -0.3043  0.6906 -1.4501
 4226SOL    HW213578   3.613   5.334   4.589 -0.6070 -0.5642 -0.3563
 4227SOL     OW13579   4.866   3.350   3.963 -0.7155  0.2258 -0.7869
 4227SOL    HW113580   4.774   3.349   4.002  0.1146  2.3732  1.4499
 4227SOL    HW213581   4.889   3.443   3.934  1.1322 -0.0348 -0.2942
 4228SOL     OW13582   4.485   0.092   4.385 -0.1944 -0.0500 -0.5267
 4228SOL    HW113583   4.510   0.159   4.455 -2.1102 -0.0794  0.2437
 4228SOL    HW213584   4.415   0.030   4.421  1.0712 -2.1126 -1.4316
 4229SOL     OW13585   3.760   3.222   1.471 -0.4574  0.1375 -0.6834
 4229SOL    HW113586   3.807   3.134   1.482  0.3557  0.5000 -1.1655
 4229SOL    HW213587   3.662   3.206   1.456 -0.4569 -0.6410  0.0407
 4230SOL     OW13588   4.594   1.471   6.356 -0.1184  0.1218 -0.8264
 4230SOL    HW113589   4.635   1.488   6.445 -0.7008  1.4385 -0.7902
 4230SOL    HW213590   4.667   1.453   6.289  0.3932  0.2488 -0.3097
 4231SOL     OW13591   5.239   6.911   1.660 -0.3861 -0.0144 -0.3057
 4231SOL    HW113592   5.245   6.818   1.696  1.0231  0.5049  0.9141
 4231SOL    HW213593   5.223   6.907   1.561  1.8661 -1.6326 -0.7087
 4232SOL     OW13594   6.227   0.257   0.831  0.3221 -0.0354 -0.2795
 4232SOL    HW113595   6.185   0.294   0.913 -1.0313 -0.8765 -0.5650
 4232SOL    HW213596   6.231   0.157   0.838  4.1530  0.0206  0.6090
 4233SOL     OW13597   1.418   0.988   1.156  0.2150  0.2476  0.4672
 4233SOL    HW113598   1.422   1.088   1.147 -0.6983  0.1145 -2.7262
 4233SOL    HW213599   1.391   0.964   1.249  1.1332  2.9322  1.5176
 4234SOL     OW13600   6.613   3.284   1.554  0.1568  0.3647 -0.3462
 4234SOL    HW113601   6.606   3.190   1.589  1.9736  0.2772 -0.1472
 4234SOL    HW213602   6.704   3.320   1.574 -0.4288  2.0898 -0.6678
 4235SOL     OW13603   3.917   6.878   4.079 -0.0312  1.4356  0.5198
 4235SOL    HW113604   3.850   6.827   4.026  1.1990  1.7774 -1.4862
 4235SOL    HW213605   3.926   6.970   4.040  1.4583  1.4456  0.8254
 4236SOL     OW13606   5.537   3.218   3.687  0.3158  0.2210  0.4636
 4236SOL    HW113607   5.589   3.133   3.690  1.6210  1.0031  0.6074
 4236SOL    HW213608   5.510   3.238   3.592 -0.2953 -0.5145  0.4756
 4237SOL     OW13609   6.196   2.559   0.704  0.0177  0.2499  0.2925
 4237SOL    HW113610   6.173   2.514   0.618  3.1084 -2.2859  0.6291
 4237SOL    HW213611   6.264   2.631   0.687 -0.7438  1.0204  0.4399
 4238SOL     OW13612   6.737   2.383   0.321  0.3523 -0.1334  0.3669
 4238SOL    HW113613   6.705   2.297   0.361  1.2874 -1.2271 -1.1288
 4238SOL    HW213614   6.834   2.376   0.300  0.2197  0.9363 -0.6821
 4239SOL     OW13615   5.890   6.999   4.722 -0.2863  0.5315 -0.2465
 4239SOL    HW113616   5.884   7.089   4.678 -0.4562  0.2705 -0.7666
 4239SOL    HW213617   5.803   6.951   4.713  0.0276  0.0176 -0.6362
 4240SOL     OW13618   2.565   5.663   6.602  0.4697 -0.3016 -0.0758
 4240SOL    HW113619   2.548   5.616   6.515 -5.8392  0.0537  0.5035
 4240SOL    HW213620   2.548   5.600   6.678 -0.0233  0.8297  0.7912
 4241SOL     OW13621   3.589   6.508   2.378  0.4535  0.1725  0.1341
 4241SOL    HW113622   3.684   6.539   2.378  0.2929  0.7491 -1.2516
 4241SOL    HW213623   3.542   6.544   2.297 -1.2206  0.7447  1.2893
 4242SOL     OW13624   4.019   5.273   1.204 -0.6237  0.0591  0.2362
 4242SOL    HW113625   4.105   5.314   1.235  0.3664 -1.3410 -0.5676
 4242SOL    HW213626   3.942   5.318   1.251  0.5654  0.7939  1.5661
 4243SOL     OW13627   3.228   5.524   4.056 -0.5441  0.5818 -0.0996
 4243SOL    HW113628   3.276   5.474   4.129  0.1398  2.5343  0.8673
 4243SOL    HW213629   3.131   5.501   4.058 -0.1733 -1.1384 -0.1097
 4244SOL     OW13630   5.050   2.049   6.796 -0.4568  0.2750  0.2508
 4244SOL    HW113631   4.983   2.121   6.814  0.1052  1.0329 -0.6011
 4244SOL    HW213632   5.034   2.012   6.704 -0.2008 -0.0927  0.3526
 4245SOL     OW13633   2.702   5.820   1.375  0.4617  0.4085 -0.1321
 4245SOL    HW113634   2.715   5.915   1.348 -1.0422  0.7553  0.2359
 4245SOL    HW213635   2.733   5.807   1.469  0.5700  0.5527 -0.1482
 4246SOL     OW13636   1.256   4.254   6.174 -0.1791 -0.2141  0.3435
 4246SOL    HW113637   1.233   4.347   6.204  0.1134  0.0080 -0.1118
 4246SOL    HW213638   1.251   4.192   6.252  0.9469  0.4194  0.9417
 4247SOL     OW13639   4.755   0.179   6.073 -0.0484 -0.1408  0.2197
 4247SOL    HW113640   4.768   0.219   6.164 -0.0214  2.0990 -0.7184
 4247SOL    HW213641   4.659   0.187   6.046 -0.1187 -1.0823  0.1453
 4248SOL     OW13642   4.585   5.240   0.253  0.1381  0.0700 -0.4385
 4248SOL    HW113643   4.685   5.243   0.254  0.1473  0.1198 -1.1413
 4248SOL    HW213644   4.555   5.167   0.192 -0.2510 -1.3782  1.4045
 4249SOL     OW13645   1.705   2.933   4.133 -0.2858 -0.0725  0.1163
 4249SOL    HW113646   1.614   2.892   4.132 -0.4927  0.3839 -0.3105
 4249SOL    HW213647   1.700   3.026   4.095  0.5975 -0.5632 -1.2834
 4250SOL     OW13648   1.080   3.646   1.426  0.4976  0.2335 -0.2453
 4250SOL    HW113649   1.137   3.574   1.388 -1.5464 -2.0483  0.7538
 4250SOL    HW213650   1.137   3.714   1.472  2.3950 -1.6777  0.3552
 4251SOL     OW13651   5.922   1.847   0.026 -0.1522 -0.0778  0.6869
 4251SOL    HW113652   5.852   1.805   0.084 -0.9502 -0.7440 -0.7197
 4251SOL    HW213653   5.878   1.894  -0.050  0.8805  0.9194  0.6818
 4252SOL     OW13654   6.979   0.952   5.864 -0.4518  0.5452 -0.2058
 4252SOL    HW113655   6.954   0.973   5.769  0.0449  0.0927 -0.4439
 4252SOL    HW213656   6.984   0.853   5.876  0.0530  0.6084  0.1430
 4253SOL     OW13657   2.718   3.917   6.473  0.1700  0.3517 -0.2258
 4253SOL    HW113658   2.719   3.965   6.385  0.5251 -0.7045 -0.8129
 4253SOL    HW213659   2.641   3.949   6.527 -0.9130 -0.0052 -1.5055
 4254SOL     OW13660   2.737   5.432   4.276 -0.0610  0.7089 -0.0072
 4254SOL    HW113661   2.728   5.517   4.328 -1.9856  2.0298 -2.2669
 4254SOL    HW213662   2.652   5.413   4.228  1.2424 -0.9458 -1.8545
 4255SOL     OW13663   3.190   0.223   1.650 -0.0616 -0.1024  0.3819
 4255SOL    HW113664   3.183   0.171   1.735  0.6078 -0.5839  0.1517
 4255SOL    HW213665   3.129   0.184   1.582 -1.8213  1.2557  1.0919
 4256SOL     OW13666   5.928   4.785   1.109  0.2778 -0.1346  0.1527
 4256SOL    HW113667   5.847   4.845   1.117  1.3977  1.3410  0.9905
 4256SOL    HW213668   5.910   4.715   1.041 -1.0488  1.2666 -1.0326
 4257SOL     OW13669   6.142   5.232   1.728  0.1840  0.0221 -0.0863
 4257SOL    HW113670   6.108   5.220   1.635  0.6555  1.6707 -0.4956
 4257SOL    HW213671   6.184   5.322   1.737  0.7439 -0.3717  1.5469
 4258SOL     OW13672   2.354   0.187   6.655  0.5174 -0.0180 -0.4569
 4258SOL    HW113673   2.389   0.192   6.749 -1.7338  1.4583  0.3783
 4258SOL    HW213674   2.341   0.279   6.619  1.4376 -0.5632 -2.3063
 4259SOL     OW13675   1.034   0.036   0.766  0.1192 -0.5751  0.1672
 4259SOL    HW113676   1.129   0.027   0.735  0.0031  1.4188 -0.9655
 4259SOL    HW213677   0.973   0.034   0.687 -0.5182  0.8343  0.5850
 4260SOL     OW13678   3.493   4.706   6.460 -1.1692 -0.6108 -0.0853
 4260SOL    HW113679   3.414   4.672   6.511 -1.5215  0.3464  0.0260
 4260SOL    HW213680   3.462   4.755   6.379 -0.6881 -0.1907 -0.0193
 4261SOL     OW13681   4.335   1.223   3.634  0.0869 -0.1757 -0.5078
 4261SOL    HW113682   4.417   1.255   3.587 -0.9504  0.6040 -1.8446
 4261SOL    HW213683   4.325   1.125   3.619 -0.3954  0.1098 -2.2314
 4262SOL     OW13684   1.479   5.737   2.710 -0.4728 -0.2646  0.3348
 4262SOL    HW113685   1.486   5.720   2.809 -2.1362  2.7692  1.1271
 4262SOL    HW213686   1.565   5.777   2.678 -0.6452  0.8372  1.1410
 4263SOL     OW13687   6.897   1.875   0.370  0.0958 -0.5704 -0.3225
 4263SOL    HW113688   6.957   1.945   0.331 -0.6553 -0.7207 -1.7811
 4263SOL    HW213689   6.843   1.916   0.444  1.0244 -0.1122  0.1254
 4264SOL     OW13690   3.636   5.579   3.329  0.0638 -0.3573 -0.1513
 4264SOL    HW113691   3.700   5.626   3.389  0.7435 -1.5418  0.0936
 4264SOL    HW213692   3.548   5.625   3.331  0.9931  1.5212 -0.7787
 4265SOL     OW13693   5.575   4.038   3.153 -0.0952  0.0645 -0.5504
 4265SOL    HW113694   5.531   4.084   3.076 -0.5808 -1.0825 -0.9867
 4265SOL    HW213695   5.537   3.946   3.163 -0.6256  0.4801  1.6047
 4266SOL     OW13696   1.906   5.936   5.807  0.6687 -0.2579 -0.1356
 4266SOL    HW113697   1.970   5.866   5.775  0.5582 -0.5718  0.3113
 4266SOL    HW213698   1.862   5.904   5.891 -2.4478 -1.4821 -2.0841
 4267SOL     OW13699   5.084   3.901   5.194  0.2937  0.3627  0.8425
 4267SOL    HW113700   5.174   3.942   5.178 -0.3269  1.6231  0.4995
 4267SOL    HW213701   5.017   3.972   5.213 -0.8745 -0.4714 -0.0152
 4268SOL     OW13702   3.618   1.134   0.643  0.1450 -0.3155 -0.1698
 4268SOL    HW113703   3.709   1.101   0.618  0.6393  0.1960  0.9075
 4268SOL    HW213704   3.622   1.232   0.662 -0.1328 -0.6924  2.0816
 4269SOL     OW13705   1.800   2.232   3.130 -0.6081  0.1776  0.4035
 4269SOL    HW113706   1.701   2.217   3.140 -0.3402 -0.5424  2.5064
 4269SOL    HW213707   1.840   2.156   3.080 -1.1325  0.6130 -0.7164
 4270SOL     OW13708   1.099   3.581   5.704  0.9491 -0.0200 -0.2757
 4270SOL    HW113709   1.117   3.557   5.609  0.4673 -1.4290 -0.0267
 4270SOL    HW213710   1.070   3.500   5.755  0.7307  0.8014  0.9683
 4271SOL     OW13711   6.916   5.023   3.245  0.9360  0.2980  0.2275
 4271SOL    HW113712   6.951   5.112   3.274  1.4082  0.3429 -0.4496
 4271SOL    HW213713   6.975   4.985   3.173  0.0017  0.0582 -0.4434
 4272SOL     OW13714   4.158   3.961   0.661 -0.0835  0.4254  0.2647
 4272SOL    HW113715   4.183   4.047   0.704  0.2396  1.0585 -1.1210
 4272SOL    HW213716   4.153   3.974   0.562 -1.0496 -0.9031  0.1156
 4273SOL     OW13717   0.985   1.682   1.650 -0.4469 -0.0363  0.1995
 4273SOL    HW113718   1.035   1.681   1.563 -0.4167 -0.6908  0.2208
 4273SOL    HW213719   1.045   1.653   1.724 -1.0047 -1.4465  0.1289
 4274SOL     OW13720   1.294   3.142   3.501  0.2206 -0.0848 -0.2404
 4274SOL    HW113721   1.367   3.082   3.535  0.0678 -0.1426 -0.0158
 4274SOL    HW213722   1.205   3.100   3.519 -0.0264  1.2491  2.0481
 4275SOL     OW13723   6.992   6.296   0.761 -0.1931 -0.2463  0.0868
 4275SOL    HW113724   6.998   6.347   0.846 -1.7123  0.3359 -0.1194
 4275SOL    HW213725   6.910   6.324   0.711  0.5284 -0.7537 -1.4528
 4276SOL     OW13726   1.363   0.368   1.771 -0.0400  0.4949 -0.4898
 4276SOL    HW113727   1.447   0.372   1.717  0.1342 -0.6024 -0.3099
 4276SOL    HW213728   1.341   0.273   1.792 -0.0857  0.8906  1.3933
 4277SOL     OW13729   0.358   4.430   4.589 -0.1261  0.0970  0.1998
 4277SOL    HW113730   0.341   4.470   4.679  1.1943  2.2543 -0.4234
 4277SOL    HW213731   0.289   4.463   4.525 -2.3075 -3.0256  0.7226
 4278SOL     OW13732   5.441   1.468   0.494  0.1623  0.2236 -0.5942
 4278SOL    HW113733   5.528   1.454   0.448  0.4709  0.6702 -0.1598
 4278SOL    HW213734   5.368   1.422   0.443  0.5682  0.3085 -1.2617
 4279SOL     OW13735   0.272   6.637   6.125  0.0432 -0.2825  0.3839
 4279SOL    HW113736   0.194   6.646   6.187 -1.0597 -2.0323 -0.6597
 4279SOL    HW213737   0.281   6.720   6.070 -0.4147  0.3491  1.2319
 4280SOL     OW13738   0.328   4.739   0.817 -0.8159  0.0668  0.4583
 4280SOL    HW113739   0.336   4.768   0.722  0.6717 -1.3141  0.1023
 4280SOL    HW213740   0.290   4.647   0.821  2.7237 -1.5830  0.7872
 4281SOL     OW13741   6.684   5.157   3.702  0.1462  0.9699 -0.6396
 4281SOL    HW113742   6.771   5.179   3.746  0.0308 -1.1370  0.7760
 4281SOL    HW213743   6.609   5.196   3.756  0.0905  0.0569 -0.0444
 4282SOL     OW13744   6.745   2.825   1.118 -0.2312  0.8449  0.5494
 4282SOL    HW113745   6.726   2.731   1.148 -1.3667  0.7810 -0.3116
 4282SOL    HW213746   6.814   2.824   1.047 -0.3966  0.6343  0.3897
 4283SOL     OW13747   3.462   5.010   2.692  0.1593  0.5587  0.1274
 4283SOL    HW113748   3.452   4.945   2.617 -0.8246 -1.0155  1.5459
 4283SOL    HW213749   3.528   4.974   2.758  0.1777  1.3750  0.5658
 4284SOL     OW13750   3.141   3.405   3.621 -0.2998  0.5355  0.0321
 4284SOL    HW113751   3.104   3.488   3.578  2.0321  1.2640 -0.7219
 4284SOL    HW213752   3.222   3.429   3.674  0.7212 -1.3383 -0.6274
 4285SOL     OW13753   5.702   1.432   0.415  0.4369  0.2949  0.3024
 4285SOL    HW113754   5.767   1.485   0.469 -0.5338 -0.0621  1.8770
 4285SOL    HW213755   5.685   1.344   0.459 -0.9255  0.2795 -0.1918
 4286SOL     OW13756   4.119   5.086   1.547 -0.2044 -0.3254 -0.3216
 4286SOL    HW113757   4.034   5.081   1.599 -0.5504  0.1956 -0.8205
 4286SOL    HW213758   4.098   5.092   1.449  0.4087 -0.0973 -0.4449
 4287SOL     OW13759   3.777   5.143   5.384 -0.0153  0.5510 -0.2359
 4287SOL    HW113760   3.845   5.173   5.450  1.7382  2.3551 -2.6621
 4287SOL    HW213761   3.816   5.148   5.292 -1.7331 -3.4514 -1.3972
 4288SOL     OW13762   3.105   3.635   2.727 -0.6766  0.0721 -0.8687
 4288SOL    HW113763   3.145   3.576   2.798  1.6443  1.4659 -0.8988
 4288SOL    HW213764   3.054   3.579   2.662 -1.7630 -1.4034  1.1494
 4289SOL     OW13765   0.474   2.724   1.974  0.1994 -0.0936 -0.1180
 4289SOL    HW113766   0.376   2.729   1.989  0.1687  1.4144 -0.6183
 4289SOL    HW213767   0.495   2.645   1.917 -0.6236 -0.8912  0.6708
 4290SOL     OW13768   5.692   0.339   3.392 -0.6565  0.6311 -0.1867
 4290SOL    HW113769   5.757   0.265   3.372 -0.3333  0.9100 -0.1785
 4290SOL    HW213770   5.734   0.427   3.369 -0.6830  0.8835  0.6926
 4291SOL     OW13771   2.683   1.464   1.251  0.2560 -0.1601  0.5296
 4291SOL    HW113772   2.616   1.389   1.251  0.9290 -0.7804 -0.4110
 4291SOL    HW213773   2.767   1.434   1.295  0.4241  0.1511  0.4227
 4292SOL     OW13774   5.502   0.115   6.717  0.7721 -0.0022  0.3628
 4292SOL    HW113775   5.470   0.177   6.645  0.4499  0.2774  0.7466
 4292SOL    HW213776   5.454   0.135   6.802  0.9417 -0.5283  0.5854
 4293SOL     OW13777   0.527   3.034   3.224  0.6409 -0.3557 -0.0361
 4293SOL    HW113778   0.580   3.119   3.223 -1.6043  1.1463  0.5721
 4293SOL    HW213779   0.511   3.004   3.130 -0.0132  0.9091 -0.3567
 4294SOL     OW13780   0.630   1.609   6.447 -0.5374 -0.7142  0.4865
 4294SOL    HW113781   0.535   1.606   6.478 -0.7628  0.7358  0.0132
 4294SOL    HW213782   0.644   1.690   6.390  1.1021 -0.6529  0.9215
 4295SOL     OW13783   4.389   5.074   1.402  0.5912 -0.0402  0.4437
 4295SOL    HW113784   4.354   5.139   1.470 -0.1672  0.3631 -0.3194
 4295SOL    HW213785   4.430   4.996   1.450 -0.9835 -0.3406  1.3840
 4296SOL     OW13786   4.266   2.193   2.379 -0.1967  0.1066 -0.2955
 4296SOL    HW113787   4.185   2.140   2.353  0.7190 -0.8116 -1.3652
 4296SOL    HW213788   4.341   2.173   2.316 -0.2969  4.0478 -1.9393
 4297SOL     OW13789   6.183   2.826   0.113  0.2954 -0.0378  0.1335
 4297SOL    HW113790   6.181   2.811   0.212 -1.5720  0.5094  0.2291
 4297SOL    HW213791   6.148   2.918   0.093 -2.1350 -1.1357 -1.1381
 4298SOL     OW13792   1.126   6.112   6.849  0.3838  0.1155 -0.0225
 4298SOL    HW113793   1.138   6.178   6.923 -0.1056  0.9725 -0.6763
 4298SOL    HW213794   1.061   6.041   6.877 -0.6678  1.0563 -0.0093
 4299SOL     OW13795   1.769   2.099   6.073 -0.1458 -0.3392  0.1440
 4299SOL    HW113796   1.772   2.094   5.973 -0.2595 -2.1024  0.1958
 4299SOL    HW213797   1.768   2.007   6.110 -0.8193  0.3012  1.7723
 4300SOL     OW13798   0.937   2.869   0.803 -0.0945 -0.0605 -0.6570
 4300SOL    HW113799   1.006   2.830   0.743  1.0998 -0.2665  0.8125
 4300SOL    HW213800   0.870   2.799   0.828  0.0552 -0.2602 -0.8184
 4301SOL     OW13801   3.252   3.706   6.151  0.0019 -0.0735  0.0370
 4301SOL    HW113802   3.213   3.741   6.066  0.1674  0.3315  0.1228
 4301SOL    HW213803   3.341   3.749   6.167  0.8464 -1.5401 -0.5412
 4302SOL     OW13804   6.506   1.144   0.639  0.1424  0.0773 -0.1886
 4302SOL    HW113805   6.578   1.090   0.682 -1.3356 -1.8031  0.0443
 4302SOL    HW213806   6.502   1.234   0.683  2.5738  0.3889 -0.5002
 4303SOL     OW13807   5.565   6.670   1.753  0.2046  0.1864  0.4279
 4303SOL    HW113808   5.641   6.719   1.795  0.0127 -0.3885  1.4825
 4303SOL    HW213809   5.588   6.573   1.744  0.9599  0.5339 -2.5221
 4304SOL     OW13810   5.506   1.814   0.822 -0.2025 -0.0530  0.1278
 4304SOL    HW113811   5.458   1.748   0.765 -2.6205  1.1680  0.5973
 4304SOL    HW213812   5.597   1.780   0.844 -0.9837 -2.7503 -0.4415
 4305SOL     OW13813   6.594   0.152   6.848  0.1525  0.2329  0.4151
 4305SOL    HW113814   6.550   0.068   6.878  0.5870 -0.2553 -0.2653
 4305SOL    HW213815   6.652   0.132   6.768  2.1810  0.6795  1.6956
 4306SOL     OW13816   0.545   1.923   0.373 -0.5305 -0.0111  0.0858
 4306SOL    HW113817   0.557   1.824   0.379  1.0801  0.2302  2.0280
 4306SOL    HW213818   0.459   1.943   0.327 -1.3757 -2.3192  0.4983
 4307SOL     OW13819   2.764   6.494   1.849  0.0192 -0.9582  0.2687
 4307SOL    HW113820   2.797   6.399   1.845  0.6277 -0.7238 -0.8856
 4307SOL    HW213821   2.741   6.524   1.756 -0.6653 -0.1406  0.6994
 4308SOL     OW13822   4.757   2.779   5.965  0.2066 -0.4097 -0.0256
 4308SOL    HW113823   4.782   2.796   6.060 -1.2834 -1.3695  0.5796
 4308SOL    HW213824   4.697   2.699   5.960 -1.2939  0.7336 -1.5513
 4309SOL     OW13825   0.510   1.608   3.819  0.3010  0.2248 -0.1180
 4309SOL    HW113826   0.459   1.572   3.741 -0.1324  1.5252 -0.4630
 4309SOL    HW213827   0.559   1.691   3.792 -0.7698  1.3732  1.2230
 4310SOL     OW13828   3.725   6.016   2.512 -0.1437 -0.1524 -0.0084
 4310SOL    HW113829   3.739   5.918   2.495 -2.8447 -0.8519  1.2984
 4310SOL    HW213830   3.740   6.036   2.608  2.3740  1.2052 -0.5965
 4311SOL     OW13831   0.809   6.646   0.404 -0.0952 -0.5531 -0.4545
 4311SOL    HW113832   0.789   6.673   0.498  0.6899  0.9763 -0.6940
 4311SOL    HW213833   0.825   6.547   0.400 -2.4059 -1.0199  0.5877
 4312SOL     OW13834   1.299   2.281   0.091 -0.7503  0.4813  0.9069
 4312SOL    HW113835   1.333   2.212   0.154  0.2170  0.4342  0.3452
 4312SOL    HW213836   1.209   2.313   0.122 -0.1398  0.7205  2.4943
 4313SOL     OW13837   1.602   4.937   1.690  0.1367  0.3696  0.1188
 4313SOL    HW113838   1.650   4.907   1.773 -0.6546 -0.6832  0.2167
 4313SOL    HW213839   1.541   5.012   1.714 -1.9837 -1.5348  1.1049
 4314SOL     OW13840   6.905   2.664   0.485  0.2612 -0.3703  0.1169
 4314SOL    HW113841   6.820   2.646   0.435  0.0472  1.2431 -0.1461
 4314SOL    HW213842   6.884   2.676   0.582 -0.0061  1.1050 -0.0954
 4315SOL     OW13843   5.809   0.295   4.569  0.4520 -0.3155  0.3920
 4315SOL    HW113844   5.776   0.317   4.660  0.3852 -1.9288  0.7909
 4315SOL    HW213845   5.870   0.367   4.536 -0.8884  1.1234  0.9801
 4316SOL     OW13846   5.935   4.527   6.341 -0.2481 -0.6284  0.0400
 4316SOL    HW113847   6.029   4.553   6.322 -0.1026 -1.6704 -0.8262
 4316SOL    HW213848   5.927   4.427   6.339 -1.2578 -0.5773  0.6855
 4317SOL     OW13849   1.312   5.628   6.093  0.7091  0.2287 -0.2787
 4317SOL    HW113850   1.299   5.654   5.997 -1.0443 -0.1083 -0.1690
 4317SOL    HW213851   1.256   5.688   6.151 -0.3797 -1.2722  0.2899
 4318SOL     OW13852   0.505   3.158   4.810  0.3685  0.7493  0.1213
 4318SOL    HW113853   0.500   3.081   4.747 -0.8372  1.4109 -0.6316
 4318SOL    HW213854   0.493   3.125   4.904  1.3887 -0.1496 -0.0489
 4319SOL     OW13855   6.352   5.250   6.431 -0.1998 -0.0464  0.9517
 4319SOL    HW113856   6.348   5.166   6.377  0.2855 -0.0599  0.9319
 4319SOL    HW213857   6.264   5.297   6.426  0.3151  0.8040 -1.2418
 4320SOL     OW13858   5.666   5.967   6.334  0.4196  0.3552  0.3183
 4320SOL    HW113859   5.701   6.059   6.315  0.8065 -0.2653 -2.2450
 4320SOL    HW213860   5.616   5.933   6.255  0.3348 -1.6860  1.1879
 4321SOL     OW13861   4.580   1.800   6.887 -0.3287 -0.3579 -0.0652
 4321SOL    HW113862   4.680   1.795   6.886 -0.1409  1.1922  2.5848
 4321SOL    HW213863   4.551   1.895   6.871 -1.2452 -0.4043  1.1545
 4322SOL     OW13864   2.949   5.469   4.075  0.0830  0.5110 -0.3531
 4322SOL    HW113865   2.901   5.460   4.162  0.6072 -0.2812 -0.1420
 4322SOL    HW213866   2.936   5.386   4.021  2.6078 -0.4638  0.4148
 4323SOL     OW13867   1.441   1.988   6.653 -0.3540  0.4102 -0.2347
 4323SOL    HW113868   1.501   2.018   6.579  0.5776  0.4504  0.5150
 4323SOL    HW213869   1.417   1.891   6.640  1.1481 -0.0537  0.2600
 4324SOL     OW13870   6.706   2.637   1.486  0.4173 -0.5442  0.2055
 4324SOL    HW113871   6.750   2.722   1.455  0.1787 -0.6804 -0.5237
 4324SOL    HW213872   6.629   2.660   1.546 -0.8248 -0.1440 -1.4754
 4325SOL     OW13873   2.005   2.520   6.171 -0.0550 -0.0308  0.9257
 4325SOL    HW113874   2.093   2.475   6.189 -0.0561 -0.6725 -0.5458
 4325SOL    HW213875   2.006   2.611   6.212  1.1990 -0.1243  1.1569
 4326SOL     OW13876   6.158   3.765   5.498  0.2256  0.1281 -0.2371
 4326SOL    HW113877   6.080   3.756   5.560  0.4974  0.3051  0.1294
 4326SOL    HW213878   6.226   3.694   5.519 -0.1156 -0.4330 -0.9744
 4327SOL     OW13879   3.505   1.059   6.058  0.3377  0.0195 -0.5214
 4327SOL    HW113880   3.578   1.001   6.092 -0.9173 -1.1479  0.2553
 4327SOL    HW213881   3.417   1.024   6.089 -0.5555  1.4961 -1.2804
 4328SOL     OW13882   1.428   0.782   5.082 -0.4317  0.2267  0.0324
 4328SOL    HW113883   1.334   0.794   5.117  0.0805  2.1334  0.8942
 4328SOL    HW213884   1.443   0.844   5.005  0.2491  0.2562  0.1841
 4329SOL     OW13885   4.317   1.143   0.550  0.7851 -0.3470  0.5822
 4329SOL    HW113886   4.367   1.218   0.506  0.3191 -0.1983  0.2985
 4329SOL    HW213887   4.310   1.161   0.648 -0.7255  0.8107  0.2947
 4330SOL     OW13888   2.391   1.168   4.842  0.9248  0.0198 -0.2569
 4330SOL    HW113889   2.410   1.249   4.787  1.5521  0.0903  0.0600
 4330SOL    HW213890   2.351   1.196   4.929 -0.5638 -0.1175 -0.8595
 4331SOL     OW13891   6.599   0.414   3.139  0.3014 -0.0397 -0.2073
 4331SOL    HW113892   6.614   0.500   3.186 -0.2795  1.0950 -1.9737
 4331SOL    HW213893   6.685   0.363   3.134  0.3239 -0.3437  2.2131
 4332SOL     OW13894   2.825   6.460   3.022 -0.1020 -0.2528  0.0526
 4332SOL    HW113895   2.741   6.440   3.072 -0.1899 -0.9576 -0.3532
 4332SOL    HW213896   2.823   6.553   2.987 -0.8037 -0.3322 -0.1253
 4333SOL     OW13897   6.947   0.818   6.996  0.1957 -0.3348 -0.4670
 4333SOL    HW113898   6.989   0.904   7.026 -1.7077 -0.0412  1.5931
 4333SOL    HW213899   6.900   0.775   7.073 -1.5845 -1.6076 -2.1667
 4334SOL     OW13900   3.641   3.876   0.834  0.1980 -0.0991  0.0765
 4334SOL    HW113901   3.724   3.917   0.797  0.8176 -1.8072 -0.5454
 4334SOL    HW213902   3.563   3.901   0.777  0.9639 -1.7651 -1.8066
 4335SOL     OW13903   1.307   4.668   1.520 -0.2113 -0.1386  0.4875
 4335SOL    HW113904   1.296   4.750   1.576  0.2868  0.1546  0.1632
 4335SOL    HW213905   1.315   4.694   1.424 -3.6988 -0.7760 -0.1173
 4336SOL     OW13906   0.306   3.560   5.052 -0.2421 -0.7697 -0.1622
 4336SOL    HW113907   0.404   3.548   5.066 -0.2757 -1.4899 -0.4462
 4336SOL    HW213908   0.273   3.488   4.991 -0.6838  0.3206 -1.2439
 4337SOL     OW13909   2.740   0.663   6.681  0.2209 -0.0594  0.4326
 4337SOL    HW113910   2.724   0.735   6.614  1.4168 -1.1235 -1.0790
 4337SOL    HW213911   2.743   0.703   6.773 -0.7878  1.5365 -0.1910
 4338SOL     OW13912   0.946   4.251   1.125 -0.5112  0.2405  0.5856
 4338SOL    HW113913   0.993   4.235   1.039 -0.7980  0.2734  0.4232
 4338SOL    HW213914   0.903   4.166   1.156 -0.5431  0.2686  0.6185
 4339SOL     OW13915   5.550   6.225   2.910 -0.2606  0.7074 -0.1445
 4339SOL    HW113916   5.542   6.314   2.955  0.0809  1.5653 -1.7297
 4339SOL    HW213917   5.473   6.212   2.847 -0.4177 -0.2242  0.2225
 4340SOL     OW13918   3.672   0.671   1.329  0.0052  0.1201  0.1215
 4340SOL    HW113919   3.755   0.725   1.342 -0.9550  1.2274  2.1731
 4340SOL    HW213920   3.664   0.605   1.404 -0.9902  0.0635 -0.0249
 4341SOL     OW13921   6.880   5.659   0.386 -0.4770 -0.1330  0.5995
 4341SOL    HW113922   6.913   5.565   0.397 -1.3818 -0.4402  0.7596
 4341SOL    HW213923   6.781   5.661   0.396 -0.1968  1.4144  4.7914
 4342SOL     OW13924   5.949   1.479   2.568 -0.2072 -0.4139 -0.4573
 4342SOL    HW113925   5.999   1.394   2.582  0.9120  0.4615  1.0660
 4342SOL    HW213926   5.852   1.464   2.588  0.0348 -1.2431  0.1501
 4343SOL     OW13927   4.137   5.052   5.845 -0.2362  0.1328 -0.2009
 4343SOL    HW113928   4.043   5.042   5.814 -0.4743 -0.2316  0.6291
 4343SOL    HW213929   4.138   5.086   5.939  0.4794  1.5033 -0.6787
 4344SOL     OW13930   6.886   0.401   3.360 -0.1868  0.0994  0.3146
 4344SOL    HW113931   6.865   0.484   3.413 -1.0717  0.0280  0.0976
 4344SOL    HW213932   6.803   0.346   3.351  0.1493 -0.2971 -0.4458
 4345SOL     OW13933   3.935   3.432   2.719  0.1560 -0.6424  0.0026
 4345SOL    HW113934   3.966   3.340   2.696  0.7350 -0.6654  0.8401
 4345SOL    HW213935   3.845   3.448   2.678  0.2677 -1.3925 -0.5660
 4346SOL     OW13936   2.071   3.995   3.793  0.0404  0.4726  0.3114
 4346SOL    HW113937   2.136   4.041   3.853  2.2896  0.2732 -1.8240
 4346SOL    HW213938   2.013   3.934   3.847  2.4027 -0.2307  2.2374
 4347SOL     OW13939   1.971   6.127   4.516  0.0722  0.8269  0.2792
 4347SOL    HW113940   1.987   6.028   4.522  0.9787  1.0397  2.2094
 4347SOL    HW213941   1.972   6.156   4.421 -0.1739 -1.0095 -0.3130
 4348SOL     OW13942   5.869   5.459   1.246  0.3447  0.0178  0.0056
 4348SOL    HW113943   5.894   5.549   1.209  1.2339  0.3026  1.2412
 4348SOL    HW213944   5.802   5.416   1.186 -0.0147  1.4607 -0.6713
 4349SOL     OW13945   1.836   3.471   5.975 -0.4470  0.5970  0.0029
 4349SOL    HW113946   1.800   3.540   5.912 -1.7927  0.6432  0.7760
 4349SOL    HW213947   1.760   3.423   6.018  0.4727 -0.9542 -0.0492
 4350SOL     OW13948   1.273   6.956   0.135  0.2854  0.1525 -0.2068
 4350SOL    HW113949   1.188   6.931   0.090  0.7125  2.6957 -2.7584
 4350SOL    HW213950   1.254   7.023   0.207 -0.0624 -1.3392  1.1437
 4351SOL     OW13951   5.717   3.127   6.952  0.1492  1.0601  0.0761
 4351SOL    HW113952   5.757   3.216   6.972 -0.0361  1.0915  0.3122
 4351SOL    HW213953   5.789   3.059   6.944  0.2574  1.1394  0.3777
 4352SOL     OW13954   4.867   2.769   1.270 -0.2293  0.2103 -0.0031
 4352SOL    HW113955   4.926   2.795   1.347 -0.8117 -1.7104  1.1657
 4352SOL    HW213956   4.889   2.675   1.242 -1.2073  0.2820 -1.0575
 4353SOL     OW13957   4.740   3.046   1.588  0.4975 -0.0028 -0.2140
 4353SOL    HW113958   4.717   3.079   1.679 -1.9583 -0.4652 -0.6026
 4353SOL    HW213959   4.668   3.072   1.524  1.4591 -0.9364 -1.7422
 4354SOL     OW13960   7.000   1.362   0.544  0.4057  0.2023  0.0245
 4354SOL    HW113961   7.100   1.358   0.546  0.5237  2.3263  1.0817
 4354SOL    HW213962   6.966   1.310   0.465  2.1958 -2.1200  0.6751
 4355SOL     OW13963   5.596   2.987   2.064  0.2661  0.0589 -0.6433
 4355SOL    HW113964   5.525   2.917   2.061  0.9069 -0.5776 -1.5081
 4355SOL    HW213965   5.600   3.034   1.976  0.6444  0.3669 -0.4668
 4356SOL     OW13966   0.238   6.253   0.453 -0.2506  0.5398  0.0600
 4356SOL    HW113967   0.167   6.182   0.452 -0.7661  1.0449 -0.5173
 4356SOL    HW213968   0.280   6.257   0.544  0.5276 -1.2123 -0.1809
 4357SOL     OW13969   5.606   1.701   6.292 -0.1913  0.0907  0.2465
 4357SOL    HW113970   5.629   1.693   6.389  0.6372  0.0642  0.0574
 4357SOL    HW213971   5.679   1.661   6.237  0.0920  1.4739 -0.4378
 4358SOL     OW13972   0.622   6.386   4.331  0.4390 -0.1770 -0.0334
 4358SOL    HW113973   0.555   6.386   4.405 -1.5136 -2.1082 -1.6700
 4358SOL    HW213974   0.673   6.472   4.332  1.5380 -0.6624  4.3488
 4359SOL     OW13975   6.129   4.291   0.523  0.4013  0.0963  0.1931
 4359SOL    HW113976   6.159   4.326   0.612 -0.7557 -0.3771  0.7784
 4359SOL    HW213977   6.036   4.321   0.504  0.6879  0.3357 -0.9534
 4360SOL     OW13978   5.307   0.478   5.793  0.1115 -0.1246 -0.3786
 4360SOL    HW113979   5.258   0.483   5.705 -0.4912 -3.7215 -0.4007
 4360SOL    HW213980   5.290   0.390   5.835  2.0219  0.7384  2.4715
 4361SOL     OW13981   4.486   4.479   0.408 -0.2291 -0.4027  0.3230
 4361SOL    HW113982   4.560   4.507   0.346 -0.6270  0.2846  0.1539
 4361SOL    HW213983   4.458   4.386   0.386  0.3638 -0.5485  0.1733
 4362SOL     OW13984   2.131   5.785   5.735  0.4766  0.2096  0.3462
 4362SOL    HW113985   2.131   5.829   5.644  2.2398  1.2322  0.7785
 4362SOL    HW213986   2.218   5.806   5.781 -0.0776 -0.9301  1.9752
 4363SOL     OW13987   1.484   4.253   0.070 -0.4378 -0.1304 -0.1481
 4363SOL    HW113988   1.490   4.162   0.030  1.3035 -0.4175  0.7063
 4363SOL    HW213989   1.388   4.273   0.092 -0.9904 -1.2620 -1.4196
 4364SOL     OW13990   3.598   5.333   3.865  0.2155 -0.2654 -0.2604
 4364SOL    HW113991   3.557   5.423   3.852 -0.0949  0.1468  2.8752
 4364SOL    HW213992   3.690   5.332   3.823 -0.8511  0.4624 -2.8323
 4365SOL     OW13993   5.193   3.832   0.028 -0.1823 -0.2506  0.2566
 4365SOL    HW113994   5.110   3.787   0.063  0.0483 -0.5660  0.4066
 4365SOL    HW213995   5.258   3.762  -0.002 -1.0649 -0.0074 -2.4875
 4366SOL     OW13996   4.972   1.913   2.136 -0.1017 -0.0067  0.0373
 4366SOL    HW113997   5.021   1.920   2.048 -1.6095  1.6815 -0.7293
 4366SOL    HW213998   5.013   1.977   2.201 -0.6185  0.6648 -0.2851
 4367SOL     OW13999   2.791   2.647   1.638 -0.5568 -0.1485 -0.4903
 4367SOL    HW114000   2.838   2.613   1.719  0.9575  2.2909 -0.2457
 4367SOL    HW214001   2.804   2.583   1.563  0.4009 -1.1099  0.4566
 4368SOL     OW14002   5.101   4.580   2.502  0.0043 -0.6700 -0.6889
 4368SOL    HW114003   5.086   4.675   2.530 -1.6348 -1.2086  0.3891
 4368SOL    HW214004   5.143   4.579   2.411  1.7450  1.0870  0.0193
 4369SOL     OW14005   0.047   4.836   2.815  0.3379  0.1430  0.1192
 4369SOL    HW114006   0.089   4.876   2.896  1.5985  0.9580 -0.9020
 4369SOL    HW214007   0.060   4.736   2.816  0.6761  0.1886  0.7253
 4370SOL     OW14008   5.104   5.003   1.582 -0.3158 -0.8327  0.3186
 4370SOL    HW114009   5.038   4.944   1.628  0.6484 -0.8257  1.7600
 4370SOL    HW214010   5.197   4.977   1.609  0.1969  0.2696 -0.3163
 4371SOL     OW14011   1.642   1.521   4.572  0.0144  0.2731 -0.4233
 4371SOL    HW114012   1.658   1.427   4.603  0.2877  0.4368 -0.0580
 4371SOL    HW214013   1.639   1.582   4.651 -2.7755  0.2343 -0.4109
 4372SOL     OW14014   6.522   3.673   1.370  0.3792 -0.2503  0.0916
 4372SOL    HW114015   6.427   3.685   1.399  0.1479  1.1340 -1.1300
 4372SOL    HW214016   6.579   3.742   1.415  0.3881  0.4489 -0.9485
 4373SOL     OW14017   6.725   4.416   6.914 -0.3469 -0.2294 -0.0150
 4373SOL    HW114018   6.799   4.362   6.872 -0.3129 -0.1734 -0.0267
 4373SOL    HW214019   6.698   4.489   6.852  0.1506  0.2580  0.3304
 4374SOL     OW14020   1.867   6.311   2.265  0.1902 -0.5914  0.0973
 4374SOL    HW114021   1.957   6.293   2.226  1.4867  0.6918  2.3065
 4374SOL    HW214022   1.830   6.227   2.304  0.4224 -1.1353 -0.8386
 4375SOL     OW14023   5.794   1.973   2.884 -0.5035 -0.3013 -0.0300
 4375SOL    HW114024   5.862   1.930   2.943 -1.2607 -1.2601  0.1715
 4375SOL    HW214025   5.836   1.997   2.797  0.3819  0.2291  0.5263
 4376SOL     OW14026   5.157   2.286   2.081  0.0188 -0.2124 -0.1474
 4376SOL    HW114027   5.218   2.211   2.109  0.6613  0.7380  1.1145
 4376SOL    HW214028   5.171   2.306   1.984  2.0914  0.2979  0.2115
 4377SOL     OW14029   0.139   1.781   3.884 -0.1493  0.1813 -0.2266
 4377SOL    HW114030   0.071   1.712   3.862  1.2893 -0.6811 -2.3080
 4377SOL    HW214031   0.194   1.751   3.962 -0.5700 -0.2853 -0.1092
 4378SOL     OW14032   3.031   0.699   4.555 -0.3665  0.0293  0.1407
 4378SOL    HW114033   3.076   0.622   4.599 -1.5262  0.1103  1.5382
 4378SOL    HW214034   3.083   0.783   4.573 -1.5078  0.2925  2.6136
 4379SOL     OW14035   3.924   6.498   6.935 -0.3450  0.3337 -0.2315
 4379SOL    HW114036   4.009   6.549   6.942 -0.1020 -0.2626  1.9365
 4379SOL    HW214037   3.926   6.440   6.854  2.2550 -1.2618  0.8447
 4380SOL     OW14038   7.017   3.742   6.444 -0.0880 -0.0498  0.3486
 4380SOL    HW114039   7.070   3.703   6.519  0.6329  0.1913 -0.0281
 4380SOL    HW214040   7.057   3.714   6.357 -0.8305 -0.2067  0.0496
 4381SOL     OW14041   1.357   6.851   4.494  0.6424  0.4225  0.1362
 4381SOL    HW114042   1.343   6.933   4.438  0.2101 -0.7074 -1.4829
 4381SOL    HW214043   1.454   6.829   4.495  1.1319  2.2406  2.5667
 4382SOL     OW14044   1.711   5.380   5.253  0.0149  0.5976 -0.0613
 4382SOL    HW114045   1.653   5.449   5.297 -0.1995  1.2034 -1.2338
 4382SOL    HW214046   1.725   5.304   5.315 -2.0398  0.4331  0.2958
 4383SOL     OW14047   6.313   0.654   3.204  0.2363  0.0579  0.3481
 4383SOL    HW114048   6.340   0.750   3.196  1.6209 -0.3254  0.2501
 4383SOL    HW214049   6.213   0.648   3.209  0.1851  1.6259  2.1432
 4384SOL     OW14050   5.738   0.376   0.433  0.5523  0.7356  0.3660
 4384SOL    HW114051   5.780   0.357   0.522  2.2779  1.2902 -0.2903
 4384SOL    HW214052   5.809   0.377   0.362 -0.6183  1.4781 -0.8395
 4385SOL     OW14053   3.204   3.474   2.933 -0.4316 -0.1015  0.0505
 4385SOL    HW114054   3.140   3.458   3.008 -1.7726 -0.0048 -1.0118
 4385SOL    HW214055   3.283   3.414   2.942 -0.4287  0.1211  1.6733
 4386SOL     OW14056   5.492   0.412   6.348  0.2023  0.3888  0.0537
 4386SOL    HW114057   5.463   0.407   6.253 -0.9677 -1.1770  0.4504
 4386SOL    HW214058   5.584   0.452   6.353  0.4991  0.0168 -1.7678
 4387SOL     OW14059   1.121   2.770   0.606  0.1635 -0.2901 -0.3020
 4387SOL    HW114060   1.218   2.752   0.623  0.3198  0.1596 -0.6965
 4387SOL    HW214061   1.069   2.686   0.619  0.3250 -0.1147  1.9250
 4388SOL     OW14062   1.388   0.486   5.914  0.5745  0.2287  0.6564
 4388SOL    HW114063   1.298   0.527   5.899 -0.0830 -0.8822  1.4053
 4388SOL    HW214064   1.410   0.488   6.011  1.0517 -0.1455  0.5601
 4389SOL     OW14065   5.549   5.336   1.447  0.4486  0.0116 -0.1784
 4389SOL    HW114066   5.556   5.289   1.359 -0.6204  0.1942 -0.3746
 4389SOL    HW214067   5.590   5.427   1.440 -1.9837  1.1113 -1.3173
 4390SOL     OW14068   5.494   1.122   5.474  0.3042 -0.2411  0.1125
 4390SOL    HW114069   5.427   1.050   5.495 -0.3746  0.2511 -0.3259
 4390SOL    HW214070   5.498   1.187   5.549  0.4436 -0.3772  0.2247
 4391SOL     OW14071   4.519   6.862   5.255  0.2811  0.4597  0.0152
 4391SOL    HW114072   4.617   6.883   5.261  0.4624 -0.5397  0.9088
 4391SOL    HW214073   4.508   6.763   5.242 -0.5988  0.6668 -0.9056
 4392SOL     OW14074   0.526   6.461   1.442 -0.1273  0.3413  0.4893
 4392SOL    HW114075   0.484   6.370   1.447 -1.1588  0.7912  0.2485
 4392SOL    HW214076   0.515   6.497   1.350 -0.6658  1.1515  0.8683
 4393SOL     OW14077   0.327   4.249   3.990 -0.6406  0.1400  0.2354
 4393SOL    HW114078   0.351   4.155   3.966  1.8943  1.1593 -1.7741
 4393SOL    HW214079   0.231   4.266   3.969 -1.4277 -2.2186  1.5993
 4394SOL     OW14080   5.618   4.344   3.743  0.4657  0.5534 -0.6803
 4394SOL    HW114081   5.525   4.307   3.743  0.1926  1.2253 -0.4396
 4394SOL    HW214082   5.676   4.288   3.684  0.1808 -0.5406  0.0344
 4395SOL     OW14083   6.178   4.866   1.406  0.4807  0.2057  0.8257
 4395SOL    HW114084   6.101   4.804   1.425 -1.0709  2.4816  2.3917
 4395SOL    HW214085   6.191   4.873   1.307 -1.9805  0.4964  0.4678
 4396SOL     OW14086   1.494   3.034   1.633  0.6048 -0.1933  0.8977
 4396SOL    HW114087   1.592   3.043   1.615  0.6586  0.6265  1.5170
 4396SOL    HW214088   1.458   3.123   1.661 -0.6606 -0.1069 -0.8930
 4397SOL     OW14089   2.826   4.953   4.565 -0.7983  0.1768 -0.2087
 4397SOL    HW114090   2.781   5.038   4.534  0.2729  0.6099 -0.6422
 4397SOL    HW214091   2.910   4.976   4.613 -1.9820 -0.5336  2.3540
 4398SOL     OW14092   0.305   1.265   0.220  0.4176  0.1891  0.2525
 4398SOL    HW114093   0.260   1.337   0.167  0.6875  0.2974  0.1656
 4398SOL    HW214094   0.404   1.282   0.221  0.2865  1.1058  2.1333
 4399SOL     OW14095   0.656   3.310   6.884  0.0418  0.3851  0.1146
 4399SOL    HW114096   0.673   3.221   6.842  0.0416 -0.2558  1.4319
 4399SOL    HW214097   0.601   3.298   6.967  0.1390  1.5964  0.3703
 4400SOL     OW14098   3.522   2.910   3.501  0.0123 -0.9684  0.4488
 4400SOL    HW114099   3.617   2.898   3.530  0.2143 -1.5873 -0.4299
 4400SOL    HW214100   3.461   2.889   3.577  0.5902  0.3909  1.3249
 4401SOL     OW14101   1.556   4.477   0.433 -0.1767 -0.1768  0.1731
 4401SOL    HW114102   1.644   4.465   0.386  0.7411  2.4995  1.0368
 4401SOL    HW214103   1.572   4.484   0.531 -1.3911  0.1644  0.3574
 4402SOL     OW14104   6.756   2.537   0.786 -0.2855  0.0138 -0.9448
 4402SOL    HW114105   6.856   2.540   0.792 -0.1694 -0.9658 -2.0772
 4402SOL    HW214106   6.719   2.629   0.801  0.6694  0.1284  1.0016
 4403SOL     OW14107   1.978   4.556   2.531  0.0680  0.3430  0.1786
 4403SOL    HW114108   2.009   4.486   2.595 -0.5440  0.3226  0.4588
 4403SOL    HW214109   1.883   4.538   2.505  0.7986 -0.6276 -2.0556
 4404SOL     OW14110   6.531   5.151   4.651  0.0999 -0.8445  0.1852
 4404SOL    HW114111   6.465   5.119   4.719  0.2154 -0.2896  0.5564
 4404SOL    HW214112   6.623   5.142   4.687  0.0886  0.7428  0.6502
 4405SOL     OW14113   6.738   4.516   2.934 -0.5896 -0.7420 -0.1056
 4405SOL    HW114114   6.671   4.583   2.965 -0.1469 -0.0412 -0.6304
 4405SOL    HW214115   6.770   4.541   2.843  4.5447  2.2685  2.0864
 4406SOL     OW14116   4.166   1.719   0.885 -0.0187  0.3663 -0.3993
 4406SOL    HW114117   4.086   1.738   0.828 -1.6398 -0.3835  1.4934
 4406SOL    HW214118   4.193   1.801   0.934 -1.4105  0.0170  1.0292
 4407SOL     OW14119   5.826   3.420   2.112  0.1990  0.1177  0.3602
 4407SOL    HW114120   5.911   3.387   2.155 -0.0889  0.6634  1.3865
 4407SOL    HW214121   5.822   3.520   2.119 -1.4919 -0.0150  2.2568
 4408SOL     OW14122   3.848   5.447   4.235  0.8720  0.3474  0.7654
 4408SOL    HW114123   3.765   5.477   4.189  1.9452  0.6369 -1.0987
 4408SOL    HW214124   3.855   5.348   4.232  0.3031  0.2730  1.5133
 4409SOL     OW14125   4.681   3.332   0.652  0.1576  0.6851  0.2644
 4409SOL    HW114126   4.691   3.301   0.558  0.8134 -0.1875  0.6137
 4409SOL    HW214127   4.760   3.304   0.706  0.1115  1.7520  0.9335
 4410SOL     OW14128   0.502   2.737   3.555  0.2028 -0.3145 -0.2700
 4410SOL    HW114129   0.432   2.803   3.584  1.1663 -0.0538  1.7029
 4410SOL    HW214130   0.464   2.645   3.555 -0.7234  0.0504 -1.4651
 4411SOL     OW14131   3.294   4.058   3.334 -0.4522 -0.3924  0.1986
 4411SOL    HW114132   3.392   4.044   3.346 -0.1568  0.5758 -0.8971
 4411SOL    HW214133   3.262   4.128   3.397  0.4409  2.3191 -2.1476
 4412SOL     OW14134   0.862   3.685   2.459  0.2359  0.1712  0.2093
 4412SOL    HW114135   0.863   3.585   2.460 -1.2101  0.0734 -1.8041
 4412SOL    HW214136   0.939   3.720   2.512  0.6828 -1.9972  1.0699
 4413SOL     OW14137   4.680   1.212   2.949  0.1446  1.2800 -0.2030
 4413SOL    HW114138   4.654   1.299   2.991  0.5522  1.4027 -0.1926
 4413SOL    HW214139   4.753   1.228   2.883  2.5673  0.5900  2.1034
 4414SOL     OW14140   0.482   0.938   5.684 -0.0989 -0.0363  0.4416
 4414SOL    HW114141   0.506   0.844   5.710 -2.8280 -0.8731  0.2510
 4414SOL    HW214142   0.489   0.998   5.763 -0.9725 -0.9878  1.2591
 4415SOL     OW14143   0.705   2.110   4.489  0.3262 -0.2373 -0.6095
 4415SOL    HW114144   0.660   2.021   4.497 -0.1646 -0.0232 -0.9286
 4415SOL    HW214145   0.782   2.114   4.552 -0.6664 -0.2625  0.6381
 4416SOL     OW14146   1.867   4.933   2.957  0.2418  0.2593  0.2718
 4416SOL    HW114147   1.873   5.031   2.973  1.9007  0.3237 -0.5214
 4416SOL    HW214148   1.859   4.885   3.044 -0.2507  1.0687  0.6845
 4417SOL     OW14149   3.835   0.906   5.732  0.1216 -0.2563 -0.3932
 4417SOL    HW114150   3.742   0.901   5.695 -0.1855  2.0041 -0.0491
 4417SOL    HW214151   3.894   0.953   5.667 -0.3484  3.4758  1.6340
 4418SOL     OW14152   6.206   4.442   6.547  0.4393 -0.5234 -0.0162
 4418SOL    HW114153   6.116   4.484   6.551  0.4265 -0.3211 -1.8075
 4418SOL    HW214154   6.197   4.343   6.558 -0.3034 -0.7793 -2.4380
 4419SOL     OW14155   3.913   5.059   1.691  0.4852  0.1106 -0.0526
 4419SOL    HW114156   3.891   5.122   1.766  0.9558 -0.1355  0.3004
 4419SOL    HW214157   3.830   5.041   1.638  0.1954  0.4770  0.2637
 4420SOL     OW14158   0.979   5.890   4.910 -0.0593 -0.2135  1.0974
 4420SOL    HW114159   0.957   5.793   4.905  0.3840 -0.3288 -3.7097
 4420SOL    HW214160   1.074   5.901   4.939  1.0004 -1.6057 -1.5060
 4421SOL     OW14161   0.822   0.173   4.477 -0.1312  0.5096  0.2597
 4421SOL    HW114162   0.841   0.085   4.521  0.1421  0.1129 -0.6397
 4421SOL    HW214163   0.789   0.238   4.546 -3.6455 -1.2435  0.4687
 4422SOL     OW14164   0.471   4.094   5.228 -0.0896 -0.1946  0.2241
 4422SOL    HW114165   0.395   4.158   5.222 -1.3480 -1.2631  3.0147
 4422SOL    HW214166   0.552   4.140   5.265 -0.2314  0.2764 -0.0456
 4423SOL     OW14167   3.718   2.140   3.935 -0.7785  0.3003  0.2189
 4423SOL    HW114168   3.776   2.191   3.999 -0.5563  1.0720 -0.5751
 4423SOL    HW214169   3.713   2.045   3.963  0.8074  0.2315  0.3542
 4424SOL     OW14170   6.836   3.158   0.303  0.1079 -0.2041  0.2833
 4424SOL    HW114171   6.894   3.104   0.242  0.8208  1.9942 -1.1033
 4424SOL    HW214172   6.882   3.171   0.390  0.2393 -1.1820  0.3773
 4425SOL     OW14173   3.478   6.501   5.427 -1.0437 -0.2503  0.7498
 4425SOL    HW114174   3.491   6.563   5.350 -0.1927  0.8531  1.7456
 4425SOL    HW214175   3.530   6.417   5.412 -1.7478 -0.5213 -0.3418
 4426SOL     OW14176   2.028   4.010   4.467  0.2406 -0.0872  0.4691
 4426SOL    HW114177   1.975   3.935   4.427  0.0414 -0.2494  1.0320
 4426SOL    HW214178   2.079   3.977   4.546 -0.0214  0.4199  0.8553
 4427SOL     OW14179   1.909   1.610   6.170 -0.3434  0.2318  0.3070
 4427SOL    HW114180   1.846   1.561   6.230 -0.9564  0.7996  0.1313
 4427SOL    HW214181   1.934   1.551   6.093 -0.0460 -0.2708  0.7771
 4428SOL     OW14182   4.453   4.017   5.399 -0.2374  0.7278 -0.0034
 4428SOL    HW114183   4.475   3.953   5.473  0.3398  0.5480 -0.3262
 4428SOL    HW214184   4.494   4.106   5.418 -1.2933  1.1092  0.5962
 4429SOL     OW14185   0.008   1.377   5.217 -0.4084  0.6229 -0.0819
 4429SOL    HW114186  -0.061   1.312   5.248  1.3001  0.4907  3.9283
 4429SOL    HW214187  -0.038   1.454   5.171 -2.8845 -0.8001 -0.1978
 4430SOL     OW14188   0.053   0.619   5.601  0.3736  0.2790  0.5683
 4430SOL    HW114189   0.038   0.558   5.678  0.7982  0.4014  0.7535
 4430SOL    HW214190   0.050   0.567   5.516 -0.9429  0.2800  0.5918
 4431SOL     OW14191   6.192   1.021   5.254  0.8340  0.3987  0.5005
 4431SOL    HW114192   6.162   1.116   5.249 -0.4939 -0.0134  0.0713
 4431SOL    HW214193   6.118   0.961   5.223  2.5184 -0.6527 -1.7505
 4432SOL     OW14194   2.615   3.391   5.814 -0.7032  0.2456  0.3746
 4432SOL    HW114195   2.539   3.416   5.874 -0.5909  1.2492  0.1110
 4432SOL    HW214196   2.593   3.307   5.766 -2.4358  1.4600 -1.0844
 4433SOL     OW14197   2.690   3.353   0.741  0.1899  0.4154 -0.0489
 4433SOL    HW114198   2.632   3.411   0.797  0.6181  0.1985  0.6301
 4433SOL    HW214199   2.718   3.272   0.793  0.4220  0.0981 -0.6423
 4434SOL     OW14200   5.933   5.558   6.995 -0.0061 -0.1007 -0.0915
 4434SOL    HW114201   5.911   5.646   6.953 -0.6836 -0.4976 -0.5807
 4434SOL    HW214202   5.852   5.521   7.040  0.2233 -0.5623 -0.0505
 4435SOL     OW14203   1.891   2.033   5.479 -0.6453 -0.2054  0.2605
 4435SOL    HW114204   1.852   2.029   5.388 -2.5639 -1.7671  1.0663
 4435SOL    HW214205   1.906   2.128   5.506 -0.1883  0.2711 -1.5916
 4436SOL     OW14206   4.367   1.141   1.441 -0.4493 -0.0236 -0.1793
 4436SOL    HW114207   4.395   1.159   1.535 -2.7050  1.3854  0.2927
 4436SOL    HW214208   4.313   1.057   1.438  0.9168 -0.9235 -0.5280
 4437SOL     OW14209   4.543   0.933   4.654 -0.1792 -0.2114  0.3868
 4437SOL    HW114210   4.641   0.924   4.637 -0.2705  0.6076 -0.7084
 4437SOL    HW214211   4.520   1.029   4.669 -0.6999 -0.4934  1.4555
 4438SOL     OW14212   0.594   6.616   1.224  0.6269 -0.1812 -0.3692
 4438SOL    HW114213   0.651   6.680   1.275  0.6686  0.8848 -1.6729
 4438SOL    HW214214   0.652   6.552   1.174  0.5966 -0.8864  0.4777
 4439SOL     OW14215   5.038   3.375   4.744  0.3541 -0.0798 -0.3212
 4439SOL    HW114216   5.040   3.451   4.679  0.8453 -0.1000 -0.3323
 4439SOL    HW214217   5.011   3.409   4.834 -0.2094 -0.0311 -0.5050
 4440SOL     OW14218   0.274   1.402   4.538 -0.3440 -0.1936 -0.4344
 4440SOL    HW114219   0.370   1.380   4.556 -0.6747 -1.4414 -0.1282
 4440SOL    HW214220   0.238   1.455   4.615 -0.9113 -2.9501  1.3376
 4441SOL     OW14221   5.565   0.897   5.111 -0.0796 -0.2602 -0.3373
 4441SOL    HW114222   5.602   0.814   5.151 -0.0148  0.8241  2.0435
 4441SOL    HW214223   5.620   0.976   5.141 -1.4040  0.8543 -0.7391
 4442SOL     OW14224   1.818   2.320   6.257 -0.2886  0.7002  0.0345
 4442SOL    HW114225   1.866   2.403   6.228 -2.0087  1.7987  0.1925
 4442SOL    HW214226   1.812   2.257   6.179  0.1921  1.1204 -0.3576
 4443SOL     OW14227   0.633   4.056   0.874 -0.5788  0.2242  0.0220
 4443SOL    HW114228   0.700   4.062   0.948 -1.2177 -0.9204  0.7097
 4443SOL    HW214229   0.672   4.003   0.799  0.5049  2.3326 -0.9997
 4444SOL     OW14230   2.304   5.539   2.111  0.2922 -0.6550 -0.6087
 4444SOL    HW114231   2.399   5.524   2.141 -0.7581 -1.6862  2.6717
 4444SOL    HW214232   2.280   5.635   2.123  0.9946 -0.3149 -1.8008
 4445SOL     OW14233   5.986   6.061   6.405  0.0217 -0.4419 -0.5644
 4445SOL    HW114234   6.070   6.111   6.423 -0.3406 -0.0786  0.1629
 4445SOL    HW214235   5.911   6.125   6.391 -0.1302 -0.7613 -1.2602
 4446SOL     OW14236   3.818   0.495   0.563 -0.2452 -0.6284  0.3048
 4446SOL    HW114237   3.805   0.411   0.511  1.5571 -1.5830  1.3115
 4446SOL    HW214238   3.867   0.562   0.507 -3.1238  0.4868 -1.1043
 4447SOL     OW14239   2.616   1.277   0.955  0.0472  0.1963  0.6314
 4447SOL    HW114240   2.699   1.267   1.010 -0.5002  1.0302  1.6548
 4447SOL    HW214241   2.570   1.361   0.981 -0.9528 -0.0985 -0.1554
 4448SOL     OW14242   3.193   1.826   0.670  0.3704  0.2259 -0.2981
 4448SOL    HW114243   3.177   1.889   0.594  2.2949  2.1282  0.7388
 4448SOL    HW214244   3.274   1.856   0.721 -1.6242 -0.0394  3.3873
 4449SOL     OW14245   4.691   3.183   6.652 -0.4508  0.3304 -0.3516
 4449SOL    HW114246   4.619   3.128   6.610  0.1260 -0.5806 -0.1722
 4449SOL    HW214247   4.761   3.205   6.584 -0.5083  0.5516 -0.3407
 4450SOL     OW14248   2.771   5.284   2.075  0.0607 -0.2480  0.5014
 4450SOL    HW114249   2.864   5.256   2.102  0.2699 -1.2144 -1.0886
 4450SOL    HW214250   2.713   5.203   2.067 -0.0864  0.0083 -1.4449
 4451SOL     OW14251   1.847   4.808   2.261  0.2142  0.0197  0.3527
 4451SOL    HW114252   1.783   4.732   2.257 -0.5811  0.6642  0.5766
 4451SOL    HW214253   1.909   4.803   2.182  0.9892 -1.5399  1.0088
 4452SOL     OW14254   5.565   5.253   4.090  0.4594 -0.2251  0.6755
 4452SOL    HW114255   5.599   5.169   4.046 -2.4189 -1.7748  1.1687
 4452SOL    HW214256   5.501   5.228   4.162 -2.5585  2.4033 -0.8800
 4453SOL     OW14257   3.933   6.627   6.335  0.1607  0.1376  0.4954
 4453SOL    HW114258   3.905   6.719   6.362 -0.1680  0.3329 -0.4792
 4453SOL    HW214259   4.025   6.608   6.370  0.1605  0.7709  0.8379
 4454SOL     OW14260   2.852   1.558   0.791  0.0448 -0.3282 -0.3047
 4454SOL    HW114261   2.775   1.615   0.818 -0.7331 -1.4450 -0.0835
 4454SOL    HW214262   2.829   1.507   0.709  1.0134  0.2282 -0.9396
 4455SOL     OW14263   2.615   0.555   4.831  0.4587  0.6035 -0.4023
 4455SOL    HW114264   2.631   0.461   4.800 -1.8712  0.2763 -0.7893
 4455SOL    HW214265   2.662   0.618   4.769  0.3125 -0.2364 -1.4109
 4456SOL     OW14266   3.566   5.452   6.318 -0.4668 -0.2989  0.4267
 4456SOL    HW114267   3.579   5.400   6.402 -2.7958 -1.7224  0.0076
 4456SOL    HW214268   3.642   5.434   6.256  0.3601 -0.6779  1.5134
 4457SOL     OW14269   3.417   1.828   5.093 -0.0015 -0.0280  0.2988
 4457SOL    HW114270   3.363   1.786   5.167  0.0381  0.8904  0.8596
 4457SOL    HW214271   3.433   1.760   5.021 -2.6715 -0.0970 -0.3254
 4458SOL     OW14272   6.707   1.512   3.523 -0.5216 -0.8674  0.7506
 4458SOL    HW114273   6.787   1.478   3.474 -0.4622 -2.4926  1.8967
 4458SOL    HW214274   6.726   1.603   3.559  0.3345 -0.7092 -0.0525
 4459SOL     OW14275   4.109   3.116   0.863 -0.6549  0.4260  0.2205
 4459SOL    HW114276   4.156   3.205   0.863  0.1373  0.0310 -0.9824
 4459SOL    HW214277   4.138   3.064   0.943 -2.0205  1.6733  1.5945
 4460SOL     OW14278   6.886   1.196   4.147 -0.6308 -0.0166 -0.0562
 4460SOL    HW114279   6.928   1.254   4.217 -1.1516 -0.4015  0.5879
 4460SOL    HW214280   6.871   1.104   4.184 -0.0568 -0.4933 -0.9852
 4461SOL     OW14281   6.623   2.455   4.818 -0.0939 -0.6600 -0.1477
 4461SOL    HW114282   6.647   2.483   4.725 -1.2671 -2.3134 -1.0009
 4461SOL    HW214283   6.581   2.532   4.867 -0.0605  0.0427 -1.2008
 4462SOL     OW14284   1.068   1.495   5.459 -0.3167  0.2458 -0.3852
 4462SOL    HW114285   0.995   1.554   5.495 -0.4137  0.1489 -0.4243
 4462SOL    HW214286   1.156   1.542   5.468 -0.1992 -0.2019  0.9730
 4463SOL     OW14287   3.347   1.495   5.760 -0.1286  0.1758  0.1658
 4463SOL    HW114288   3.365   1.500   5.662 -1.6742 -1.0697 -0.2265
 4463SOL    HW214289   3.376   1.407   5.795 -0.1904  0.3592  0.6867
 4464SOL     OW14290   5.698   0.109   4.428  0.0252 -0.3828  0.5262
 4464SOL    HW114291   5.713   0.139   4.334  0.4827 -1.7442  0.1509
 4464SOL    HW214292   5.711   0.187   4.490 -0.9628  0.6985 -0.5674
 4465SOL     OW14293   0.419   2.291   1.248 -0.5101 -0.5761  0.1372
 4465SOL    HW114294   0.506   2.249   1.273  1.0970  1.8663 -0.9691
 4465SOL    HW214295   0.345   2.226   1.265  1.6401 -3.4295 -0.5190
 4466SOL     OW14296   2.778   6.205   4.538  0.0361 -0.6534 -0.6357
 4466SOL    HW114297   2.814   6.185   4.447  3.6006 -1.0215  0.6962
 4466SOL    HW214298   2.756   6.302   4.545  0.6122 -0.4426 -1.6167
 4467SOL     OW14299   6.592   3.073   2.530  0.6424 -0.2476 -0.4335
 4467SOL    HW114300   6.570   2.977   2.551 -0.1725 -0.2465 -1.2025
 4467SOL    HW214301   6.608   3.082   2.432 -0.7039  0.6580 -0.5940
 4468SOL     OW14302   3.816   1.793   3.651  0.2297  0.2524 -0.0616
 4468SOL    HW114303   3.846   1.717   3.594 -0.6233 -0.4773  0.4316
 4468SOL    HW214304   3.814   1.877   3.597  0.7831 -0.1445 -0.7226
 4469SOL     OW14305   4.702   6.302   1.488 -0.2275  0.6399 -0.0226
 4469SOL    HW114306   4.770   6.302   1.414 -0.0539 -0.8885  0.0975
 4469SOL    HW214307   4.745   6.331   1.573 -0.0448  0.9149 -0.2066
 4470SOL     OW14308   4.421   5.286   2.976 -0.0364  0.1635  0.0836
 4470SOL    HW114309   4.513   5.253   2.998 -0.4926 -2.6142 -1.7036
 4470SOL    HW214310   4.359   5.263   3.051  0.4622  0.9014  0.7360
 4471SOL     OW14311   3.170   5.789   3.922 -0.1614 -0.5888 -0.5780
 4471SOL    HW114312   3.206   5.700   3.950  2.5822  0.3703 -0.7301
 4471SOL    HW214313   3.079   5.778   3.883 -1.4837 -2.8003  2.7177
 4472SOL     OW14314   3.208   3.607   6.437 -0.5919  0.0056 -0.3218
 4472SOL    HW114315   3.276   3.533   6.437 -2.8089 -2.1685 -0.3079
 4472SOL    HW214316   3.175   3.621   6.344 -1.8255 -0.6892 -0.0107
 4473SOL     OW14317   0.323   6.828   1.337 -0.3737  0.2000  0.7460
 4473SOL    HW114318   0.368   6.916   1.326  0.3970 -0.2948 -0.1821
 4473SOL    HW214319   0.315   6.783   1.248 -2.1337 -0.0126  0.9741
 4474SOL     OW14320   2.052   1.433   0.349  0.1374  0.4339  0.2221
 4474SOL    HW114321   1.960   1.463   0.374  0.4791  1.1907  0.5910
 4474SOL    HW214322   2.078   1.354   0.406  0.3994  1.3299  1.3879
 4475SOL     OW14323   2.509   0.078   6.442 -0.4183 -0.3962  0.4915
 4475SOL    HW114324   2.501  -0.022   6.444  0.4175 -0.4806  0.2880
 4475SOL    HW214325   2.452   0.117   6.514 -1.5661 -0.9495 -0.0915
 4476SOL     OW14326   5.603   2.971   2.549  0.1648  0.2133 -0.4821
 4476SOL    HW114327   5.682   3.016   2.592  0.3828  0.3097 -0.9753
 4476SOL    HW214328   5.519   3.002   2.594  0.3900  0.2973 -0.1129
 4477SOL     OW14329   0.154   4.476   5.657  0.8457  0.2388  0.5293
 4477SOL    HW114330   0.170   4.377   5.657 -1.1386 -0.1524 -1.1164
 4477SOL    HW214331   0.110   4.503   5.571  1.2792  2.5627  0.9642
 4478SOL     OW14332   6.935   0.867   0.918 -0.1183  0.6047  0.2593
 4478SOL    HW114333   6.938   0.823   1.008 -1.2224 -0.1752 -0.0729
 4478SOL    HW214334   6.954   0.800   0.847 -0.6605  0.9103 -0.1792
 4479SOL     OW14335   6.854   0.372   6.846  0.2606 -0.4467 -0.0113
 4479SOL    HW114336   6.821   0.363   6.940  0.6222 -1.5043  0.0364
 4479SOL    HW214337   6.786   0.336   6.783 -0.6633  1.6870 -0.3169
 4480SOL     OW14338   5.986   1.880   1.505 -0.0039  0.2891 -0.4090
 4480SOL    HW114339   6.031   1.885   1.416  0.3641  2.4516 -0.1567
 4480SOL    HW214340   6.043   1.925   1.574 -0.6608 -0.6157  0.7748
 4481SOL     OW14341   2.971   5.031   6.637  0.4856 -0.1125  0.1368
 4481SOL    HW114342   2.898   5.084   6.679  0.8566  1.9166 -1.5939
 4481SOL    HW214343   2.935   4.984   6.556  0.3533 -1.9308  1.2029
 4482SOL     OW14344   4.304   1.497   1.696  0.1775 -0.3763 -0.4853
 4482SOL    HW114345   4.218   1.463   1.734  0.5927 -1.4294 -0.4397
 4482SOL    HW214346   4.291   1.516   1.599 -0.3980  0.5520 -0.2335
 4483SOL     OW14347   0.083   4.661   1.685 -0.6116 -0.1019 -0.0917
 4483SOL    HW114348   0.008   4.596   1.698 -0.4061 -0.1041  1.2272
 4483SOL    HW214349   0.111   4.661   1.590 -1.5009 -0.9696 -0.3683
 4484SOL     OW14350   4.143   1.207   4.418 -0.1183  0.0954  0.2156
 4484SOL    HW114351   4.156   1.185   4.514  1.1480  0.9760  0.2716
 4484SOL    HW214352   4.119   1.303   4.408 -1.4435 -0.2568 -0.2929
 4485SOL     OW14353   4.366   6.541   0.458  0.2843 -0.3972 -0.4780
 4485SOL    HW114354   4.382   6.501   0.548  0.1225  0.3321 -0.1139
 4485SOL    HW214355   4.271   6.523   0.430 -0.1257  0.6484  0.1770
 4486SOL     OW14356   4.978   2.691   0.232  0.2903 -0.1165 -0.3027
 4486SOL    HW114357   4.973   2.618   0.163 -1.8978 -2.5106  2.1338
 4486SOL    HW214358   4.907   2.759   0.214 -1.0772 -1.3618  0.1255
 4487SOL     OW14359   2.103   0.144   6.155 -0.3737 -0.0860 -0.0682
 4487SOL    HW114360   2.004   0.139   6.164 -0.2284 -0.2297  1.6796
 4487SOL    HW214361   2.142   0.194   6.232  0.9323 -0.1134 -0.6710
 4488SOL     OW14362   1.876   1.882   2.003 -0.2926 -0.2460  0.0808
 4488SOL    HW114363   1.781   1.891   1.971 -0.6095 -0.3190  0.9556
 4488SOL    HW214364   1.881   1.810   2.072 -0.3667  2.0949  2.7295
 4489SOL     OW14365   1.146   1.969   2.690  0.1412  0.2037  0.1922
 4489SOL    HW114366   1.162   1.871   2.680 -1.6224 -0.1778  0.8350
 4489SOL    HW214367   1.107   1.988   2.780 -3.4295  0.8964 -1.3358
 4490SOL     OW14368   3.296   0.134   5.749  0.1897  0.2360 -0.3652
 4490SOL    HW114369   3.281   0.173   5.840  1.1160 -0.6248  0.1855
 4490SOL    HW214370   3.218   0.076   5.725 -0.1193  0.5701 -0.1771
 4491SOL     OW14371   2.223   4.031   1.867 -0.7223  0.1104 -0.2513
 4491SOL    HW114372   2.197   3.940   1.900 -1.0526 -0.6012 -2.3250
 4491SOL    HW214373   2.142   4.082   1.841 -0.5909  1.3081  1.5179
 4492SOL     OW14374   2.374   6.531   1.066  0.0710 -0.7706 -0.0960
 4492SOL    HW114375   2.405   6.458   1.127 -1.2327 -0.9282  0.4257
 4492SOL    HW214376   2.449   6.595   1.050  1.3217 -2.3538 -0.7899
 4493SOL     OW14377   5.368   6.953   1.364  0.4805 -0.0179  0.4913
 4493SOL    HW114378   5.379   7.030   1.427 -1.0585  1.1744 -0.6172
 4493SOL    HW214379   5.458   6.913   1.345  1.6355  2.7463 -0.3873
 4494SOL     OW14380   4.016   3.788   4.124 -0.0965  0.2954 -0.6151
 4494SOL    HW114381   4.046   3.860   4.187 -1.1432  1.4437 -1.3727
 4494SOL    HW214382   3.916   3.788   4.118 -0.0308  0.4926 -2.5380
 4495SOL     OW14383   5.018   0.571   3.277 -0.7492 -0.0063  0.5897
 4495SOL    HW114384   5.105   0.617   3.293 -1.1535  0.3843  1.8201
 4495SOL    HW214385   4.944   0.629   3.312 -1.4331 -0.6590  0.2316
 4496SOL     OW14386   6.041   1.394   5.599  0.1188  0.3257 -0.1204
 4496SOL    HW114387   5.972   1.346   5.652  0.2133 -0.2588 -0.5140
 4496SOL    HW214388   5.997   1.450   5.529  0.0535 -1.1645 -1.3222
 4497SOL     OW14389   6.912   6.267   2.260 -0.0162  0.3480 -0.2111
 4497SOL    HW114390   6.947   6.182   2.300 -0.4829 -0.4074 -1.3686
 4497SOL    HW214391   6.829   6.294   2.309 -0.3632 -0.3482 -0.3950
 4498SOL     OW14392   2.133   4.008   5.236  0.1840  0.5723  0.1676
 4498SOL    HW114393   2.231   4.011   5.215  0.3342 -0.6410  0.6102
 4498SOL    HW214394   2.106   4.094   5.280  0.5799  1.7781 -1.8015
 4499SOL     OW14395   1.218   2.356   4.824  0.1627  0.0593 -0.1399
 4499SOL    HW114396   1.186   2.276   4.772 -1.4371  0.5774 -0.0113
 4499SOL    HW214397   1.174   2.438   4.788 -1.1003  0.4316  2.0977
 4500SOL     OW14398   5.072   2.242   0.183 -0.0476 -0.0152  0.4674
 4500SOL    HW114399   5.004   2.273   0.116 -2.0055 -1.8421  1.4914
 4500SOL    HW214400   5.085   2.314   0.252 -1.4261  0.1581  0.5830
 4501SOL     OW14401   2.350   1.207   3.622 -0.0813 -0.4491  0.0046
 4501SOL    HW114402   2.281   1.267   3.663 -0.6030  0.3439 -1.8893
 4501SOL    HW214403   2.432   1.260   3.602 -0.3549 -0.4513 -1.2039
 4502SOL     OW14404   6.732   4.263   0.907  0.4794 -0.3098 -0.3441
 4502SOL    HW114405   6.653   4.202   0.904 -0.3254  0.5569  1.5009
 4502SOL    HW214406   6.705   4.354   0.877  1.4486 -0.5926 -2.1854
 4503SOL     OW14407   6.133   3.090   0.100  0.2924  0.1014 -0.7708
 4503SOL    HW114408   6.149   3.175   0.048  0.7504 -0.6215 -1.8570
 4503SOL    HW214409   6.052   3.101   0.158  2.0870  2.3492  1.5134
 4504SOL     OW14410   1.008   3.719   0.919 -0.7687  0.4012 -0.2681
 4504SOL    HW114411   0.988   3.641   0.979  0.5498  0.2658  0.0223
 4504SOL    HW214412   1.107   3.730   0.912 -0.8913  0.4474 -2.4010
 4505SOL     OW14413   5.953   4.186   1.916  0.1924 -0.4374  0.0934
 4505SOL    HW114414   5.943   4.107   1.976 -0.4039  0.1938  0.8494
 4505SOL    HW214415   6.047   4.192   1.884  0.3857 -1.1048  0.5149
 4506SOL     OW14416   3.239   6.862   4.197 -0.1264  0.6954 -0.3031
 4506SOL    HW114417   3.255   6.907   4.110 -0.5607 -0.0304 -0.7732
 4506SOL    HW214418   3.286   6.774   4.198 -0.3751  0.5657  0.0768
 4507SOL     OW14419   2.454   3.631   0.103  0.1531 -0.1424 -0.4197
 4507SOL    HW114420   2.410   3.559   0.157 -1.0378  0.5536 -0.4487
 4507SOL    HW214421   2.405   3.717   0.114  1.7398  0.7792 -0.1404
 4508SOL     OW14422   4.576   2.542   2.562  0.1118  0.1959  0.0659
 4508SOL    HW114423   4.628   2.468   2.519  0.1594  0.5643 -0.5269
 4508SOL    HW214424   4.587   2.626   2.508 -1.2986  0.2185 -0.2254
 4509SOL     OW14425   0.816   6.133   6.685  0.5208  0.2056  0.3975
 4509SOL    HW114426   0.880   6.099   6.617 -0.0078 -0.0933  0.0486
 4509SOL    HW214427   0.833   6.231   6.700 -0.1013  0.5624 -1.0184
 4510SOL     OW14428   4.296   6.271   0.617 -0.0605 -0.7341  0.0507
 4510SOL    HW114429   4.219   6.224   0.573 -0.7809 -1.3740  1.8672
 4510SOL    HW214430   4.263   6.320   0.698  1.2096  0.3114 -0.0317
 4511SOL     OW14431   3.519   1.438   1.209  0.0834  0.5164 -0.3872
 4511SOL    HW114432   3.547   1.516   1.152  0.0881  1.5435  0.9722
 4511SOL    HW214433   3.473   1.471   1.291 -0.4634 -0.9578 -0.0612
 4512SOL     OW14434   4.978   3.672   0.094  0.4592  0.2482 -0.0989
 4512SOL    HW114435   4.888   3.693   0.132  0.2545  1.3792 -1.1415
 4512SOL    HW214436   4.968   3.619   0.010  0.8331 -0.6760  0.4207
 4513SOL     OW14437   3.626   0.483   4.554 -0.0782  0.3397  0.2831
 4513SOL    HW114438   3.704   0.436   4.594  0.3994 -1.1440 -2.1976
 4513SOL    HW214439   3.658   0.556   4.493 -0.5142 -0.7534 -1.3291
 4514SOL     OW14440   1.010   2.013   2.907  0.1997 -0.2900  0.4328
 4514SOL    HW114441   1.047   2.076   2.976  1.3325 -0.2926 -0.1545
 4514SOL    HW214442   0.929   1.968   2.944  0.2408  0.3978  1.4174
 4515SOL     OW14443   5.682   5.027   4.041  0.2683 -0.0672 -0.2197
 4515SOL    HW114444   5.696   4.929   4.029  1.8838  0.1996 -0.8187
 4515SOL    HW214445   5.771   5.074   4.040 -0.5631  1.6328 -2.2062
 4516SOL     OW14446   2.230   0.496   0.670  0.4633 -0.2904  0.0351
 4516SOL    HW114447   2.191   0.478   0.761  1.9414 -0.9566  0.5727
 4516SOL    HW214448   2.301   0.566   0.678  0.2804 -0.0155 -0.7034
 4517SOL     OW14449   0.435   6.136   4.183 -0.4618 -0.4893 -0.5929
 4517SOL    HW114450   0.512   6.129   4.247 -0.0347  0.2983 -1.0101
 4517SOL    HW214451   0.439   6.224   4.135 -2.2290  0.0395  0.1516
 4518SOL     OW14452   4.605   6.521   6.718  0.3240  0.2013  0.2699
 4518SOL    HW114453   4.574   6.537   6.812 -0.4479  1.6955 -0.1982
 4518SOL    HW214454   4.688   6.574   6.701  1.6290 -1.6266  0.6777
 4519SOL     OW14455   5.291   2.035   3.647  0.2718 -0.5490 -0.0379
 4519SOL    HW114456   5.235   2.104   3.601  0.4676  0.0909  0.6579
 4519SOL    HW214457   5.315   1.963   3.582 -1.1244 -0.7020 -0.4200
 4520SOL     OW14458   6.693   3.727   6.696  0.2608 -0.1229  0.2070
 4520SOL    HW114459   6.722   3.724   6.600 -0.1672 -1.7109  0.1071
 4520SOL    HW214460   6.681   3.634   6.731 -2.3145  0.4020  0.9547
 4521SOL     OW14461   6.307   3.013   5.550  0.3993 -0.1436  0.3522
 4521SOL    HW114462   6.248   2.933   5.539 -0.3290  0.3049  0.8908
 4521SOL    HW214463   6.402   2.984   5.555  0.0555 -1.1153  1.8508
 4522SOL     OW14464   0.685   5.742   6.793  0.1943  0.7882  0.2656
 4522SOL    HW114465   0.718   5.834   6.812  2.2251  0.5596 -1.6449
 4522SOL    HW214466   0.763   5.684   6.769 -1.2777 -0.7947 -0.9582
 4523SOL     OW14467   4.627   6.975   1.310 -0.3047 -0.0506  0.3744
 4523SOL    HW114468   4.538   7.019   1.298  0.2304  1.0026  0.1949
 4523SOL    HW214469   4.699   7.043   1.302  0.6224 -1.1385 -1.1321
 4524SOL     OW14470   2.131   6.515   3.582  0.3422  0.2438 -0.5656
 4524SOL    HW114471   2.226   6.547   3.580 -0.0417  1.4835 -3.0660
 4524SOL    HW214472   2.108   6.486   3.675  2.4436  2.0594  0.6293
 4525SOL     OW14473   2.218   1.984   5.615  0.4165 -0.4381 -0.0323
 4525SOL    HW114474   2.163   1.972   5.697  1.3675  0.4020  0.7703
 4525SOL    HW214475   2.241   1.895   5.576 -0.9221 -0.8081 -0.0024
 4526SOL     OW14476   3.724   3.748   2.777  0.0446  0.1158 -0.3414
 4526SOL    HW114477   3.639   3.800   2.766  0.7693  1.2267 -0.9739
 4526SOL    HW214478   3.726   3.672   2.713  0.6346  1.6650 -2.2666
 4527SOL     OW14479   1.685   6.625   6.338 -0.1729 -0.4386  0.6050
 4527SOL    HW114480   1.760   6.675   6.295 -0.1161 -0.1831  0.9946
 4527SOL    HW214481   1.634   6.574   6.268  1.5643 -2.2414  0.5753
 4528SOL     OW14482   6.616   3.001   1.562  0.0767 -0.1359  0.0232
 4528SOL    HW114483   6.519   3.022   1.550  0.0014 -0.2460  0.4297
 4528SOL    HW214484   6.666   3.027   1.479  0.0804  2.0859  0.6766
 4529SOL     OW14485   6.451   4.866   1.421 -0.2997  0.3896 -0.1453
 4529SOL    HW114486   6.495   4.781   1.391  0.0261  0.6624 -0.4464
 4529SOL    HW214487   6.352   4.852   1.424 -0.2222 -0.1174  0.1807
 4530SOL     OW14488   4.289   1.521   1.428  0.3378 -0.0726  0.3692
 4530SOL    HW114489   4.210   1.582   1.430  0.8434  0.5869  0.5239
 4530SOL    HW214490   4.268   1.441   1.373 -0.0914  0.5831 -0.4446
 4531SOL     OW14491   1.942   4.559   5.253 -0.3546  0.0804 -0.3151
 4531SOL    HW114492   1.884   4.523   5.327 -2.0668  1.4433 -0.9487
 4531SOL    HW214493   2.038   4.550   5.280 -0.9074 -0.0597  1.8061
 4532SOL     OW14494   6.884   5.575   4.454  0.6021 -0.5778 -0.0369
 4532SOL    HW114495   6.976   5.603   4.481  0.2829 -0.9978  1.6573
 4532SOL    HW214496   6.889   5.500   4.389  1.4396  0.6998 -1.5035
 4533SOL     OW14497   3.090   1.098   0.133  0.3917 -0.2918  0.1439
 4533SOL    HW114498   3.145   1.072   0.212  1.3158  0.3563 -0.2626
 4533SOL    HW214499   3.150   1.135   0.062 -0.7109  2.2209  0.4047
 4534SOL     OW14500   0.218   5.059   0.816 -0.1279  0.1020  0.4281
 4534SOL    HW114501   0.315   5.037   0.829 -0.3369  0.2505  2.5112
 4534SOL    HW214502   0.180   5.095   0.901 -1.6090  1.7129 -0.8354
 4535SOL     OW14503   6.669   5.250   3.429  0.1352  0.4750  0.5643
 4535SOL    HW114504   6.682   5.229   3.526  3.8052 -0.4612  0.0044
 4535SOL    HW214505   6.635   5.168   3.382  0.1995  0.3374  0.7536
 4536SOL     OW14506   5.866   0.303   6.536  0.1659 -1.0797  0.1570
 4536SOL    HW114507   5.854   0.230   6.603  1.7215 -2.1729 -0.6981
 4536SOL    HW214508   5.880   0.264   6.445  0.0697  0.3191 -0.4914
 4537SOL     OW14509   1.097   0.798   2.200  0.3933 -0.5292  0.1020
 4537SOL    HW114510   1.072   0.895   2.209 -0.7320 -0.6032 -1.7881
 4537SOL    HW214511   1.135   0.766   2.286 -1.2582  1.0042  1.4763
 4538SOL     OW14512   0.018   0.896   3.592 -0.4507  0.1345  0.4411
 4538SOL    HW114513  -0.055   0.958   3.566 -1.5518 -0.8479  1.0813
 4538SOL    HW214514   0.015   0.880   3.690 -1.1496 -2.0592  0.1156
 4539SOL     OW14515   4.128   3.340   4.525  0.2730  0.0130  0.3163
 4539SOL    HW114516   4.202   3.370   4.584  0.4514  0.1561  0.0205
 4539SOL    HW214517   4.103   3.413   4.462  0.4360 -0.3164 -0.1382
 4540SOL     OW14518   3.827   2.989   2.491 -0.1689 -0.1022  0.0118
 4540SOL    HW114519   3.741   2.988   2.440  0.2090 -0.7208 -0.6404
 4540SOL    HW214520   3.904   2.993   2.427  0.2923  0.9251  0.5980
 4541SOL     OW14521   2.868   6.829   1.431  0.3604 -0.4078 -0.7437
 4541SOL    HW114522   2.928   6.875   1.496  0.8949 -3.1523  0.8686
 4541SOL    HW214523   2.773   6.839   1.461  0.2233  1.3065 -1.5904
 4542SOL     OW14524   6.879   2.653   4.640 -0.4140  0.0055  0.1785
 4542SOL    HW114525   6.790   2.641   4.596 -1.5510  2.4211  1.6180
 4542SOL    HW214526   6.947   2.596   4.593 -2.5932 -1.6282 -1.2055
 4543SOL     OW14527   2.846   1.034   3.533 -0.1285 -0.0850 -0.2554
 4543SOL    HW114528   2.845   1.126   3.571 -0.3696 -0.1567 -0.0891
 4543SOL    HW214529   2.877   0.969   3.603 -1.5861 -0.3663  0.1663
 4544SOL     OW14530   4.136   5.950   2.658 -0.2588 -0.1585 -0.1750
 4544SOL    HW114531   4.187   5.868   2.681  0.3059  0.0925 -0.5230
 4544SOL    HW214532   4.169   6.027   2.712 -1.3010 -0.3086  0.7069
 4545SOL     OW14533   5.994   5.489   0.466  0.1457  0.2712  0.3168
 4545SOL    HW114534   5.972   5.392   0.454 -0.0827  0.4680 -1.0569
 4545SOL    HW214535   6.092   5.501   0.475  0.1299 -0.1330  1.1179
 4546SOL     OW14536   1.653   6.308   2.565  0.9486 -0.1857  0.3605
 4546SOL    HW114537   1.616   6.398   2.542  1.7981  0.1332  0.2264
 4546SOL    HW214538   1.592   6.263   2.630 -0.6471 -0.4264 -1.2386
 4547SOL     OW14539   1.319   2.592   2.728 -0.4670 -1.0927 -0.1078
 4547SOL    HW114540   1.269   2.675   2.703 -0.5867 -1.5261 -1.3757
 4547SOL    HW214541   1.267   2.542   2.797 -0.8168 -0.5375  0.0377
 4548SOL     OW14542   6.525   5.152   2.127  0.1991  0.0700 -0.0525
 4548SOL    HW114543   6.499   5.249   2.130  0.4006  0.1577 -0.9227
 4548SOL    HW214544   6.447   5.097   2.098  0.5645  0.1902 -1.3634
 4549SOL     OW14545   1.790   6.424   5.856  0.5872  0.0461 -0.3057
 4549SOL    HW114546   1.693   6.402   5.871  0.6282 -0.6311 -0.9770
 4549SOL    HW214547   1.798   6.514   5.814  0.4104  1.4547  2.4673
 4550SOL     OW14548   0.096   2.297   1.959  0.0895 -0.4879  0.0514
 4550SOL    HW114549   0.097   2.374   2.023 -0.7903 -1.5369  1.3825
 4550SOL    HW214550   0.190   2.265   1.945  0.4517  0.6970 -0.4035
 4551SOL     OW14551   1.856   0.753   5.082  0.1931 -0.3228 -0.4465
 4551SOL    HW114552   1.833   0.664   5.044  0.2880 -1.7374  2.5593
 4551SOL    HW214553   1.782   0.785   5.141  0.1251  1.6727 -1.5119
 4552SOL     OW14554   4.769   4.532   5.511  0.2731 -0.1943 -0.5316
 4552SOL    HW114555   4.724   4.611   5.470  2.1311  0.4449 -1.4942
 4552SOL    HW214556   4.794   4.467   5.439  2.3810  0.3117 -0.3310
 4553SOL     OW14557   4.029   1.175   0.395 -0.0178  0.8787  0.4809
 4553SOL    HW114558   4.099   1.105   0.404 -1.1575 -0.2471  0.9119
 4553SOL    HW214559   3.954   1.156   0.459  0.0650  3.0291  1.3162
 4554SOL     OW14560   2.008   0.903   6.058  0.6933 -0.2606 -0.4439
 4554SOL    HW114561   1.995   0.902   6.157 -1.5168 -0.8216 -0.6798
 4554SOL    HW214562   2.013   0.997   6.025 -0.3360 -0.0336  0.0220
 4555SOL     OW14563   5.816   1.224   6.819 -0.1847 -0.4152 -0.1001
 4555SOL    HW114564   5.848   1.317   6.836  0.3351 -0.7982  1.1556
 4555SOL    HW214565   5.817   1.172   6.905 -0.3605 -1.6118 -0.7955
 4556SOL     OW14566   5.660   2.182   2.971 -0.4137  0.0024 -0.2296
 4556SOL    HW114567   5.726   2.246   3.010 -1.3566  0.2521  1.0232
 4556SOL    HW214568   5.707   2.101   2.939  0.4621 -0.0795  1.1813
 4557SOL     OW14569   0.846   2.052   0.154 -0.5393  0.1148 -0.1811
 4557SOL    HW114570   0.863   2.129   0.092  1.7725  0.4227  0.7357
 4557SOL    HW214571   0.812   1.974   0.102  0.8372  0.5271 -1.7916
 4558SOL     OW14572   3.190   2.996   2.836  0.3623  0.1601 -0.7208
 4558SOL    HW114573   3.254   2.979   2.911 -1.1972  0.9209  0.8578
 4558SOL    HW214574   3.162   2.908   2.796  1.4843 -0.2373 -0.6898
 4559SOL     OW14575   5.691   1.516   6.967 -0.5134 -0.4544 -0.2699
 4559SOL    HW114576   5.687   1.477   7.059 -1.3735 -1.3416 -0.6635
 4559SOL    HW214577   5.645   1.605   6.967 -1.0855 -0.7447  0.0290
 4560SOL     OW14578   6.799   5.926   4.660 -0.3037  0.3574  0.0359
 4560SOL    HW114579   6.761   6.000   4.716  1.7406  1.1994  0.3837
 4560SOL    HW214580   6.898   5.925   4.669 -0.1481 -1.2937 -1.4075
 4561SOL     OW14581   0.380   0.827   6.346  0.5363  0.3417  0.5331
 4561SOL    HW114582   0.309   0.834   6.417 -0.0566 -1.4853  0.2007
 4561SOL    HW214583   0.394   0.730   6.324  2.7797  0.6856  0.1920
 4562SOL     OW14584   1.446   5.947   2.959  0.0275  0.1047 -0.2606
 4562SOL    HW114585   1.525   5.979   3.011 -0.5062 -0.9203  1.2469
 4562SOL    HW214586   1.427   5.852   2.983 -1.3258  0.1612 -1.0285
 4563SOL     OW14587   5.989   3.633   4.979  0.0713 -0.6460 -0.0274
 4563SOL    HW114588   5.926   3.567   5.020 -0.1783 -0.5854 -0.3057
 4563SOL    HW214589   5.938   3.715   4.954  0.3963 -0.3217  0.3814
 4564SOL     OW14590   4.592   1.371   5.644  0.0411  0.5071  0.2616
 4564SOL    HW114591   4.515   1.429   5.670 -1.1725 -1.2850  0.8487
 4564SOL    HW214592   4.650   1.354   5.724 -0.6825 -0.6125  0.5707
 4565SOL     OW14593   0.561   4.230   0.212 -0.2413  0.2978  0.0904
 4565SOL    HW114594   0.516   4.156   0.160  0.5480 -0.3554  0.3116
 4565SOL    HW214595   0.589   4.302   0.149 -0.7531  0.2792 -0.1703
 4566SOL     OW14596   1.602   5.210   3.404 -0.1239 -0.4646 -0.3253
 4566SOL    HW114597   1.685   5.260   3.382 -0.6631  0.8071  0.4356
 4566SOL    HW214598   1.530   5.234   3.339 -0.1595 -0.8919 -0.4508
 4567SOL     OW14599   5.696   0.802   1.737  0.1289  0.0517 -0.7565
 4567SOL    HW114600   5.727   0.781   1.829 -1.7550  0.1317 -0.0649
 4567SOL    HW214601   5.716   0.897   1.715  0.3678  0.0990 -0.3394
 4568SOL     OW14602   2.444   3.084   0.386 -0.5008 -0.2399  0.3971
 4568SOL    HW114603   2.399   3.117   0.470  0.1287  3.3699 -0.5170
 4568SOL    HW214604   2.375   3.068   0.316 -0.7274  1.3415  0.2250
 4569SOL     OW14605   0.343   3.779   2.364 -0.3974  0.0399 -0.2125
 4569SOL    HW114606   0.429   3.766   2.413 -1.0278 -0.7958  0.7401
 4569SOL    HW214607   0.320   3.876   2.361 -1.1320  0.0463  2.6658
 4570SOL     OW14608   2.525   0.864   4.984 -0.0775 -0.2302 -0.1695
 4570SOL    HW114609   2.467   0.945   4.981 -1.6570 -1.3199  0.0524
 4570SOL    HW214610   2.471   0.783   4.963  1.2781 -1.3434  0.4616
 4571SOL     OW14611   2.613   3.756   1.265 -0.0314 -0.1236 -0.4553
 4571SOL    HW114612   2.588   3.662   1.289  0.7091 -0.7127 -1.9054
 4571SOL    HW214613   2.575   3.819   1.333 -1.6227 -1.3493 -0.1619
 4572SOL     OW14614   5.281   1.598   1.540 -0.3295 -0.0755  0.4652
 4572SOL    HW114615   5.321   1.688   1.523  0.8592 -0.6043  0.3783
 4572SOL    HW214616   5.182   1.602   1.525  0.0585  0.5234 -2.4795
 4573SOL     OW14617   6.311   1.848   6.461 -0.4982  0.5174  0.0779
 4573SOL    HW114618   6.286   1.858   6.365 -1.0123 -2.1023 -0.1404
 4573SOL    HW214619   6.390   1.787   6.468 -1.7942 -1.0871  1.3857
 4574SOL     OW14620   2.570   4.905   0.096  0.9070  0.3671 -0.0273
 4574SOL    HW114621   2.604   4.874   0.184  0.8949  2.1012  0.6303
 4574SOL    HW214622   2.563   5.005   0.096 -2.0961  0.2637 -0.8699
 4575SOL     OW14623   1.217   1.810   6.823 -0.3012 -0.5265  0.1106
 4575SOL    HW114624   1.181   1.898   6.791 -2.1570 -1.4059 -0.3246
 4575SOL    HW214625   1.148   1.739   6.811  0.6103 -1.7832  1.8403
 4576SOL     OW14626   6.068   1.246   0.656 -0.6809 -0.5773  0.1623
 4576SOL    HW114627   6.094   1.251   0.559  0.0456  0.0271  0.3741
 4576SOL    HW214628   6.059   1.339   0.692 -0.0584 -0.8027  0.9043
 4577SOL     OW14629   1.032   4.065   4.086 -0.3494  0.1579 -0.2100
 4577SOL    HW114630   1.016   4.144   4.027  0.6074  0.9830  0.6020
 4577SOL    HW214631   1.131   4.048   4.093 -0.5191 -0.7680  0.0760
 4578SOL     OW14632   3.246   0.794   3.443  0.4740  0.2002 -0.0210
 4578SOL    HW114633   3.302   0.716   3.417  1.1929  0.6515  0.1421
 4578SOL    HW214634   3.246   0.803   3.543 -0.7374 -0.4024  0.0632
 4579SOL     OW14635   3.537   3.497   2.193  0.3726 -0.6960  0.6363
 4579SOL    HW114636   3.467   3.507   2.122  0.6184 -1.2646  0.3058
 4579SOL    HW214637   3.533   3.404   2.230 -0.2458 -0.1924  1.9028
 4580SOL     OW14638   4.738   2.890   3.139  0.4450 -0.4358  0.6170
 4580SOL    HW114639   4.659   2.830   3.149  0.2857 -0.4878 -0.8263
 4580SOL    HW214640   4.806   2.848   3.079  0.4252  0.7149 -0.2564
 4581SOL     OW14641   0.556   6.207   1.891 -0.5894  0.5601 -0.1246
 4581SOL    HW114642   0.651   6.202   1.859 -0.7150 -1.8962 -0.2726
 4581SOL    HW214643   0.500   6.254   1.822  0.3534  1.2833 -0.4160
 4582SOL     OW14644   4.550   4.977   5.960  0.2280  0.0186 -0.1573
 4582SOL    HW114645   4.535   5.008   6.054  0.5174 -0.6692  0.1245
 4582SOL    HW214646   4.590   5.052   5.907  1.8338 -0.1261  0.7558
 4583SOL     OW14647   5.904   0.278   1.927  0.1915  0.2983 -0.1510
 4583SOL    HW114648   5.863   0.288   1.836 -1.3281  1.0090  0.5939
 4583SOL    HW214649   5.891   0.184   1.959 -1.7929  0.7540  0.4858
 4584SOL     OW14650   1.828   2.711   1.660 -0.3318  0.3447 -0.2670
 4584SOL    HW114651   1.867   2.677   1.746 -1.2395 -1.6799 -0.5812
 4584SOL    HW214652   1.824   2.810   1.662  1.1676  0.4255  1.3541
 4585SOL     OW14653   3.273   6.230   4.146 -0.0743 -0.0098 -0.3715
 4585SOL    HW114654   3.360   6.183   4.130 -0.1099 -0.3635  0.4056
 4585SOL    HW214655   3.248   6.283   4.066 -0.2351 -1.6357 -1.4355
 4586SOL     OW14656   3.863   3.136   0.986  0.0398 -0.8384 -0.6958
 4586SOL    HW114657   3.939   3.098   0.933  2.5571 -3.0622  3.8190
 4586SOL    HW214658   3.898   3.205   1.050 -2.5787  0.9899 -1.0604
 4587SOL     OW14659   6.902   2.243   6.560  0.2893  0.4138  0.5185
 4587SOL    HW114660   6.956   2.267   6.641  0.0379 -2.0908  1.5351
 4587SOL    HW214661   6.936   2.157   6.523 -2.0126 -0.4628  0.2904
 4588SOL     OW14662   1.360   1.324   1.385  0.2561  0.1866  0.1942
 4588SOL    HW114663   1.370   1.237   1.433 -2.2376  0.7381  1.9212
 4588SOL    HW214664   1.299   1.384   1.437 -2.4816  0.9404 -3.4585
 4589SOL     OW14665   5.805   3.705   2.138  0.6532 -0.5379 -1.0770
 4589SOL    HW114666   5.838   3.770   2.070 -0.2603  1.2009  0.0707
 4589SOL    HW214667   5.864   3.707   2.219  0.1366 -0.4961 -0.6929
 4590SOL     OW14668   6.921   0.722   4.469  0.4811  0.4871 -0.6496
 4590SOL    HW114669   6.823   0.731   4.453  0.3789 -0.5136 -0.6267
 4590SOL    HW214670   6.970   0.724   4.382  0.4414  0.9386 -0.6636
 4591SOL     OW14671   1.381   2.567   3.059 -0.2967 -0.6151  0.1644
 4591SOL    HW114672   1.428   2.481   3.038  1.2220  0.9373 -3.9099
 4591SOL    HW214673   1.437   2.644   3.028 -2.6038  1.7639  1.4775
 4592SOL     OW14674   3.279   3.085   1.632  0.3606  0.0324  0.6670
 4592SOL    HW114675   3.255   3.015   1.564 -0.5925 -0.3082  1.3275
 4592SOL    HW214676   3.249   3.175   1.598 -1.2808 -0.2966  1.1567
 4593SOL     OW14677   1.762   0.057   3.068  0.3438 -0.0710  0.2619
 4593SOL    HW114678   1.805  -0.011   3.009 -0.3302  0.5126 -0.9309
 4593SOL    HW214679   1.690   0.013   3.122 -2.3485  0.1595 -2.8324
 4594SOL     OW14680   4.548   6.163   2.915 -0.4083  0.1868  0.3059
 4594SOL    HW114681   4.547   6.169   2.815  2.0588 -2.2436  0.0154
 4594SOL    HW214682   4.525   6.070   2.942 -0.3670  0.6429  1.9710
 4595SOL     OW14683   4.937   5.766   0.905  0.1171  0.2336 -0.0861
 4595SOL    HW114684   4.854   5.715   0.881  1.6920 -3.2044  1.1241
 4595SOL    HW214685   4.924   5.811   0.993 -0.6753  0.3205 -0.2398
 4596SOL     OW14686   2.074   1.335   1.490 -0.7891  0.7040 -0.4700
 4596SOL    HW114687   2.126   1.253   1.516  0.2858  1.0008 -1.5736
 4596SOL    HW214688   1.978   1.322   1.512 -0.3526 -0.0774  1.1732
 4597SOL     OW14689   2.344   6.900   0.731  0.6860  0.2895  0.3847
 4597SOL    HW114690   2.309   6.808   0.716 -2.1407  1.4580 -0.9908
 4597SOL    HW214691   2.350   6.918   0.829  0.2820 -1.0053  0.6661
 4598SOL     OW14692   4.021   4.059   5.334 -0.0278  0.2178  0.1120
 4598SOL    HW114693   4.000   4.063   5.432  1.6940 -0.9849  0.5846
 4598SOL    HW214694   4.082   4.134   5.310 -1.6880  1.4486 -0.4247
 4599SOL     OW14695   1.293   2.617   1.154 -0.2463 -0.1848  0.0538
 4599SOL    HW114696   1.307   2.550   1.227 -0.3047  1.3146  1.5053
 4599SOL    HW214697   1.379   2.633   1.105  0.5656  0.9060  1.7313
 4600SOL     OW14698   6.876   3.961   1.918  0.6889 -0.4715 -0.5136
 4600SOL    HW114699   6.880   4.047   1.969  2.0899 -1.1296  0.5627
 4600SOL    HW214700   6.787   3.918   1.932 -0.5069  1.3414 -2.0561
 4601SOL     OW14701   1.113   4.542   3.159 -0.6914 -0.3460 -0.4653
 4601SOL    HW114702   1.084   4.480   3.232  0.7714  0.2377  0.6776
 4601SOL    HW214703   1.198   4.509   3.118 -1.0056 -0.1713 -1.2833
 4602SOL     OW14704   3.519   2.562   6.011  0.2059  0.3300 -0.7151
 4602SOL    HW114705   3.583   2.487   6.026  0.5156  0.9242  1.2233
 4602SOL    HW214706   3.513   2.582   5.914  2.3945 -0.2357 -1.0092
 4603SOL     OW14707   6.435   4.509   3.209 -0.2022 -0.0288  0.2805
 4603SOL    HW114708   6.502   4.436   3.197 -0.0097  0.4111 -1.6172
 4603SOL    HW214709   6.345   4.470   3.226  0.0411 -0.6871  0.0597
 4604SOL     OW14710   6.582   1.113   2.251  0.1211 -0.1854 -0.4711
 4604SOL    HW114711   6.678   1.143   2.250 -0.3084  1.2996 -0.0592
 4604SOL    HW214712   6.559   1.072   2.163  1.4365 -1.6356 -0.1900
 4605SOL     OW14713   5.540   4.246   0.786 -0.7243  0.0631 -0.8400
 4605SOL    HW114714   5.476   4.306   0.834 -1.7441 -0.5961 -1.3379
 4605SOL    HW214715   5.609   4.213   0.850 -0.7827  0.9148 -0.3222
 4606SOL     OW14716   3.783   1.503   3.227  0.1940  0.0974 -0.3047
 4606SOL    HW114717   3.802   1.599   3.205 -0.8194 -0.2106 -2.8906
 4606SOL    HW214718   3.764   1.494   3.325  1.1296  2.3659  0.1448
 4607SOL     OW14719   3.462   2.295   1.060  0.0323 -0.6565 -0.0064
 4607SOL    HW114720   3.460   2.313   1.158  1.5097 -0.8413  0.0766
 4607SOL    HW214721   3.396   2.223   1.038 -1.5385  0.5284  0.5617
 4608SOL     OW14722   4.184   4.513   6.984  0.0577  0.3682  0.7132
 4608SOL    HW114723   4.168   4.448   7.058 -0.2510 -2.2506 -1.4701
 4608SOL    HW214724   4.110   4.581   6.983 -0.0292  0.3516  2.6223
 4609SOL     OW14725   5.422   1.665   2.696 -0.2620 -0.0375 -0.4004
 4609SOL    HW114726   5.470   1.737   2.745  0.7514 -1.1434  0.2920
 4609SOL    HW214727   5.454   1.576   2.728 -3.1612 -0.8685  0.4971
 4610SOL     OW14728   1.346   6.088   2.535  0.0157  0.4636 -0.0416
 4610SOL    HW114729   1.300   6.167   2.493  0.6990  1.3909  0.8896
 4610SOL    HW214730   1.281   6.037   2.591 -0.3051  0.6982 -0.1939
 4611SOL     OW14731   5.291   5.459   1.000  0.1286 -0.1455  0.3680
 4611SOL    HW114732   5.331   5.384   0.947 -0.4670 -1.5736  1.8769
 4611SOL    HW214733   5.220   5.504   0.945 -0.9297 -2.0075  0.1154
 4612SOL     OW14734   4.655   0.783   5.317 -0.1832 -0.5299 -0.3620
 4612SOL    HW114735   4.635   0.831   5.232  2.8191 -0.2199 -1.0169
 4612SOL    HW214736   4.701   0.696   5.296  0.7785 -0.3647  0.9172
 4613SOL     OW14737   6.380   3.265   2.386  0.3527  0.0318  0.2416
 4613SOL    HW114738   6.319   3.226   2.455  0.4559  2.6650  1.9444
 4613SOL    HW214739   6.473   3.230   2.401  0.2010 -0.1156  0.8671
 4614SOL     OW14740   4.029   0.277   6.363  0.1325 -0.0150 -0.3753
 4614SOL    HW114741   4.113   0.282   6.308 -1.5425 -0.6469 -3.1473
 4614SOL    HW214742   4.011   0.181   6.387  0.9468  0.2662  1.5824
 4615SOL     OW14743   5.870   0.994   1.847 -0.5617  0.4714 -0.4156
 4615SOL    HW114744   5.961   1.035   1.842  0.5308 -1.6871  0.7471
 4615SOL    HW214745   5.865   0.930   1.924 -2.8455 -0.0219 -0.8842
 4616SOL     OW14746   2.863   6.481   3.677  0.3070 -0.8699 -0.3355
 4616SOL    HW114747   2.905   6.546   3.614 -0.0381 -2.5165 -2.3940
 4616SOL    HW214748   2.926   6.405   3.694  1.1164  0.3224  2.8301
 4617SOL     OW14749   5.521   6.273   2.456  0.3081 -0.6432 -0.1826
 4617SOL    HW114750   5.594   6.248   2.519 -1.1827 -0.6216  1.6309
 4617SOL    HW214751   5.548   6.353   2.402  2.4940 -2.0215 -1.2584
 4618SOL     OW14752   0.955   2.192   5.746  0.1753  0.0558 -0.5016
 4618SOL    HW114753   0.954   2.097   5.714  1.7098 -0.0382 -0.3083
 4618SOL    HW214754   0.890   2.202   5.822 -0.6816 -0.6085 -1.1298
 4619SOL     OW14755   2.684   6.220   5.702  0.4861  0.6249  0.4990
 4619SOL    HW114756   2.671   6.270   5.617  0.3939  0.4974  0.4371
 4619SOL    HW214757   2.738   6.275   5.766  1.6220  0.2388 -0.0881
 4620SOL     OW14758   2.687   5.712   3.035 -0.4774 -0.2378 -0.3916
 4620SOL    HW114759   2.651   5.764   2.958  0.0010 -0.2271 -0.6106
 4620SOL    HW214760   2.778   5.745   3.059 -0.0291 -1.1625 -0.7366
 4621SOL     OW14761   6.703   6.719   5.118 -0.3842 -0.6907 -0.0408
 4621SOL    HW114762   6.652   6.760   5.193  0.5874 -0.1722  0.3586
 4621SOL    HW214763   6.714   6.785   5.044 -0.7002 -0.9588 -0.3319
 4622SOL     OW14764   1.839   3.313   4.523  0.5268  0.1807  0.2991
 4622SOL    HW114765   1.925   3.328   4.475  0.1410  2.0177  0.0809
 4622SOL    HW214766   1.763   3.319   4.458  0.1213  0.5731  0.7969
 4623SOL     OW14767   6.416   3.502   5.065 -0.3711 -0.6475 -0.0759
 4623SOL    HW114768   6.459   3.560   5.134 -1.3003  0.9874 -0.8148
 4623SOL    HW214769   6.320   3.486   5.090 -0.6190 -0.3229 -0.8012
 4624SOL     OW14770   6.665   3.639   5.473 -0.2090 -0.1766  0.0546
 4624SOL    HW114771   6.612   3.679   5.398  0.3714 -1.4321 -1.0659
 4624SOL    HW214772   6.755   3.682   5.476 -0.2138 -0.1612 -0.0066
 4625SOL     OW14773   6.136   1.999   1.702 -0.1253  0.2421  0.6968
 4625SOL    HW114774   6.151   2.098   1.705  2.8530 -0.1123  0.2595
 4625SOL    HW214775   6.167   1.958   1.788 -1.7026 -0.3096  1.0291
 4626SOL     OW14776   5.364   3.529   2.648 -0.1448 -0.0402  0.2407
 4626SOL    HW114777   5.457   3.536   2.612 -0.4739 -0.7835 -0.7714
 4626SOL    HW214778   5.300   3.573   2.585 -0.5471  0.0271  0.6866
 4627SOL     OW14779   1.165   1.578   0.664  0.0766  0.6419 -0.3645
 4627SOL    HW114780   1.227   1.586   0.586 -0.2481  0.3093 -0.6639
 4627SOL    HW214781   1.113   1.662   0.673 -0.7151  0.2693 -1.2367
 4628SOL     OW14782   5.291   2.145   2.416  0.1990  0.0126 -0.6983
 4628SOL    HW114783   5.329   2.147   2.324  0.4695 -0.8481 -0.6184
 4628SOL    HW214784   5.316   2.058   2.460  1.4580  1.0715  0.7712
 4629SOL     OW14785   6.559   1.824   5.283  0.0536  0.4076 -0.0420
 4629SOL    HW114786   6.488   1.838   5.351 -2.3143 -0.6973 -2.1139
 4629SOL    HW214787   6.562   1.728   5.257  1.4643  0.6524 -0.8906
 4630SOL     OW14788   3.283   3.587   5.660  0.2065 -0.2830  0.6730
 4630SOL    HW114789   3.236   3.544   5.737 -0.9986 -1.5146 -0.6677
 4630SOL    HW214790   3.225   3.660   5.623  0.8788  0.4530  1.0575
 4631SOL     OW14791   1.586   1.886   4.558 -0.0721 -0.0068  0.2590
 4631SOL    HW114792   1.533   1.877   4.474  0.3261  0.8276 -0.0981
 4631SOL    HW214793   1.683   1.877   4.537  0.1050  1.2326  0.4391
 4632SOL     OW14794   1.319   0.333   4.959  0.2198  0.0939 -0.6307
 4632SOL    HW114795   1.222   0.346   4.939  0.2080 -1.3517 -1.6469
 4632SOL    HW214796   1.329   0.272   5.037  0.3099 -0.5635 -1.1523
 4633SOL     OW14797   5.808   0.993   1.420 -0.2266 -0.4963 -0.3332
 4633SOL    HW114798   5.804   0.945   1.333 -0.4151 -1.8513  0.3945
 4633SOL    HW214799   5.902   0.991   1.455 -0.4778 -1.5745  0.3403
 4634SOL     OW14800   3.719   6.410   0.068  0.8510  0.2094 -0.1271
 4634SOL    HW114801   3.745   6.449   0.156 -1.3778  1.3815  0.0878
 4634SOL    HW214802   3.787   6.434  -0.001  3.3002 -1.7830  1.4390
 4635SOL     OW14803   6.615   3.828   4.854 -0.1774  0.2059  0.3757
 4635SOL    HW114804   6.522   3.793   4.870  0.2239 -0.1039  2.1319
 4635SOL    HW214805   6.614   3.928   4.857 -0.4471  0.2028  0.4263
 4636SOL     OW14806   0.367   2.043   0.619 -0.5511 -0.3702  0.4894
 4636SOL    HW114807   0.464   2.032   0.600 -0.7070  0.6059 -0.9962
 4636SOL    HW214808   0.342   2.140   0.615 -1.4668 -0.5347  1.5472
 4637SOL     OW14809   4.071   0.681   6.321  0.4568 -0.0792  0.0442
 4637SOL    HW114810   4.029   0.772   6.324 -0.2661 -0.4059 -0.0008
 4637SOL    HW214811   4.002   0.611   6.341  0.5536 -0.7599 -1.7572
 4638SOL     OW14812   5.786   6.936   3.410 -0.3877  0.5366  0.5455
 4638SOL    HW114813   5.699   6.983   3.424 -0.2795  0.9787 -0.2128
 4638SOL    HW214814   5.858   7.004   3.394  0.2254  0.2102  1.7345
 4639SOL     OW14815   6.619   3.026   5.323  0.1599  0.2132  0.1175
 4639SOL    HW114816   6.709   3.065   5.308  0.6674 -1.0873 -0.3370
 4639SOL    HW214817   6.576   3.005   5.235 -0.4496  0.4934  0.3362
 4640SOL     OW14818   4.224   3.870   5.266  0.9575  0.2033 -0.5708
 4640SOL    HW114819   4.143   3.922   5.289  0.8394 -0.8539  1.6510
 4640SOL    HW214820   4.305   3.913   5.307  0.9029 -1.0826  0.9844
 4641SOL     OW14821   5.782   4.431   5.373 -0.5352 -0.1444 -0.1359
 4641SOL    HW114822   5.763   4.525   5.344  0.9801  0.3633  0.3786
 4641SOL    HW214823   5.735   4.412   5.459 -1.5873 -0.1827 -0.7097
 4642SOL     OW14824   3.144   1.245   0.547 -0.3329 -0.2122  0.2000
 4642SOL    HW114825   3.113   1.315   0.612 -0.3782 -1.2718  1.3538
 4642SOL    HW214826   3.198   1.176   0.595  1.9460  0.3550 -1.3644
 4643SOL     OW14827   0.195   2.879   2.999  0.4100  0.1878  0.3970
 4643SOL    HW114828   0.256   2.919   2.930 -0.4241 -1.0209 -1.1126
 4643SOL    HW214829   0.181   2.782   2.979 -1.7774  0.3619  0.8396
 4644SOL     OW14830   0.375   3.111   6.798 -0.2372  0.2006  0.1670
 4644SOL    HW114831   0.420   3.024   6.777 -0.2172 -0.5497  2.9052
 4644SOL    HW214832   0.421   3.154   6.876 -2.1968  1.0691  0.9111
 4645SOL     OW14833   1.988   2.044   2.691  0.3097 -0.0234 -0.2963
 4645SOL    HW114834   2.083   2.016   2.682  0.2655 -1.8643  3.1271
 4645SOL    HW214835   1.982   2.139   2.720  1.0155  0.3338 -1.2790
 4646SOL     OW14836   1.742   1.034   6.365  0.1749  0.1000  0.0418
 4646SOL    HW114837   1.802   1.113   6.364  3.4258 -2.0288  2.8523
 4646SOL    HW214838   1.719   1.011   6.459  1.9719 -3.9412 -0.2995
 4647SOL     OW14839   5.779   5.951   3.842 -0.0269 -0.0427  0.4028
 4647SOL    HW114840   5.735   5.886   3.781  0.5948  1.3160 -1.6077
 4647SOL    HW214841   5.867   5.913   3.873  0.4257 -0.1140 -0.9049
 4648SOL     OW14842   2.550   6.611   5.520  0.3652 -0.4588 -0.4553
 4648SOL    HW114843   2.563   6.519   5.482 -1.2902 -0.4970 -0.9949
 4648SOL    HW214844   2.507   6.604   5.610  1.5992 -0.2439  0.1773
 4649SOL     OW14845   4.567   2.102   0.359  0.3173 -0.0063  0.3678
 4649SOL    HW114846   4.616   2.060   0.282 -1.1698  0.6032 -0.9573
 4649SOL    HW214847   4.527   2.030   0.416 -3.4084 -0.5943 -2.6650
 4650SOL     OW14848   0.406   4.311   3.288 -0.2356 -0.4566  0.3445
 4650SOL    HW114849   0.396   4.344   3.194 -3.0690 -2.5084 -0.1668
 4650SOL    HW214850   0.374   4.382   3.351  0.6948  0.5319 -0.2515
 4651SOL     OW14851   3.991   5.241   1.934  0.0722 -0.3690  0.1273
 4651SOL    HW114852   4.081   5.281   1.921  0.0553 -0.3488  0.0726
 4651SOL    HW214853   3.976   5.223   2.032 -0.8955  2.0757  0.4984
 4652SOL     OW14854   2.087   6.189   6.955 -0.0173  0.4216 -0.0004
 4652SOL    HW114855   2.119   6.180   6.860 -0.6514 -1.0355 -0.1051
 4652SOL    HW214856   1.994   6.153   6.962  0.4650 -0.6458  1.4088
 4653SOL     OW14857   6.294   1.542   5.576  0.4329 -0.2099  0.1604
 4653SOL    HW114858   6.198   1.526   5.600  0.0554  3.1845  1.4188
 4653SOL    HW214859   6.353   1.511   5.651  0.5258 -3.1873 -1.0047
 4654SOL     OW14860   0.579   4.120   3.148 -0.6527  0.2776 -0.3457
 4654SOL    HW114861   0.613   4.029   3.171  0.7898  0.4131 -1.7791
 4654SOL    HW214862   0.493   4.137   3.197  0.2302 -0.9197  1.7583
 4655SOL     OW14863   4.123   3.399   3.741  0.1753  0.2396 -0.1738
 4655SOL    HW114864   4.156   3.356   3.825 -2.3046  0.0569  0.7903
 4655SOL    HW214865   4.110   3.329   3.670  0.2521  0.0595 -0.0104
 4656SOL     OW14866   6.367   1.254   4.239 -0.8946  0.2427 -0.1641
 4656SOL    HW114867   6.276   1.233   4.275 -1.2630  1.6613 -0.2260
 4656SOL    HW214868   6.428   1.277   4.315 -1.1858  1.4544 -0.2887
 4657SOL     OW14869   0.610   4.748   5.877 -0.1262  0.2332 -0.2533
 4657SOL    HW114870   0.541   4.817   5.900 -1.3584 -0.8921 -0.4462
 4657SOL    HW214871   0.580   4.659   5.911  1.5140 -0.1972  0.1342
 4658SOL     OW14872   4.577   4.000   0.039 -0.1714 -0.9161 -0.2100
 4658SOL    HW114873   4.635   3.951  -0.027 -1.2348 -1.5626 -0.6967
 4658SOL    HW214874   4.502   3.940   0.067 -0.3800 -0.2365  0.7280
 4659SOL     OW14875   6.173   3.831   3.256  0.3358 -0.3910 -0.7800
 4659SOL    HW114876   6.106   3.768   3.216 -0.3465 -0.5104  0.4965
 4659SOL    HW214877   6.204   3.895   3.186 -2.1887  0.5957 -1.1137
 4660SOL     OW14878   3.732   2.360   6.906  0.0895 -0.3413  0.7105
 4660SOL    HW114879   3.779   2.386   6.822 -0.2392  0.6405  0.8141
 4660SOL    HW214880   3.755   2.425   6.978  0.0854 -0.9705  1.2783
 4661SOL     OW14881   2.957   1.800   1.856 -0.2484 -0.2235 -0.1086
 4661SOL    HW114882   3.042   1.786   1.906  0.8053 -0.7433 -1.9410
 4661SOL    HW214883   2.921   1.892   1.876 -0.1750 -0.5869  1.9254
 4662SOL     OW14884   5.763   6.607   0.391 -0.8041 -0.5076  0.0999
 4662SOL    HW114885   5.710   6.558   0.322  0.4772 -0.0194 -1.3004
 4662SOL    HW214886   5.832   6.545   0.429 -1.3633 -0.7118  0.7946
 4663SOL     OW14887   3.692   6.520   4.185 -0.1640  0.4861  0.3243
 4663SOL    HW114888   3.768   6.466   4.150 -0.1856  1.9472 -2.2093
 4663SOL    HW214889   3.615   6.461   4.207  0.0843 -0.5874 -1.5762
 4664SOL     OW14890   4.121   5.528   5.523 -0.0297  0.3262 -0.2627
 4664SOL    HW114891   4.137   5.626   5.523 -0.1853  0.3597  0.3925
 4664SOL    HW214892   4.184   5.483   5.460  1.2574  0.6619  0.7559
 4665SOL     OW14893   3.976   1.382   6.225  0.6744 -0.5342  0.7650
 4665SOL    HW114894   3.898   1.323   6.249 -0.1857  0.8786  1.5787
 4665SOL    HW214895   4.016   1.350   6.139 -1.3204 -0.8297 -0.1213
 4666SOL     OW14896   1.720   0.394   0.204 -0.5941  0.0158 -0.1171
 4666SOL    HW114897   1.786   0.413   0.131 -1.6514 -0.6872 -1.2746
 4666SOL    HW214898   1.641   0.454   0.195 -2.1113 -2.0463 -1.3992
 4667SOL     OW14899   4.985   4.641   4.929 -1.0681 -0.4771  0.0212
 4667SOL    HW114900   5.010   4.691   5.012 -0.1360  1.6317 -1.4305
 4667SOL    HW214901   4.941   4.704   4.865  1.5069 -1.0582 -2.5141
 4668SOL     OW14902   0.295   5.912   0.323 -0.6572  0.2031 -0.5094
 4668SOL    HW114903   0.290   5.822   0.280  1.6285 -0.8308  1.1572
 4668SOL    HW214904   0.204   5.954   0.324 -1.2084 -0.6271 -4.1853
 4669SOL     OW14905   6.049   0.638   2.692 -0.0797 -0.6287  0.2720
 4669SOL    HW114906   6.127   0.575   2.691  0.7002  0.3216 -0.1686
 4669SOL    HW214907   6.077   0.724   2.734 -0.8889 -0.2649  0.0690
 4670SOL     OW14908   0.302   3.181   5.863  0.5904  0.2673  0.8594
 4670SOL    HW114909   0.382   3.155   5.917  1.2329  0.0710 -0.1470
 4670SOL    HW214910   0.222   3.132   5.895  0.9260  0.2782  1.7236
 4671SOL     OW14911   0.746   5.980   6.898  0.1130 -0.0020 -0.0954
 4671SOL    HW114912   0.752   6.030   6.811 -1.6657  2.1765  0.9372
 4671SOL    HW214913   0.809   6.019   6.964 -0.2837 -0.0379  0.3128
 4672SOL     OW14914   5.799   4.594   6.869 -0.0921 -0.3549 -0.6709
 4672SOL    HW114915   5.747   4.632   6.945  0.1675 -0.5318 -0.4008
 4672SOL    HW214916   5.853   4.666   6.825  1.5397 -0.6450  0.7623
 4673SOL     OW14917   0.418   3.093   5.613  0.6808 -0.3469 -0.4862
 4673SOL    HW114918   0.436   3.149   5.694 -0.3899  2.6745 -2.1956
 4673SOL    HW214919   0.322   3.066   5.612  0.4883  0.3177 -1.0966
 4674SOL     OW14920   2.297   6.313   1.845  0.0979 -0.0100  0.2892
 4674SOL    HW114921   2.344   6.372   1.911  0.3315  0.1576 -0.0229
 4674SOL    HW214922   2.313   6.218   1.870  2.0088 -0.0076 -0.7276
 4675SOL     OW14923   1.937   6.108   1.522 -0.0942  0.7297  0.0113
 4675SOL    HW114924   2.021   6.137   1.568 -0.7296  1.1040  0.9711
 4675SOL    HW214925   1.868   6.180   1.531 -0.6227  0.2934 -0.4999
 4676SOL     OW14926   6.807   0.806   6.757  0.4612 -0.0550  0.3999
 4676SOL    HW114927   6.865   0.800   6.838 -0.0167 -1.1946  0.6816
 4676SOL    HW214928   6.857   0.773   6.677  1.3427  2.1815 -0.0352
 4677SOL     OW14929   5.893   3.121   3.983 -0.1029  0.3118 -0.3868
 4677SOL    HW114930   5.942   3.037   3.960 -0.5089 -0.3969  1.2285
 4677SOL    HW214931   5.828   3.103   4.057  0.6960  2.3024  0.8964
 4678SOL     OW14932   0.024   2.218   4.106  0.3226  0.5528 -1.1514
 4678SOL    HW114933   0.096   2.281   4.137 -0.8860  1.5042 -0.1415
 4678SOL    HW214934   0.022   2.215   4.006  1.6882  0.5743 -1.1947
 4679SOL     OW14935   0.394   3.331   3.440  0.3623 -0.2772 -0.4167
 4679SOL    HW114936   0.300   3.355   3.462  0.4493 -1.6882  1.7313
 4679SOL    HW214937   0.449   3.414   3.432 -0.2955  0.4756  2.1021
 4680SOL     OW14938   1.488   6.388   4.449 -0.2767  0.4926  0.0867
 4680SOL    HW114939   1.574   6.437   4.437  0.1490 -0.3065 -0.1278
 4680SOL    HW214940   1.417   6.433   4.395  0.2383  0.5438 -0.5632
 4681SOL     OW14941   6.090   0.262   3.580 -0.3295  0.2283  0.0474
 4681SOL    HW114942   6.028   0.183   3.586  0.0502 -0.0323  0.7057
 4681SOL    HW214943   6.135   0.263   3.491 -1.2538  0.4089 -0.4356
 4682SOL     OW14944   5.808   4.189   0.847  0.2900 -0.4668  0.7513
 4682SOL    HW114945   5.812   4.247   0.928  0.9637  0.5835 -0.0178
 4682SOL    HW214946   5.900   4.155   0.825 -0.0531 -1.6440  1.0453
 4683SOL     OW14947   0.146   4.493   0.018  0.4669  0.4892  0.4359
 4683SOL    HW114948   0.124   4.525   0.110 -0.3605  1.0792  0.0386
 4683SOL    HW214949   0.147   4.570  -0.045 -1.4764 -0.2112 -0.5237
 4684SOL     OW14950   4.440   0.600   4.711 -0.0431 -0.3092  0.0732
 4684SOL    HW114951   4.395   0.677   4.755 -2.0177 -1.4005  0.0454
 4684SOL    HW214952   4.467   0.533   4.780 -3.0424 -1.9696 -0.2176
 4685SOL     OW14953   0.054   2.480   3.383 -0.0575 -0.5415  0.5689
 4685SOL    HW114954   0.059   2.562   3.326 -1.0376 -1.5935 -1.1061
 4685SOL    HW214955  -0.034   2.479   3.431 -0.9186 -1.5278 -0.9486
 4686SOL     OW14956   4.379   6.760   4.004 -0.0028 -0.4051  0.0977
 4686SOL    HW114957   4.372   6.817   3.922 -1.2126 -1.2945 -0.4559
 4686SOL    HW214958   4.336   6.807   4.081  0.3773  0.0733  0.0224
 4687SOL     OW14959   6.624   6.201   4.719 -0.2907 -0.2036  0.0800
 4687SOL    HW114960   6.543   6.160   4.678 -0.9634  0.4302  0.7507
 4687SOL    HW214961   6.628   6.298   4.694  0.4081 -0.2840 -0.1559
 4688SOL     OW14962   6.628   3.833   1.894 -0.3013 -0.2567 -0.4398
 4688SOL    HW114963   6.633   3.733   1.885 -1.5302 -0.5747  1.7547
 4688SOL    HW214964   6.539   3.859   1.932  0.2712  1.6132 -0.2782
 4689SOL     OW14965   6.643   2.337   2.072  0.1288  0.2159 -0.0283
 4689SOL    HW114966   6.588   2.421   2.060 -0.6925 -0.0142  1.8207
 4689SOL    HW214967   6.704   2.348   2.150  0.9821 -0.4349 -0.5950
 4690SOL     OW14968   1.610   1.766   1.879  0.0833 -0.2405  0.1230
 4690SOL    HW114969   1.657   1.693   1.829 -2.4825 -1.1860 -1.0619
 4690SOL    HW214970   1.580   1.732   1.968 -0.9255 -0.6029 -0.3425
 4691SOL     OW14971   5.418   3.666   1.915  0.4336 -0.7751  0.1011
 4691SOL    HW114972   5.433   3.739   1.848 -0.0784 -0.7265  0.0377
 4691SOL    HW214973   5.438   3.701   2.007  0.8376 -0.7532  0.0087
 4692SOL     OW14974   5.409   3.701   5.230 -0.3013 -1.0315  0.1844
 4692SOL    HW114975   5.472   3.624   5.240 -2.9873 -3.3989  0.2390
 4692SOL    HW214976   5.421   3.743   5.140  2.0836 -0.6191  0.6502
 4693SOL     OW14977   2.618   6.722   3.041  0.9973 -0.0503  0.2984
 4693SOL    HW114978   2.572   6.808   3.064  1.7608  0.3925  0.1950
 4693SOL    HW214979   2.627   6.666   3.123  0.9285  0.1760  0.4595
 4694SOL     OW14980   1.304   6.775   6.695  0.3824  0.6385 -0.6301
 4694SOL    HW114981   1.274   6.716   6.620  0.1292  1.5065 -1.2143
 4694SOL    HW214982   1.403   6.766   6.706  0.3316  0.0016 -0.6143
 4695SOL     OW14983   1.780   4.763   4.185 -0.3825  0.5042  0.2984
 4695SOL    HW114984   1.696   4.721   4.218 -0.4348  1.5312  1.5514
 4695SOL    HW214985   1.799   4.846   4.237  0.4206  1.3189 -1.2120
 4696SOL     OW14986   0.205   3.528   3.679  0.6729  0.0949 -0.4369
 4696SOL    HW114987   0.145   3.514   3.600 -0.0930  0.7233  0.0270
 4696SOL    HW214988   0.226   3.439   3.720 -0.0404 -0.1261 -0.5343
 4697SOL     OW14989   0.355   4.117   5.979 -0.2405 -0.2664 -0.1275
 4697SOL    HW114990   0.453   4.134   5.990  0.2272 -0.8123 -2.8343
 4697SOL    HW214991   0.325   4.054   6.051  1.3219  0.0944  0.9030
 4698SOL     OW14992   1.140   1.545   3.447 -0.6712  0.2198  0.3594
 4698SOL    HW114993   1.126   1.507   3.539  1.6989  0.0178  0.6899
 4698SOL    HW214994   1.116   1.642   3.448 -1.1681  0.1077  1.0379
 4699SOL     OW14995   2.870   1.392   1.456  0.1531 -0.4808  0.1056
 4699SOL    HW114996   2.959   1.438   1.458  0.3924 -0.9046 -0.5882
 4699SOL    HW214997   2.818   1.417   1.538  0.2522  1.0559 -0.2795
 4700SOL     OW14998   5.720   0.022   0.029 -0.6668  0.6227 -0.2186
 4700SOL    HW114999   5.689  -0.018   0.115 -0.2210 -0.1165 -0.3890
 4700SOL    HW215000   5.658   0.096   0.002 -1.0979  0.5241  0.4755
 4701SOL     OW15001   1.875   3.759   3.213 -0.0370 -0.2546 -0.2301
 4701SOL    HW115002   1.857   3.688   3.282  2.2445 -0.1957  0.4846
 4701SOL    HW215003   1.911   3.716   3.130 -0.0177 -0.0606 -0.3218
 4702SOL     OW15004   0.570   3.462   2.995  0.1473  0.5214  0.6309
 4702SOL    HW115005   0.492   3.403   3.016 -0.2664  0.8973  0.1811
 4702SOL    HW215006   0.652   3.406   2.983 -0.0447  0.1260  1.1370
 4703SOL     OW15007   4.031   5.450   6.242  0.0802  0.0451 -0.5359
 4703SOL    HW115008   4.118   5.442   6.193  0.4157  0.4098 -0.0044
 4703SOL    HW215009   4.006   5.360   6.278  0.0869 -0.1204 -0.9282
 4704SOL     OW15010   0.107   3.487   5.493  0.1961 -0.2713 -0.4252
 4704SOL    HW115011   0.136   3.460   5.585  0.6400 -0.3751 -0.5908
 4704SOL    HW215012   0.176   3.456   5.426 -0.0191 -0.0134 -0.7691
 4705SOL     OW15013   1.121   0.138   6.908  0.2254 -0.6511  0.6850
 4705SOL    HW115014   1.129   0.235   6.885  0.2339 -0.4428  1.5569
 4705SOL    HW215015   1.115   0.084   6.823 -1.8861  0.2745  0.1858
 4706SOL     OW15016   5.232   0.651   6.177  0.3843 -0.2607 -0.0353
 4706SOL    HW115017   5.171   0.724   6.144 -0.1002 -0.9863 -0.7746
 4706SOL    HW215018   5.193   0.612   6.261  1.0833  0.8788  0.8647
 4707SOL     OW15019   1.608   0.449   4.165 -0.1072 -0.1445  0.3252
 4707SOL    HW115020   1.652   0.462   4.253  0.2866 -1.1711  0.2861
 4707SOL    HW215021   1.522   0.400   4.177 -0.4064  0.3385  0.2085
 4708SOL     OW15022   5.292   6.000   2.611 -0.4103  0.0341  0.4821
 4708SOL    HW115023   5.345   6.007   2.526  2.1185 -0.4207  1.9220
 4708SOL    HW215024   5.260   5.906   2.622 -0.5086  0.0285  0.1686
 4709SOL     OW15025   3.759   0.909   3.013  0.3820 -0.9763 -0.0169
 4709SOL    HW115026   3.748   1.007   2.995  0.1759 -1.0633 -0.3631
 4709SOL    HW215027   3.777   0.895   3.111  0.4718 -0.5897  0.0229
 4710SOL     OW15028   5.738   1.535   2.867  0.2085 -0.0307  0.7597
 4710SOL    HW115029   5.700   1.593   2.939  0.5569  0.1505  0.8026
 4710SOL    HW215030   5.744   1.587   2.782  1.1660  0.2218  0.9695
 4711SOL     OW15031   1.517   3.571   0.877  0.0594  0.0485 -0.3572
 4711SOL    HW115032   1.573   3.598   0.798 -0.9040  0.9730 -0.7304
 4711SOL    HW215033   1.571   3.581   0.961  0.8574 -0.2747 -0.8158
 4712SOL     OW15034   1.103   1.277   0.937  0.7029 -0.4210 -0.3468
 4712SOL    HW115035   1.154   1.247   1.018 -1.2858 -1.9730  0.4248
 4712SOL    HW215036   1.067   1.369   0.953  0.5042 -0.6316  0.4630
 4713SOL     OW15037   2.873   5.946   4.882 -0.2509  0.0188 -0.3159
 4713SOL    HW115038   2.835   6.025   4.931 -0.3263 -0.2481  0.0503
 4713SOL    HW215039   2.841   5.948   4.787  0.1814  0.7307 -0.4560
 4714SOL     OW15040   5.746   6.089   4.886  0.2199 -0.1829  0.0992
 4714SOL    HW115041   5.845   6.102   4.881  0.7705 -2.7406  2.2689
 4714SOL    HW215042   5.709   6.144   4.961  0.0978  0.2851 -0.3031
 4715SOL     OW15043   5.503   0.569   2.705  0.1173  0.0762  0.2353
 4715SOL    HW115044   5.466   0.661   2.689  0.4736  0.1510 -0.1756
 4715SOL    HW215045   5.602   0.573   2.708  0.1786 -0.4202 -0.6812
 4716SOL     OW15046   1.865   0.884   4.045  0.2254 -0.5311 -0.2500
 4716SOL    HW115047   1.964   0.894   4.046  0.4131 -2.1547 -0.2081
 4716SOL    HW215048   1.832   0.882   3.951  0.1971  0.2428 -0.2606
 4717SOL     OW15049   3.901   0.171   0.776  0.3514  0.1060  0.1888
 4717SOL    HW115050   3.894   0.094   0.713  2.0109 -0.7779  1.0256
 4717SOL    HW215051   3.997   0.189   0.797  0.0313  2.4559 -0.0099
 4718SOL     OW15052   4.155   6.515   6.638  0.0889 -0.1924 -0.3312
 4718SOL    HW115053   4.063   6.482   6.620  0.5329 -0.4528 -2.3817
 4718SOL    HW215054   4.221   6.452   6.598  1.0636  1.4794 -1.4741
 4719SOL     OW15055   6.910   4.612   6.229 -0.1054  0.1789 -0.6441
 4719SOL    HW115056   6.990   4.554   6.217  0.5765  0.9923 -0.1841
 4719SOL    HW215057   6.827   4.557   6.221  0.5258 -1.3180  1.8961
 4720SOL     OW15058   2.256   4.844   5.535  0.4493  0.0309  0.0512
 4720SOL    HW115059   2.314   4.805   5.463 -0.4814 -0.5755 -0.4016
 4720SOL    HW215060   2.266   4.943   5.536  3.4196 -0.1842  1.6954
 4721SOL     OW15061   2.042   6.064   2.503  0.2722  0.1474  0.1262
 4721SOL    HW115062   1.956   6.033   2.464 -0.4864  0.8026  1.2143
 4721SOL    HW215063   2.112   5.994   2.489 -1.1043 -1.6567  1.5865
 4722SOL     OW15064   3.049   1.504   5.898  0.6025  0.9367  0.0232
 4722SOL    HW115065   3.042   1.602   5.881  1.0629  0.7975 -1.0207
 4722SOL    HW215066   3.142   1.473   5.880  0.5058  0.3322  0.5213
 4723SOL     OW15067   4.641   5.973   1.027 -0.4267 -0.4998 -0.4361
 4723SOL    HW115068   4.705   5.954   1.101 -2.5306  0.2391  1.6808
 4723SOL    HW215069   4.605   5.886   0.991  0.4571 -0.8617 -0.4571
 4724SOL     OW15070   1.637   1.863   5.529  0.2141  0.5853 -0.2288
 4724SOL    HW115071   1.597   1.833   5.442 -0.7284 -0.2254  0.4595
 4724SOL    HW215072   1.734   1.881   5.517  0.0625  0.6417 -1.4859
 4725SOL     OW15073   6.498   2.384   4.272 -0.0923  0.3695  0.7177
 4725SOL    HW115074   6.585   2.354   4.310 -0.4132 -0.1530  1.0592
 4725SOL    HW215075   6.487   2.482   4.285  0.6053  0.5012  0.3406
 4726SOL     OW15076   5.697   5.762   3.658 -0.4113 -0.4234 -0.4113
 4726SOL    HW115077   5.621   5.751   3.594 -0.4499 -0.8844 -0.2878
 4726SOL    HW215078   5.715   5.675   3.704 -1.5473  0.3111  1.5250
 4727SOL     OW15079   1.639   6.409   2.176 -0.9695  0.4188 -0.0094
 4727SOL    HW115080   1.728   6.369   2.199  0.4055  2.4728 -1.4417
 4727SOL    HW215081   1.574   6.336   2.154  1.3085 -1.0764 -2.2387
 4728SOL     OW15082   5.515   1.619   3.069  0.1748 -0.2830 -0.2791
 4728SOL    HW115083   5.439   1.564   3.035 -1.8831  2.8553 -1.2763
 4728SOL    HW215084   5.479   1.700   3.115  2.9361  1.0577 -0.2731
 4729SOL     OW15085   2.679   2.130   2.332  0.4075  0.0919 -0.0540
 4729SOL    HW115086   2.737   2.062   2.287 -0.5335 -0.2518 -0.7953
 4729SOL    HW215087   2.612   2.084   2.390 -0.8227  0.2836 -1.2583
 4730SOL     OW15088   5.763   1.700   4.616 -0.1621  0.7340 -0.0086
 4730SOL    HW115089   5.825   1.777   4.630  1.5593 -0.6742  0.4624
 4730SOL    HW215090   5.768   1.669   4.521  0.5748  0.0472  0.2460
 4731SOL     OW15091   3.160   3.730   0.731 -0.1519  0.0874  0.2657
 4731SOL    HW115092   3.173   3.667   0.655 -1.5011  1.1438 -0.8826
 4731SOL    HW215093   3.250   3.754   0.769  0.5610 -0.4434 -1.0058
 4732SOL     OW15094   2.153   2.288   5.690 -0.1749 -0.0803 -0.0268
 4732SOL    HW115095   2.141   2.327   5.781 -1.7328  1.2181 -0.7386
 4732SOL    HW215096   2.182   2.193   5.698 -0.0647  0.0783  1.8079
 4733SOL     OW15097   4.489   4.934   4.114  0.4530 -0.0670  0.4424
 4733SOL    HW115098   4.508   5.029   4.139  1.3703  0.5541 -2.3564
 4733SOL    HW215099   4.555   4.903   4.046 -0.8552 -2.1685  0.0470
 4734SOL     OW15100   6.442   6.327   4.324 -0.1236 -0.0215 -0.3270
 4734SOL    HW115101   6.430   6.411   4.270 -0.3967 -0.8005 -1.5129
 4734SOL    HW215102   6.519   6.275   4.287  0.8061  0.2547  1.1522
 4735SOL     OW15103   0.567   4.442   1.070  0.4932 -0.2162  0.0711
 4735SOL    HW115104   0.480   4.394   1.075  0.1341  0.4124 -0.1123
 4735SOL    HW215105   0.633   4.384   1.021  0.2373 -0.7668  0.3668
 4736SOL     OW15106   2.879   6.826   5.739 -0.2666 -0.5952 -0.1009
 4736SOL    HW115107   2.854   6.740   5.695 -0.1975 -0.6484 -0.0371
 4736SOL    HW215108   2.970   6.853   5.710 -1.3385  0.9351 -2.3675
 4737SOL     OW15109   2.694   1.699   6.556  0.0844 -0.2773  0.2122
 4737SOL    HW115110   2.691   1.629   6.485  0.3610  1.2160 -1.3295
 4737SOL    HW215111   2.654   1.663   6.640 -0.9677 -1.8391 -0.9106
 4738SOL     OW15112   0.461   1.741   3.308  0.5496 -0.3583  0.7349
 4738SOL    HW115113   0.388   1.798   3.271  0.4383  0.0490  1.5484
 4738SOL    HW215114   0.519   1.797   3.368  0.3658 -1.1120  1.6414
 4739SOL     OW15115   3.371   3.653   1.131 -0.1387  0.1701 -0.0900
 4739SOL    HW115116   3.429   3.640   1.212 -1.1126  0.8452  0.7351
 4739SOL    HW215117   3.322   3.568   1.111  0.2317 -0.0490 -0.0900
 4740SOL     OW15118   4.987   4.169   5.276  0.0067 -0.2067  0.1728
 4740SOL    HW115119   5.053   4.243   5.262 -0.5229  0.2495  0.0793
 4740SOL    HW215120   4.948   4.175   5.367  0.3019 -0.6501  0.3314
 4741SOL     OW15121   6.927   4.257   6.778 -0.0670 -0.0663  0.4471
 4741SOL    HW115122   6.944   4.179   6.718  0.3741 -0.3509  0.9343
 4741SOL    HW215123   6.993   4.329   6.757  0.7297 -0.5413  1.2299
 4742SOL     OW15124   3.758   1.964   2.901 -0.1235 -0.1230  0.1180
 4742SOL    HW115125   3.694   2.002   2.969  0.8695  2.0970 -0.1096
 4742SOL    HW215126   3.713   1.961   2.812 -0.4986 -0.2831  0.3105
 4743SOL     OW15127   1.936   3.484   1.953 -0.4420  0.2476 -0.0017
 4743SOL    HW115128   1.919   3.505   2.049 -0.0457  1.3151 -0.1434
 4743SOL    HW215129   2.034   3.468   1.939 -0.3241  1.2508 -0.4133
 4744SOL     OW15130   6.757   3.931   2.624 -0.3283 -0.5049  0.3597
 4744SOL    HW115131   6.732   4.025   2.604 -1.2309 -1.1630 -1.9354
 4744SOL    HW215132   6.738   3.910   2.719 -2.8300  0.8188  0.2164
 4745SOL     OW15133   1.865   4.100   5.546  0.1549  0.6419 -1.2733
 4745SOL    HW115134   1.926   4.050   5.606 -1.4253  0.7418  0.5317
 4745SOL    HW215135   1.918   4.156   5.483  1.9018 -0.8842 -1.2475
 4746SOL     OW15136   1.036   2.893   2.916 -0.1423  0.4381  0.2279
 4746SOL    HW115137   0.989   2.880   3.003  1.9027 -0.2679  1.2932
 4746SOL    HW215138   1.007   2.980   2.875  2.3770  3.3860  4.0219
 4747SOL     OW15139   3.680   2.865   0.705 -0.1292  0.2349  0.1039
 4747SOL    HW115140   3.707   2.864   0.802  0.8976 -0.3539 -0.1646
 4747SOL    HW215141   3.581   2.866   0.698 -0.2217  0.0670  1.1695
 4748SOL     OW15142   1.498   4.542   6.334 -0.3842 -0.1539  0.3925
 4748SOL    HW115143   1.407   4.500   6.338 -0.5738  0.1780 -0.3019
 4748SOL    HW215144   1.561   4.481   6.287 -0.3181 -0.2610  0.6206
 4749SOL     OW15145   0.166   0.473   6.039  0.3144 -0.6507 -0.2210
 4749SOL    HW115146   0.127   0.429   5.958 -1.9549  1.5111 -0.4085
 4749SOL    HW215147   0.252   0.519   6.014  0.0542 -0.6883 -1.2189
 4750SOL     OW15148   1.877   0.039   1.248  0.3715 -0.2837  0.3343
 4750SOL    HW115149   1.918   0.044   1.157  0.4408 -0.6936  0.3388
 4750SOL    HW215150   1.856  -0.057   1.269 -0.5314 -0.0974  0.3510
 4751SOL     OW15151   4.708   1.303   0.766 -0.1554 -0.4490 -0.6377
 4751SOL    HW115152   4.761   1.331   0.846 -1.2762  0.3848 -0.1593
 4751SOL    HW215153   4.611   1.298   0.790 -0.5978  0.4285 -2.0963
 4752SOL     OW15154   4.272   6.997   5.372 -0.0678  0.5531 -0.5170
 4752SOL    HW115155   4.239   6.943   5.450 -0.8313  1.0721 -0.4670
 4752SOL    HW215156   4.334   6.942   5.317 -0.4098 -0.1988 -0.1684
 4753SOL     OW15157   5.209   1.902   5.680  0.1412 -0.2779 -0.2486
 4753SOL    HW115158   5.240   1.883   5.773  1.4925  1.2488 -0.3562
 4753SOL    HW215159   5.125   1.956   5.683  0.8347  0.8125  0.1288
 4754SOL     OW15160   3.123   2.841   6.993 -0.1930  0.0946 -0.1902
 4754SOL    HW115161   3.186   2.919   6.986 -0.6733  0.5836  0.7437
 4754SOL    HW215162   3.176   2.758   7.009  0.2545  0.4418  0.1905
 4755SOL     OW15163   4.265   6.710   3.739 -0.7990  0.2116  0.4820
 4755SOL    HW115164   4.306   6.620   3.752 -1.4894 -0.2191 -0.2680
 4755SOL    HW215165   4.166   6.701   3.731 -0.8615  1.0220  0.2193
 4756SOL     OW15166   2.936   5.774   5.059 -0.3854  0.1404  0.0337
 4756SOL    HW115167   2.860   5.769   5.123 -0.4813 -0.5515 -0.1323
 4756SOL    HW215168   2.909   5.829   4.980 -0.3044  0.9019  0.5239
 4757SOL     OW15169   6.625   2.132   0.478  0.5160  0.9165  0.1993
 4757SOL    HW115170   6.645   2.193   0.555  0.3763 -0.1588  1.1220
 4757SOL    HW215171   6.561   2.061   0.508  2.6119 -1.2212 -0.0750
 4758SOL     OW15172   6.249   4.000   5.008  0.0074 -0.0701  0.0965
 4758SOL    HW115173   6.285   3.910   4.982 -0.2728  0.0876 -0.8879
 4758SOL    HW215174   6.151   4.002   4.992  0.0356  0.4596 -0.0254
 4759SOL     OW15175   6.950   6.421   4.272  0.0036 -0.5236 -0.2199
 4759SOL    HW115176   6.989   6.334   4.305  0.0871  0.2709  1.9316
 4759SOL    HW215177   6.974   6.433   4.176  0.1483 -2.7819 -0.5349
 4760SOL     OW15178   3.176   6.141   3.472 -0.0930  0.2401 -0.3933
 4760SOL    HW115179   3.167   6.182   3.381  0.3561  1.5626  0.1245
 4760SOL    HW215180   3.168   6.042   3.465 -3.2151  0.4462 -1.5022
 4761SOL     OW15181   7.013   0.195   1.366 -0.6540  0.2834 -0.1382
 4761SOL    HW115182   6.927   0.163   1.405  0.3449 -0.7334  1.3399
 4761SOL    HW215183   7.007   0.293   1.348 -2.2989  0.1222 -0.6306
 4762SOL     OW15184   6.235   3.757   6.667  0.4427 -0.4611  0.1349
 4762SOL    HW115185   6.326   3.796   6.677 -0.6749  2.2698  0.6803
 4762SOL    HW215186   6.189   3.758   6.756 -0.9009  0.3806 -0.5465
 4763SOL     OW15187   1.366   1.034   4.152 -0.5871  0.0965 -0.0114
 4763SOL    HW115188   1.417   0.978   4.087  0.7085  0.5732  0.5739
 4763SOL    HW215189   1.269   1.009   4.148 -0.1159 -1.8737 -0.0769
 4764SOL     OW15190   2.059   5.322   5.959  0.0622  0.0478 -0.0673
 4764SOL    HW115191   2.046   5.391   6.030  1.1764 -0.6264  0.8311
 4764SOL    HW215192   2.118   5.359   5.887 -1.0312  0.7180 -0.6447
 4765SOL     OW15193   2.718   6.705   3.794  0.0917 -0.4645 -0.3004
 4765SOL    HW115194   2.641   6.664   3.843 -0.8183 -0.7703 -1.9085
 4765SOL    HW215195   2.769   6.634   3.746  1.3296 -0.2462  0.6368
 4766SOL     OW15196   1.130   6.246   0.559  0.2116 -0.6724  0.5526
 4766SOL    HW115197   1.089   6.199   0.636 -2.6276  2.0073  0.8576
 4766SOL    HW215198   1.207   6.302   0.590 -1.2967  0.8746  1.6512
 4767SOL     OW15199   1.699   4.576   2.519  0.7052 -0.0735 -0.0946
 4767SOL    HW115200   1.685   4.673   2.539  0.4146  0.2618 -1.7191
 4767SOL    HW215201   1.684   4.560   2.421  1.1250 -1.6954  0.0727
 4768SOL     OW15202   5.914   2.129   5.553  0.4414 -0.0195  0.6031
 4768SOL    HW115203   5.941   2.199   5.487  0.7080 -0.3666  0.3382
 4768SOL    HW215204   5.868   2.054   5.505  0.4331 -0.1655  0.8390
 4769SOL     OW15205   6.327   3.769   4.904  0.1993 -0.2562 -0.0378
 4769SOL    HW115206   6.358   3.689   4.955 -1.5051 -0.8621  0.1208
 4769SOL    HW215207   6.234   3.753   4.870 -0.0446  1.5095 -0.3236
 4770SOL     OW15208   0.044   3.281   1.506 -0.4736  0.3744 -0.2993
 4770SOL    HW115209   0.071   3.189   1.533  0.1850  0.8685  0.8109
 4770SOL    HW215210   0.016   3.281   1.410  0.0072 -0.8755 -0.4581
 4771SOL     OW15211   6.338   4.645   3.454 -0.2435  0.2319  0.1493
 4771SOL    HW115212   6.334   4.607   3.362 -1.7169  1.0451 -0.1717
 4771SOL    HW215213   6.339   4.571   3.521  2.0299 -0.3934 -0.5061
 4772SOL     OW15214   3.423   4.339   1.156 -0.3859  0.1251 -0.5015
 4772SOL    HW115215   3.324   4.351   1.148 -0.0973  2.0815 -2.1880
 4772SOL    HW215216   3.447   4.321   1.251 -2.3344 -0.2098 -0.0271
 4773SOL     OW15217   5.330   5.501   6.524 -0.2069  0.2438  0.0155
 4773SOL    HW115218   5.235   5.474   6.510  0.0466 -0.0863 -1.2354
 4773SOL    HW215219   5.343   5.595   6.492 -0.1391  0.3229  0.2768
 4774SOL     OW15220   1.460   3.184   5.666  0.3855  0.3177  0.1214
 4774SOL    HW115221   1.469   3.212   5.761 -0.2557 -0.7045  0.4901
 4774SOL    HW215222   1.457   3.085   5.660  1.6850  0.3113 -1.0859
 4775SOL     OW15223   3.481   4.463   6.746  0.2679 -0.1200 -0.0371
 4775SOL    HW115224   3.420   4.541   6.731  0.5573  1.0140  3.7754
 4775SOL    HW215225   3.576   4.495   6.746  0.3085  0.2325  4.0090
 4776SOL     OW15226   0.219   4.042   0.116 -0.2840  0.1622 -0.0208
 4776SOL    HW115227   0.313   4.041   0.082 -0.2332  0.1248  0.1202
 4776SOL    HW215228   0.195   3.951   0.152  0.3716  0.7201  1.9709
 4777SOL     OW15229   1.152   5.695   4.315  0.2910  0.2603 -0.3445
 4777SOL    HW115230   1.174   5.744   4.400  0.8938 -1.0501  0.2936
 4777SOL    HW215231   1.065   5.647   4.326 -0.5649  1.5731 -1.1553
 4778SOL     OW15232   3.386   5.057   4.197  0.2602 -0.0013 -0.1785
 4778SOL    HW115233   3.406   5.039   4.100 -0.1370 -3.2293  0.2540
 4778SOL    HW215234   3.452   5.010   4.254 -0.6840  0.2281  1.1507
 4779SOL     OW15235   2.685   4.386   0.395  0.0317  0.1776 -0.3860
 4779SOL    HW115236   2.646   4.423   0.479 -2.0233  1.0641 -1.6529
 4779SOL    HW215237   2.751   4.315   0.418  0.3389  1.1343  1.9802
 4780SOL     OW15238   0.977   5.516   6.600  0.4354  0.0395  0.0703
 4780SOL    HW115239   1.031   5.433   6.588 -0.1686 -0.2753 -0.4934
 4780SOL    HW215240   0.931   5.513   6.689  2.0614  0.7439  1.0021
 4781SOL     OW15241   5.806   1.552   0.654  0.5329  0.1934  0.1807
 4781SOL    HW115242   5.743   1.538   0.731  0.3961 -0.8028 -0.0969
 4781SOL    HW215243   5.899   1.531   0.683  0.6483  0.9513  0.3859
 4782SOL     OW15244   4.774   6.528   6.073 -0.0349 -1.0594 -0.1866
 4782SOL    HW115245   4.846   6.595   6.088 -0.8127 -0.3249  0.3457
 4782SOL    HW215246   4.719   6.555   5.994 -0.1068 -1.2907 -0.2176
 4783SOL     OW15247   6.929   5.608   3.056 -0.5516 -0.0288 -0.2286
 4783SOL    HW115248   7.005   5.543   3.056  1.3194  2.0232  0.2154
 4783SOL    HW215249   6.886   5.610   3.146  1.7551  1.8619  0.9198
 4784SOL     OW15250   5.409   2.305   5.782 -0.0032 -0.5849 -0.4858
 4784SOL    HW115251   5.494   2.273   5.739  0.2971 -0.0346 -0.3141
 4784SOL    HW215252   5.428   2.330   5.877 -0.1414  0.4399 -0.7142
 4785SOL     OW15253   4.780   6.424   0.399 -0.8845  0.4952 -0.8750
 4785SOL    HW115254   4.805   6.421   0.496 -1.7043  3.4727 -0.4835
 4785SOL    HW215255   4.729   6.342   0.375  0.1858 -0.7715  0.9286
 4786SOL     OW15256   2.802   5.729   5.737  0.3954  0.1289  0.4973
 4786SOL    HW115257   2.747   5.659   5.783 -0.4222  0.4333  0.0235
 4786SOL    HW215258   2.812   5.809   5.796 -0.0703  0.2502  0.4179
 4787SOL     OW15259   4.266   0.363   4.844  0.2883 -0.5050 -0.2240
 4787SOL    HW115260   4.202   0.431   4.880  1.2790 -0.2569  1.1701
 4787SOL    HW215261   4.238   0.336   4.752 -1.5673 -0.1053  0.1749
 4788SOL     OW15262   1.478   3.781   4.938 -0.3702 -0.2500 -0.3169
 4788SOL    HW115263   1.574   3.796   4.962 -0.8080  1.0552  0.7589
 4788SOL    HW215264   1.445   3.698   4.984  0.1103 -0.4292 -0.2930
 4789SOL     OW15265   5.353   6.921   0.931  0.4977 -0.0823 -0.5757
 4789SOL    HW115266   5.406   7.005   0.918  0.3623 -0.1239 -1.5199
 4789SOL    HW215267   5.262   6.933   0.891 -0.1728 -0.0524  0.9171
 4790SOL     OW15268   2.970   3.817   2.453  0.2006 -0.0680  0.3109
 4790SOL    HW115269   3.043   3.883   2.474 -1.0116  1.0916  1.0468
 4790SOL    HW215270   2.953   3.817   2.355 -0.3071  1.3285  0.3760
 4791SOL     OW15271   3.246   4.863   4.543 -0.1374  0.1854  0.0799
 4791SOL    HW115272   3.305   4.796   4.588  0.1886  1.4300  1.6026
 4791SOL    HW215273   3.193   4.912   4.613 -1.7769  0.2206 -1.1372
 4792SOL     OW15274   3.447   3.157   1.377 -0.0128 -0.2002 -0.5734
 4792SOL    HW115275   3.476   3.188   1.286 -0.0953  2.3854  0.2094
 4792SOL    HW215276   3.403   3.068   1.369  0.5619 -0.3363 -2.9716
 4793SOL     OW15277   5.578   1.846   1.553 -0.1398  0.4382 -0.2887
 4793SOL    HW115278   5.589   1.945   1.559  0.5905  0.3086  0.6631
 4793SOL    HW215279   5.524   1.823   1.472 -1.7119  1.7036  0.3717
 4794SOL     OW15280   3.836   6.457   4.801  0.5172  0.4473  0.3328
 4794SOL    HW115281   3.805   6.364   4.821 -1.3543  1.0994  0.7064
 4794SOL    HW215282   3.911   6.481   4.862  0.8409 -0.7070  0.4152
 4795SOL     OW15283   2.128   1.612   4.190 -0.3141 -0.6272 -0.0002
 4795SOL    HW115284   2.190   1.534   4.199 -1.6299 -1.7743 -0.4179
 4795SOL    HW215285   2.165   1.677   4.124  1.9946  0.3538  2.1397
 4796SOL     OW15286   4.521   4.873   6.743 -0.2182 -0.0708 -0.1498
 4796SOL    HW115287   4.616   4.904   6.751 -0.3624  0.5879 -0.8396
 4796SOL    HW215288   4.520   4.778   6.711  0.2140 -0.4113  0.8115
 4797SOL     OW15289   2.286   5.106   4.582  0.1714 -1.3408 -0.3017
 4797SOL    HW115290   2.254   5.087   4.675  1.9737 -4.1883 -0.1490
 4797SOL    HW215291   2.241   5.042   4.519 -0.6396  0.2249 -1.3592
 4798SOL     OW15292   4.839   4.106   2.330  0.0293 -0.4873 -0.1081
 4798SOL    HW115293   4.920   4.078   2.382 -0.6408 -2.9072 -0.2611
 4798SOL    HW215294   4.858   4.097   2.232 -0.6344 -1.9214 -0.1400
 4799SOL     OW15295   6.065   1.339   6.752 -0.2420 -0.7007  0.1213
 4799SOL    HW115296   6.035   1.359   6.845 -0.3918 -1.2792  0.1997
 4799SOL    HW215297   6.045   1.243   6.730 -0.3722 -0.5206 -0.5677
 4800SOL     OW15298   3.736   6.154   4.128  0.4851 -0.1241 -0.4254
 4800SOL    HW115299   3.741   6.161   4.228 -1.4716  0.2550 -0.3086
 4800SOL    HW215300   3.804   6.214   4.087  1.2926 -0.2575  0.6710
 4801SOL     OW15301   5.537   6.304   5.794 -0.6744 -0.1561 -0.5307
 4801SOL    HW115302   5.608   6.369   5.821  0.3427 -0.9441 -1.2195
 4801SOL    HW215303   5.455   6.319   5.849  0.5841 -0.3299  1.5061
 4802SOL     OW15304   6.453   2.367   5.639  0.3065 -0.0184 -0.1536
 4802SOL    HW115305   6.458   2.374   5.539  0.3215  1.0611 -0.0868
 4802SOL    HW215306   6.358   2.350   5.666  0.0607  1.0336 -0.2949
 4803SOL     OW15307   2.298   3.579   6.737  0.2281  0.3643  1.0061
 4803SOL    HW115308   2.367   3.517   6.699 -0.3191  0.5157 -0.2923
 4803SOL    HW215309   2.344   3.656   6.781  0.9024  0.7092 -0.2582
 4804SOL     OW15310   1.668   2.294   5.006  0.1819  0.5626  0.5371
 4804SOL    HW115311   1.610   2.371   4.980 -0.2120 -0.4909 -1.9767
 4804SOL    HW215312   1.740   2.326   5.068 -0.0697  2.9083 -0.2667
 4805SOL     OW15313   3.402   3.172   4.149  0.5321  0.2836  0.3374
 4805SOL    HW115314   3.376   3.078   4.171  1.3844  0.1464  0.8129
 4805SOL    HW215315   3.465   3.206   4.219 -0.3983  1.4934  0.6149
 4806SOL     OW15316   2.830   0.053   2.829  0.0109 -0.1026 -0.4165
 4806SOL    HW115317   2.898   0.123   2.808  0.3671 -0.8707 -1.9494
 4806SOL    HW215318   2.844   0.021   2.923  0.1777  1.4726  0.1234
 4807SOL     OW15319   0.533   2.540   1.205  0.0444 -0.0426 -0.0889
 4807SOL    HW115320   0.554   2.543   1.107 -1.9397 -1.0149 -0.5939
 4807SOL    HW215321   0.507   2.446   1.230 -1.1771  0.5586  0.9763
 4808SOL     OW15322   2.496   0.277   3.051  0.1489 -0.5696  0.1144
 4808SOL    HW115323   2.492   0.225   2.966 -0.6183  0.2981 -0.4028
 4808SOL    HW215324   2.515   0.373   3.030  1.9142 -0.6664  1.0664
 4809SOL     OW15325   5.410   2.343   0.584 -0.4009 -0.1538  0.7232
 4809SOL    HW115326   5.412   2.257   0.634 -0.5512 -0.6647 -0.1272
 4809SOL    HW215327   5.326   2.393   0.608 -0.4745 -0.3909  0.9703
 4810SOL     OW15328   6.003   6.370   6.685 -0.3247 -0.4420 -0.4495
 4810SOL    HW115329   6.079   6.384   6.621  0.5731  1.2172  0.9302
 4810SOL    HW215330   5.991   6.272   6.700 -0.8951 -0.9609 -3.4866
 4811SOL     OW15331   4.941   2.946   2.517 -0.2236 -0.4462 -0.3639
 4811SOL    HW115332   4.998   2.884   2.463 -0.5047  0.1366 -1.3594
 4811SOL    HW215333   4.980   3.038   2.515  0.5356 -0.6821  1.6264
 4812SOL     OW15334   6.266   0.449   1.972  0.2955 -0.1713 -0.1181
 4812SOL    HW115335   6.319   0.374   1.931 -0.3753 -0.1920 -0.9744
 4812SOL    HW215336   6.187   0.469   1.914  0.5271  1.2859  0.0290
 4813SOL     OW15337   5.972   2.219   2.279 -0.3300  0.5694 -0.4668
 4813SOL    HW115338   5.982   2.248   2.183 -1.1991 -0.3132 -0.8397
 4813SOL    HW215339   6.041   2.265   2.335  0.7393  0.4567 -1.6487
 4814SOL     OW15340   1.121   1.153   6.169 -0.2344  0.8036  0.2646
 4814SOL    HW115341   1.123   1.181   6.073  0.2410 -1.9495 -0.6391
 4814SOL    HW215342   1.214   1.139   6.201 -0.3956  1.6695  1.1453
 4815SOL     OW15343   1.502   0.230   6.689 -0.2700 -0.0827  0.1727
 4815SOL    HW115344   1.587   0.184   6.716 -0.2323 -0.2464 -0.2270
 4815SOL    HW215345   1.433   0.218   6.761 -0.3027 -0.8773  0.0187
 4816SOL     OW15346   5.728   6.530   6.711 -0.3289  0.1749  0.0420
 4816SOL    HW115347   5.813   6.543   6.660 -1.5401  0.1239 -2.1327
 4816SOL    HW215348   5.703   6.433   6.712  0.2560  0.0195  1.7796
 4817SOL     OW15349   4.043   6.241   6.412  0.1739 -0.2315 -0.4251
 4817SOL    HW115350   4.021   6.147   6.439  0.2559 -0.2588 -0.4517
 4817SOL    HW215351   4.136   6.263   6.442 -1.4202  1.5088  4.0738
 4818SOL     OW15352   3.294   0.586   0.674 -0.4625 -0.2517 -0.2192
 4818SOL    HW115353   3.329   0.677   0.651  0.3994 -0.4308  0.3273
 4818SOL    HW215354   3.226   0.559   0.606  0.2330  0.2509 -1.1468
 4819SOL     OW15355   3.984   5.359   5.764  0.0687 -0.2132 -0.0887
 4819SOL    HW115356   4.065   5.310   5.797  0.0886 -0.5565 -0.6194
 4819SOL    HW215357   4.010   5.414   5.684  0.6490  2.7306  1.9434
 4820SOL     OW15358   3.611   4.887   4.352  0.5840 -0.3250  0.6478
 4820SOL    HW115359   3.696   4.940   4.355  0.3243  0.5390 -3.0061
 4820SOL    HW215360   3.627   4.797   4.391  3.2275 -0.2210 -0.0274
 4821SOL     OW15361   4.385   6.555   5.540  0.3817  0.3957  0.2061
 4821SOL    HW115362   4.427   6.497   5.610  2.9174  1.2569 -0.4750
 4821SOL    HW215363   4.286   6.546   5.543  0.5955 -4.1504 -0.0089
 4822SOL     OW15364   6.640   3.433   0.412  0.7016 -0.4139  0.2059
 4822SOL    HW115365   6.584   3.368   0.463 -0.3909  0.0731 -0.3330
 4822SOL    HW215366   6.639   3.408   0.315  0.6220  0.1739  0.0545
 4823SOL     OW15367   0.519   2.923   4.266  0.1701  0.5228  0.3665
 4823SOL    HW115368   0.564   3.011   4.287 -0.4105  1.3985 -1.7820
 4823SOL    HW215369   0.589   2.856   4.243  0.5876  0.6011  1.3455
 4824SOL     OW15370   5.673   0.547   5.287 -0.1971  0.5426 -0.1756
 4824SOL    HW115371   5.598   0.557   5.222 -1.0721  2.6610  1.0519
 4824SOL    HW215372   5.760   0.564   5.241 -0.8481  2.6854 -0.7155
 4825SOL     OW15373   0.628   6.974   3.821 -1.2850  0.1361  0.3240
 4825SOL    HW115374   0.719   6.933   3.826 -2.3648 -2.2488  2.3850
 4825SOL    HW215375   0.568   6.916   3.766 -2.1392  0.3921  0.9578
 4826SOL     OW15376   3.670   1.119   6.864  0.1851  0.6748 -0.1950
 4826SOL    HW115377   3.652   1.023   6.840  1.1327  0.9375 -2.2155
 4826SOL    HW215378   3.694   1.125   6.961 -0.5686 -1.0269  0.1379
 4827SOL     OW15379   5.549   0.026   5.773 -0.0134  0.6503 -0.2578
 4827SOL    HW115380   5.647   0.026   5.788  0.2443 -3.3440 -0.9899
 4827SOL    HW215381   5.502  -0.004   5.856 -0.7565  3.0673  0.2722
 4828SOL     OW15382   2.976   0.681   2.686 -0.8704 -0.5422 -0.5689
 4828SOL    HW115383   2.935   0.695   2.596  0.7831 -0.2098 -1.3228
 4828SOL    HW215384   2.905   0.668   2.754 -2.2675  1.4444 -1.5465
 4829SOL     OW15385   5.874   5.263   1.873  0.0459 -0.2956 -0.1580
 4829SOL    HW115386   5.866   5.356   1.837  2.2632 -1.1175 -3.1443
 4829SOL    HW215387   5.967   5.229   1.859 -0.5828 -2.8694  1.1755
 4830SOL     OW15388   3.479   6.458   6.997  0.1855 -0.5196  1.2576
 4830SOL    HW115389   3.445   6.386   6.937 -0.1750  1.7634 -1.5095
 4830SOL    HW215390   3.568   6.431   7.035  1.0482 -1.6022 -1.3410
 4831SOL     OW15391   0.263   2.720   4.589 -0.0288  0.1281  0.5347
 4831SOL    HW115392   0.237   2.791   4.523  2.4636  1.1109  0.4831
 4831SOL    HW215393   0.341   2.669   4.553  0.3536 -0.3837  2.0268
 4832SOL     OW15394   4.157   0.679   5.176  0.0438  0.1164 -0.6112
 4832SOL    HW115395   4.101   0.754   5.211  1.2510  0.4219  0.7825
 4832SOL    HW215396   4.231   0.660   5.241  0.9125 -0.9858 -1.8744
 4833SOL     OW15397   5.521   6.369   4.587  0.8736 -0.4865  0.0237
 4833SOL    HW115398   5.596   6.371   4.521 -0.3094  0.8447 -1.3684
 4833SOL    HW215399   5.518   6.455   4.637 -0.7547  0.2517 -1.2306
 4834SOL     OW15400   0.898   6.748   3.402  0.0722 -0.0165 -0.3951
 4834SOL    HW115401   0.929   6.842   3.394 -0.4023  0.1803 -0.0215
 4834SOL    HW215402   0.877   6.728   3.498  2.2873 -1.1962 -0.1007
 4835SOL     OW15403   4.022   2.372   5.373 -0.3290 -0.3541 -0.4455
 4835SOL    HW115404   4.064   2.281   5.376 -0.1674 -0.2758 -0.3202
 4835SOL    HW215405   4.067   2.428   5.303 -0.4467 -0.3774 -0.5418
 4836SOL     OW15406   3.020   6.069   0.134 -0.4878  0.0695 -0.4104
 4836SOL    HW115407   3.114   6.079   0.100 -0.0233 -1.3292  0.3715
 4836SOL    HW215408   2.974   5.998   0.080 -0.4297 -0.6702  0.5002
 4837SOL     OW15409   4.035   2.023   2.838 -0.5947  0.0432 -0.1327
 4837SOL    HW115410   3.950   1.974   2.856  0.6933 -1.5347  2.2124
 4837SOL    HW215411   4.030   2.066   2.748 -3.2705 -1.2040 -0.6925
 4838SOL     OW15412   5.371   0.251   1.069 -0.7998  1.0463  0.0494
 4838SOL    HW115413   5.373   0.244   0.970 -0.8839  1.7672 -0.0092
 4838SOL    HW215414   5.465   0.261   1.104 -0.4145 -2.3263  0.3215
 4839SOL     OW15415   2.302   6.414   3.013  0.1724  0.0109  0.1915
 4839SOL    HW115416   2.238   6.388   2.940 -1.9251  0.7896  1.6409
 4839SOL    HW215417   2.327   6.511   3.002  1.8081 -0.4854 -0.8153
 4840SOL     OW15418   1.090   4.157   3.174  0.0484 -0.3909  0.1762
 4840SOL    HW115419   1.048   4.217   3.243  1.3929 -0.6542  1.2720
 4840SOL    HW215420   1.141   4.212   3.108 -0.5146 -0.1945 -0.0988
 4841SOL     OW15421   6.188   5.617   0.029  0.1092 -0.3342  0.4842
 4841SOL    HW115422   6.092   5.594   0.043 -0.5763  1.9289 -0.0742
 4841SOL    HW215423   6.201   5.649  -0.065  1.2612  0.0676  0.7638
 4842SOL     OW15424   1.629   2.656   3.877 -0.6114 -0.2318  0.3395
 4842SOL    HW115425   1.619   2.629   3.973 -1.2751  0.8583  0.5857
 4842SOL    HW215426   1.584   2.744   3.861  1.7813  0.9649 -0.3599
 4843SOL     OW15427   5.451   4.588   6.038 -0.3073  0.2350  0.4159
 4843SOL    HW115428   5.406   4.664   6.084  0.2118  1.1506 -0.5637
 4843SOL    HW215429   5.382   4.534   5.988 -0.3838  1.5933 -1.0343
 4844SOL     OW15430   2.867   1.034   4.566  0.2804  0.3113 -0.3809
 4844SOL    HW115431   2.922   1.076   4.494 -0.2655  0.5002 -0.6908
 4844SOL    HW215432   2.772   1.025   4.536 -0.0528  0.7956  0.4718
 4845SOL     OW15433   5.436   5.498   2.767 -0.0912  0.2077 -0.2093
 4845SOL    HW115434   5.435   5.475   2.670 -1.7951  0.7141 -0.3487
 4845SOL    HW215435   5.349   5.472   2.809  1.1776 -1.4523  1.5734
 4846SOL     OW15436   6.537   3.870   6.328 -0.0471 -0.4741 -0.6944
 4846SOL    HW115437   6.508   3.775   6.319 -1.1683 -0.3790  1.3808
 4846SOL    HW215438   6.623   3.875   6.379  0.8349 -0.4183 -2.1194
 4847SOL     OW15439   6.720   5.411   3.136 -0.0916  0.0159  0.1677
 4847SOL    HW115440   6.644   5.356   3.104 -2.1893  2.2680  0.9876
 4847SOL    HW215441   6.738   5.484   3.071  0.6702  0.1306  0.4932
 4848SOL     OW15442   5.061   1.424   5.992 -0.3695 -0.2778 -0.4504
 4848SOL    HW115443   5.114   1.462   5.916 -0.5798 -0.6601 -0.7979
 4848SOL    HW215444   5.117   1.356   6.040  0.0798  0.6045  0.3018
 4849SOL     OW15445   0.189   5.174   5.174  0.4746  0.0557  0.2113
 4849SOL    HW115446   0.100   5.187   5.216 -0.0076 -1.5801 -0.2225
 4849SOL    HW215447   0.208   5.250   5.111  0.0548  1.1511  1.3660
 4850SOL     OW15448   3.329   4.078   4.532  0.0135 -0.0885  0.2711
 4850SOL    HW115449   3.407   4.131   4.497 -0.9246  0.8272 -0.4811
 4850SOL    HW215450   3.305   4.007   4.466 -0.5540  0.4246 -0.0888
 4851SOL     OW15451   5.556   6.032   2.003 -0.0368  0.1027  0.2025
 4851SOL    HW115452   5.592   6.004   1.914  2.4100  0.3739  1.0359
 4851SOL    HW215453   5.538   6.130   2.003 -0.6478 -0.0031 -0.1606
 4852SOL     OW15454   1.597   2.938   6.941  0.7979  0.1046  0.2021
 4852SOL    HW115455   1.682   2.885   6.945  0.7900 -0.0466 -1.0615
 4852SOL    HW215456   1.519   2.876   6.942  0.7014  0.2270  1.0166
 4853SOL     OW15457   6.340   3.989   4.261  0.0758 -0.1060  0.3400
 4853SOL    HW115458   6.349   3.891   4.279  0.4284 -0.1682 -0.1584
 4853SOL    HW215459   6.249   4.008   4.224  0.0764 -0.2764  0.2498
 4854SOL     OW15460   5.247   4.989   0.508  0.0446  0.4515 -0.4557
 4854SOL    HW115461   5.258   4.892   0.488  1.0313  0.5404 -0.3927
 4854SOL    HW215462   5.209   5.035   0.427  2.2430  0.4818 -1.5549
 4855SOL     OW15463   4.800   1.469   5.497  0.3127 -0.3047 -0.3255
 4855SOL    HW115464   4.759   1.545   5.447  1.8973  3.7076  3.7570
 4855SOL    HW215465   4.732   1.430   5.559  0.3173 -0.0004 -0.1293
 4856SOL     OW15466   6.110   0.345   1.072  0.2669  0.1733 -0.5281
 4856SOL    HW115467   6.031   0.329   1.130  0.0159  1.8185 -0.3590
 4856SOL    HW215468   6.115   0.442   1.049  2.7560  0.2883  0.2278
 4857SOL     OW15469   0.922   0.919   6.847 -0.0687 -0.9313 -0.2959
 4857SOL    HW115470   1.016   0.952   6.840  0.2457 -1.2485  1.8000
 4857SOL    HW215471   0.897   0.909   6.943 -2.2933 -0.7779 -0.7940
 4858SOL     OW15472   0.241   1.556   2.741 -0.3139 -0.2467  0.0716
 4858SOL    HW115473   0.252   1.599   2.652  0.7886 -1.2458 -0.3011
 4858SOL    HW215474   0.322   1.501   2.762 -0.1221  0.7217  2.1223
 4859SOL     OW15475   4.411   1.394   3.365 -0.1138  0.2505 -0.0333
 4859SOL    HW115476   4.371   1.437   3.447 -1.0399  0.9270 -0.8132
 4859SOL    HW215477   4.360   1.311   3.343  0.2792 -0.0557  0.1949
 4860SOL     OW15478   4.328   6.430   4.475 -0.3281 -0.3526  0.3261
 4860SOL    HW115479   4.339   6.430   4.574 -1.2189  0.9543  0.4546
 4860SOL    HW215480   4.320   6.525   4.442 -0.3755 -0.7772 -0.9493
 4861SOL     OW15481   6.051   5.344   5.482  0.6499 -0.3779  0.5323
 4861SOL    HW115482   6.133   5.359   5.427  0.9696 -1.8164  0.5699
 4861SOL    HW215483   5.990   5.423   5.474  0.5487 -0.6400 -2.1247
 4862SOL     OW15484   6.579   2.775   6.369  0.0265 -0.0246 -0.4077
 4862SOL    HW115485   6.525   2.814   6.294 -0.2626 -0.2792 -0.3341
 4862SOL    HW215486   6.583   2.842   6.444 -0.8716 -0.3105 -0.0918
 4863SOL     OW15487   5.950   5.071   4.574 -0.1564 -0.4708  0.2940
 4863SOL    HW115488   5.935   5.016   4.655  0.5669  0.4455  1.0796
 4863SOL    HW215489   6.048   5.073   4.552 -0.5189 -2.4897 -1.9180
 4864SOL     OW15490   1.543   1.843   2.535 -0.1935 -0.0660  0.0136
 4864SOL    HW115491   1.464   1.872   2.482 -1.2958 -2.2385  0.3571
 4864SOL    HW215492   1.627   1.863   2.483 -1.1307 -0.4869 -1.7583
 4865SOL     OW15493   3.608   0.861   6.776 -0.2123  0.6781  0.2297
 4865SOL    HW115494   3.579   0.781   6.830 -1.0051  1.5502  1.1457
 4865SOL    HW215495   3.691   0.838   6.725 -0.1290 -0.5685  0.8721
 4866SOL     OW15496   6.196   5.774   1.286 -0.3845  0.0313  0.2899
 4866SOL    HW115497   6.290   5.754   1.259 -0.3485 -0.1973  0.5791
 4866SOL    HW215498   6.142   5.795   1.204 -0.0096  0.4843  0.1565
 4867SOL     OW15499   1.071   3.009   0.993  0.2131 -0.0386 -0.0634
 4867SOL    HW115500   1.013   2.963   0.925 -0.2485  1.3510 -0.6431
 4867SOL    HW215501   1.094   2.945   1.066 -0.1309 -1.2766 -1.0054
 4868SOL     OW15502   1.776   2.867   3.386  0.2918  0.0357 -0.9400
 4868SOL    HW115503   1.851   2.847   3.324  2.2594 -1.2943  1.6440
 4868SOL    HW215504   1.689   2.851   3.341  1.5767 -0.2070 -3.4880
 4869SOL     OW15505   0.053   3.905   0.494  0.7282 -0.4446 -0.6845
 4869SOL    HW115506   0.015   3.955   0.571 -0.9488 -2.2385 -0.2505
 4869SOL    HW215507   0.096   3.821   0.528  1.5435 -0.3980 -1.5675
 4870SOL     OW15508   3.827   0.117   4.249  0.1508 -0.3651  0.1376
 4870SOL    HW115509   3.854   0.125   4.153 -0.4759  0.8177  0.0392
 4870SOL    HW215510   3.757   0.046   4.258 -1.0748  0.6938 -0.6024
 4871SOL     OW15511   6.247   6.314   0.029  0.3638  1.0231  0.0062
 4871SOL    HW115512   6.244   6.214   0.035  0.6038  0.8990 -1.6827
 4871SOL    HW215513   6.293   6.351   0.111 -0.6007 -0.1624  1.1229
 4872SOL     OW15514   2.494   1.934   2.384  0.0302  0.2066 -0.3151
 4872SOL    HW115515   2.493   1.945   2.285  0.8566  0.2888 -0.3241
 4872SOL    HW215516   2.412   1.884   2.414 -0.2430  0.2238 -1.0291
 4873SOL     OW15517   2.468   3.764   0.461  0.0297 -0.1649  0.3585
 4873SOL    HW115518   2.422   3.689   0.415 -0.9577  0.1701  0.7738
 4873SOL    HW215519   2.561   3.736   0.485  1.3131  0.2613 -3.4578
 4874SOL     OW15520   6.314   4.073   3.909 -0.2142  0.2049  0.0705
 4874SOL    HW115521   6.401   4.027   3.927 -0.7282 -0.1323  1.9175
 4874SOL    HW215522   6.289   4.062   3.813  1.1515 -0.7737 -0.1921
 4875SOL     OW15523   2.818   1.941   5.839  0.3318  0.2398  0.1333
 4875SOL    HW115524   2.851   1.949   5.745 -0.4780 -0.0356 -0.1867
 4875SOL    HW215525   2.753   2.015   5.858  0.8464  0.5704  0.6350
 4876SOL     OW15526   6.974   2.863   2.043  0.0723  0.2950  0.1609
 4876SOL    HW115527   6.913   2.821   1.975  0.3379  0.7337 -0.3536
 4876SOL    HW215528   6.932   2.946   2.078  0.2541  0.4498  0.0098
 4877SOL     OW15529   2.073   5.881   3.431  0.7107 -0.2346  0.1807
 4877SOL    HW115530   2.047   5.847   3.340  0.4969 -1.7150  0.7618
 4877SOL    HW215531   2.029   5.825   3.501  0.3802  1.2797  1.2171
 4878SOL     OW15532   4.247   3.256   6.232 -0.3733  0.0245  0.2854
 4878SOL    HW115533   4.251   3.217   6.140  0.7856  1.9163 -0.5326
 4878SOL    HW215534   4.305   3.203   6.294 -0.6251 -0.8538 -0.2144
 4879SOL     OW15535   0.451   6.996   5.156  0.1842  0.2051  0.5670
 4879SOL    HW115536   0.373   6.970   5.100  0.3173  0.4085  0.2820
 4879SOL    HW215537   0.427   7.074   5.213  0.3915  0.7265 -0.0450
 4880SOL     OW15538   4.078   2.164   1.677 -0.4098  0.2086 -0.4789
 4880SOL    HW115539   4.170   2.169   1.716 -1.4095 -1.0078  2.2329
 4880SOL    HW215540   4.035   2.254   1.683 -0.1043  0.3218  0.0802
 4881SOL     OW15541   0.852   0.097   5.757 -0.2668 -0.4072 -0.1339
 4881SOL    HW115542   0.939   0.136   5.727 -0.5284 -1.0839 -1.8563
 4881SOL    HW215543   0.776   0.147   5.715 -0.6329 -1.7718 -1.1624
 4882SOL     OW15544   2.244   0.362   4.164 -0.0390 -0.7253  0.4757
 4882SOL    HW115545   2.249   0.337   4.261 -0.8268  0.0765  0.7377
 4882SOL    HW215546   2.150   0.351   4.131 -0.1645  0.6560  0.2868
 4883SOL     OW15547   5.828   5.945   3.474 -0.2140  0.5401 -0.1638
 4883SOL    HW115548   5.792   5.883   3.543  2.8721  1.0451  2.1351
 4883SOL    HW215549   5.758   6.011   3.448 -1.6126  0.1285  2.2543
 4884SOL     OW15550   0.747   2.411   3.299  0.3643  0.6828 -0.2354
 4884SOL    HW115551   0.731   2.442   3.392 -0.0983  2.4597 -0.8686
 4884SOL    HW215552   0.787   2.486   3.245  0.6559 -0.3114 -1.4562
 4885SOL     OW15553   1.044   5.767   1.152 -0.1858 -0.4104  0.1738
 4885SOL    HW115554   0.956   5.741   1.113  0.4073 -1.5807 -0.4227
 4885SOL    HW215555   1.057   5.722   1.240 -1.3247  1.8764  1.6178
 4886SOL     OW15556   4.827   0.898   6.946 -0.2243 -0.1093  0.5562
 4886SOL    HW115557   4.735   0.927   6.973  0.5186  3.8785 -0.6052
 4886SOL    HW215558   4.894   0.933   7.011  0.6501 -1.5120  0.4601
 4887SOL     OW15559   0.896   0.568   4.777  0.4438 -0.0195  0.3998
 4887SOL    HW115560   0.968   0.525   4.832 -0.1904 -1.1987  0.3327
 4887SOL    HW215561   0.836   0.621   4.838 -0.3618 -1.4676  0.9108
 4888SOL     OW15562   0.049   0.335   6.253  0.3901  0.1866 -0.1108
 4888SOL    HW115563   0.065   0.393   6.174  1.2122 -1.9417 -1.5981
 4888SOL    HW215564  -0.046   0.303   6.252 -0.5473  2.6204  1.5873
 4889SOL     OW15565   5.081   6.647   5.349 -0.0264  0.2826  0.3790
 4889SOL    HW115566   5.074   6.671   5.446 -3.2879 -0.2695  0.4142
 4889SOL    HW215567   5.083   6.731   5.294  1.8191  0.5981  0.8603
 4890SOL     OW15568   3.290   5.958   6.813  0.3237  0.3153  0.1472
 4890SOL    HW115569   3.267   5.865   6.844  1.0704 -0.1291 -0.5686
 4890SOL    HW215570   3.297   6.019   6.892  0.5551 -0.4077  0.6986
 4891SOL     OW15571   2.102   3.342   4.400  0.1011  0.2536 -0.3667
 4891SOL    HW115572   2.142   3.251   4.410  2.1200  1.0884 -0.3350
 4891SOL    HW215573   2.102   3.368   4.303  1.2698  0.9334 -0.1973
 4892SOL     OW15574   6.326   0.418   3.376  0.0393  0.2770 -0.1595
 4892SOL    HW115575   6.356   0.453   3.464  0.7928 -0.9090  0.0796
 4892SOL    HW215576   6.383   0.457   3.303  1.5137 -1.0996  0.1911
 4893SOL     OW15577   4.157   0.618   1.996  0.0864  0.0577 -0.0304
 4893SOL    HW115578   4.121   0.570   2.076 -2.8201  0.3771 -1.0271
 4893SOL    HW215579   4.194   0.707   2.023  1.4765 -0.8637  1.2306
 4894SOL     OW15580   2.377   4.682   0.718 -0.1578  0.3980 -0.4253
 4894SOL    HW115581   2.279   4.696   0.735  0.1726  1.9190  0.3515
 4894SOL    HW215582   2.404   4.731   0.635 -0.0995 -0.3185 -0.8468
 4895SOL     OW15583   0.611   2.220   2.010  0.6404  0.0634 -0.0117
 4895SOL    HW115584   0.514   2.196   2.003  0.2515  1.3283  0.8450
 4895SOL    HW215585   0.642   2.261   1.924  0.6297 -0.9892 -0.5408
 4896SOL     OW15586   5.667   5.866   4.119  0.0633 -0.2305  0.5007
 4896SOL    HW115587   5.744   5.853   4.181  1.0375  0.4122 -0.5493
 4896SOL    HW215588   5.694   5.927   4.045 -1.3672 -0.2471 -0.0587
 4897SOL     OW15589   2.907   2.283   3.491  0.5112  0.3279  0.9662
 4897SOL    HW115590   2.827   2.332   3.459  0.8584  0.5284  0.3869
 4897SOL    HW215591   2.897   2.262   3.588 -1.6541 -2.3957  0.2815
 4898SOL     OW15592   4.092   4.819   3.962 -0.0422 -0.0816 -0.1678
 4898SOL    HW115593   4.111   4.914   3.990  1.0940 -0.4458  0.3653
 4898SOL    HW215594   4.125   4.757   4.033 -1.4391 -0.8675 -0.1796
 4899SOL     OW15595   4.102   6.675   0.791 -0.1523 -0.2058  0.2159
 4899SOL    HW115596   4.009   6.695   0.760 -0.2982  1.3549  1.5262
 4899SOL    HW215597   4.167   6.718   0.729 -0.3396 -0.2104  0.0118
 4900SOL     OW15598   5.262   5.771   3.231  0.1637 -0.0801 -0.0091
 4900SOL    HW115599   5.348   5.720   3.241 -0.1129 -1.0720 -2.1199
 4900SOL    HW215600   5.247   5.792   3.135 -2.3673 -0.6447  0.1935
 4901SOL     OW15601   2.148   2.164   2.939  0.0208 -0.3843  0.1230
 4901SOL    HW115602   2.155   2.263   2.950 -0.3588 -0.1243 -1.6963
 4901SOL    HW215603   2.186   2.137   2.850 -2.9583 -1.3958 -0.9828
 4902SOL     OW15604   2.857   6.423   4.269 -0.1146 -0.4195 -0.8152
 4902SOL    HW115605   2.766   6.380   4.273 -0.7454  0.9639  0.9702
 4902SOL    HW215606   2.854   6.510   4.317  3.0050 -1.9567  2.6466
 4903SOL     OW15607   5.357   7.013   2.246  0.4727 -0.0228 -0.2382
 4903SOL    HW115608   5.363   6.935   2.308 -0.0122 -0.2898 -0.5149
 4903SOL    HW215609   5.389   6.986   2.155 -0.0333 -0.0115 -0.4258
 4904SOL     OW15610   4.635   4.341   3.594  0.0374 -0.1140  0.1796
 4904SOL    HW115611   4.639   4.428   3.546 -1.9994 -0.2567 -0.3637
 4904SOL    HW215612   4.662   4.353   3.689  0.0894  1.0408  0.0309
 4905SOL     OW15613   6.063   3.900   4.491  0.2972  0.8129 -0.2880
 4905SOL    HW115614   6.081   3.998   4.488  0.7340  0.7416 -0.2045
 4905SOL    HW215615   6.081   3.860   4.402  1.2551  0.6313 -0.0244
 4906SOL     OW15616   3.900   0.114   3.956 -0.3030  0.5415  0.1580
 4906SOL    HW115617   3.810   0.126   3.914 -0.1776  0.4662 -0.1379
 4906SOL    HW215618   3.970   0.148   3.893  0.0409 -1.4009 -0.5876
 4907SOL     OW15619   5.509   1.489   5.915 -0.0671  0.2031  0.0689
 4907SOL    HW115620   5.548   1.452   5.999  1.5930  2.5579  0.4265
 4907SOL    HW215621   5.474   1.581   5.932 -3.9811 -0.9440 -0.7876
 4908SOL     OW15622   6.671   2.335   3.830 -0.6689  0.3233  0.3914
 4908SOL    HW115623   6.602   2.308   3.763 -1.4576 -0.0320  1.3181
 4908SOL    HW215624   6.680   2.435   3.829 -0.4575  0.3036 -0.4386
 4909SOL     OW15625   1.373   1.751   3.718  0.1790  0.2608  0.2057
 4909SOL    HW115626   1.464   1.710   3.708 -0.1396 -0.1492 -1.1485
 4909SOL    HW215627   1.330   1.714   3.801  1.3497  0.7115  1.0532
 4910SOL     OW15628   0.881   2.107   1.079 -0.3682  0.0295  0.3975
 4910SOL    HW115629   0.917   2.029   1.132  1.0426 -0.7910 -1.6612
 4910SOL    HW215630   0.797   2.140   1.123 -0.4261 -1.9461  1.9429
 4911SOL     OW15631   4.457   6.855   3.597  0.1027  0.5555  0.4525
 4911SOL    HW115632   4.383   6.829   3.659  0.1480 -0.5303  0.0718
 4911SOL    HW215633   4.542   6.811   3.625  0.6865  1.9786  1.0241
 4912SOL     OW15634   1.179   5.094   2.736  0.4214  0.4123 -0.8112
 4912SOL    HW115635   1.198   5.189   2.759  0.7356  0.3364 -0.7474
 4912SOL    HW215636   1.181   5.039   2.820  0.2683  0.3456 -0.8510
 4913SOL     OW15637   6.196   5.464   4.674 -0.2217  0.3148 -0.0948
 4913SOL    HW115638   6.206   5.563   4.671 -1.1245  0.3870 -1.9763
 4913SOL    HW215639   6.268   5.421   4.620  0.9180 -0.1687  1.7195
 4914SOL     OW15640   6.884   2.620   2.543  0.3655 -0.0710 -0.0193
 4914SOL    HW115641   6.866   2.718   2.541 -1.9443 -0.4254  0.5878
 4914SOL    HW215642   6.975   2.604   2.582  0.4279  1.7885  0.7172
 4915SOL     OW15643   3.960   5.466   3.132 -0.1723  0.3552 -0.2780
 4915SOL    HW115644   3.899   5.544   3.143 -0.7160 -0.3376  2.0541
 4915SOL    HW215645   4.018   5.457   3.213 -0.4531 -1.9333 -0.2687
 4916SOL     OW15646   2.415   0.363   4.608 -0.6359 -0.2602  0.1749
 4916SOL    HW115647   2.436   0.461   4.609 -0.8809 -0.1256 -2.2427
 4916SOL    HW215648   2.479   0.314   4.668  0.5288  1.1908  0.1705
 4917SOL     OW15649   5.644   3.611   2.797  0.2188 -0.1267 -0.0357
 4917SOL    HW115650   5.689   3.627   2.885  0.1054  0.3721 -0.0642
 4917SOL    HW215651   5.579   3.685   2.779  1.1038  0.4246 -1.0858
 4918SOL     OW15652   4.267   3.244   0.150  0.4243 -0.1792 -0.0697
 4918SOL    HW115653   4.274   3.344   0.159 -2.0979 -0.0174  1.2273
 4918SOL    HW215654   4.331   3.200   0.213  0.9554  0.6325 -0.0316
 4919SOL     OW15655   4.814   1.789   1.178  0.3759  1.1957 -0.3646
 4919SOL    HW115656   4.849   1.882   1.188  0.2456  1.1706  0.4546
 4919SOL    HW215657   4.825   1.740   1.265 -1.9870  1.3028  0.0609
 4920SOL     OW15658   0.788   5.366   3.466  0.1608 -0.3651 -0.1468
 4920SOL    HW115659   0.764   5.275   3.431  0.5876  0.5525 -3.0134
 4920SOL    HW215660   0.728   5.435   3.425  0.4505  0.7863  1.2781
 4921SOL     OW15661   2.805   6.197   3.099  0.7258  0.4929 -0.0622
 4921SOL    HW115662   2.809   6.277   3.040  0.9994  1.1695  0.8389
 4921SOL    HW215663   2.710   6.175   3.119  0.6615  0.9790  0.1792
 4922SOL     OW15664   0.433   5.880   1.397  0.5115  0.2429  0.5833
 4922SOL    HW115665   0.527   5.853   1.416  1.0981  0.3935 -1.7284
 4922SOL    HW215666   0.422   5.892   1.298 -1.1476  3.0943  1.0137
 4923SOL     OW15667   6.885   1.674   6.570 -0.5398  0.0773 -0.1904
 4923SOL    HW115668   6.967   1.620   6.586 -0.2746  0.5197 -0.0527
 4923SOL    HW215669   6.820   1.661   6.645 -1.3076 -1.5751 -1.0951
 4924SOL     OW15670   3.284   0.536   3.308  0.8926  0.3345 -0.1483
 4924SOL    HW115671   3.233   0.545   3.394  0.0047 -1.9648 -0.3456
 4924SOL    HW215672   3.359   0.471   3.321  0.0070 -0.9998 -1.3485
 4925SOL     OW15673   3.074   5.105   4.007  0.3954 -0.5661  0.4810
 4925SOL    HW115674   2.989   5.058   3.982  0.4830 -0.7697  0.5711
 4925SOL    HW215675   3.069   5.135   4.102  0.0536  0.2272  0.2205
 4926SOL     OW15676   6.092   1.926   2.001 -0.5687  0.0208 -0.4874
 4926SOL    HW115677   6.083   1.963   2.094 -1.6989 -0.2619 -0.4708
 4926SOL    HW215678   6.187   1.933   1.972 -0.1813  0.0572  0.7207
 4927SOL     OW15679   5.210   6.691   5.975 -0.1726  0.2232 -0.3887
 4927SOL    HW115680   5.247   6.651   5.892  0.3857 -0.4150  0.1488
 4927SOL    HW215681   5.181   6.618   6.037  0.2228  0.6649  0.3297
 4928SOL     OW15682   3.976   5.195   6.897  0.3083  0.0794  0.0128
 4928SOL    HW115683   3.908   5.210   6.968 -1.0321  2.9252 -1.6735
 4928SOL    HW215684   3.936   5.139   6.824 -0.2044  1.4221 -0.7911
 4929SOL     OW15685   2.157   4.670   1.127  0.1726  0.2567  0.6348
 4929SOL    HW115686   2.255   4.690   1.132 -0.0819  1.4383  1.3376
 4929SOL    HW215687   2.112   4.739   1.070 -0.3680  0.1702  0.9510
 4930SOL     OW15688   6.351   2.117   4.593 -0.3503 -0.0899 -0.1361
 4930SOL    HW115689   6.420   2.045   4.603  0.3768  0.3063 -1.8520
 4930SOL    HW215690   6.397   2.206   4.590 -1.0398  0.2696 -0.1547
 4931SOL     OW15691   3.355   0.671   0.154  0.0922  0.2968 -0.0599
 4931SOL    HW115692   3.425   0.726   0.199  1.2290 -1.0218 -0.1434
 4931SOL    HW215693   3.323   0.717   0.072  0.9674  0.8595 -0.0938
 4932SOL     OW15694   3.940   3.300   0.449 -0.1281  0.2086  0.5523
 4932SOL    HW115695   3.983   3.237   0.513  1.2291  1.3346  0.7997
 4932SOL    HW215696   3.850   3.326   0.484 -0.1835 -0.6251  1.0581
 4933SOL     OW15697   4.276   6.887   3.268  0.3920 -0.5743 -0.7324
 4933SOL    HW115698   4.222   6.869   3.350  0.1545  1.2152 -0.4624
 4933SOL    HW215699   4.260   6.814   3.201 -0.7964 -1.1238  0.1100
 4934SOL     OW15700   2.911   3.619   4.381  0.0499 -0.0138 -0.9042
 4934SOL    HW115701   2.893   3.636   4.284  1.3166 -1.6618 -1.4890
 4934SOL    HW215702   2.907   3.520   4.398 -1.4713  0.3168  1.0353
 4935SOL     OW15703   5.864   2.957   1.847  0.0648 -0.6782 -0.7369
 4935SOL    HW115704   5.843   2.859   1.852 -1.2375 -0.3399  1.0439
 4935SOL    HW215705   5.869   2.984   1.750  0.5168 -2.4830 -1.2725
 4936SOL     OW15706   0.254   4.829   4.543 -0.2766 -0.0279 -0.3840
 4936SOL    HW115707   0.305   4.760   4.492 -0.7035 -1.0806  0.5561
 4936SOL    HW215708   0.298   4.844   4.632 -0.4222  0.5959 -0.4188
 4937SOL     OW15709   0.797   2.558   1.946 -0.4630  0.3663 -0.1549
 4937SOL    HW115710   0.822   2.640   1.997  1.6274 -0.1595 -0.2285
 4937SOL    HW215711   0.880   2.515   1.909 -1.5880 -1.2582 -0.9277
 4938SOL     OW15712   4.669   2.400   6.595  0.3532  0.0532 -0.3279
 4938SOL    HW115713   4.719   2.469   6.543 -0.0665  0.3576 -0.3370
 4938SOL    HW215714   4.575   2.431   6.609  0.5499  0.1528  0.9310
 4939SOL     OW15715   3.720   5.321   0.006 -0.7594 -0.4761  0.1788
 4939SOL    HW115716   3.658   5.248   0.037 -0.8871  0.1396  1.4718
 4939SOL    HW215717   3.681   5.366  -0.074  0.2560 -3.0542 -1.8975
 4940SOL     OW15718   0.187   6.674   4.679 -0.6451  0.0462  0.1633
 4940SOL    HW115719   0.138   6.596   4.640 -1.2484  0.3958  0.2191
 4940SOL    HW215720   0.217   6.735   4.605  0.1145 -0.3980  0.0945
 4941SOL     OW15721   5.718   5.160   3.139 -0.0355 -0.4210 -0.3940
 4941SOL    HW115722   5.747   5.202   3.053  1.5470  0.2678  0.4356
 4941SOL    HW215723   5.749   5.216   3.216 -2.7596 -0.1772  0.6382
 4942SOL     OW15724   3.597   6.537   1.715 -0.2053 -0.0247 -0.6081
 4942SOL    HW115725   3.693   6.536   1.743 -0.2551  0.2212 -0.4337
 4942SOL    HW215726   3.539   6.514   1.794 -0.5613  3.4955  0.3056
 4943SOL     OW15727   5.613   2.595   6.276 -0.3318  0.0037  0.5726
 4943SOL    HW115728   5.667   2.559   6.352 -0.3466  0.5456  0.8517
 4943SOL    HW215729   5.641   2.689   6.257  0.6183 -0.5589 -1.0085
 4944SOL     OW15730   5.269   2.069   1.278 -0.2002  0.6353  0.4727
 4944SOL    HW115731   5.295   2.165   1.269 -1.4462  1.0402  0.9507
 4944SOL    HW215732   5.174   2.057   1.247 -0.5968 -0.1333  1.8775
 4945SOL     OW15733   3.911   2.132   2.121  0.5724  0.0412 -0.0736
 4945SOL    HW115734   3.966   2.129   2.038  1.3609 -1.2741  0.4710
 4945SOL    HW215735   3.821   2.172   2.100  0.8270 -0.0821 -1.5031
 4946SOL     OW15736   0.900   5.144   1.551 -0.0441  0.0042  0.4319
 4946SOL    HW115737   0.892   5.241   1.530  0.7419  0.1979  0.9982
 4946SOL    HW215738   0.992   5.124   1.583  0.0091 -1.0569 -0.3284
 4947SOL     OW15739   0.785   2.806   0.024 -0.2074 -0.2988 -0.0031
 4947SOL    HW115740   0.806   2.844  -0.066  0.3145 -1.9891 -0.6252
 4947SOL    HW215741   0.814   2.871   0.095 -0.8075  1.1440 -1.0209
 4948SOL     OW15742   6.582   6.756   5.576  0.2852 -0.0845  0.0271
 4948SOL    HW115743   6.534   6.669   5.591 -1.1493  0.4376 -1.2877
 4948SOL    HW215744   6.563   6.818   5.652 -0.6270 -0.1124 -0.1669
 4949SOL     OW15745   2.495   1.594   0.292  0.5834 -0.1657 -0.0373
 4949SOL    HW115746   2.551   1.512   0.285 -1.9432 -1.9836 -0.2765
 4949SOL    HW215747   2.529   1.651   0.367  4.7652  0.6515 -2.2432
 4950SOL     OW15748   3.616   0.809   3.397  0.0529  0.5409 -0.2714
 4950SOL    HW115749   3.605   0.899   3.440  2.5486  1.9603 -2.3423
 4950SOL    HW215750   3.550   0.799   3.323 -2.8526 -1.0612  2.3328
 4951SOL     OW15751   5.469   6.743   5.601  0.1723 -0.7640 -0.0868
 4951SOL    HW115752   5.486   6.689   5.519 -0.6891 -0.6224 -0.3693
 4951SOL    HW215753   5.434   6.833   5.575  0.8160 -0.3693  0.4062
 4952SOL     OW15754   5.506   3.791   3.252  0.3099 -0.1877  0.0628
 4952SOL    HW115755   5.418   3.768   3.211  0.5030 -0.4678 -0.2005
 4952SOL    HW215756   5.524   3.728   3.328  0.5437 -0.5046 -0.2498
 4953SOL     OW15757   4.142   6.380   2.493  0.4844 -0.4657 -0.5963
 4953SOL    HW115758   4.114   6.326   2.413 -1.3519 -0.9908  0.3417
 4953SOL    HW215759   4.060   6.413   2.541  1.5665  1.0853  0.2539
 4954SOL     OW15760   2.878   3.522   4.711 -0.2232  0.5714 -0.0362
 4954SOL    HW115761   2.888   3.563   4.620  1.5572  1.4759  0.5233
 4954SOL    HW215762   2.803   3.456   4.709  1.2868 -1.2907 -2.8417
 4955SOL     OW15763   5.311   5.103   4.255  0.2699 -0.2015  0.0540
 4955SOL    HW115764   5.402   5.063   4.260  0.6669  0.6411 -0.1691
 4955SOL    HW215765   5.252   5.060   4.323  0.4411 -1.6954 -0.7071
 4956SOL     OW15766   4.251   2.288   1.453 -0.1430  0.2226 -0.2810
 4956SOL    HW115767   4.167   2.236   1.442 -0.5127  0.8544 -0.5171
 4956SOL    HW215768   4.330   2.231   1.430 -0.4844 -0.4552  0.2051
 4957SOL     OW15769   5.338   6.769   4.985 -0.4016  0.0147  0.3060
 4957SOL    HW115770   5.338   6.810   5.076 -1.6567 -0.0137  0.3380
 4957SOL    HW215771   5.311   6.673   4.992  1.1278 -0.4595  0.0743
 4958SOL     OW15772   4.555   4.413   3.342 -0.1303  0.0162  0.2955
 4958SOL    HW115773   4.506   4.500   3.344 -1.2025 -0.5784  0.8574
 4958SOL    HW215774   4.531   4.359   3.423  0.5208 -0.8081 -0.0396
 4959SOL     OW15775   5.662   6.861   4.653 -0.0758 -0.5249  0.5588
 4959SOL    HW115776   5.734   6.792   4.662  2.9431  2.2954  0.1472
 4959SOL    HW215777   5.608   6.844   4.571 -0.9127 -3.4884  1.5879
 4960SOL     OW15778   3.424   4.914   3.078 -0.0063 -0.8289 -0.4258
 4960SOL    HW115779   3.354   4.981   3.105 -0.5362 -1.6806  0.3706
 4960SOL    HW215780   3.502   4.962   3.038 -0.1534  0.3080  0.6065
 4961SOL     OW15781   3.150   0.716   5.735 -0.7278 -0.3911  0.5990
 4961SOL    HW115782   3.191   0.732   5.825  1.0383  2.6090 -0.5916
 4961SOL    HW215783   3.190   0.635   5.694 -1.4791 -1.7440  2.3998
 4962SOL     OW15784   3.228   1.998   2.053  0.1271 -0.4162 -0.4588
 4962SOL    HW115785   3.246   2.023   2.148 -4.6092  0.2857  0.5476
 4962SOL    HW215786   3.223   1.899   2.044  0.7431 -0.4896 -0.0184
 4963SOL     OW15787   6.343   1.994   5.133  0.0283  0.2190  0.2408
 4963SOL    HW115788   6.353   1.974   5.230 -1.8477  0.1111  0.4376
 4963SOL    HW215789   6.431   2.024   5.096  1.0226 -0.7498  1.7177
 4964SOL     OW15790   1.695   4.333   1.739 -0.5132  0.0700 -0.0910
 4964SOL    HW115791   1.638   4.389   1.679  0.9398  0.9370 -0.7308
 4964SOL    HW215792   1.786   4.375   1.746  0.2208 -1.5459  0.4609
 4965SOL     OW15793   2.701   1.479   2.550 -0.2861 -0.0892 -0.1380
 4965SOL    HW115794   2.626   1.474   2.483 -0.7285 -0.7634  0.3944
 4965SOL    HW215795   2.788   1.478   2.501 -0.5587 -2.1630 -0.6657
 4966SOL     OW15796   6.806   6.900   5.901 -0.0767 -0.2812 -1.0080
 4966SOL    HW115797   6.839   6.979   5.850  0.0785  1.0545  1.0234
 4966SOL    HW215798   6.881   6.835   5.913  0.6114  0.5921 -0.3456
 4967SOL     OW15799   4.919   3.555   3.123 -0.2280 -0.4209 -0.7337
 4967SOL    HW115800   4.910   3.458   3.102  1.9117 -0.9430  0.4425
 4967SOL    HW215801   4.965   3.601   3.047  0.7078 -0.7876 -0.4043
 4968SOL     OW15802   5.407   4.298   5.213 -0.5615  0.1959 -0.0441
 4968SOL    HW115803   5.498   4.265   5.186  1.3094  2.9931  2.1466
 4968SOL    HW215804   5.393   4.390   5.176 -0.8599  1.2788  2.5305
 4969SOL     OW15805   3.132   4.982   1.096  0.2740 -0.2424 -0.2432
 4969SOL    HW115806   3.159   5.009   1.004  0.6953  0.5677  0.1107
 4969SOL    HW215807   3.173   4.893   1.117  0.2718 -0.3794 -0.7877
 4970SOL     OW15808   5.472   6.971   4.431  0.4984  0.7525 -0.0652
 4970SOL    HW115809   5.549   7.033   4.444  0.5952  0.6157  0.0100
 4970SOL    HW215810   5.390   7.010   4.474  1.1198 -0.3624  2.3067
 4971SOL     OW15811   6.633   5.208   0.002 -0.2052 -0.1081  0.1788
 4971SOL    HW115812   6.539   5.173  -0.006 -0.3086  0.1685  0.1805
 4971SOL    HW215813   6.650   5.274  -0.071  0.4314 -1.1484 -0.6478
 4972SOL     OW15814   5.245   0.704   2.216  0.0024 -0.1920  0.4236
 4972SOL    HW115815   5.261   0.803   2.206  0.3534 -0.3217 -0.3806
 4972SOL    HW215816   5.151   0.682   2.189  0.0716 -0.1407  0.1365
 4973SOL     OW15817   5.229   0.122   3.289  0.4288 -0.1341  0.2613
 4973SOL    HW115818   5.174   0.084   3.215 -0.1742  1.0951  0.0571
 4973SOL    HW215819   5.306   0.061   3.309 -0.7522 -1.6575  0.2468
 4974SOL     OW15820   5.709   4.549   2.634 -0.2710 -0.2135 -0.3497
 4974SOL    HW115821   5.739   4.644   2.631 -1.7460  0.2845  0.0004
 4974SOL    HW215822   5.765   4.499   2.700 -0.5852  0.8327  0.7401
 4975SOL     OW15823   1.134   4.942   0.158  0.4567 -0.4166  0.6819
 4975SOL    HW115824   1.098   5.032   0.132  0.9867 -0.0265  1.2850
 4975SOL    HW215825   1.232   4.940   0.143  0.5788 -0.6015  1.4752
 4976SOL     OW15826   0.378   5.960   1.778  0.0581 -0.4656 -0.1683
 4976SOL    HW115827   0.365   5.913   1.691 -1.4967 -0.8270  0.2395
 4976SOL    HW215828   0.377   6.059   1.763  0.8817 -0.5192 -0.6831
 4977SOL     OW15829   2.519   2.111   2.842 -0.1144  0.0981  0.4836
 4977SOL    HW115830   2.543   2.193   2.894  0.2354  1.0295 -1.0643
 4977SOL    HW215831   2.572   2.109   2.757 -3.0124  0.4777 -1.4892
 4978SOL     OW15832   3.642   0.141   3.865 -0.1114 -0.0157 -0.6449
 4978SOL    HW115833   3.584   0.080   3.918 -1.1022  0.8789 -0.6550
 4978SOL    HW215834   3.668   0.097   3.779  1.6484 -1.5513  0.5695
 4979SOL     OW15835   3.720   6.373   5.138  0.0537 -0.1896 -0.0718
 4979SOL    HW115836   3.696   6.329   5.051 -0.0673 -0.0509 -0.1088
 4979SOL    HW215837   3.698   6.470   5.133  0.8096 -0.0132 -0.1834
 4980SOL     OW15838   6.599   2.755   0.666 -0.0538 -0.9850 -0.0158
 4980SOL    HW115839   6.586   2.693   0.589 -2.7573 -1.0663  0.4257
 4980SOL    HW215840   6.510   2.782   0.703  0.9915  2.6707  0.2375
 4981SOL     OW15841   0.960   5.054   2.217 -0.1348  0.2276  0.5125
 4981SOL    HW115842   1.015   5.094   2.290 -0.3612  0.3341  0.6258
 4981SOL    HW215843   0.965   4.954   2.223 -0.4669  0.2300  0.9191
 4982SOL     OW15844   6.815   6.709   3.041 -0.1005  0.1324  0.3847
 4982SOL    HW115845   6.863   6.684   2.957  0.1691  0.4785  0.4332
 4982SOL    HW215846   6.830   6.806   3.061 -2.3984  0.7703 -0.6568
 4983SOL     OW15847   0.580   2.577   5.420  0.3498 -0.0641  0.1664
 4983SOL    HW115848   0.580   2.624   5.332  0.4518  0.6769  0.5539
 4983SOL    HW215849   0.629   2.631   5.488 -1.0779  0.1611  1.0759
 4984SOL     OW15850   2.687   1.469   6.042 -0.1228 -0.3378 -0.3382
 4984SOL    HW115851   2.620   1.507   6.106  0.9142  0.6020  0.2192
 4984SOL    HW215852   2.742   1.543   6.003  1.4884 -1.1795  0.2463
 4985SOL     OW15853   5.503   3.898   0.378  0.1966  0.3664  0.2480
 4985SOL    HW115854   5.566   3.888   0.300  0.3383  0.5766  0.3373
 4985SOL    HW215855   5.501   3.993   0.408  0.6054  0.1762  0.8958
 4986SOL     OW15856   3.196   4.871   2.034  0.4480 -0.0956  0.2624
 4986SOL    HW115857   3.239   4.897   1.947  0.6299 -2.0974 -0.2918
 4986SOL    HW215858   3.167   4.776   2.030 -0.8539  0.1758  1.9158
 4987SOL     OW15859   3.880   5.668   5.017 -0.1865  0.0198  0.5120
 4987SOL    HW115860   3.866   5.658   5.115 -1.6857 -2.1034  0.1664
 4987SOL    HW215861   3.822   5.603   4.968  3.3820 -1.9191 -1.6250
 4988SOL     OW15862   3.508   6.434   4.369 -0.2092 -0.2801 -0.0592
 4988SOL    HW115863   3.564   6.469   4.444 -0.0655 -0.6426  0.0056
 4988SOL    HW215864   3.474   6.343   4.392  0.5272 -0.7542 -0.7693
 4989SOL     OW15865   5.581   0.508   5.783 -0.1400  0.6025  0.0248
 4989SOL    HW115866   5.633   0.492   5.699  1.1753  1.0414  0.7168
 4989SOL    HW215867   5.488   0.473   5.773  0.3260 -0.3318 -1.2217
 4990SOL     OW15868   0.685   4.618   6.766 -0.5008 -0.3152  0.0019
 4990SOL    HW115869   0.772   4.624   6.718 -1.4945  2.3359 -1.7330
 4990SOL    HW215870   0.695   4.563   6.848  1.9069 -3.0359 -1.9253
 4991SOL     OW15871   3.199   4.842   3.951  0.2193 -0.3474  0.3509
 4991SOL    HW115872   3.169   4.936   3.934  0.6208 -0.2238  0.3181
 4991SOL    HW215873   3.136   4.798   4.014 -0.9402 -0.6025 -0.9479
 4992SOL     OW15874   3.905   6.464   2.643 -0.4427  0.4317 -0.0388
 4992SOL    HW115875   3.921   6.562   2.660 -0.6304  0.5771 -0.6816
 4992SOL    HW215876   3.819   6.436   2.686 -0.2999  0.5097  0.2966
 4993SOL     OW15877   4.892   6.162   1.095  0.6031  0.2860  0.5044
 4993SOL    HW115878   4.793   6.156   1.084  0.6694 -0.7441  0.3507
 4993SOL    HW215879   4.931   6.216   1.020  0.4942 -2.3162 -1.5921
 4994SOL     OW15880   5.038   4.411   5.094  0.2658 -0.0408  0.1387
 4994SOL    HW115881   5.071   4.455   5.177 -1.4165 -0.4547  1.0659
 4994SOL    HW215882   5.102   4.429   5.019  1.8361  0.3201  1.4994
 4995SOL     OW15883   5.016   5.378   0.052  0.4990 -0.0316 -0.3576
 4995SOL    HW115884   5.032   5.472   0.082  2.0930  0.1521 -1.6938
 4995SOL    HW215885   5.031   5.371  -0.046 -2.2273 -1.1471 -0.7920
 4996SOL     OW15886   4.679   3.666   0.057 -0.0543 -0.2082  0.0842
 4996SOL    HW115887   4.639   3.679   0.148  0.9276  0.7019  0.4189
 4996SOL    HW215888   4.608   3.676  -0.013 -0.5581  0.5654  0.6851
 4997SOL     OW15889   5.430   0.855   0.897  0.1424 -0.2641  1.2908
 4997SOL    HW115890   5.420   0.792   0.974  1.3358  1.1745  2.7036
 4997SOL    HW215891   5.503   0.822   0.837  1.7335  0.4193  2.7700
 4998SOL     OW15892   0.973   2.542   5.413  0.0888  0.1954  0.0627
 4998SOL    HW115893   0.977   2.473   5.341 -1.6971  0.3311 -0.1994
 4998SOL    HW215894   0.975   2.633   5.373 -0.2417  0.2775  0.2316
 4999SOL     OW15895   1.827   0.053   2.165  0.3404  0.3757 -0.1623
 4999SOL    HW115896   1.750   0.117   2.160 -0.1923 -0.2262  0.2877
 4999SOL    HW215897   1.892   0.075   2.093  0.0104  1.2305 -0.2134
 5000SOL     OW15898   5.464   4.521   3.595  0.0111  0.5540  1.1462
 5000SOL    HW115899   5.542   4.479   3.641 -0.5695 -0.4546  1.2293
 5000SOL    HW215900   5.393   4.544   3.662 -0.0802  0.7808  0.9768
 5001SOL     OW15901   2.509   5.827   1.721  0.6171  0.0097 -0.6261
 5001SOL    HW115902   2.418   5.803   1.757  0.1524  0.6506 -1.3439
 5001SOL    HW215903   2.544   5.751   1.667  0.6917 -0.4009 -0.0092
 5002SOL     OW15904   0.463   0.125   0.063 -0.4072 -0.1439  0.1576
 5002SOL    HW115905   0.541   0.075   0.099 -1.5537 -2.9833 -1.0324
 5002SOL    HW215906   0.466   0.219   0.097  2.5920 -0.5738  1.4375
 5003SOL     OW15907   1.180   6.138   4.804  0.1050 -0.4600 -0.2183
 5003SOL    HW115908   1.224   6.118   4.717  1.8254  0.4058  0.4078
 5003SOL    HW215909   1.217   6.078   4.876  1.0110  0.9089  0.5017
 5004SOL     OW15910   5.427   3.428   2.888 -0.1442 -0.0107 -0.1893
 5004SOL    HW115911   5.394   3.457   2.798  3.3656 -0.2467 -1.7293
 5004SOL    HW215912   5.501   3.489   2.918 -0.1323 -0.9173  1.7820
 5005SOL     OW15913   6.358   4.705   1.143 -0.2130  0.2136  0.2632
 5005SOL    HW115914   6.309   4.629   1.186  0.2115  0.5432  1.3638
 5005SOL    HW215915   6.298   4.784   1.135 -0.5909 -0.1583 -0.6861
 5006SOL     OW15916   4.409   1.877   5.177 -0.1402  0.4243  0.0296
 5006SOL    HW115917   4.387   1.943   5.249  1.4761  0.9889  0.0655
 5006SOL    HW215918   4.470   1.920   5.110  0.3191 -0.7974 -0.3721
 5007SOL     OW15919   4.465   6.819   0.049 -0.1697  0.5503 -0.2127
 5007SOL    HW115920   4.537   6.833   0.117 -0.6300  0.7257  0.2440
 5007SOL    HW215921   4.429   6.908   0.020 -1.2194  0.4322  0.6661
 5008SOL     OW15922   4.682   5.663   5.436  1.1801 -0.2575 -0.2769
 5008SOL    HW115923   4.646   5.720   5.510  0.7552 -0.3063 -0.4461
 5008SOL    HW215924   4.752   5.602   5.473  1.7085  0.4381 -0.1127
 5009SOL     OW15925   3.821   0.382   4.293 -0.3648  0.1200 -0.1006
 5009SOL    HW115926   3.835   0.283   4.303  1.2188  0.2910 -0.4924
 5009SOL    HW215927   3.723   0.400   4.280 -0.5667 -1.4847 -1.1120
 5010SOL     OW15928   6.936   3.151   0.988 -0.4104 -0.3715  0.6770
 5010SOL    HW115929   7.027   3.138   0.949 -0.5542  3.4327 -1.3680
 5010SOL    HW215930   6.936   3.123   1.084  2.4108 -1.9512  0.3194
 5011SOL     OW15931   6.192   0.847   5.724  0.5189 -0.6009 -0.0699
 5011SOL    HW115932   6.219   0.942   5.743  0.7722 -0.5600 -0.6049
 5011SOL    HW215933   6.273   0.788   5.726  0.5553 -0.5952 -0.9796
 5012SOL     OW15934   5.933   5.519   1.764  0.3621  0.1973  0.1189
 5012SOL    HW115935   5.882   5.605   1.766 -0.4015 -0.2572  1.0383
 5012SOL    HW215936   6.024   5.533   1.802 -0.3984  0.2275  2.0175
 5013SOL     OW15937   0.095   6.601   3.314  0.2184 -0.2153  0.3844
 5013SOL    HW115938  -0.003   6.597   3.292  0.7190 -3.0526 -1.9833
 5013SOL    HW215939   0.143   6.648   3.240  0.7466  0.5125  1.1787
 5014SOL     OW15940   0.707   1.065   3.308  0.2734 -0.2651 -0.3418
 5014SOL    HW115941   0.747   0.975   3.292 -1.9290 -1.7115  1.6133
 5014SOL    HW215942   0.626   1.077   3.251  0.6789  0.6073 -0.7568
 5015SOL     OW15943   2.188   6.785   1.381  0.2749 -0.1084  0.7254
 5015SOL    HW115944   2.094   6.821   1.380 -0.9635 -2.8253  3.6858
 5015SOL    HW215945   2.200   6.722   1.304 -0.1253  0.5824  0.0714
 5016SOL     OW15946   3.031   5.974   0.376 -0.1859 -0.4331 -0.0610
 5016SOL    HW115947   3.045   5.875   0.364 -1.6486 -0.6117 -0.4181
 5016SOL    HW215948   3.033   6.019   0.287  0.1834 -0.1656  0.0771
 5017SOL     OW15949   6.303   5.483   2.706 -0.3476  0.5765 -0.3539
 5017SOL    HW115950   6.230   5.474   2.774  0.9470  2.3535  1.3876
 5017SOL    HW215951   6.351   5.396   2.697  0.0411  0.5186  1.7642
 5018SOL     OW15952   0.548   4.392   2.208 -1.0567  0.0409 -0.4187
 5018SOL    HW115953   0.502   4.461   2.152 -0.0791 -0.8252 -2.3799
 5018SOL    HW215954   0.581   4.435   2.292 -2.7673  1.3403 -0.3543
 5019SOL     OW15955   6.551   1.289   1.533 -0.1624 -0.3113  0.0740
 5019SOL    HW115956   6.452   1.281   1.544 -0.3906  0.9792 -0.8200
 5019SOL    HW215957   6.585   1.367   1.586  0.1854 -0.0133 -0.5735
 5020SOL     OW15958   0.090   3.313   4.541 -0.6663 -0.7302 -0.5667
 5020SOL    HW115959   0.189   3.324   4.531 -0.3007 -2.8881  0.1503
 5020SOL    HW215960   0.060   3.357   4.626 -0.0008 -1.4460  0.0678
 5021SOL     OW15961   5.642   0.828   4.005 -0.3677  0.0839 -0.2826
 5021SOL    HW115962   5.701   0.761   4.050 -1.4877 -1.1469 -0.5848
 5021SOL    HW215963   5.572   0.860   4.069 -1.7623 -1.4257 -0.9934
 5022SOL     OW15964   1.830   0.658   3.835  0.0843  0.6613  0.0774
 5022SOL    HW115965   1.745   0.607   3.823  1.4471 -1.7558  0.2418
 5022SOL    HW215966   1.908   0.597   3.824  1.8318  2.6986  0.4806
 5023SOL     OW15967   5.742   3.427   2.598 -0.0028  0.0961 -0.2642
 5023SOL    HW115968   5.693   3.457   2.680  1.2409 -0.6345  0.7787
 5023SOL    HW215969   5.730   3.495   2.526 -2.1571  0.1581  0.0757
 5024SOL     OW15970   4.508   0.123   5.995  0.1461  0.2160  1.1518
 5024SOL    HW115971   4.444   0.155   6.066 -0.6519  1.0077  0.1115
 5024SOL    HW215972   4.477   0.155   5.906  1.5251 -0.1610  0.5124
 5025SOL     OW15973   6.524   4.103   0.792  0.0739  0.2403 -0.0276
 5025SOL    HW115974   6.448   4.078   0.852  0.4666  0.8102  0.7106
 5025SOL    HW215975   6.590   4.028   0.788 -0.3510 -0.1198 -0.3988
 5026SOL     OW15976   5.348   0.229   1.890  0.1873  0.3368 -0.2224
 5026SOL    HW115977   5.364   0.287   1.811  1.8227 -0.2884 -0.3947
 5026SOL    HW215978   5.363   0.282   1.974  2.1376  0.1072 -0.3793
 5027SOL     OW15979   6.544   1.376   1.214  0.3290  0.4150 -0.3038
 5027SOL    HW115980   6.523   1.410   1.305 -1.5362 -0.2111 -0.4468
 5027SOL    HW215981   6.643   1.377   1.199  0.6019  1.3980  1.3575
 5028SOL     OW15982   4.421   1.839   3.966 -0.3123  0.6082 -0.2362
 5028SOL    HW115983   4.487   1.771   3.935  0.0238  0.8647 -0.0907
 5028SOL    HW215984   4.383   1.811   4.054 -1.4043 -0.2128 -0.9534
 5029SOL     OW15985   2.755   5.092   2.429 -0.2915  0.2406  0.3871
 5029SOL    HW115986   2.668   5.115   2.384 -0.1495  0.0061 -0.0109
 5029SOL    HW215987   2.800   5.019   2.379 -0.0172  0.1358  0.7849
 5030SOL     OW15988   5.690   4.696   6.437 -0.2754 -0.0063  0.8180
 5030SOL    HW115989   5.761   4.656   6.379 -1.4581 -0.2756 -0.5090
 5030SOL    HW215990   5.644   4.769   6.387 -0.2303  0.9176  2.0685
 5031SOL     OW15991   2.089   1.252   5.864  0.0008  0.1347 -0.6887
 5031SOL    HW115992   2.161   1.202   5.815  0.3431 -0.4624  0.3832
 5031SOL    HW215993   2.009   1.193   5.874  0.7459 -0.5913  1.4076
 5032SOL     OW15994   4.656   6.554   0.765  0.1864 -0.7936  0.5763
 5032SOL    HW115995   4.716   6.501   0.706  1.1843 -0.1991  1.0410
 5032SOL    HW215996   4.659   6.517   0.858 -0.4574 -0.9838  0.5303
 5033SOL     OW15997   4.888   0.357   3.824  0.5295 -0.2313 -0.2003
 5033SOL    HW115998   4.832   0.278   3.846 -0.0434  0.5201  1.1603
 5033SOL    HW215999   4.901   0.363   3.724  0.2235 -1.7547 -0.3508
 5034SOL     OW16000   1.792   0.149   1.620 -0.0857  0.0662 -0.2145
 5034SOL    HW116001   1.793   0.049   1.627  1.3068  0.1284  1.2522
 5034SOL    HW216002   1.818   0.177   1.527  0.0723 -0.9339 -0.4800
 5035SOL     OW16003   4.872   0.127   3.299  0.6531  0.0877 -0.2003
 5035SOL    HW116004   4.970   0.142   3.281  0.8414  0.0650  0.7501
 5035SOL    HW216005   4.855   0.030   3.314  0.2569 -0.0819 -1.5720
 5036SOL     OW16006   2.322   4.176   3.108  0.0699  0.1649  0.0064
 5036SOL    HW116007   2.335   4.235   3.188  0.2496  0.0869  0.0354
 5036SOL    HW216008   2.293   4.232   3.030 -1.6634  0.0397  0.5198
 5037SOL     OW16009   0.044   0.449   4.905  0.5423 -0.6291  0.0728
 5037SOL    HW116010   0.111   0.518   4.933 -1.0934  0.3925  1.7159
 5037SOL    HW216011   0.004   0.476   4.817 -0.8469  1.1943  1.1917
 5038SOL     OW16012   1.023   6.070   2.272 -0.0043 -0.7073  0.4069
 5038SOL    HW116013   1.029   6.038   2.367  0.3601 -2.1833 -0.0874
 5038SOL    HW216014   1.108   6.048   2.224 -0.2399 -0.1053 -0.3126
 5039SOL     OW16015   0.574   3.654   6.231 -0.5863 -0.5266 -0.7167
 5039SOL    HW116016   0.622   3.626   6.148  0.0026 -0.0272 -0.5547
 5039SOL    HW216017   0.585   3.753   6.244  1.9533 -0.9796  1.5577
 5040SOL     OW16018   0.253   1.972   5.210  0.4660  0.3748 -0.6242
 5040SOL    HW116019   0.180   1.914   5.246 -0.6265  0.3070 -2.7686
 5040SOL    HW216020   0.321   1.915   5.165  0.1931  0.6216 -1.3687
 5041SOL     OW16021   2.846   5.872   3.429  0.0353 -0.0650 -0.5673
 5041SOL    HW116022   2.794   5.954   3.450  2.9855  1.3530  2.0000
 5041SOL    HW216023   2.905   5.889   3.350  2.5919  1.4308  1.5082
 5042SOL     OW16024   1.504   5.512   3.048 -0.0929  0.0263  0.5323
 5042SOL    HW116025   1.439   5.588   3.050 -0.9272 -0.5993 -1.2513
 5042SOL    HW216026   1.593   5.544   3.017 -0.1072  0.4749  0.9337
 5043SOL     OW16027   1.303   3.775   0.885  0.6749 -0.2984 -0.4028
 5043SOL    HW116028   1.360   3.693   0.885  0.2055 -0.6485  0.8346
 5043SOL    HW216029   1.291   3.808   0.791  1.3279 -1.3105 -0.8545
 5044SOL     OW16030   6.304   1.179   6.604  0.2794 -0.3232  0.5185
 5044SOL    HW116031   6.265   1.269   6.586  1.0474  0.2205  1.4473
 5044SOL    HW216032   6.376   1.160   6.538 -0.6951 -0.8040 -0.4399
 5045SOL     OW16033   3.015   0.237   4.652  0.3415 -0.2520 -0.1446
 5045SOL    HW116034   2.930   0.288   4.642  0.4308  0.3629  1.8158
 5045SOL    HW216035   3.075   0.256   4.574  0.1866  2.3292  0.2942
 5046SOL     OW16036   2.193   3.758   4.436  0.2707  0.1572  0.0856
 5046SOL    HW116037   2.247   3.674   4.442 -1.3558 -0.9102  0.2812
 5046SOL    HW216038   2.192   3.804   4.525  1.5062  0.6362 -0.1276
 5047SOL     OW16039   5.089   3.154   1.837 -0.2379 -0.0015 -0.0091
 5047SOL    HW116040   5.106   3.140   1.739  1.7693 -1.9226  0.5411
 5047SOL    HW216041   5.031   3.081   1.871  1.1391 -0.8244  0.6800
 5048SOL     OW16042   0.937   4.344   4.252  1.1439 -0.4137 -0.0094
 5048SOL    HW116043   0.992   4.388   4.180  0.0429  0.6187 -0.2429
 5048SOL    HW216044   0.984   4.261   4.283  2.9987  0.6001  0.0409
 5049SOL     OW16045   2.088   0.850   1.691  0.0496  0.4667 -0.5330
 5049SOL    HW116046   2.166   0.828   1.749  0.0831 -1.5871 -1.2614
 5049SOL    HW216047   2.004   0.815   1.732 -0.4279  2.1117 -0.0581
 5050SOL     OW16048   5.897   3.048   0.235 -0.3081 -0.2912 -0.2444
 5050SOL    HW116049   5.869   2.969   0.180 -1.2078  0.2090 -0.5121
 5050SOL    HW216050   5.936   3.015   0.322 -0.5316 -1.0273 -0.4143
 5051SOL     OW16051   4.887   1.084   1.605  0.4625 -0.0452  0.3241
 5051SOL    HW116052   4.853   1.122   1.691 -1.7922  0.5189 -0.7331
 5051SOL    HW216053   4.809   1.055   1.549  1.3989  3.8011 -3.4584
 5052SOL     OW16054   4.082   6.553   5.429  0.1725 -0.1271 -0.1296
 5052SOL    HW116055   4.011   6.611   5.470 -0.1437  0.3202 -1.2713
 5052SOL    HW216056   4.114   6.595   5.344  0.2774 -1.3852 -0.7402
 5053SOL     OW16057   4.842   3.175   6.425 -0.8595  0.0802 -0.0420
 5053SOL    HW116058   4.926   3.202   6.377 -1.7361  3.3516  0.0257
 5053SOL    HW216059   4.774   3.145   6.358  0.0119 -1.7840 -0.1654
 5054SOL     OW16060   4.816   1.005   2.410  0.3851 -0.0453 -0.1374
 5054SOL    HW116061   4.819   1.104   2.423 -0.3177 -0.1837  1.2493
 5054SOL    HW216062   4.722   0.973   2.419  0.5900 -0.8244 -0.7244
 5055SOL     OW16063   0.954   1.380   0.498  0.2373 -0.1959 -0.1179
 5055SOL    HW116064   0.931   1.286   0.523  0.2609 -0.0797  0.3509
 5055SOL    HW216065   1.053   1.389   0.492  0.2361 -0.1924 -0.1329
 5056SOL     OW16066   0.118   5.111   3.657 -0.5149  0.7820  0.0241
 5056SOL    HW116067   0.203   5.155   3.688 -0.7326  0.5752  0.9249
 5056SOL    HW216068   0.040   5.159   3.696 -0.7759  0.0632  0.3848
 5057SOL     OW16069   1.157   0.578   6.186 -0.0725 -0.0080 -0.3299
 5057SOL    HW116070   1.144   0.650   6.118  1.7645 -0.1620 -0.9068
 5057SOL    HW216071   1.125   0.491   6.149 -0.9736  0.2655 -0.1944
 5058SOL     OW16072   0.180   0.309   0.296 -0.5235  0.1038  0.2121
 5058SOL    HW116073   0.200   0.224   0.346  0.1028 -1.9412 -3.1709
 5058SOL    HW216074   0.082   0.315   0.280 -0.6892  0.6031  1.2943
 5059SOL     OW16075   4.986   2.183   0.500 -0.8726  0.6753  1.1307
 5059SOL    HW116076   4.992   2.115   0.427  1.6064  1.7117  0.2485
 5059SOL    HW216077   4.899   2.231   0.493 -0.4490  1.2308 -1.6723
 5060SOL     OW16078   1.147   6.463   2.726  0.2044  0.0471  0.0511
 5060SOL    HW116079   1.133   6.366   2.748 -0.3817 -0.2491 -1.4766
 5060SOL    HW216080   1.204   6.505   2.796 -1.8055 -0.6942  2.2891
 5061SOL     OW16081   3.910   0.954   4.601  0.0208  0.5258 -0.3739
 5061SOL    HW116082   3.887   1.051   4.605  0.6842  0.6516  0.4440
 5061SOL    HW216083   3.825   0.901   4.591 -0.4166  1.1272  0.0669
 5062SOL     OW16084   4.253   2.733   6.946  0.0202 -0.3297 -0.3381
 5062SOL    HW116085   4.199   2.796   6.890 -0.0898  0.4054  0.5723
 5062SOL    HW216086   4.203   2.647   6.957  0.9402 -1.3178 -3.0728
 5063SOL     OW16087   6.792   5.612   6.506 -0.0349 -0.0869 -0.0706
 5063SOL    HW116088   6.752   5.602   6.415  0.4297  0.4275 -0.3369
 5063SOL    HW216089   6.719   5.607   6.575 -0.1985 -2.2508 -0.3288
 5064SOL     OW16090   1.241   5.003   4.013  0.1499  0.2531 -0.2682
 5064SOL    HW116091   1.192   5.024   3.929  2.1920 -0.7345 -1.8267
 5064SOL    HW216092   1.334   4.973   3.990  0.7211 -0.2485  2.3517
 5065SOL     OW16093   5.695   6.851   2.496 -0.5889  0.2231 -0.6721
 5065SOL    HW116094   5.637   6.802   2.561  1.8881 -2.3479 -0.2033
 5065SOL    HW216095   5.670   6.824   2.403  0.4966 -1.7785 -0.4345
 5066SOL     OW16096   1.162   1.588   2.730 -0.2796  0.7594 -0.0961
 5066SOL    HW116097   1.182   1.609   2.826  0.7969 -0.0167 -0.1406
 5066SOL    HW216098   1.247   1.569   2.682 -0.9256 -0.1912 -0.8929
 5067SOL     OW16099   3.683   6.546   3.337 -0.3184 -0.0838 -0.4898
 5067SOL    HW116100   3.613   6.575   3.271 -1.2706 -0.1079  0.4699
 5067SOL    HW216101   3.643   6.546   3.429  0.5296 -1.5063 -0.0889
 5068SOL     OW16102   1.848   5.894   2.385 -0.3578  0.1986 -0.0438
 5068SOL    HW116103   1.781   5.960   2.350  0.0923 -0.2183 -1.8015
 5068SOL    HW216104   1.915   5.875   2.314 -0.3927 -2.0550  0.4581
 5069SOL     OW16105   4.951   5.182   1.000 -0.1801 -0.1948 -0.0873
 5069SOL    HW116106   4.918   5.228   1.082 -2.4122 -0.6224 -0.6761
 5069SOL    HW216107   4.925   5.234   0.919 -1.4868 -1.6972 -0.6909
 5070SOL     OW16108   5.733   6.439   3.014 -0.5259  0.5631  0.2952
 5070SOL    HW116109   5.809   6.496   3.048  0.7975  1.0577 -3.1300
 5070SOL    HW216110   5.763   6.344   3.005 -1.0165  0.3422  0.9018
 5071SOL     OW16111   3.466   2.290   0.119 -0.2212  0.2477 -0.2604
 5071SOL    HW116112   3.553   2.333   0.145 -0.4834 -0.2101  1.4982
 5071SOL    HW216113   3.406   2.358   0.079 -0.2547  1.3489  1.5365
 5072SOL     OW16114   5.818   2.056   6.428 -0.4760  0.4339 -0.2404
 5072SOL    HW116115   5.869   2.086   6.348  0.2278  0.1255  0.0810
 5072SOL    HW216116   5.739   2.116   6.441 -1.0914 -0.0415 -1.6489
 5073SOL     OW16117   0.407   1.278   3.493 -0.2325  0.4954 -0.3277
 5073SOL    HW116118   0.506   1.289   3.495 -0.2378  1.1543 -2.0056
 5073SOL    HW216119   0.374   1.291   3.400 -1.9439  0.6061  0.2574
 5074SOL     OW16120   0.559   1.688   4.360  0.6956  0.4290 -0.6095
 5074SOL    HW116121   0.611   1.772   4.351  0.1233  0.7199 -1.4139
 5074SOL    HW216122   0.467   1.709   4.392 -0.1321  0.3988 -2.7682
 5075SOL     OW16123   5.300   5.934   3.587 -0.0531 -0.3189 -0.4338
 5075SOL    HW116124   5.275   5.997   3.660 -0.7219 -0.3423 -0.6368
 5075SOL    HW216125   5.231   5.937   3.514  0.5194 -0.4132 -0.9902
 5076SOL     OW16126   4.509   3.045   5.515  0.0916 -0.7607 -0.7588
 5076SOL    HW116127   4.503   3.001   5.604 -1.1449 -1.1920 -1.0323
 5076SOL    HW216128   4.579   3.000   5.460  0.6638 -0.6729 -0.1147
 5077SOL     OW16129   5.639   2.120   1.685  0.3737 -0.1231 -0.1191
 5077SOL    HW116130   5.667   2.077   1.771  1.1477  0.0731 -0.2649
 5077SOL    HW216131   5.570   2.190   1.704 -0.2221 -0.7830  0.2196
 5078SOL     OW16132   0.895   1.932   3.955  0.1863  0.1691  0.0601
 5078SOL    HW116133   0.829   1.976   3.893  1.5065  0.7413 -0.9890
 5078SOL    HW216134   0.981   1.983   3.953  0.7314 -0.6637  1.2713
 5079SOL     OW16135   5.988   6.026   5.292  0.5387  0.4149 -0.6344
 5079SOL    HW116136   5.939   6.111   5.275  2.3673  1.5883 -0.3716
 5079SOL    HW216137   6.078   6.030   5.247  1.1457 -0.8506  0.4013
 5080SOL     OW16138   1.165   3.782   2.559 -0.2548 -0.3423 -0.3525
 5080SOL    HW116139   1.167   3.683   2.574  1.3384 -0.2971 -0.0745
 5080SOL    HW216140   1.238   3.807   2.494 -3.0278  0.2211 -3.5262
 5081SOL     OW16141   3.122   3.870   3.926 -0.1992 -0.4261 -0.2326
 5081SOL    HW116142   3.066   3.847   3.846 -0.3603 -0.6116 -0.0692
 5081SOL    HW216143   3.198   3.806   3.932 -0.1031 -0.3210 -0.3193
 5082SOL     OW16144   0.473   4.015   0.047  0.1798 -0.4329  0.3106
 5082SOL    HW116145   0.476   3.916   0.033 -2.7698 -0.5605 -0.0400
 5082SOL    HW216146   0.543   4.059  -0.010  1.3005 -2.2576  0.1960
 5083SOL     OW16147   3.983   0.466   1.500  0.1944 -0.1433 -0.4130
 5083SOL    HW116148   4.016   0.479   1.406 -1.2084  0.7279 -0.8214
 5083SOL    HW216149   3.883   0.456   1.498  0.1386  0.0383  1.0049
 5084SOL     OW16150   5.889   6.661   0.770 -0.8596  0.5616  0.2143
 5084SOL    HW116151   5.871   6.567   0.740 -1.2875  0.2033  1.5345
 5084SOL    HW216152   5.836   6.725   0.714 -1.7636 -0.0881  0.3073
 5085SOL     OW16153   3.080   1.623   0.537 -0.2440  0.3648  0.2841
 5085SOL    HW116154   3.062   1.543   0.595  1.5404 -0.1750  0.1631
 5085SOL    HW216155   3.120   1.695   0.592 -2.8510  1.6681  0.6229
 5086SOL     OW16156   3.819   6.880   6.420 -0.7587 -0.6786  0.2087
 5086SOL    HW116157   3.728   6.873   6.461 -0.9901  1.8754  0.3125
 5086SOL    HW216158   3.819   6.953   6.352  0.7358 -1.9856 -1.2889
 5087SOL     OW16159   2.194   3.044   1.501 -0.5249 -0.0552 -0.2897
 5087SOL    HW116160   2.098   3.031   1.528 -0.3047 -0.4526  0.3295
 5087SOL    HW216161   2.232   2.955   1.475  0.3330 -0.3227  1.7145
 5088SOL     OW16162   6.343   0.506   0.365  0.1397  0.4600  0.0336
 5088SOL    HW116163   6.367   0.571   0.437 -1.4715 -0.4390  1.4814
 5088SOL    HW216164   6.412   0.434   0.359 -0.5331 -0.4014  1.9416
 5089SOL     OW16165   4.081   1.796   5.346 -0.4710 -0.2178  0.5117
 5089SOL    HW116166   4.005   1.845   5.305 -0.0576  1.8633  2.0957
 5089SOL    HW216167   4.153   1.781   5.277 -1.6175 -0.8349 -0.5936
 5090SOL     OW16168   5.257   2.964   6.026  0.4465  0.0792 -0.7144
 5090SOL    HW116169   5.207   2.951   5.940  1.7076 -3.4045 -1.1001
 5090SOL    HW216170   5.195   2.946   6.103  0.2230 -0.7176 -1.0663
 5091SOL     OW16171   0.276   2.053   0.073  0.3863 -0.0339  0.1881
 5091SOL    HW116172   0.264   2.098  -0.015 -2.9158  0.5366  0.7796
 5091SOL    HW216173   0.274   1.954   0.060 -3.1681 -0.0481 -0.2879
 5092SOL     OW16174   0.629   5.705   3.683 -0.7446  0.1358 -0.3057
 5092SOL    HW116175   0.603   5.794   3.720 -1.8317  0.3242 -1.4335
 5092SOL    HW216176   0.547   5.651   3.666 -0.0592 -1.7001  1.7097
 5093SOL     OW16177   6.894   2.231   2.533  0.3688 -0.0696 -0.0220
 5093SOL    HW116178   6.945   2.152   2.566 -0.3652 -0.4745  0.1529
 5093SOL    HW216179   6.884   2.298   2.606 -1.6999 -1.1859  0.8097
 5094SOL     OW16180   0.235   1.973   2.427 -0.4245 -0.5513 -0.0799
 5094SOL    HW116181   0.308   2.016   2.374  0.5283 -2.2193 -0.1969
 5094SOL    HW216182   0.212   2.030   2.505 -1.9520  2.0605 -2.2502
 5095SOL     OW16183   5.539   0.013   1.789  0.2146  0.3420 -0.0981
 5095SOL    HW116184   5.492   0.089   1.834  1.1643  0.5891  0.4833
 5095SOL    HW216185   5.548   0.033   1.691  0.4234  0.9538  0.0434
 5096SOL     OW16186   6.919   6.474   3.986 -0.0468  0.2351  0.3169
 5096SOL    HW116187   6.835   6.495   3.937  0.5223  1.3019 -0.2425
 5096SOL    HW216188   6.972   6.558   4.000  1.2263 -0.4916  0.0998
 5097SOL     OW16189   4.137   3.660   3.621  0.2751 -0.4292  0.3278
 5097SOL    HW116190   4.126   3.575   3.672 -2.2465 -0.2153  0.2636
 5097SOL    HW216191   4.136   3.737   3.684 -0.0661 -0.3260  0.2034
 5098SOL     OW16192   4.667   5.849   2.918  0.4033 -0.3487  0.2686
 5098SOL    HW116193   4.606   5.867   2.995  1.3938  2.1847  0.5855
 5098SOL    HW216194   4.677   5.751   2.905  0.7593 -0.9332  3.8794
 5099SOL     OW16195   5.141   1.139   5.587  0.0297 -0.3432 -0.4363
 5099SOL    HW116196   5.128   1.210   5.518  0.2359  2.3074  2.0262
 5099SOL    HW216197   5.053   1.113   5.625  0.1121  0.4821  0.3560
 5100SOL     OW16198   3.495   3.045   6.382  0.1753  0.2829  1.0871
 5100SOL    HW116199   3.508   3.103   6.302  0.3258  0.3639  1.1711
 5100SOL    HW216200   3.568   3.060   6.448 -0.7259  1.2969  1.8932
 5101SOL     OW16201   5.475   4.741   4.694 -0.0183 -0.4687  0.1995
 5101SOL    HW116202   5.512   4.696   4.613  2.6883  0.4407  0.8137
 5101SOL    HW216203   5.483   4.840   4.683  0.9081 -0.3371  1.7542
 5102SOL     OW16204   1.727   2.084   6.990 -0.3973 -0.1904  0.1754
 5102SOL    HW116205   1.796   2.012   6.983  0.3054  0.2707  1.8922
 5102SOL    HW216206   1.637   2.043   7.006 -0.1021 -0.7133  0.5135
 5103SOL     OW16207   6.982   2.317   0.191  0.0371 -0.5529  0.3053
 5103SOL    HW116208   7.076   2.350   0.194 -0.1471 -0.0745  0.9898
 5103SOL    HW216209   6.940   2.343   0.104  0.9119 -1.8363 -0.5286
 5104SOL     OW16210   0.681   2.239   1.312  0.3129  0.7255 -0.1679
 5104SOL    HW116211   0.760   2.299   1.325  2.0739 -1.2015 -1.3740
 5104SOL    HW216212   0.666   2.186   1.395  0.9961  0.3455 -0.2737
 5105SOL     OW16213   0.285   1.519   1.295 -0.1390  0.4781 -0.2751
 5105SOL    HW116214   0.270   1.425   1.325 -0.0006  0.8867  1.1219
 5105SOL    HW216215   0.197   1.562   1.275 -0.2125  0.1238 -0.7513
 5106SOL     OW16216   4.112   6.590   1.234  0.0761  0.4102 -0.3402
 5106SOL    HW116217   4.040   6.636   1.286 -0.7509 -0.4204 -0.7207
 5106SOL    HW216218   4.133   6.643   1.151 -0.6011  0.3002 -0.5857
 5107SOL     OW16219   6.913   5.039   4.640 -0.4750  0.5234 -0.3280
 5107SOL    HW116220   7.008   5.049   4.609 -0.0411 -1.5206  0.2172
 5107SOL    HW216221   6.852   5.043   4.561  0.0692  1.5694 -0.7161
 5108SOL     OW16222   3.455   3.384   2.938  0.6238 -0.3567  0.3047
 5108SOL    HW116223   3.549   3.355   2.919  0.2467 -1.1564 -0.3925
 5108SOL    HW216224   3.428   3.352   3.030  1.8163  1.9275  1.5359
 5109SOL     OW16225   2.813   4.150   0.377 -0.4855  0.1409  0.2601
 5109SOL    HW116226   2.803   4.074   0.441 -0.0011  0.1410  0.3380
 5109SOL    HW216227   2.899   4.141   0.326 -0.3350  0.7319  0.3993
 5110SOL     OW16228   4.526   1.348   2.224  0.1907  0.1163 -0.1031
 5110SOL    HW116229   4.463   1.338   2.147 -0.3601  0.1942  0.3245
 5110SOL    HW216230   4.545   1.444   2.240 -0.1147  0.1334  0.1794
 5111SOL     OW16231   6.851   3.364   1.646 -0.3592  0.2249 -0.2993
 5111SOL    HW116232   6.875   3.461   1.643 -2.3483  0.7835  0.1795
 5111SOL    HW216233   6.909   3.313   1.582 -0.7781  2.0747 -2.2698
 5112SOL     OW16234   0.612   3.185   3.730 -0.5323 -0.2099  0.3912
 5112SOL    HW116235   0.585   3.100   3.687 -1.1284 -0.0762  0.5008
 5112SOL    HW216236   0.701   3.173   3.774  0.6279 -0.0525 -1.7755
 5113SOL     OW16237   3.983   0.733   2.663  0.4769  0.2535 -0.4211
 5113SOL    HW116238   4.014   0.757   2.572 -0.5175  1.3726 -0.4945
 5113SOL    HW216239   3.993   0.812   2.724 -0.0123 -0.0862  0.1203
 5114SOL     OW16240   4.662   2.526   3.709 -0.0129 -0.1293  0.1517
 5114SOL    HW116241   4.700   2.591   3.776 -0.9479 -0.6543  1.2232
 5114SOL    HW216242   4.724   2.519   3.631 -0.2505  2.6084 -0.3589
 5115SOL     OW16243   4.539   2.152   1.692 -0.7445 -0.2251  0.0414
 5115SOL    HW116244   4.532   2.130   1.594  2.1773 -0.4879 -0.2188
 5115SOL    HW216245   4.624   2.204   1.708 -1.9464  1.2319  2.2500
 5116SOL     OW16246   2.928   6.493   6.195  0.0043 -0.0300  0.3413
 5116SOL    HW116247   2.839   6.509   6.152 -0.2068 -1.3001  0.2901
 5116SOL    HW216248   2.946   6.395   6.200  1.5245  0.2148  0.1132
 5117SOL     OW16249   2.324   3.460   5.297 -0.0600 -0.4635  0.6468
 5117SOL    HW116250   2.323   3.558   5.315 -0.2593 -0.4749  0.7027
 5117SOL    HW216251   2.291   3.444   5.204  2.1041 -0.3127 -0.2122
 5118SOL     OW16252   1.114   3.617   0.696 -0.5235 -0.4323 -0.1000
 5118SOL    HW116253   1.047   3.592   0.626 -0.8095 -0.1468  0.0678
 5118SOL    HW216254   1.069   3.620   0.785  0.0718 -1.9154  0.2807
 5119SOL     OW16255   4.704   1.776   5.493  0.1221  0.7193  0.3094
 5119SOL    HW116256   4.616   1.794   5.449 -0.1418  0.0598  0.5498
 5119SOL    HW216257   4.776   1.827   5.446 -0.3253  0.9334 -0.1559
 5120SOL     OW16258   0.569   0.695   0.701  0.4354 -0.2100  0.7224
 5120SOL    HW116259   0.500   0.767   0.710 -1.9229 -2.2567  0.2961
 5120SOL    HW216260   0.622   0.689   0.786 -0.8604  0.5352  1.6197
 5121SOL     OW16261   4.526   3.539   0.714  0.3568 -0.4222  0.0696
 5121SOL    HW116262   4.576   3.463   0.672 -0.0864 -0.3491 -0.6138
 5121SOL    HW216263   4.586   3.590   0.776  0.9005 -0.7906 -0.1532
 5122SOL     OW16264   3.375   5.925   2.857  0.2619  1.0363  0.1230
 5122SOL    HW116265   3.415   5.935   2.766  1.1835  0.5189  0.4535
 5122SOL    HW216266   3.443   5.951   2.926  0.5123 -1.0757  0.7483
 5123SOL     OW16267   0.392   0.109   1.373  0.2963  0.3096  0.5956
 5123SOL    HW116268   0.362   0.204   1.377  0.3323  0.2839  1.7195
 5123SOL    HW216269   0.477   0.103   1.321  2.0243  1.3853  3.0985
 5124SOL     OW16270   4.738   5.600   2.899 -0.1951  0.1804 -0.2307
 5124SOL    HW116271   4.775   5.561   2.983 -1.3752 -0.0878  0.1894
 5124SOL    HW216272   4.737   5.531   2.827 -0.6714 -0.0777  0.0137
 5125SOL     OW16273   0.362   1.459   0.018 -0.7762 -0.4849  0.0246
 5125SOL    HW116274   0.389   1.365  -0.002  1.3998 -0.2340  1.3846
 5125SOL    HW216275   0.366   1.513  -0.067  1.2669 -0.9440 -0.2411
 5126SOL     OW16276   3.083   3.226   6.940  0.0933 -0.4186  0.1170
 5126SOL    HW116277   3.051   3.288   6.869  1.2889 -1.0132 -0.9642
 5126SOL    HW216278   3.045   3.255   7.029 -0.1306  1.2690 -0.4981
 5127SOL     OW16279   5.733   3.180   3.399  0.0966  0.5336 -0.2086
 5127SOL    HW116280   5.780   3.093   3.411 -0.7269 -0.0537 -1.0911
 5127SOL    HW216281   5.741   3.235   3.482 -1.4525 -1.3835  1.3075
 5128SOL     OW16282   4.812   0.967   6.338  0.7901 -0.3918 -0.5871
 5128SOL    HW116283   4.736   0.903   6.323  1.3160 -0.6965 -2.2376
 5128SOL    HW216284   4.812   0.997   6.433 -0.0040 -2.1758  0.0328
 5129SOL     OW16285   1.486   4.838   3.964 -0.6481 -0.4933 -0.1534
 5129SOL    HW116286   1.503   4.749   4.006  0.6568 -0.6072 -0.8660
 5129SOL    HW216287   1.520   4.837   3.870 -0.2911  0.8652 -0.0503
 5130SOL     OW16288   5.860   3.850   3.058  0.0041  0.3628  0.5520
 5130SOL    HW116289   5.886   3.888   3.146  0.4787  0.6380  0.2953
 5130SOL    HW216290   5.829   3.756   3.070  0.9201  0.0968  0.8869
 5131SOL     OW16291   2.204   3.787   0.488  0.3215  0.5134 -0.1016
 5131SOL    HW116292   2.293   3.818   0.520  0.6604 -0.2893 -0.2524
 5131SOL    HW216293   2.137   3.861   0.500  0.5641  0.4648  1.8694
 5132SOL     OW16294   1.440   5.211   1.192 -0.1119 -0.2063 -0.0187
 5132SOL    HW116295   1.433   5.180   1.287  0.9571 -1.6630 -0.3762
 5132SOL    HW216296   1.456   5.132   1.132 -1.5193  0.5714 -1.5312
 5133SOL     OW16297   6.816   2.363   1.053 -0.2981  0.1636  0.6194
 5133SOL    HW116298   6.769   2.404   0.975 -0.8083  0.0469  0.8593
 5133SOL    HW216299   6.906   2.404   1.063 -1.0641  1.7785  1.2935
 5134SOL     OW16300   2.722   1.572   1.957  0.8277  0.0642 -0.5638
 5134SOL    HW116301   2.772   1.609   1.879 -1.8148  3.6287 -0.8072
 5134SOL    HW216302   2.640   1.525   1.926 -0.5277  1.9687 -0.0405
 5135SOL     OW16303   2.381   6.904   5.577  0.2861 -0.0318 -0.2570
 5135SOL    HW116304   2.344   6.825   5.528 -0.4252  0.3215 -0.2907
 5135SOL    HW216305   2.328   6.985   5.556  0.0641  0.1649  0.9693
 5136SOL     OW16306   3.892   6.318   0.680  0.1331  0.3195 -0.6860
 5136SOL    HW116307   3.965   6.311   0.748 -1.2511  1.0572  0.9489
 5136SOL    HW216308   3.866   6.226   0.649 -0.3265 -0.1633  1.0394
 5137SOL     OW16309   6.606   0.905   3.828 -0.4573 -0.3609 -0.3159
 5137SOL    HW116310   6.633   0.989   3.875 -1.4887  0.2515 -0.7737
 5137SOL    HW216311   6.634   0.826   3.881  0.9044  0.2616 -0.0814
 5138SOL     OW16312   2.768   6.177   6.956 -0.3986  0.6941  0.1656
 5138SOL    HW116313   2.846   6.238   6.971  0.2237  0.3849 -1.6212
 5138SOL    HW216314   2.692   6.206   7.013  0.9477  1.1114  1.8452
 5139SOL     OW16315   1.442   3.543   1.614  0.6388  0.1372 -0.4761
 5139SOL    HW116316   1.536   3.544   1.580  0.3697  0.0835 -1.2316
 5139SOL    HW216317   1.425   3.456   1.660  0.6715 -0.2434 -1.1738
 5140SOL     OW16318   5.498   5.877   2.237  0.1223 -0.2608 -0.1006
 5140SOL    HW116319   5.501   5.777   2.226 -1.0451 -0.3530  0.3206
 5140SOL    HW216320   5.533   5.920   2.154 -1.1964 -1.0101 -1.0785
 5141SOL     OW16321   1.254   3.362   2.437 -0.2725 -0.3945  0.5432
 5141SOL    HW116322   1.275   3.264   2.433 -1.6489 -0.7009  0.0720
 5141SOL    HW216323   1.212   3.383   2.525 -1.5277 -0.5918  0.0148
 5142SOL     OW16324   1.147   0.632   5.834  0.0091 -0.1703  0.8394
 5142SOL    HW116325   1.147   0.717   5.886  3.1096  1.0791 -0.9350
 5142SOL    HW216326   1.077   0.570   5.871 -1.3810  2.5271  3.1091
 5143SOL     OW16327   5.500   4.651   0.538  0.1438  0.0295  0.1516
 5143SOL    HW116328   5.590   4.608   0.542  0.8100  1.2789 -0.3989
 5143SOL    HW216329   5.512   4.750   0.529 -1.2644  0.1423 -0.8688
 5144SOL     OW16330   3.898   5.155   5.121 -0.4161  0.3973  0.4762
 5144SOL    HW116331   3.926   5.065   5.089 -1.2045 -0.4375  2.0162
 5144SOL    HW216332   3.822   5.189   5.065 -0.0594  0.1469 -0.1627
 5145SOL     OW16333   0.835   3.667   3.462  0.2856 -0.2652  0.4047
 5145SOL    HW116334   0.888   3.668   3.377 -1.4451  0.5243 -0.7367
 5145SOL    HW216335   0.836   3.758   3.504 -0.0410 -0.2758  0.4419
 5146SOL     OW16336   3.038   5.733   0.919 -0.3527  0.2706 -0.0402
 5146SOL    HW116337   3.107   5.702   0.985 -0.5599 -1.3695 -0.5383
 5146SOL    HW216338   3.053   5.686   0.832 -1.2692  0.9405 -0.5743
 5147SOL     OW16339   5.481   0.431   1.406 -0.5211 -0.1851  0.1025
 5147SOL    HW116340   5.551   0.471   1.347 -0.0789 -0.0047  0.7352
 5147SOL    HW216341   5.391   0.467   1.381 -0.4561 -0.7994 -1.0409
 5148SOL     OW16342   5.307   6.706   2.100  0.8855  1.2338 -0.0948
 5148SOL    HW116343   5.280   6.684   2.194  2.6300  1.0562  0.3968
 5148SOL    HW216344   5.248   6.656   2.036 -0.1116  1.0972  0.9008
 5149SOL     OW16345   5.782   3.702   4.407 -0.3596  0.4333 -0.5423
 5149SOL    HW116346   5.702   3.680   4.463 -1.6334  1.2288 -1.9637
 5149SOL    HW216347   5.855   3.637   4.426 -1.4394 -0.4950  0.5898
 5150SOL     OW16348   6.592   5.977   5.277  0.1107 -0.0550 -0.0421
 5150SOL    HW116349   6.672   5.918   5.271 -0.2938 -0.7842  1.2864
 5150SOL    HW216350   6.518   5.941   5.221  0.4560  0.1939 -0.6595
 5151SOL     OW16351   2.585   4.873   3.226  0.4620 -0.2723  0.5308
 5151SOL    HW116352   2.553   4.932   3.300 -0.1073  0.3462 -0.2019
 5151SOL    HW216353   2.526   4.883   3.146  2.1805  0.5350 -0.7063
 5152SOL     OW16354   0.966   4.249   6.227 -0.1074 -0.0375 -0.5956
 5152SOL    HW116355   1.024   4.191   6.285 -1.8596 -0.7000  0.5803
 5152SOL    HW216356   0.977   4.223   6.131 -0.0299 -1.5837 -0.1933
 5153SOL     OW16357   1.875   0.407   2.237 -0.3721 -0.3662 -0.3550
 5153SOL    HW116358   1.845   0.457   2.318 -1.2607 -0.7993 -0.3977
 5153SOL    HW216359   1.960   0.359   2.257 -0.1314  0.2047  0.0486
 5154SOL     OW16360   2.397   5.338   5.471 -0.0092 -0.5004  0.4393
 5154SOL    HW116361   2.420   5.292   5.557 -1.7064 -0.5142  0.9153
 5154SOL    HW216362   2.310   5.303   5.436  1.2264 -1.4233 -1.9878
 5155SOL     OW16363   4.324   2.667   0.965 -0.1289  0.7320  0.1848
 5155SOL    HW116364   4.393   2.739   0.969  0.3340  0.2424  1.6231
 5155SOL    HW216365   4.275   2.672   0.878  2.2602  0.6126 -1.2460
 5156SOL     OW16366   3.496   0.569   2.681  0.3959  0.2075 -0.0217
 5156SOL    HW116367   3.530   0.593   2.772 -0.6955  0.4465  0.3399
 5156SOL    HW216368   3.414   0.623   2.661  1.8503  1.8321 -2.0841
 5157SOL     OW16369   5.620   1.121   1.559  0.0075 -0.4095 -0.6210
 5157SOL    HW116370   5.551   1.181   1.519 -1.3520 -1.3612  0.1943
 5157SOL    HW216371   5.657   1.062   1.487  0.3927  0.4845 -1.1722
 5158SOL     OW16372   6.787   0.877   0.361  0.0623 -0.0279 -0.1911
 5158SOL    HW116373   6.875   0.859   0.318 -0.0113  0.1133 -0.3997
 5158SOL    HW216374   6.797   0.950   0.429  0.4650 -1.1451  0.9955
 5159SOL     OW16375   6.991   5.297   5.694 -0.0175  0.2086  0.1286
 5159SOL    HW116376   7.083   5.334   5.679 -0.4565  1.3735  0.1661
 5159SOL    HW216377   6.972   5.227   5.626 -0.1526  1.9848 -1.7694
 5160SOL     OW16378   0.542   5.864   5.338  0.5526 -0.5185  0.1994
 5160SOL    HW116379   0.485   5.910   5.406  0.2688  0.8544 -0.9131
 5160SOL    HW216380   0.484   5.831   5.263  1.0910 -0.0346 -0.4427
 5161SOL     OW16381   0.950   0.453   5.440 -0.1218  0.7797 -0.3104
 5161SOL    HW116382   1.034   0.504   5.423 -0.6041  1.6242 -0.2115
 5161SOL    HW216383   0.889   0.507   5.498  0.3948 -0.9641  1.9638
 5162SOL     OW16384   2.547   4.438   6.317 -0.1995  0.2448  0.6320
 5162SOL    HW116385   2.518   4.458   6.411 -0.3164  1.8409  0.2859
 5162SOL    HW216386   2.642   4.407   6.317  0.0409  0.9518  1.2207
 5163SOL     OW16387   3.657   1.931   6.547 -0.5634  0.2346  0.6284
 5163SOL    HW116388   3.652   1.899   6.453 -1.5228  3.5766 -0.5987
 5163SOL    HW216389   3.598   1.876   6.605 -1.0777 -0.9989 -1.0114
 5164SOL     OW16390   3.276   3.443   4.321 -0.8490  0.5470 -1.2195
 5164SOL    HW116391   3.251   3.502   4.398 -0.1719 -0.2438 -0.3602
 5164SOL    HW216392   3.358   3.478   4.277 -0.9891  0.7662 -1.3061
 5165SOL     OW16393   0.931   0.373   4.350  0.6720  0.4171  0.6928
 5165SOL    HW116394   0.882   0.294   4.388  0.5657 -0.1838 -0.6443
 5165SOL    HW216395   0.943   0.442   4.421  0.1371 -0.5016  1.7040
 5166SOL     OW16396   0.996   1.753   3.602 -0.7491 -0.2379 -0.1532
 5166SOL    HW116397   0.970   1.736   3.697  0.0082 -0.3129  0.0406
 5166SOL    HW216398   0.930   1.709   3.542 -0.8687 -0.7403  0.3368
 5167SOL     OW16399   4.611   4.286   2.328 -0.4864 -0.7993 -0.0041
 5167SOL    HW116400   4.691   4.227   2.315  0.1499  0.1053 -0.2997
 5167SOL    HW216401   4.560   4.291   2.243  1.9296  2.5828 -1.4697
 5168SOL     OW16402   1.499   3.127   4.946  0.4822 -0.3455  0.4949
 5168SOL    HW116403   1.530   3.222   4.938  3.0148 -1.1275  0.1676
 5168SOL    HW216404   1.455   3.113   5.035  1.4358  0.7787  1.1619
 5169SOL     OW16405   5.002   6.276   1.643 -0.0039 -0.3981  0.4631
 5169SOL    HW116406   4.968   6.370   1.636 -1.2960 -0.8701  0.1672
 5169SOL    HW216407   5.046   6.250   1.557 -4.2784 -1.7626 -1.6222
 5170SOL     OW16408   2.306   5.099   6.814  0.5704 -0.1360  0.2442
 5170SOL    HW116409   2.322   5.018   6.757  1.4260 -0.5198  1.0047
 5170SOL    HW216410   2.338   5.180   6.765 -0.2788 -0.2384 -0.5204
 5171SOL     OW16411   1.642   4.754   1.486  0.2808 -0.0888  0.1202
 5171SOL    HW116412   1.659   4.663   1.524  2.0744 -0.0784 -0.5734
 5171SOL    HW216413   1.642   4.822   1.560  1.4988 -0.3475  0.3723
 5172SOL     OW16414   0.746   2.566   0.138 -0.1939  0.8005  0.0808
 5172SOL    HW116415   0.765   2.653   0.094 -1.1086  0.2379 -1.5269
 5172SOL    HW216416   0.784   2.566   0.230  0.3227  2.6636 -0.0910
 5173SOL     OW16417   3.249   6.515   6.756 -0.0303  0.0562  0.1312
 5173SOL    HW116418   3.234   6.579   6.832  1.6933  0.0128  0.5630
 5173SOL    HW216419   3.258   6.566   6.671  0.9428  0.3866  0.4163
 5174SOL     OW16420   0.572   5.352   4.242  0.2847 -0.5018 -0.0775
 5174SOL    HW116421   0.544   5.449   4.241 -0.4886 -0.7101 -0.7414
 5174SOL    HW216422   0.670   5.345   4.226  0.2585  0.1659 -0.5934
 5175SOL     OW16423   1.614   3.949   4.563 -0.2412  0.4218  0.2062
 5175SOL    HW116424   1.693   3.959   4.623 -0.1795  0.1467  0.1720
 5175SOL    HW216425   1.567   3.864   4.584 -0.1276  0.2482 -0.2419
 5176SOL     OW16426   4.457   1.067   2.920 -0.4015 -0.0720 -0.5539
 5176SOL    HW116427   4.398   1.143   2.895 -0.0416 -0.0390 -1.3102
 5176SOL    HW216428   4.552   1.098   2.924  0.0486 -0.9442 -3.0442
 5177SOL     OW16429   0.763   6.906   6.260 -0.1347 -0.0019  0.0855
 5177SOL    HW116430   0.673   6.872   6.286 -0.4192 -0.1580 -1.0295
 5177SOL    HW216431   0.824   6.828   6.245  0.0655  0.0891  0.4261
 5178SOL     OW16432   2.201   2.955   3.861  0.8028  0.2299 -0.4243
 5178SOL    HW116433   2.116   2.928   3.906  1.1436 -0.8861 -0.4146
 5178SOL    HW216434   2.183   2.970   3.763  0.8600 -1.5426 -0.7451
 5179SOL     OW16435   3.358   5.857   5.421 -0.0089  0.0242 -0.0673
 5179SOL    HW116436   3.366   5.883   5.517  1.0455  0.6238 -0.3070
 5179SOL    HW216437   3.370   5.758   5.412 -2.1953 -0.3626  0.6337
 5180SOL     OW16438   0.947   3.548   2.797 -0.1234 -0.6477  0.3428
 5180SOL    HW116439   0.924   3.506   2.885  1.0099 -0.6622  0.6434
 5180SOL    HW216440   0.952   3.647   2.808  0.4256 -0.6807  0.3897
 5181SOL     OW16441   1.805   2.799   6.967  0.6202 -0.1944 -0.3566
 5181SOL    HW116442   1.823   2.791   7.066 -0.1247 -0.0697 -0.2047
 5181SOL    HW216443   1.887   2.833   6.921  0.8495  0.1293  0.2776
 5182SOL     OW16444   2.080   0.550   1.903  0.4595 -0.3591  0.3024
 5182SOL    HW116445   2.133   0.549   1.988 -2.8039 -2.0660  2.5287
 5182SOL    HW216446   2.045   0.642   1.888  3.3924  0.6961 -0.9686
 5183SOL     OW16447   1.646   0.825   5.245  0.4483 -0.4965 -0.1708
 5183SOL    HW116448   1.557   0.800   5.207 -0.1925 -1.4631  1.8364
 5183SOL    HW216449   1.653   0.791   5.339  1.5057  2.7070  1.0195
 5184SOL     OW16450   1.506   6.534   4.685 -0.7275  0.6673 -0.0644
 5184SOL    HW116451   1.474   6.484   4.604  1.7616  0.1524 -0.8033
 5184SOL    HW216452   1.575   6.480   4.733 -0.4778  1.9519  1.0973
 5185SOL     OW16453   4.010   2.116   1.014  0.2339 -0.0696 -0.0620
 5185SOL    HW116454   4.068   2.061   1.074  0.4566 -1.8423 -1.8258
 5185SOL    HW216455   4.011   2.078   0.922  0.5464  2.9979 -1.4661
 5186SOL     OW16456   5.350   3.691   0.686  0.1035 -0.8628 -0.5811
 5186SOL    HW116457   5.332   3.722   0.593  0.0084 -2.8823 -1.2920
 5186SOL    HW216458   5.273   3.715   0.745 -1.0071 -1.7653 -1.6099
 5187SOL     OW16459   5.839   3.350   6.687 -0.2366  0.4848 -0.1233
 5187SOL    HW116460   5.921   3.320   6.736 -0.8658 -1.0208  0.0750
 5187SOL    HW216461   5.817   3.444   6.713  0.1174  0.1261  1.6015
 5188SOL     OW16462   2.237   6.630   3.989  0.1160 -0.1222  0.0477
 5188SOL    HW116463   2.222   6.658   4.084  0.5816  0.1886  0.0350
 5188SOL    HW216464   2.295   6.698   3.944 -0.7400  0.1429 -0.6813
 5189SOL     OW16465   4.393   1.440   6.061  0.8581  0.3500  0.9235
 5189SOL    HW116466   4.492   1.452   6.053  0.7921  0.3323  0.0796
 5189SOL    HW216467   4.350   1.529   6.080  0.8512  0.6898 -0.6049
 5190SOL     OW16468   3.099   5.601   3.553 -0.0322  0.0042  0.5891
 5190SOL    HW116469   3.165   5.575   3.483  1.2710  0.4921  1.5940
 5190SOL    HW216470   3.126   5.561   3.641 -1.3624 -0.1900  0.9327
 5191SOL     OW16471   3.235   0.689   0.939 -0.6354  0.4058  0.0916
 5191SOL    HW116472   3.304   0.648   0.999 -1.3024 -0.8164  0.0571
 5191SOL    HW216473   3.248   0.656   0.845  0.1786  2.0287 -0.4142
 5192SOL     OW16474   0.291   0.893   3.606  0.3806 -0.5358  0.0485
 5192SOL    HW116475   0.305   0.988   3.635 -0.6669 -0.8878  1.7768
 5192SOL    HW216476   0.193   0.875   3.597  0.6013 -1.2200 -1.1474
 5193SOL     OW16477   3.058   5.640   5.369  0.0930 -0.2697  0.6692
 5193SOL    HW116478   3.075   5.731   5.330 -2.7429  0.0304 -0.0526
 5193SOL    HW216479   3.120   5.574   5.326  2.5708  1.3046  1.5652
 5194SOL     OW16480   0.423   2.874   0.696 -0.3180 -0.0487  0.1744
 5194SOL    HW116481   0.426   2.971   0.675  1.3877 -0.0547  0.1991
 5194SOL    HW216482   0.352   2.829   0.642  0.0668  0.9143 -1.1512
 5195SOL     OW16483   0.076   6.687   0.746  0.2366  0.3585  0.2650
 5195SOL    HW116484   0.165   6.731   0.755  0.7416 -0.8206  1.2053
 5195SOL    HW216485   0.005   6.750   0.780  1.0043  0.2689  2.1510
 5196SOL     OW16486   6.542   5.045   1.596 -0.4159  0.3131 -0.3115
 5196SOL    HW116487   6.519   4.971   1.533 -0.7909  0.8232 -0.7883
 5196SOL    HW216488   6.613   5.102   1.555 -0.8709  0.8192 -0.4219
 5197SOL     OW16489   4.192   6.239   1.661 -0.1425 -0.5912  0.4327
 5197SOL    HW116490   4.149   6.303   1.724 -1.7163 -0.1108 -1.0747
 5197SOL    HW216491   4.165   6.260   1.567  0.7346 -2.3682 -0.2685
 5198SOL     OW16492   4.704   2.459   2.985 -0.1971 -0.0501 -0.2736
 5198SOL    HW116493   4.707   2.367   2.945  1.7515 -1.3839  2.6253
 5198SOL    HW216494   4.669   2.523   2.917 -3.2259 -3.1179 -1.9189
 5199SOL     OW16495   1.733   0.676   5.480 -0.1728  0.3177 -0.2764
 5199SOL    HW116496   1.788   0.597   5.505  0.3808  0.9137  0.4857
 5199SOL    HW216497   1.637   0.650   5.474  0.2277 -0.9025 -2.3485
 5200SOL     OW16498   6.093   6.395   4.997 -0.0943  0.3148 -0.8197
 5200SOL    HW116499   6.102   6.443   5.085  1.1554  0.1427 -0.8386
 5200SOL    HW216500   6.120   6.457   4.923 -0.5954  0.2764 -1.0345
 5201SOL     OW16501   4.414   5.773   0.329 -0.3598  0.4806 -0.6266
 5201SOL    HW116502   4.434   5.813   0.418 -0.2292 -1.2232  0.1539
 5201SOL    HW216503   4.494   5.724   0.296 -1.3864 -1.7266 -0.0619
 5202SOL     OW16504   6.367   5.840   0.163 -0.3091  0.3996 -0.4429
 5202SOL    HW116505   6.337   5.745   0.152  0.1832  0.1444  0.3377
 5202SOL    HW216506   6.338   5.874   0.253  0.2144  0.7284 -0.3984
 5203SOL     OW16507   0.261   6.526   5.046 -0.2570  0.1412 -0.7344
 5203SOL    HW116508   0.167   6.545   5.075 -0.6030 -2.1139 -0.1242
 5203SOL    HW216509   0.260   6.455   4.976  0.8932  2.0083 -2.7317
 5204SOL     OW16510   2.494   5.378   6.011  0.2332  0.0157  0.0409
 5204SOL    HW116511   2.561   5.304   6.020  0.4024  0.2280  0.6186
 5204SOL    HW216512   2.466   5.408   6.103 -0.7097 -0.1180 -0.1982
 5205SOL     OW16513   6.022   0.086   1.453  0.2237  0.0134 -0.0780
 5205SOL    HW116514   6.064   0.151   1.516  1.8755 -2.0090  1.0435
 5205SOL    HW216515   6.088   0.062   1.381  0.7735 -2.5286  1.1812
 5206SOL     OW16516   3.811   0.725   5.016  0.5306 -0.0446  0.6197
 5206SOL    HW116517   3.801   0.654   5.085  1.5957 -0.3590  0.4636
 5206SOL    HW216518   3.749   0.800   5.037 -1.7393 -1.6214 -0.0194
 5207SOL     OW16519   0.903   4.015   6.774  0.0247  0.0018 -0.2834
 5207SOL    HW116520   0.836   3.974   6.712  0.2212 -1.3259  0.3403
 5207SOL    HW216521   0.917   3.954   6.852  1.8343  0.3341 -0.3143
 5208SOL     OW16522   1.280   0.736   3.773 -0.3371 -0.4659 -0.1013
 5208SOL    HW116523   1.232   0.696   3.851  0.5256 -1.7203 -0.1813
 5208SOL    HW216524   1.217   0.745   3.696 -0.2536 -3.3272 -0.6332
 5209SOL     OW16525   6.871   1.034   1.253  0.1458 -0.6063 -0.7439
 5209SOL    HW116526   6.919   1.099   1.193 -0.1826  0.3469 -0.0064
 5209SOL    HW216527   6.892   1.056   1.348  0.1446 -1.6991 -0.4803
 5210SOL     OW16528   0.281   3.727   3.466  0.4845 -0.1973 -0.1368
 5210SOL    HW116529   0.364   3.781   3.468  2.6102 -3.2037  1.3855
 5210SOL    HW216530   0.275   3.676   3.380  0.3768 -0.1943 -0.1321
 5211SOL     OW16531   4.152   4.298   5.317 -0.0500  0.6175  0.3799
 5211SOL    HW116532   4.218   4.326   5.248  0.0046 -0.3327  0.0264
 5211SOL    HW216533   4.095   4.376   5.343 -0.5395  0.8420 -1.2451
 5212SOL     OW16534   0.514   1.815   1.311 -0.4849 -0.0986  0.4176
 5212SOL    HW116535   0.592   1.756   1.331 -1.3724 -0.9322  1.5507
 5212SOL    HW216536   0.500   1.821   1.212  0.3584 -0.8060  0.2471
 5213SOL     OW16537   2.452   4.418   4.347 -0.1252  0.0248 -0.1300
 5213SOL    HW116538   2.420   4.326   4.374 -0.6080  0.2478  0.0754
 5213SOL    HW216539   2.494   4.463   4.426 -1.4952  0.6588  0.2858
 5214SOL     OW16540   6.220   3.463   5.947 -0.4616  0.2714 -0.2570
 5214SOL    HW116541   6.213   3.557   5.979 -1.1127  0.3761 -0.6802
 5214SOL    HW216542   6.147   3.445   5.881  0.5417 -0.0894 -1.3055
 5215SOL     OW16543   5.345   4.929   0.806  0.4308  0.0187  0.6241
 5215SOL    HW116544   5.270   4.983   0.768  0.3307 -0.6785 -0.1896
 5215SOL    HW216545   5.424   4.934   0.745  0.1978 -1.2893  0.1928
 5216SOL     OW16546   3.515   1.825   3.929 -0.1822 -0.0425 -0.0906
 5216SOL    HW116547   3.611   1.814   3.954 -0.6415 -0.0446  1.7865
 5216SOL    HW216548   3.477   1.905   3.976 -0.7075  0.9534 -2.0808
 5217SOL     OW16549   2.898   2.123   0.105  0.3886  0.1207  0.7157
 5217SOL    HW116550   2.829   2.053   0.121  0.6499 -0.3733 -0.2613
 5217SOL    HW216551   2.864   2.211   0.137  0.2410 -0.5183  2.3982
 5218SOL     OW16552   1.214   0.401   5.666  0.3873  0.0763  0.1028
 5218SOL    HW116553   1.174   0.483   5.705  2.2606  0.7875  0.6748
 5218SOL    HW216554   1.301   0.382   5.711  1.9458  0.0575 -2.6515
 5219SOL     OW16555   3.461   5.589   1.469  0.1468 -0.3654 -0.7136
 5219SOL    HW116556   3.525   5.540   1.528  1.1569 -1.4752 -2.6139
 5219SOL    HW216557   3.451   5.683   1.500 -0.0373 -1.1078  1.6790
 5220SOL     OW16558   4.931   0.973   0.736  0.5354  0.4861 -0.7407
 5220SOL    HW116559   5.017   0.923   0.734 -0.5473 -1.5118 -0.9862
 5220SOL    HW216560   4.859   0.912   0.770 -0.4000  2.7599  1.7427
 5221SOL     OW16561   6.299   5.975   2.209  0.2136 -0.4833  0.0246
 5221SOL    HW116562   6.230   5.984   2.280 -0.0789  2.1927 -0.4913
 5221SOL    HW216563   6.279   6.039   2.135  2.4862 -0.6408 -0.7996
 5222SOL     OW16564   3.074   6.664   0.239 -0.3370 -0.0045 -0.1139
 5222SOL    HW116565   3.094   6.573   0.276 -1.1964  0.3872  1.4013
 5222SOL    HW216566   3.001   6.706   0.293 -1.1024  0.9387 -1.8275
 5223SOL     OW16567   4.684   2.394   4.019  0.2283 -0.1653  0.3367
 5223SOL    HW116568   4.586   2.389   4.036  0.4014  0.5445  1.6673
 5223SOL    HW216569   4.723   2.302   4.021 -0.3220 -0.3962  0.4539
 5224SOL     OW16570   6.783   5.229   2.262 -0.1439 -0.4713  0.2391
 5224SOL    HW116571   6.845   5.152   2.275 -1.6170 -1.6831  0.3688
 5224SOL    HW216572   6.710   5.203   2.199  0.3957  1.4784 -1.2692
 5225SOL     OW16573   5.612   5.093   4.929  0.3858 -0.2513 -0.3341
 5225SOL    HW116574   5.570   5.181   4.950  1.0220 -0.1182  0.4235
 5225SOL    HW216575   5.561   5.020   4.976  0.6736 -0.1458  0.1452
 5226SOL     OW16576   0.200   6.835   3.083 -0.2810  0.1700 -0.1996
 5226SOL    HW116577   0.177   6.879   3.170  0.2910 -0.5077  0.3011
 5226SOL    HW216578   0.163   6.889   3.007 -0.6104  0.8704  0.4553
 5227SOL     OW16579   4.714   0.566   6.593  0.2881  0.3267  0.0775
 5227SOL    HW116580   4.762   0.612   6.668  0.6931 -1.1890  0.7980
 5227SOL    HW216581   4.780   0.543   6.521  0.3680 -0.2979  0.3361
 5228SOL     OW16582   0.284   0.738   5.812  0.2396 -0.2116  0.1990
 5228SOL    HW116583   0.353   0.707   5.877  0.2855 -1.2268 -0.3257
 5228SOL    HW216584   0.195   0.741   5.857  0.8911  3.3526  1.5874
 5229SOL     OW16585   1.064   4.533   2.322  0.1908 -0.2665  0.4771
 5229SOL    HW116586   0.976   4.495   2.349 -0.8102  1.1897 -0.5409
 5229SOL    HW216587   1.118   4.463   2.276 -0.8905 -0.9081  0.1501
 5230SOL     OW16588   0.900   2.177   4.694  0.2343  0.0552  0.2813
 5230SOL    HW116589   0.873   2.198   4.788  0.9523  0.9978  0.2909
 5230SOL    HW216590   0.995   2.146   4.692  0.2915  0.2525 -0.1550
 5231SOL     OW16591   3.413   0.529   5.370 -0.1315 -0.0424 -0.1072
 5231SOL    HW116592   3.404   0.626   5.393  0.2891 -0.2270  0.8977
 5231SOL    HW216593   3.412   0.474   5.454 -0.5263 -0.9262 -0.6722
 5232SOL     OW16594   3.163   1.874   3.459  0.9505 -0.9588  0.0061
 5232SOL    HW116595   3.164   1.974   3.458  1.1951 -0.9610 -0.1074
 5232SOL    HW216596   3.069   1.841   3.454  0.8757 -0.7338 -0.0656
 5233SOL     OW16597   0.787   4.268   2.167  0.6433  0.1985  0.1467
 5233SOL    HW116598   0.693   4.302   2.179  0.8642  0.9802 -0.3017
 5233SOL    HW216599   0.819   4.290   2.075  1.3989  0.2661  0.4207
 5234SOL     OW16600   3.185   6.361   1.342  0.1093 -0.5126 -0.6114
 5234SOL    HW116601   3.179   6.290   1.411  2.0886 -0.9417 -0.8384
 5234SOL    HW216602   3.093   6.382   1.308 -0.7703 -1.1278  1.2628
 5235SOL     OW16603   5.089   2.179   4.527  0.1923  0.0136 -0.1997
 5235SOL    HW116604   5.022   2.168   4.454 -0.6400  1.6161  0.2735
 5235SOL    HW216605   5.128   2.090   4.551 -0.1108 -0.6418 -2.0178
 5236SOL     OW16606   0.142   3.778   0.134  0.9617  0.1210 -0.3723
 5236SOL    HW116607   0.175   3.701   0.188 -1.0928 -0.8450 -0.4182
 5236SOL    HW216608   0.134   3.750   0.038 -2.4109 -0.6168 -0.0019
 5237SOL     OW16609   2.400   4.237   6.852  0.0076 -0.0017 -0.3502
 5237SOL    HW116610   2.348   4.314   6.890  1.0712  0.7353 -0.3255
 5237SOL    HW216611   2.363   4.151   6.888 -1.9195  0.4040 -1.2480
 5238SOL     OW16612   4.944   6.070   4.828 -0.1009  0.2474 -0.7276
 5238SOL    HW116613   4.875   6.142   4.831 -0.2430  0.1410 -1.3659
 5238SOL    HW216614   4.902   5.985   4.794  0.3106  0.1447 -0.9852
 5239SOL     OW16615   2.526   2.992   1.557  0.1727  0.2575  0.2580
 5239SOL    HW116616   2.479   3.080   1.554  0.5257  0.5214 -3.6939
 5239SOL    HW216617   2.464   2.922   1.590 -1.3317  1.4013 -0.0254
 5240SOL     OW16618   2.033   0.555   0.857 -0.7341 -0.0085 -0.0537
 5240SOL    HW116619   1.977   0.535   0.777 -0.4466 -1.1327  0.0012
 5240SOL    HW216620   2.021   0.482   0.925  0.4389 -0.0387  0.1472
 5241SOL     OW16621   2.996   6.264   3.668 -0.2050 -0.1658  0.1694
 5241SOL    HW116622   2.976   6.173   3.702  1.7364 -0.6469  0.1604
 5241SOL    HW216623   3.055   6.258   3.587 -2.8887  1.0221 -2.0326
 5242SOL     OW16624   0.758   2.110   3.026  0.5427 -0.5324 -0.3602
 5242SOL    HW116625   0.719   2.163   2.950 -0.4280  0.2444  0.6569
 5242SOL    HW216626   0.701   2.030   3.044  0.7686 -0.7119 -0.4269
 5243SOL     OW16627   0.203   6.982   6.568 -0.1464 -0.2080 -0.8349
 5243SOL    HW116628   0.143   6.933   6.631  0.6645 -1.6744 -1.1453
 5243SOL    HW216629   0.235   7.067   6.610 -0.3727 -0.6946  0.3499
 5244SOL     OW16630   3.272   3.042   5.364  1.0764 -0.0078  0.2837
 5244SOL    HW116631   3.338   3.098   5.414  1.4779 -0.3996  0.1940
 5244SOL    HW216632   3.222   2.983   5.428 -0.2896  1.3814  0.5592
 5245SOL     OW16633   3.016   1.066   6.077 -0.1950  0.2238 -0.3737
 5245SOL    HW116634   3.049   1.075   5.983  1.1526 -2.2758 -0.2315
 5245SOL    HW216635   2.952   0.989   6.082 -2.7149  2.1913  0.2674
 5246SOL     OW16636   0.163   5.935   6.836  0.0629  0.3435 -0.3494
 5246SOL    HW116637   0.131   5.847   6.870 -0.3048  0.7381  0.3463
 5246SOL    HW216638   0.262   5.931   6.821 -0.2219 -0.8118 -2.2940
 5247SOL     OW16639   4.384   4.636   1.109 -0.0215  0.4254 -0.2705
 5247SOL    HW116640   4.343   4.545   1.106  0.5821  0.1076  0.6254
 5247SOL    HW216641   4.353   4.684   1.191  0.2437  0.7374 -0.3496
 5248SOL     OW16642   6.686   5.555   4.654 -0.2530 -0.5606 -0.0878
 5248SOL    HW116643   6.744   5.517   4.727  1.5237 -0.0649 -1.1794
 5248SOL    HW216644   6.744   5.602   4.587 -1.9903  0.3108 -1.0336
 5249SOL     OW16645   3.762   6.997   0.392  0.5185 -0.4549  0.2288
 5249SOL    HW116646   3.757   7.094   0.416 -0.8931 -0.1775 -1.0147
 5249SOL    HW216647   3.675   6.953   0.413  0.2585 -0.8529 -1.5347
 5250SOL     OW16648   6.173   4.033   2.112 -0.2653 -0.1609  0.0410
 5250SOL    HW116649   6.203   4.091   2.188 -0.2840 -0.6467  0.4215
 5250SOL    HW216650   6.074   4.024   2.114 -0.5491  1.8341 -1.4970
 5251SOL     OW16651   0.596   6.019   2.522  0.0603 -0.5027 -0.0165
 5251SOL    HW116652   0.628   6.109   2.494  0.5779 -0.5765  0.3187
 5251SOL    HW216653   0.672   5.967   2.562  0.1738 -1.6903 -1.6644
 5252SOL     OW16654   6.567   4.479   4.157  0.2706 -0.6631 -0.0210
 5252SOL    HW116655   6.497   4.416   4.191  0.5770 -0.8566  0.2528
 5252SOL    HW216656   6.607   4.529   4.234 -1.5741  1.5684 -0.4083
 5253SOL     OW16657   5.370   2.913   4.923 -0.3078 -0.8661 -0.4876
 5253SOL    HW116658   5.452   2.870   4.960 -0.2007 -1.2540 -1.1528
 5253SOL    HW216659   5.297   2.910   4.992 -0.0520 -1.3915 -0.2318
 5254SOL     OW16660   1.109   6.666   6.500 -0.3172  0.5529  0.3140
 5254SOL    HW116661   1.017   6.705   6.496 -0.3672  0.4588  0.5104
 5254SOL    HW216662   1.147   6.660   6.408 -0.4095  0.8280  0.2569
 5255SOL     OW16663   3.083   5.265   1.658  0.0509  0.3404  0.5439
 5255SOL    HW116664   3.002   5.276   1.716 -0.0756  1.1865  0.2238
 5255SOL    HW216665   3.166   5.281   1.713  0.0259 -0.7585  0.9261
 5256SOL     OW16666   6.535   2.333   3.180  0.0692 -0.2401 -0.0932
 5256SOL    HW116667   6.501   2.239   3.166 -1.1058  0.3667 -1.6243
 5256SOL    HW216668   6.460   2.391   3.209  0.4482  0.5200 -0.5910
 5257SOL     OW16669   4.482   5.699   0.985  0.5166 -0.1109 -0.2663
 5257SOL    HW116670   4.486   5.602   1.009  0.2443  0.2875  1.5432
 5257SOL    HW216671   4.395   5.737   1.016  1.3604  1.0892  0.7339
 5258SOL     OW16672   4.400   3.765   5.562  0.1555 -0.0626 -0.6527
 5258SOL    HW116673   4.367   3.700   5.493  0.0754 -0.7274 -0.0065
 5258SOL    HW216674   4.326   3.786   5.626  0.6172 -0.5616  0.0553
 5259SOL     OW16675   6.325   2.928   2.216 -0.7806  0.0985  0.2537
 5259SOL    HW116676   6.377   2.856   2.262 -1.6996  1.3556  3.5881
 5259SOL    HW216677   6.247   2.888   2.168  0.3088 -1.3283 -0.3796
 5260SOL     OW16678   5.027   2.486   5.675  0.3676 -0.2979 -0.3173
 5260SOL    HW116679   4.979   2.398   5.679 -0.5106  0.1559 -0.8222
 5260SOL    HW216680   5.054   2.512   5.768 -1.2444 -0.0855  0.1218
 5261SOL     OW16681   3.427   1.166   6.746  0.0391  0.5233  0.2642
 5261SOL    HW116682   3.417   1.180   6.648 -0.8516  2.1545  0.5632
 5261SOL    HW216683   3.521   1.139   6.766  0.7396  1.9778 -0.8664
 5262SOL     OW16684   1.742   1.459   3.423 -0.6129  0.1717 -0.0498
 5262SOL    HW116685   1.769   1.365   3.404 -1.8349 -0.1042 -0.4389
 5262SOL    HW216686   1.692   1.497   3.345 -0.0616  1.1833  0.0645
 5263SOL     OW16687   5.612   2.870   1.389  0.1357 -0.2941 -0.4262
 5263SOL    HW116688   5.589   2.831   1.300  0.3731 -0.6885 -0.3157
 5263SOL    HW216689   5.694   2.826   1.425  0.5322  0.4556 -0.3884
 5264SOL     OW16690   6.784   6.915   0.003 -0.3479 -0.4414  0.0472
 5264SOL    HW116691   6.851   6.969   0.055 -0.3772  0.4335 -0.8063
 5264SOL    HW216692   6.696   6.962   0.005 -0.2476 -0.1841 -1.1218
 5265SOL     OW16693   0.567   1.433   1.920 -0.4382 -0.2818  0.1972
 5265SOL    HW116694   0.537   1.515   1.970 -0.7661 -0.0475 -0.3669
 5265SOL    HW216695   0.501   1.359   1.935  0.8927 -1.1406  2.3783
 5266SOL     OW16696   0.053   0.466   3.783  0.0351 -0.1505  0.1351
 5266SOL    HW116697   0.058   0.383   3.839  0.3835 -0.1682  0.0803
 5266SOL    HW216698   0.144   0.487   3.747 -0.3995 -0.8474 -1.4625
 5267SOL     OW16699   5.815   4.687   5.251 -0.1814 -0.6131 -0.1856
 5267SOL    HW116700   5.887   4.627   5.217 -0.4501  0.2883 -2.5449
 5267SOL    HW216701   5.779   4.742   5.176 -1.0178  1.4052  1.5819
 5268SOL     OW16702   6.916   0.080   5.342  0.0924  0.2710  0.0879
 5268SOL    HW116703   6.936   0.138   5.263  0.3674  0.0895  0.0197
 5268SOL    HW216704   6.820   0.089   5.367  0.5289  2.1666  1.2310
 5269SOL     OW16705   6.249   6.569   3.429 -0.1965  0.1094 -0.1893
 5269SOL    HW116706   6.219   6.474   3.436 -0.3456  0.2788  3.6702
 5269SOL    HW216707   6.169   6.629   3.424 -0.1436  0.1395 -0.7733
 5270SOL     OW16708   4.577   6.569   4.072  0.4963 -0.1097  0.1574
 5270SOL    HW116709   4.499   6.630   4.057 -0.2031 -0.4242  2.1738
 5270SOL    HW216710   4.659   6.607   4.029 -0.5965  0.5728 -1.4097
 5271SOL     OW16711   6.489   5.092   5.570  0.2770 -0.0274 -0.1108
 5271SOL    HW116712   6.521   5.025   5.637 -1.0923  0.1614  0.7649
 5271SOL    HW216713   6.389   5.099   5.574  0.1108 -0.2377 -2.3975
 5272SOL     OW16714   6.727   1.933   2.006 -1.1301 -0.2410  0.0106
 5272SOL    HW116715   6.676   1.924   1.920  1.0021  0.8831 -1.4772
 5272SOL    HW216716   6.824   1.920   1.988 -0.5811  0.4246  2.2049
 5273SOL     OW16717   6.567   3.878   2.243  0.3661  0.4702 -0.2595
 5273SOL    HW116718   6.609   3.969   2.236  1.3452 -0.0072 -0.7021
 5273SOL    HW216719   6.498   3.879   2.316  0.8069  1.3975  0.1629
 5274SOL     OW16720   6.727   3.222   5.710  0.2251 -0.2536 -0.3579
 5274SOL    HW116721   6.824   3.199   5.714  0.3716  0.3268 -0.4888
 5274SOL    HW216722   6.684   3.172   5.636  0.2139 -1.2554  0.3095
 5275SOL     OW16723   3.301   1.609   0.932 -0.1233  0.0981  0.5718
 5275SOL    HW116724   3.389   1.641   0.967  0.1330 -0.5628  0.5419
 5275SOL    HW216725   3.227   1.644   0.991  0.2674 -0.6060  1.5046
 5276SOL     OW16726   1.045   2.192   6.504 -0.3883  0.1660  0.3746
 5276SOL    HW116727   1.084   2.117   6.557  1.0324 -0.9546 -2.0568
 5276SOL    HW216728   1.117   2.257   6.480 -1.6573  2.6088  2.7285
 5277SOL     OW16729   4.231   3.015   1.639 -0.4840 -0.1197  0.4640
 5277SOL    HW116730   4.181   3.073   1.575  0.2842  1.6341  1.3951
 5277SOL    HW216731   4.211   2.919   1.619 -1.2549  0.4093 -1.5666
 5278SOL     OW16732   2.137   4.040   0.704  0.2548 -0.0277 -0.1732
 5278SOL    HW116733   2.050   4.038   0.754  0.2505 -2.0563 -0.1744
 5278SOL    HW216734   2.135   4.113   0.637 -0.8522  0.9396  0.8547
 5279SOL     OW16735   3.597   1.423   0.191  0.2051 -0.6763 -0.5162
 5279SOL    HW116736   3.647   1.483   0.254 -0.6170 -0.7554  0.2381
 5279SOL    HW216737   3.547   1.355   0.244 -0.1130 -1.0514 -1.2937
 5280SOL     OW16738   2.912   0.498   3.458 -0.1230  0.5341  0.5429
 5280SOL    HW116739   3.006   0.501   3.494 -0.7632  0.6347  2.3139
 5280SOL    HW216740   2.893   0.582   3.408  1.0385  0.0879 -0.7316
 5281SOL     OW16741   4.408   0.488   6.554 -0.0455  0.1677  0.0782
 5281SOL    HW116742   4.496   0.445   6.571  1.7341  2.4184 -2.4439
 5281SOL    HW216743   4.334   0.426   6.579  2.1285 -1.2338  3.8280
 5282SOL     OW16744   4.740   5.061   5.261 -0.0061 -0.2251  0.4022
 5282SOL    HW116745   4.710   4.971   5.231  0.8706 -0.7368  1.0155
 5282SOL    HW216746   4.701   5.131   5.201 -1.9172 -0.8838  0.8056
 5283SOL     OW16747   5.281   2.350   4.625  0.0882 -0.4003  0.0993
 5283SOL    HW116748   5.240   2.421   4.568 -0.2487  1.2477  2.2422
 5283SOL    HW216749   5.246   2.261   4.598 -1.2717  0.4860 -1.2004
 5284SOL     OW16750   1.163   2.607   0.220 -0.4257 -0.3881 -0.1488
 5284SOL    HW116751   1.126   2.619   0.128 -0.3176  0.1968 -0.1223
 5284SOL    HW216752   1.105   2.655   0.286  0.8801  1.4058 -0.2210
 5285SOL     OW16753   5.667   3.618   3.084  0.0223 -0.0777  0.0952
 5285SOL    HW116754   5.708   3.557   3.152  1.5797  1.6851  0.8140
 5285SOL    HW216755   5.620   3.693   3.130  0.7247  0.9031 -0.7418
 5286SOL     OW16756   2.109   4.508   5.490 -0.0810 -0.5247  0.3218
 5286SOL    HW116757   2.209   4.520   5.492  0.3125 -3.2414  1.6506
 5286SOL    HW216758   2.067   4.568   5.557  0.9846 -1.2471  1.6968
 5287SOL     OW16759   3.757   2.886   0.969  0.0318 -0.7036  0.1173
 5287SOL    HW116760   3.805   2.828   1.035  0.8723 -0.1816 -0.0176
 5287SOL    HW216761   3.783   2.981   0.984  1.3232 -0.6867 -1.8267
 5288SOL     OW16762   0.873   5.425   1.463  0.5089  0.0105 -0.4871
 5288SOL    HW116763   0.858   5.419   1.364  1.2184  3.7372 -0.9977
 5288SOL    HW216764   0.786   5.446   1.508  0.4839  0.1377 -0.5925
 5289SOL     OW16765   2.197   1.509   3.386  1.1007  0.5084  0.0232
 5289SOL    HW116766   2.200   1.412   3.361  1.5915 -0.2674  2.7436
 5289SOL    HW216767   2.103   1.534   3.408  1.0650  0.4771 -0.0924
 5290SOL     OW16768   1.316   4.907   5.236  0.2324 -0.2410  0.2706
 5290SOL    HW116769   1.392   4.856   5.195  0.7536  0.5550  0.2308
 5290SOL    HW216770   1.344   4.943   5.325 -0.3090 -0.4596  0.5332
 5291SOL     OW16771   5.408   6.929   4.795  0.6114 -0.3931  0.2609
 5291SOL    HW116772   5.485   6.882   4.753 -0.0418 -0.4704 -0.8937
 5291SOL    HW216773   5.376   6.877   4.874  1.0192 -0.9527  0.0629
 5292SOL     OW16774   4.012   6.964   3.657 -0.1001 -0.1748 -0.9137
 5292SOL    HW116775   4.045   7.059   3.656  0.7202 -0.3605  1.8041
 5292SOL    HW216776   3.919   6.961   3.693  0.5173 -0.5210  0.7180
 5293SOL     OW16777   6.063   2.813   3.905 -0.1772  0.0271  0.0036
 5293SOL    HW116778   5.971   2.773   3.913 -0.0127 -0.1330  1.2649
 5293SOL    HW216779   6.096   2.801   3.811 -0.7843 -1.3849 -0.0602
 5294SOL     OW16780   4.733   1.521   4.205  0.1448 -0.8343 -0.2974
 5294SOL    HW116781   4.777   1.604   4.170  0.6901 -1.0102 -0.0271
 5294SOL    HW216782   4.694   1.470   4.128  0.5409 -0.7549 -0.5553
 5295SOL     OW16783   3.852   4.028   3.940 -0.2087  0.1620  0.2624
 5295SOL    HW116784   3.938   4.046   3.988  0.5799 -1.2160 -0.5924
 5295SOL    HW216785   3.795   3.968   3.995 -0.0505 -0.0138  0.2333
 5296SOL     OW16786   0.302   5.077   6.766  0.4972 -0.2071  0.0042
 5296SOL    HW116787   0.400   5.080   6.745  0.2507  0.1366 -1.1755
 5296SOL    HW216788   0.256   5.015   6.702 -0.2717  0.7780 -0.4252
 5297SOL     OW16789   5.084   1.913   1.617  0.6564 -0.3905 -0.5265
 5297SOL    HW116790   5.041   1.864   1.693  0.7531  0.0504 -0.1851
 5297SOL    HW216791   5.031   1.899   1.533  0.1990 -0.3592 -0.2407
 5298SOL     OW16792   0.012   6.710   3.599  0.2233  0.1176  0.0155
 5298SOL    HW116793   0.018   6.650   3.678  0.8472  0.5155  0.2762
 5298SOL    HW216794   0.010   6.655   3.515 -0.6455 -0.3095  0.3063
 5299SOL     OW16795   6.208   3.255   6.569  0.3614  0.5788  0.6653
 5299SOL    HW116796   6.223   3.157   6.556  1.0534  0.9948 -2.4262
 5299SOL    HW216797   6.143   3.270   6.644 -0.6157 -2.2529  0.4715
 5300SOL     OW16798   2.542   2.618   5.162  0.5626  0.2213  0.1397
 5300SOL    HW116799   2.498   2.528   5.155  1.0520 -0.0825  0.8996
 5300SOL    HW216800   2.482   2.681   5.211 -0.1202  0.5442 -1.0762
 5301SOL     OW16801   5.293   4.906   0.100  0.2952 -0.9366 -0.2731
 5301SOL    HW116802   5.311   4.829   0.161  0.2939 -0.8704 -0.1884
 5301SOL    HW216803   5.368   4.971   0.106  0.2507 -0.8855 -0.2737
 5302SOL     OW16804   4.735   0.168   5.736  0.8885  0.4401 -0.1252
 5302SOL    HW116805   4.706   0.132   5.824  0.3786  0.4525 -0.2888
 5302SOL    HW216806   4.664   0.151   5.668  0.2872  2.4307 -0.0547
 5303SOL     OW16807   0.216   1.020   4.197  0.1657 -0.5904 -0.8723
 5303SOL    HW116808   0.205   1.008   4.098  1.0040 -0.8776 -0.9450
 5303SOL    HW216809   0.214   0.930   4.242  1.1867 -0.5956 -0.8049
 5304SOL     OW16810   3.682   3.764   5.981 -0.0633 -0.1242 -0.2266
 5304SOL    HW116811   3.774   3.738   6.013 -0.1005  0.8016  0.6812
 5304SOL    HW216812   3.691   3.835   5.911 -0.0873  0.1046  0.0005
 5305SOL     OW16813   0.702   4.834   1.455 -0.4780  0.1109 -0.4173
 5305SOL    HW116814   0.786   4.869   1.412 -0.2403  0.2486  0.1489
 5305SOL    HW216815   0.630   4.903   1.446 -0.3920  0.1951 -0.4710
 5306SOL     OW16816   1.036   2.021   3.558 -0.3087 -0.1651 -0.1412
 5306SOL    HW116817   1.011   1.925   3.565 -0.8321 -0.0308 -0.0969
 5306SOL    HW216818   1.055   2.044   3.463 -0.9411 -0.1335 -0.2642
 5307SOL     OW16819   1.868   2.090   2.239  0.1882 -0.2973 -0.0410
 5307SOL    HW116820   1.813   2.078   2.156  0.0819 -1.4998  0.1799
 5307SOL    HW216821   1.962   2.115   2.213  0.3566 -1.4191 -0.5731
 5308SOL     OW16822   5.047   6.086   3.761 -0.4048  0.4180 -0.0365
 5308SOL    HW116823   5.055   6.186   3.761  0.9714  0.3792  1.8129
 5308SOL    HW216824   5.047   6.053   3.856 -1.4212 -1.3178 -0.5989
 5309SOL     OW16825   5.600   1.012   2.799 -0.0595  0.2223  0.2501
 5309SOL    HW116826   5.646   0.944   2.856 -1.1914 -0.3964  0.4507
 5309SOL    HW216827   5.663   1.043   2.727  0.6962 -0.5270  0.5669
 5310SOL     OW16828   6.357   2.615   4.871 -0.1008  0.4146 -0.6566
 5310SOL    HW116829   6.313   2.525   4.868  0.8366 -0.0395 -1.7816
 5310SOL    HW216830   6.289   2.685   4.894 -0.7693 -0.6108  0.6351
 5311SOL     OW16831   4.064   1.874   3.987  0.3337 -0.5212  0.4043
 5311SOL    HW116832   4.093   1.819   3.908  1.0743 -0.6826  0.7770
 5311SOL    HW216833   4.087   1.826   4.071 -0.8838 -0.5614  0.7267
 5312SOL     OW16834   6.990   0.350   2.233 -0.7727 -0.1719 -0.5420
 5312SOL    HW116835   6.940   0.277   2.281 -0.2864 -0.6881 -0.8068
 5312SOL    HW216836   6.942   0.437   2.245 -1.7560 -0.6659 -0.8217
 5313SOL     OW16837   3.222   3.865   1.465 -0.3171 -0.2243 -0.2399
 5313SOL    HW116838   3.319   3.873   1.442 -0.4596 -1.3657 -1.3494
 5313SOL    HW216839   3.167   3.892   1.386 -0.8486 -2.0868 -0.5596
 5314SOL     OW16840   1.687   4.409   4.588 -0.0552 -0.3262 -0.1242
 5314SOL    HW116841   1.648   4.357   4.664  1.2144  0.1472  0.8773
 5314SOL    HW216842   1.746   4.350   4.534 -0.0683 -0.3825 -0.0773
 5315SOL     OW16843   5.179   0.939   2.499  0.1614 -0.2336  0.6618
 5315SOL    HW116844   5.138   0.906   2.414 -0.0040  0.1260  0.5975
 5315SOL    HW216845   5.107   0.951   2.567 -0.1253  1.8782  0.0826
 5316SOL     OW16846   6.034   6.800   3.531 -0.0114  0.1475  0.1150
 5316SOL    HW116847   6.041   6.877   3.595 -1.3773  1.4312 -1.1930
 5316SOL    HW216848   5.964   6.737   3.563  0.1627  0.1481  0.5062
 5317SOL     OW16849   5.611   1.820   2.046  0.2932 -0.2564  0.9028
 5317SOL    HW116850   5.634   1.901   1.991 -1.5397 -1.4394 -1.8137
 5317SOL    HW216851   5.612   1.845   2.143  1.9070  2.4256  0.3189
 5318SOL     OW16852   6.218   3.616   1.695 -0.4411 -0.2114  0.3953
 5318SOL    HW116853   6.214   3.610   1.794  0.0663 -0.9126  0.3876
 5318SOL    HW216854   6.289   3.554   1.661 -0.6706 -0.0491 -0.4093
 5319SOL     OW16855   0.847   4.112   5.647 -0.4039  0.3247 -0.5834
 5319SOL    HW116856   0.895   4.126   5.734  0.5958 -0.7823 -0.9231
 5319SOL    HW216857   0.911   4.124   5.571 -0.7775 -0.6174 -1.0730
 5320SOL     OW16858   5.230   6.500   4.972  0.2384 -0.1015 -0.4832
 5320SOL    HW116859   5.146   6.469   5.017  0.5094 -0.8474 -0.4735
 5320SOL    HW216860   5.220   6.493   4.873  1.3152 -3.1651 -0.4865
 5321SOL     OW16861   1.891   4.679   6.197 -0.4587  0.0830  0.0451
 5321SOL    HW116862   1.980   4.723   6.201  0.5568 -1.6746 -1.5308
 5321SOL    HW216863   1.834   4.726   6.130 -1.7602  2.7914  2.8264
 5322SOL     OW16864   5.375   0.437   3.068 -0.1391 -0.0583  0.3382
 5322SOL    HW116865   5.327   0.406   2.986 -0.1928  0.3322  0.2216
 5322SOL    HW216866   5.440   0.366   3.097  0.5382  0.1610 -0.5684
 5323SOL     OW16867   6.449   3.076   6.294 -0.6718 -0.4787 -0.2741
 5323SOL    HW116868   6.510   3.119   6.361 -1.4574 -0.9666  0.7884
 5323SOL    HW216869   6.385   3.144   6.259 -1.1360 -0.4932  0.5052
 5324SOL     OW16870   5.357   5.784   4.401  0.1955  0.4028  0.5557
 5324SOL    HW116871   5.449   5.755   4.424  0.2173 -1.9038 -1.9559
 5324SOL    HW216872   5.319   5.724   4.330 -2.8257  1.9534  0.6677
 5325SOL     OW16873   4.664   6.301   6.567  0.5312 -0.3823 -0.4720
 5325SOL    HW116874   4.608   6.379   6.594 -1.1110 -1.3491 -0.9262
 5325SOL    HW216875   4.743   6.333   6.514 -0.3837  0.9444 -1.0907
 5326SOL     OW16876   6.010   0.504   4.473 -0.2484  0.0009  0.1720
 5326SOL    HW116877   5.945   0.560   4.422 -0.2393 -0.0080  0.1507
 5326SOL    HW216878   6.025   0.543   4.564 -0.1181  0.1206  0.0983
 5327SOL     OW16879   5.244   2.921   5.563  0.1672 -0.3228 -0.0879
 5327SOL    HW116880   5.332   2.965   5.550  0.7299 -1.2663  0.4501
 5327SOL    HW216881   5.215   2.930   5.658  0.6499 -1.7176  0.2176
 5328SOL     OW16882   4.704   6.144   0.674 -0.1206 -0.6281  0.4330
 5328SOL    HW116883   4.708   6.095   0.587  0.0516 -2.8707  1.6304
 5328SOL    HW216884   4.619   6.122   0.721  0.4716 -0.6802  1.5110
 5329SOL     OW16885   1.817   3.177   2.577  0.1511 -0.4348 -0.0298
 5329SOL    HW116886   1.895   3.228   2.615 -0.2494  0.9379 -0.9565
 5329SOL    HW216887   1.844   3.137   2.490 -0.0405 -0.3531 -0.1263
 5330SOL     OW16888   0.276   5.140   0.027 -0.0596 -0.3733 -0.3992
 5330SOL    HW116889   0.186   5.167   0.060  0.6445  2.1588 -0.3350
 5330SOL    HW216890   0.272   5.123  -0.071 -0.7157 -0.8714 -0.2911
 5331SOL     OW16891   4.585   0.819   6.278 -0.1065 -0.1883 -0.0099
 5331SOL    HW116892   4.605   0.732   6.233 -0.7857  0.0385 -0.7828
 5331SOL    HW216893   4.490   0.846   6.258  0.6508  1.6546 -1.3883
 5332SOL     OW16894   1.016   0.172   3.899  0.1685 -0.4875 -0.2583
 5332SOL    HW116895   1.058   0.088   3.932 -1.1226 -1.0424  0.0102
 5332SOL    HW216896   1.015   0.240   3.973 -0.1126 -0.7421 -0.0262
 5333SOL     OW16897   3.252   3.295   3.924 -0.6762  0.0593  0.1457
 5333SOL    HW116898   3.211   3.209   3.895  0.2372 -0.6702  0.9409
 5333SOL    HW216899   3.293   3.283   4.014  0.8632  0.8880 -0.4160
 5334SOL     OW16900   1.646   5.321   6.066 -0.2775  0.0100  0.0211
 5334SOL    HW116901   1.563   5.354   6.110 -0.2310 -0.5851  0.5660
 5334SOL    HW216902   1.653   5.360   5.974 -0.5261  1.0328  0.4169
 5335SOL     OW16903   5.329   6.346   5.967 -0.1018  0.0312  0.4569
 5335SOL    HW116904   5.382   6.266   5.996 -1.1876 -1.0310 -0.3865
 5335SOL    HW216905   5.317   6.408   6.045 -1.0627 -1.6544  1.7194
 5336SOL     OW16906   5.766   5.351   6.488  0.6734  0.2216 -0.7186
 5336SOL    HW116907   5.720   5.436   6.463 -2.7922 -0.7377  1.7545
 5336SOL    HW216908   5.744   5.280   6.421  2.4716  0.8232 -2.0365
 5337SOL     OW16909   0.308   1.079   5.094  0.1409 -0.2323  0.1364
 5337SOL    HW116910   0.397   1.040   5.119 -0.1367 -0.8143  0.2281
 5337SOL    HW216911   0.235   1.025   5.135 -0.2647  0.1051 -0.1327
 5338SOL     OW16912   3.157   5.802   2.520 -0.3818 -0.3405  0.2730
 5338SOL    HW116913   3.201   5.769   2.603 -1.0273 -0.7857  0.4448
 5338SOL    HW216914   3.066   5.836   2.542  0.1455  1.2961  0.0485
 5339SOL     OW16915   6.527   3.267   5.139  0.6634  0.0970  0.1537
 5339SOL    HW116916   6.487   3.352   5.105  2.5823  1.4157  1.0513
 5339SOL    HW216917   6.463   3.222   5.201 -1.2768 -0.3261 -2.0241
 5340SOL     OW16918   4.670   5.111   6.496  0.4529 -0.0603  0.0677
 5340SOL    HW116919   4.583   5.063   6.492  0.2924 -0.0199  2.0462
 5340SOL    HW216920   4.745   5.046   6.493  0.2963 -0.2498  0.2490
 5341SOL     OW16921   5.717   2.775   6.854  0.4286 -0.1202 -0.1855
 5341SOL    HW116922   5.792   2.805   6.795  0.0273  2.0806  0.3503
 5341SOL    HW216923   5.734   2.805   6.947 -2.0610  2.3327 -0.4016
 5342SOL     OW16924   5.038   1.677   1.401  0.3148  0.3340  0.0761
 5342SOL    HW116925   4.968   1.744   1.424 -0.5157  0.2827 -2.0923
 5342SOL    HW216926   5.096   1.711   1.327  0.7504 -0.7828 -0.1325
 5343SOL     OW16927   1.310   1.311   6.854  0.5008  0.4130  0.4905
 5343SOL    HW116928   1.302   1.393   6.798  0.4968  0.7613  0.9987
 5343SOL    HW216929   1.219   1.274   6.873  0.5233  0.0680 -0.0635
 5344SOL     OW16930   2.558   4.914   0.881 -0.6873 -0.4042 -0.2010
 5344SOL    HW116931   2.560   5.005   0.922 -1.7318 -1.2633  1.9632
 5344SOL    HW216932   2.590   4.918   0.787  2.3979  1.6709  0.7882
 5345SOL     OW16933   0.898   6.617   2.366 -0.1107 -0.6548 -0.3097
 5345SOL    HW116934   0.831   6.548   2.391  0.5973 -1.2409  0.0082
 5345SOL    HW216935   0.854   6.689   2.312 -1.0815 -0.7773  0.3053
 5346SOL     OW16936   5.341   1.495   3.805 -0.1156 -0.8823 -0.7031
 5346SOL    HW116937   5.403   1.503   3.884 -0.5182  0.7362 -0.5195
 5346SOL    HW216938   5.267   1.432   3.828  1.2444 -2.6094 -0.8150
 5347SOL     OW16939   4.164   0.972   3.501  0.2254  0.2776 -0.4318
 5347SOL    HW116940   4.076   0.927   3.510  0.5401 -0.4524 -0.9369
 5347SOL    HW216941   4.236   0.912   3.537  0.6144  0.5000 -0.8286
 5348SOL     OW16942   2.148   4.379   6.965  0.2361 -0.0842  0.2108
 5348SOL    HW116943   2.097   4.391   6.880  0.4786 -0.1141  0.0602
 5348SOL    HW216944   2.134   4.285   6.999  1.7424 -0.7244 -0.8635
 5349SOL     OW16945   3.494   0.635   1.122 -0.0741  0.3819 -0.1271
 5349SOL    HW116946   3.434   0.557   1.137  2.4690 -1.5848  0.5993
 5349SOL    HW216947   3.542   0.657   1.207 -0.0548  2.1862 -0.5594
 5350SOL     OW16948   1.363   3.332   5.449  0.0348 -0.3555  0.2659
 5350SOL    HW116949   1.402   3.280   5.525 -0.2090  0.3805  0.9039
 5350SOL    HW216950   1.416   3.415   5.434 -0.1649 -0.2903 -0.1044
 5351SOL     OW16951   3.972   5.898   0.199 -0.3719 -0.1166  0.0574
 5351SOL    HW116952   4.009   5.855   0.117  0.1963 -0.3519  0.4282
 5351SOL    HW216953   3.923   5.981   0.174  1.1672  0.6923 -0.3756
 5352SOL     OW16954   2.267   2.071   5.091 -0.5284 -0.4116 -0.5797
 5352SOL    HW116955   2.281   2.114   5.180  1.5208  0.0481 -1.0708
 5352SOL    HW216956   2.181   2.104   5.051  0.0362  1.8191 -0.1135
 5353SOL     OW16957   2.476   2.366   5.216 -0.5735  0.5225  0.1666
 5353SOL    HW116958   2.542   2.305   5.172  0.4040  2.1522 -0.7506
 5353SOL    HW216959   2.422   2.315   5.283 -1.4214 -1.8588 -2.1813
 5354SOL     OW16960   0.877   5.933   1.830 -0.1852 -0.1945  0.8889
 5354SOL    HW116961   0.886   6.021   1.785  1.0994  0.5293  2.4883
 5354SOL    HW216962   0.780   5.909   1.837 -0.4505 -0.0589 -1.6245
 5355SOL     OW16963   4.132   0.674   0.688  0.4593 -0.3300 -0.7300
 5355SOL    HW116964   4.171   0.626   0.609 -0.3642 -1.5711 -0.4258
 5355SOL    HW216965   4.061   0.616   0.730  2.6517 -0.9556  2.5227
 5356SOL     OW16966   3.201   3.400   3.280 -0.3840 -0.7696  0.3245
 5356SOL    HW116967   3.122   3.454   3.310 -0.6274 -0.4704 -0.8221
 5356SOL    HW216968   3.285   3.443   3.313 -0.5772  0.3153 -0.5401
 5357SOL     OW16969   6.908   6.310   1.196 -0.4570 -0.4144  0.2692
 5357SOL    HW116970   6.832   6.251   1.168  0.0024 -0.5145 -0.8506
 5357SOL    HW216971   6.975   6.255   1.246 -0.2026 -0.7811 -0.4549
 5358SOL     OW16972   2.205   3.731   0.987 -0.4323 -0.4344 -0.2060
 5358SOL    HW116973   2.216   3.770   1.078 -0.4802  1.8863 -1.1059
 5358SOL    HW216974   2.272   3.773   0.925 -1.1507 -1.0903 -1.4675
 5359SOL     OW16975   4.388   6.164   5.796  0.3877  0.3175  0.3172
 5359SOL    HW116976   4.463   6.132   5.854 -0.2616 -0.4928  0.7253
 5359SOL    HW216977   4.400   6.129   5.704  1.5675  1.8253 -0.1474
 5360SOL     OW16978   6.187   3.261   1.423 -0.4239 -0.3320  0.5988
 5360SOL    HW116979   6.096   3.295   1.401 -1.1001 -1.2460  1.8727
 5360SOL    HW216980   6.246   3.338   1.449 -0.2738  0.4878 -1.8900
 5361SOL     OW16981   0.491   1.217   2.874 -0.0304  0.4399 -0.4503
 5361SOL    HW116982   0.414   1.160   2.846 -0.3565  0.1098  1.0354
 5361SOL    HW216983   0.477   1.310   2.840 -1.7079  0.6725  0.7527
 5362SOL     OW16984   4.919   0.598   6.379 -0.1089 -0.1054 -0.1744
 5362SOL    HW116985   4.839   0.620   6.323 -0.8073 -0.4606  0.6510
 5362SOL    HW216986   4.933   0.499   6.379  0.6661 -0.0030 -0.7475
 5363SOL     OW16987   1.313   4.623   0.451  0.4137 -0.3010  0.3974
 5363SOL    HW116988   1.260   4.616   0.536 -0.8454  1.8209 -0.1262
 5363SOL    HW216989   1.395   4.565   0.458  0.0802 -0.6093  2.8324
 5364SOL     OW16990   6.939   5.232   3.829 -0.1170  0.2747 -0.2776
 5364SOL    HW116991   7.023   5.241   3.883 -0.7649  0.5923  0.7031
 5364SOL    HW216992   6.903   5.323   3.808 -0.4008  0.1364 -0.3989
 5365SOL     OW16993   1.462   1.976   0.627 -0.5530  0.3348 -0.7836
 5365SOL    HW116994   1.500   2.036   0.557 -1.8498  0.4579 -1.4113
 5365SOL    HW216995   1.431   2.030   0.705 -1.0856  0.4258 -1.0524
 5366SOL     OW16996   2.580   6.842   1.448 -0.0388  0.5463  0.6675
 5366SOL    HW116997   2.529   6.759   1.472  0.8841 -0.2555 -0.0632
 5366SOL    HW216998   2.591   6.899   1.530 -0.3299 -0.2375  1.2711
 5367SOL     OW16999   0.131   2.278   3.201  0.4004 -0.1242 -0.0323
 5367SOL    HW117000   0.226   2.282   3.169  0.3081 -0.7982 -0.4047
 5367SOL    HW217001   0.115   2.352   3.267  1.9660 -1.5538  2.0852
 5368SOL     OW17002   3.308   1.917   4.481  0.1650 -0.2592  0.3153
 5368SOL    HW117003   3.356   1.949   4.562 -1.1253  0.1976  0.9325
 5368SOL    HW217004   3.247   1.842   4.506  0.5310 -0.8229 -0.4465
 5369SOL     OW17005   6.377   4.256   6.758 -0.3210  0.4265  0.2053
 5369SOL    HW117006   6.412   4.229   6.668 -1.1469 -0.8779  0.2400
 5369SOL    HW217007   6.367   4.174   6.815  0.1397  1.2269  1.4752
 5370SOL     OW17008   3.534   4.217   6.632 -0.5312  0.6328  0.0888
 5370SOL    HW117009   3.632   4.219   6.649 -0.1041  2.6618 -2.0432
 5370SOL    HW217010   3.488   4.283   6.691 -0.2953  1.1945 -0.3414
 5371SOL     OW17011   0.745   5.372   6.423 -0.0582 -0.0239 -0.2874
 5371SOL    HW117012   0.735   5.450   6.361  0.5706 -0.3274 -0.7680
 5371SOL    HW217013   0.811   5.395   6.495 -0.1934  0.0386 -0.1821
 5372SOL     OW17014   5.612   6.813   1.488  0.4611  0.0668 -0.0862
 5372SOL    HW117015   5.567   6.760   1.560  1.3716 -2.4363 -1.2320
 5372SOL    HW217016   5.711   6.807   1.500  0.6074  0.0624 -1.2331
 5373SOL     OW17017   6.447   0.663   5.650 -0.5768 -0.2321 -0.0180
 5373SOL    HW117018   6.448   0.570   5.613 -1.5672 -0.4702  0.5170
 5373SOL    HW217019   6.541   0.696   5.658 -0.2193 -1.1104 -0.3863
 5374SOL     OW17020   5.905   1.023   2.438 -0.1702  0.5223  0.1722
 5374SOL    HW117021   5.849   1.051   2.516  0.9347  1.8316  0.5477
 5374SOL    HW217022   5.974   1.094   2.420 -0.5275  0.3452 -2.1491
 5375SOL     OW17023   6.064   4.162   4.375 -0.0603 -0.0972  0.2013
 5375SOL    HW117024   6.063   4.112   4.288 -2.7189 -0.0054  0.0954
 5375SOL    HW217025   6.058   4.260   4.357 -2.8066 -0.1503  0.4051
 5376SOL     OW17026   0.698   6.647   6.757 -0.0903 -0.4608 -0.3701
 5376SOL    HW117027   0.692   6.547   6.756  2.1179 -0.6334 -0.6352
 5376SOL    HW217028   0.719   6.679   6.849  1.1976 -0.4261 -0.6546
 5377SOL     OW17029   2.211   2.050   3.384  1.0703 -0.6882  0.4486
 5377SOL    HW117030   2.265   2.095   3.455 -0.7275 -0.4942  1.7536
 5377SOL    HW217031   2.136   1.998   3.426 -0.8528  0.4957 -1.3184
 5378SOL     OW17032   4.881   2.247   5.749  0.2946 -0.1770  0.0912
 5378SOL    HW117033   4.930   2.162   5.772  0.7835 -0.0788 -0.5494
 5378SOL    HW217034   4.789   2.224   5.718 -0.5032 -0.2921  2.3912
 5379SOL     OW17035   5.601   2.411   2.459 -0.5919  0.2029 -0.4645
 5379SOL    HW117036   5.582   2.506   2.482  2.6758  0.5733  1.2303
 5379SOL    HW217037   5.566   2.352   2.531 -0.1593  0.3924 -0.0937
 5380SOL     OW17038   2.236   1.650   6.002  0.0537  0.1247  0.4212
 5380SOL    HW117039   2.194   1.655   5.911 -0.7254  0.6855  0.7973
 5380SOL    HW217040   2.218   1.560   6.041 -0.4084  0.1950  0.3842
 5381SOL     OW17041   1.900   2.290   5.166 -0.5334 -0.7119  0.0006
 5381SOL    HW117042   1.925   2.249   5.254 -0.0678  0.7531  0.5856
 5381SOL    HW217043   1.956   2.251   5.093 -0.8258 -1.8393  0.3527
 5382SOL     OW17044   6.757   4.552   1.022  0.0542 -0.0772  0.1555
 5382SOL    HW117045   6.675   4.602   0.994  0.2167  1.1362  1.7186
 5382SOL    HW217046   6.807   4.522   0.940  0.6379  3.4525 -0.9533
 5383SOL     OW17047   2.333   4.914   5.969  0.5006 -0.2905  0.1111
 5383SOL    HW117048   2.344   4.839   6.034 -4.6337 -0.2377  1.4696
 5383SOL    HW217049   2.315   4.999   6.019  0.1095  0.5360 -1.3635
 5384SOL     OW17050   2.328   6.685   0.370  0.1629  0.0266  0.2088
 5384SOL    HW117051   2.285   6.690   0.460  0.6940  1.6405  0.4009
 5384SOL    HW217052   2.404   6.750   0.366  1.0460 -1.0294 -0.9393
 5385SOL     OW17053   0.335   3.679   4.726  0.6674  0.2599  0.4945
 5385SOL    HW117054   0.302   3.695   4.633 -0.9263  2.1538  1.3055
 5385SOL    HW217055   0.258   3.654   4.784  1.1800  1.5770  1.8017
 5386SOL     OW17056   6.999   6.298   3.331  0.3079  0.1873 -0.2806
 5386SOL    HW117057   6.943   6.377   3.306 -0.8586  0.0664  1.7601
 5386SOL    HW217058   7.074   6.288   3.265 -2.0109  0.3586 -3.1704
 5387SOL     OW17059   2.006   5.825   1.782  0.3075  0.4095 -0.1978
 5387SOL    HW117060   1.954   5.895   1.832 -0.1846  1.3052 -1.8992
 5387SOL    HW217061   1.978   5.824   1.687  0.3799 -2.0922 -0.2545
 5388SOL     OW17062   5.126   4.409   6.150 -0.2238  0.3738 -0.1049
 5388SOL    HW117063   5.038   4.365   6.167 -0.6222  0.8058 -1.0276
 5388SOL    HW217064   5.191   4.380   6.221 -0.8364 -0.6786  0.0562
 5389SOL     OW17065   4.974   1.034   5.902 -0.1489  0.3552 -0.0147
 5389SOL    HW117066   4.943   1.125   5.876 -2.5537 -0.5689 -0.6784
 5389SOL    HW217067   4.973   0.974   5.823 -0.5015 -0.7228  0.7796
 5390SOL     OW17068   4.443   0.744   2.298  0.1377 -0.2450 -0.7657
 5390SOL    HW117069   4.386   0.670   2.334 -0.8666  0.4272 -0.9129
 5390SOL    HW217070   4.520   0.760   2.359  0.4102 -1.4436 -0.7639
 5391SOL     OW17071   3.464   1.244   3.281  0.5252 -0.1290 -0.2843
 5391SOL    HW117072   3.413   1.324   3.312 -0.1390 -0.9705  0.8439
 5391SOL    HW217073   3.562   1.263   3.286  0.3964  0.2840  0.9053
 5392SOL     OW17074   2.524   5.211   1.338 -0.0140  0.0762 -0.1598
 5392SOL    HW117075   2.450   5.152   1.306  0.1539 -0.3937  0.3068
 5392SOL    HW217076   2.518   5.222   1.438 -0.8191  1.9166 -0.3698
 5393SOL     OW17077   1.263   3.070   5.457 -0.5065 -0.3223 -0.0263
 5393SOL    HW117078   1.285   3.032   5.547 -0.3440 -1.0884 -0.3815
 5393SOL    HW217079   1.276   3.169   5.459 -0.7949 -0.2878  0.8754
 5394SOL     OW17080   5.100   4.761   5.543  0.0278  0.3200  0.3127
 5394SOL    HW117081   5.022   4.699   5.535 -0.4746  0.6709  2.0162
 5394SOL    HW217082   5.176   4.713   5.586  0.2562  0.3710 -0.0366
 5395SOL     OW17083   2.786   0.193   1.617  0.4221  0.8346  0.1318
 5395SOL    HW117084   2.786   0.233   1.708 -1.6989  0.1108  0.5104
 5395SOL    HW217085   2.754   0.261   1.551 -1.0625  0.4887  0.4467
 5396SOL     OW17086   2.295   5.257   4.075 -0.0509 -0.0363  0.0498
 5396SOL    HW117087   2.261   5.178   4.023 -0.4781 -0.0676  0.3731
 5396SOL    HW217088   2.306   5.232   4.171 -0.0987  0.2723  0.1367
 5397SOL     OW17089   1.622   6.137   4.343  0.1836 -0.3535 -0.0258
 5397SOL    HW117090   1.619   6.237   4.348 -0.5497 -0.3252 -0.8397
 5397SOL    HW217091   1.643   6.109   4.249  0.7981 -0.9668  0.2852
 5398SOL     OW17092   6.152   4.878   4.081 -0.1699  0.4120 -0.7925
 5398SOL    HW117093   6.200   4.848   4.164  0.4336 -0.0137 -1.2851
 5398SOL    HW217094   6.121   4.972   4.093  0.6866  0.6569 -0.4055
 5399SOL     OW17095   0.137   4.501   6.133  0.6412 -0.3579  0.0374
 5399SOL    HW117096   0.204   4.427   6.127  0.1618 -1.0458  2.3794
 5399SOL    HW217097   0.185   4.588   6.149  1.2836  0.1393 -3.6803
 5400SOL     OW17098   3.809   2.180   0.674 -0.1567  0.0421  0.4334
 5400SOL    HW117099   3.819   2.258   0.613 -0.2199 -0.7809 -0.6680
 5400SOL    HW217100   3.887   2.178   0.737  1.1977 -0.3649 -1.1540
 5401SOL     OW17101   3.817   6.260   1.920  0.1784 -0.0849  0.6768
 5401SOL    HW117102   3.897   6.203   1.937  1.5492  1.5645  0.0276
 5401SOL    HW217103   3.825   6.345   1.973  0.2398  1.2968 -1.4251
 5402SOL     OW17104   0.084   1.456   5.545  0.3360  0.0318 -0.1572
 5402SOL    HW117105   0.156   1.524   5.558 -0.7942  1.2912 -0.3249
 5402SOL    HW217106   0.065   1.447   5.447 -1.4509  1.5927 -0.0022
 5403SOL     OW17107   1.015   3.077   3.431  0.5626  0.1130  0.1116
 5403SOL    HW117108   0.936   3.136   3.447  1.5126  0.9446  2.0541
 5403SOL    HW217109   0.987   2.981   3.437  0.0578  0.3735  3.2108
 5404SOL     OW17110   2.928   0.490   1.587  0.4524  0.6242 -0.4295
 5404SOL    HW117111   2.992   0.565   1.599  0.3272  1.1831 -2.7397
 5404SOL    HW217112   2.946   0.444   1.500 -0.2232 -1.2985  0.3955
 5405SOL     OW17113   2.758   1.155   3.909  0.4984 -0.2556  0.2017
 5405SOL    HW117114   2.803   1.067   3.925 -0.8048 -1.2459 -1.3219
 5405SOL    HW217115   2.667   1.140   3.870 -0.6342  1.7314  1.8473
 5406SOL     OW17116   5.422   3.297   5.079 -0.0660 -0.4819 -1.2363
 5406SOL    HW117117   5.469   3.383   5.094 -0.9642  0.0025 -1.1382
 5406SOL    HW217118   5.348   3.310   5.012 -0.8399 -0.9389 -0.4958
 5407SOL     OW17119   4.540   1.831   5.888 -0.7208 -0.2167  0.7034
 5407SOL    HW117120   4.528   1.797   5.981 -1.8112 -0.7566  0.3816
 5407SOL    HW217121   4.452   1.856   5.850 -0.3658 -0.5332 -0.3859
 5408SOL     OW17122   1.136   3.016   1.785 -0.2664  0.6322 -0.1198
 5408SOL    HW117123   1.108   2.971   1.869  1.3404  0.2560  0.2456
 5408SOL    HW217124   1.152   3.113   1.802  1.0929  0.3534  0.2877
 5409SOL     OW17125   0.331   5.479   6.386  0.2864  0.3940 -0.1303
 5409SOL    HW117126   0.376   5.439   6.306 -0.0450 -0.1673 -0.0365
 5409SOL    HW217127   0.397   5.490   6.460  0.2603 -0.4707  0.0236
 5410SOL     OW17128   3.748   4.183   0.715  0.1603  0.0580 -0.5738
 5410SOL    HW117129   3.791   4.094   0.732 -2.2232 -0.6934  2.3864
 5410SOL    HW217130   3.798   4.254   0.764 -0.3760 -0.3962  0.6826
 5411SOL     OW17131   0.269   3.524   0.841 -0.1617 -0.2520 -0.6019
 5411SOL    HW117132   0.350   3.554   0.891 -1.2882  0.2349  0.9949
 5411SOL    HW217133   0.240   3.435   0.874  0.2548 -0.8904 -1.8658
 5412SOL     OW17134   2.221   6.924   2.002 -0.6315 -0.0267  0.4256
 5412SOL    HW117135   2.280   6.992   2.045 -2.6635  1.3939  1.1179
 5412SOL    HW217136   2.165   6.879   2.072 -1.1038 -0.6053 -0.3088
 5413SOL     OW17137   6.221   5.891   2.669 -0.3558 -0.2547  0.3363
 5413SOL    HW117138   6.255   5.804   2.632  0.7139 -0.1521  1.0265
 5413SOL    HW217139   6.124   5.901   2.647 -0.3724 -1.3832 -0.1886
 5414SOL     OW17140   6.438   6.772   4.894 -0.8377 -0.2375  0.6744
 5414SOL    HW117141   6.359   6.822   4.928 -0.4063  1.3044 -0.4597
 5414SOL    HW217142   6.518   6.833   4.894 -0.6658 -0.3005 -2.3507
 5415SOL     OW17143   0.042   6.351   2.915  0.0207  0.3109  0.2489
 5415SOL    HW117144  -0.033   6.330   2.853 -0.4296  1.5792  0.3516
 5415SOL    HW217145   0.046   6.280   2.986  0.0695 -0.7350 -0.7734
 5416SOL     OW17146   2.966   6.609   1.288  0.0930 -0.0423 -0.3616
 5416SOL    HW117147   3.065   6.605   1.274 -0.1522 -2.3998 -2.1845
 5416SOL    HW217148   2.943   6.691   1.340  2.9467  0.7278 -0.1122
 5417SOL     OW17149   0.554   2.005   2.658  0.1390 -0.0298  0.1009
 5417SOL    HW117150   0.608   1.922   2.647  0.8648  0.4059  0.3334
 5417SOL    HW217151   0.587   2.076   2.595 -0.3821  0.1336  0.0019
 5418SOL     OW17152   6.178   4.193   4.625 -0.6113  0.3064 -0.1920
 5418SOL    HW117153   6.139   4.268   4.678  0.7588  1.4110 -0.6951
 5418SOL    HW217154   6.148   4.199   4.530  0.5509  1.0262 -0.5298
 5419SOL     OW17155   2.384   3.193   1.611  0.1679  0.1777  0.1564
 5419SOL    HW117156   2.300   3.145   1.584 -0.4525  0.9346  0.6967
 5419SOL    HW217157   2.366   3.247   1.693  1.3464 -0.1019  0.6170
 5420SOL     OW17158   0.613   3.215   4.241  0.6239  0.2543  0.2016
 5420SOL    HW117159   0.559   3.287   4.197 -1.3793 -0.6055  1.0924
 5420SOL    HW217160   0.587   3.208   4.337  1.5621 -0.9434  0.3871
 5421SOL     OW17161   4.550   4.352   6.761 -0.2843 -0.1948  0.5193
 5421SOL    HW117162   4.475   4.287   6.763  0.7717 -1.4677  0.0554
 5421SOL    HW217163   4.521   4.438   6.803 -1.5537 -1.1235  1.6142
 5422SOL     OW17164   0.467   4.137   4.923 -0.1000  0.0665  0.3795
 5422SOL    HW117165   0.414   4.055   4.945 -1.9738  0.8855 -0.8295
 5422SOL    HW217166   0.407   4.217   4.924  1.5738  1.3921  1.0334
 5423SOL     OW17167   5.537   2.382   4.015  0.1768  0.5596  0.2096
 5423SOL    HW117168   5.634   2.392   3.993 -0.0584 -0.5691 -1.5662
 5423SOL    HW217169   5.496   2.313   3.955 -1.2946 -0.4769  2.2763
 5424SOL     OW17170   1.520   4.291   6.802 -1.1315  0.1300  0.1400
 5424SOL    HW117171   1.547   4.195   6.805 -1.0660  0.1772  1.1690
 5424SOL    HW217172   1.495   4.322   6.893 -2.4064  0.7396 -0.3918
 5425SOL     OW17173   0.518   1.903   4.547  0.0049 -0.2986  0.9721
 5425SOL    HW117174   0.493   1.984   4.601 -0.4702 -0.0160  0.3307
 5425SOL    HW217175   0.440   1.840   4.543 -1.1519  1.1308 -2.0537
 5426SOL     OW17176   1.734   4.161   5.787 -0.2323  0.5128 -0.1658
 5426SOL    HW117177   1.808   4.169   5.854  0.6348  3.5889 -1.3433
 5426SOL    HW217178   1.773   4.157   5.695 -1.5089 -0.2711 -0.6931
 5427SOL     OW17179   3.073   5.573   2.390 -0.2804 -0.6483 -0.0509
 5427SOL    HW117180   3.095   5.642   2.460 -2.5712 -2.0455  2.2472
 5427SOL    HW217181   3.114   5.486   2.415 -1.3818 -1.2433 -0.2709
 5428SOL     OW17182   0.845   1.939   5.324 -0.2599 -0.0186 -0.1928
 5428SOL    HW117183   0.751   1.939   5.357 -0.8228  3.8265 -1.2794
 5428SOL    HW217184   0.845   1.947   5.224  1.0710  2.3780 -0.0832
 5429SOL     OW17185   1.946   6.555   3.381 -0.0995  0.2022 -0.0519
 5429SOL    HW117186   1.889   6.625   3.422  0.0756  0.2522  0.1074
 5429SOL    HW217187   2.023   6.534   3.442 -0.1655 -0.1463 -0.0859
 5430SOL     OW17188   0.936   4.824   3.265  0.2700  0.8850  0.5523
 5430SOL    HW117189   0.857   4.833   3.203  1.3602  1.2591 -0.8385
 5430SOL    HW217190   0.942   4.730   3.299 -0.4483  0.7201  0.2494
 5431SOL     OW17191   6.030   2.295   2.010  0.1015  0.5801 -0.3039
 5431SOL    HW117192   6.014   2.393   1.993  0.0366  0.4109 -1.2736
 5431SOL    HW217193   6.124   2.272   1.988 -0.1581  0.2239 -1.0815
 5432SOL     OW17194   0.327   3.998   4.324  0.4906  0.1004  0.2797
 5432SOL    HW117195   0.293   3.905   4.340  2.9688 -1.0384 -0.5287
 5432SOL    HW217196   0.392   4.023   4.396  0.3856  0.9319  0.0975
 5433SOL     OW17197   3.455   6.661   3.192  0.3868  0.1298 -0.2989
 5433SOL    HW117198   3.427   6.652   3.097  1.4906  0.6264 -0.6922
 5433SOL    HW217199   3.399   6.602   3.250 -0.0775 -0.4200 -1.2982
 5434SOL     OW17200   1.967   4.677   5.662  0.1878  0.0842 -0.0801
 5434SOL    HW117201   2.037   4.722   5.718  1.9781 -0.6650 -1.6058
 5434SOL    HW217202   1.962   4.580   5.685 -0.3609  0.1287  0.0110
 5435SOL     OW17203   1.512   2.680   4.824 -0.5501 -0.4338  0.3579
 5435SOL    HW117204   1.481   2.595   4.868  1.3509 -1.6002 -0.4039
 5435SOL    HW217205   1.481   2.682   4.730 -0.1523 -0.5790  0.2179
 5436SOL     OW17206   6.795   0.780   6.211  0.7084 -0.2437 -0.3658
 5436SOL    HW117207   6.779   0.716   6.286 -0.8673  0.3913 -0.1201
 5436SOL    HW217208   6.837   0.863   6.248  0.4047 -0.1326 -0.2701
 5437SOL     OW17209   0.465   2.125   2.885  0.7135 -0.4955 -0.7183
 5437SOL    HW117210   0.467   2.095   2.790  0.4934 -1.7679 -0.3358
 5437SOL    HW217211   0.471   2.046   2.946 -0.0301  0.2195  0.3311
 5438SOL     OW17212   3.744   0.818   0.758 -0.1149 -0.8247  0.4943
 5438SOL    HW117213   3.714   0.846   0.850 -1.3866 -2.9900  0.8270
 5438SOL    HW217214   3.772   0.722   0.761  1.6134 -0.4080 -1.0399
 5439SOL     OW17215   0.832   2.464   4.663 -0.6136  0.1858 -0.4283
 5439SOL    HW117216   0.803   2.490   4.755  0.2254 -0.8059  0.1316
 5439SOL    HW217217   0.751   2.452   4.605 -1.2895 -1.2899  0.7620
 5440SOL     OW17218   4.307   6.967   4.472  0.8977 -0.3686 -0.6017
 5440SOL    HW117219   4.319   6.927   4.563  1.1372 -2.6807 -1.5762
 5440SOL    HW217220   4.227   7.027   4.473  0.9840 -0.2210  1.1497
 5441SOL     OW17221   4.837   6.603   3.562 -0.1626  0.6931 -0.6347
 5441SOL    HW117222   4.803   6.514   3.531 -1.0987  0.8882 -0.1918
 5441SOL    HW217223   4.922   6.624   3.514  0.1674 -0.5162 -0.6236
 5442SOL     OW17224   5.431   6.604   0.822 -0.6104  0.4686 -0.0325
 5442SOL    HW117225   5.345   6.577   0.778 -0.5795 -1.6746  1.0864
 5442SOL    HW217226   5.497   6.631   0.752 -2.3099  2.7673 -0.8888
 5443SOL     OW17227   6.049   0.395   0.671  0.2595  0.5559 -0.0118
 5443SOL    HW117228   6.123   0.378   0.735  0.2541 -2.5033 -0.6326
 5443SOL    HW217229   6.086   0.429   0.585  1.0577 -1.0906 -0.3678
 5444SOL     OW17230   3.089   3.916   3.198 -0.2546  0.7039 -0.2087
 5444SOL    HW117231   3.167   3.964   3.238  0.8369 -0.9173 -0.2846
 5444SOL    HW217232   3.088   3.929   3.099 -0.3688  1.1139 -0.1558
 5445SOL     OW17233   2.905   5.939   6.927 -0.2191 -0.2982 -0.4643
 5445SOL    HW117234   2.970   5.953   6.853  1.7124  3.4752  1.6621
 5445SOL    HW217235   2.851   6.022   6.940  0.1917 -0.4153  2.8643
 5446SOL     OW17236   5.581   5.612   5.056 -0.1849 -0.0470 -0.2558
 5446SOL    HW117237   5.586   5.708   5.031  1.1722  0.0093  0.1519
 5446SOL    HW217238   5.539   5.603   5.146 -2.6704 -0.0632 -1.3305
 5447SOL     OW17239   6.024   2.991   4.613 -0.0540 -0.1254  0.2605
 5447SOL    HW117240   6.017   3.035   4.524  0.0304 -0.0916  0.2708
 5447SOL    HW217241   6.105   2.932   4.616 -0.1335 -0.2346  0.2670
 5448SOL     OW17242   0.425   6.655   1.869  0.2436 -0.8032  0.7253
 5448SOL    HW117243   0.517   6.627   1.896  0.4229 -1.4833 -0.5295
 5448SOL    HW217244   0.376   6.690   1.950  1.6142 -0.3369  1.3879
 5449SOL     OW17245   5.636   4.971   3.584  0.0633  0.0316  0.2675
 5449SOL    HW117246   5.640   4.892   3.644  0.5325  1.1875  1.8239
 5449SOL    HW217247   5.720   4.978   3.531 -0.0458 -0.5816  0.0082
 5450SOL     OW17248   0.399   6.245   0.234 -0.5354 -0.0905 -0.0932
 5450SOL    HW117249   0.489   6.201   0.235 -0.3579  0.1691 -1.6262
 5450SOL    HW217250   0.359   6.242   0.325  0.3799 -1.5548  0.2888
 5451SOL     OW17251   0.691   4.989   4.268  0.0552  0.2250  0.6560
 5451SOL    HW117252   0.594   4.988   4.243 -0.0658  0.2789  1.1099
 5451SOL    HW217253   0.707   4.922   4.341 -0.0381  1.5839  1.9932
 5452SOL     OW17254   1.395   2.692   5.794 -0.4517  0.7981 -0.4596
 5452SOL    HW117255   1.301   2.680   5.825 -0.6718  1.9541 -0.6481
 5452SOL    HW217256   1.441   2.602   5.791 -1.4306  0.2684 -0.0460
 5453SOL     OW17257   3.679   3.571   3.980  0.0806 -0.5317  0.5482
 5453SOL    HW117258   3.612   3.533   3.915  1.5425 -0.4057 -1.0999
 5453SOL    HW217259   3.769   3.534   3.959  1.1092  1.8192  0.5767
 5454SOL     OW17260   4.183   3.691   0.312  0.7488  0.2889  0.2936
 5454SOL    HW117261   4.190   3.786   0.343  2.7299  0.3571 -0.2478
 5454SOL    HW217262   4.237   3.632   0.373 -0.5935 -0.5514  0.7222
 5455SOL     OW17263   2.022   4.113   2.895 -0.8161 -0.0864 -0.9886
 5455SOL    HW117264   1.948   4.051   2.923 -0.3108 -0.9561 -1.5559
 5455SOL    HW217265   2.086   4.125   2.971 -0.5433 -0.8223 -1.0959
 5456SOL     OW17266   0.548   3.153   4.499  0.9835  0.0144  0.5216
 5456SOL    HW117267   0.611   3.142   4.577  0.3950  0.5624  1.0823
 5456SOL    HW217268   0.462   3.108   4.519  0.7670  0.3072  0.2581
 5457SOL     OW17269   5.117   7.007   3.074 -0.5965  0.0823 -0.4011
 5457SOL    HW117270   5.204   6.959   3.061  0.4035  2.0788 -1.6117
 5457SOL    HW217271   5.042   6.945   3.052  0.5203 -1.4866 -0.0246
 5458SOL     OW17272   3.245   4.308   6.052  0.8182  0.1376 -0.1481
 5458SOL    HW117273   3.268   4.215   6.024  0.1568  0.0788 -0.5303
 5458SOL    HW217274   3.295   4.331   6.135  1.0025 -0.5496 -0.0585
 5459SOL     OW17275   4.906   3.385   5.898  0.7624  0.6343 -0.7058
 5459SOL    HW117276   4.991   3.351   5.858  0.4438 -1.7319  0.4575
 5459SOL    HW217277   4.925   3.424   5.988  0.5191 -1.1826  0.1878
 5460SOL     OW17278   6.942   5.395   2.102 -0.2662 -0.3147  0.3736
 5460SOL    HW117279   6.912   5.315   2.153  0.1125  0.3767  1.7229
 5460SOL    HW217280   6.865   5.458   2.089 -0.2045 -0.1627  0.7349
 5461SOL     OW17281   0.421   6.462   2.676 -0.3713 -0.0505 -0.4900
 5461SOL    HW117282   0.351   6.531   2.655 -0.6893  0.1779  1.1465
 5461SOL    HW217283   0.411   6.433   2.771 -0.1372 -2.2673 -1.0845
 5462SOL     OW17284   6.393   2.107   6.547 -0.0291  0.0431 -0.3844
 5462SOL    HW117285   6.418   2.160   6.466  1.7004 -0.1204  0.0040
 5462SOL    HW217286   6.390   2.010   6.523 -0.8753  0.1037 -0.5528
 5463SOL     OW17287   1.837   0.725   1.802 -0.2191 -0.3100 -0.4565
 5463SOL    HW117288   1.796   0.784   1.871  0.1209  1.1523 -1.4455
 5463SOL    HW217289   1.775   0.716   1.724 -1.3183 -3.2808  0.6241
 5464SOL     OW17290   5.294   1.254   0.665  0.0816 -0.0133  0.0621
 5464SOL    HW117291   5.230   1.248   0.741  1.0464  0.6034  0.9642
 5464SOL    HW217292   5.381   1.293   0.698  0.5914  0.0730 -1.3144
 5465SOL     OW17293   5.899   3.996   3.547 -0.2695  0.6897 -0.2332
 5465SOL    HW117294   5.894   4.094   3.569 -1.1037  0.7743 -0.7217
 5465SOL    HW217295   5.820   3.950   3.587  0.5746  0.0458  0.7365
 5466SOL     OW17296   4.023   4.389   0.818  0.0000 -0.1795 -0.0849
 5466SOL    HW117297   3.943   4.426   0.865 -1.2871 -2.1474 -0.5652
 5466SOL    HW217298   4.017   4.410   0.720 -0.1506 -0.6659 -0.1831
 5467SOL     OW17299   1.518   1.656   2.758  0.3686  0.5223 -0.1106
 5467SOL    HW117300   1.423   1.633   2.778  0.7032  0.4033  1.4739
 5467SOL    HW217301   1.521   1.723   2.684 -0.9876  1.0885  0.3066
 5468SOL     OW17302   0.088   2.358   6.726  0.3277 -0.1291 -0.4248
 5468SOL    HW117303   0.109   2.451   6.757  1.9852 -0.8843  0.9285
 5468SOL    HW217304   0.118   2.347   6.632 -2.5335  1.4967 -1.6413
 5469SOL     OW17305   6.320   1.578   1.058 -0.3350 -0.0063  0.4327
 5469SOL    HW117306   6.411   1.544   1.082  0.1329 -0.2743 -1.4943
 5469SOL    HW217307   6.264   1.502   1.025 -0.3084  0.5654 -0.9986
 5470SOL     OW17308   1.649   5.329   0.718  0.1089 -0.3194 -0.4101
 5470SOL    HW117309   1.638   5.233   0.744  0.2488 -1.0509 -2.7651
 5470SOL    HW217310   1.719   5.337   0.647  0.2327  1.5613 -0.1362
 5471SOL     OW17311   0.687   4.201   5.365  0.0753 -0.2849 -0.2630
 5471SOL    HW117312   0.668   4.176   5.460  0.8596 -1.8796 -0.5031
 5471SOL    HW217313   0.684   4.301   5.356  0.2146 -0.0940  1.4711
 5472SOL     OW17314   2.907   3.693   4.108  0.3045  0.1995 -0.7274
 5472SOL    HW117315   2.947   3.784   4.122 -1.9691  0.8716  2.5166
 5472SOL    HW217316   2.979   3.629   4.082  2.3545  2.4401 -0.9802
 5473SOL     OW17317   2.818   1.687   5.942 -0.2075  0.4006  0.0559
 5473SOL    HW117318   2.886   1.626   5.902  2.5592  2.0959  1.8673
 5473SOL    HW217319   2.828   1.779   5.902 -1.4166  0.6991  0.4125
 5474SOL     OW17320   6.146   5.336   5.119  0.7097 -0.1351 -0.2920
 5474SOL    HW117321   6.047   5.341   5.127  0.5930  0.0867 -1.6288
 5474SOL    HW217322   6.185   5.299   5.204 -0.4246  0.6180  0.5812
 5475SOL     OW17323   1.784   6.823   0.384  0.2981 -0.5659  0.2391
 5475SOL    HW117324   1.758   6.904   0.436 -3.4334  0.2328 -2.4422
 5475SOL    HW217325   1.822   6.852   0.296 -0.3120 -1.7093 -0.4197
 5476SOL     OW17326   1.512   6.265   1.416  0.0302  0.0778  0.3018
 5476SOL    HW117327   1.491   6.350   1.464 -0.0099  0.4320 -0.3362
 5476SOL    HW217328   1.538   6.195   1.482  0.0950  0.5956  0.8298
 5477SOL     OW17329   6.927   4.314   5.441  0.1877 -0.2526 -0.4700
 5477SOL    HW117330   6.898   4.273   5.527  2.7058 -1.6891 -0.2149
 5477SOL    HW217331   6.928   4.414   5.451  2.0562 -0.4118  1.8122
 5478SOL     OW17332   3.637   4.422   6.240 -0.1657 -0.4769 -0.0078
 5478SOL    HW117333   3.564   4.402   6.305 -1.4029  1.0925 -0.8206
 5478SOL    HW217334   3.597   4.443   6.150  0.8422  4.1131  0.3443
 5479SOL     OW17335   0.307   3.066   4.610  0.2581  0.5739  0.4213
 5479SOL    HW117336   0.271   3.008   4.683  1.5928 -0.7330  0.1090
 5479SOL    HW217337   0.231   3.103   4.556 -0.6993  0.7479  1.8446
 5480SOL     OW17338   2.353   5.567   0.154 -0.2686 -0.0033 -0.0413
 5480SOL    HW117339   2.322   5.524   0.070 -0.3443 -0.1707  0.0706
 5480SOL    HW217340   2.325   5.663   0.156  0.1365  0.1266 -0.4171
 5481SOL     OW17341   2.974   2.764   5.738 -0.6430 -0.0269  0.0603
 5481SOL    HW117342   2.906   2.836   5.729  0.7586  1.7624  2.6293
 5481SOL    HW217343   2.978   2.734   5.833  2.2221  0.0550  0.0383
 5482SOL     OW17344   2.122   4.472   0.487  0.8046 -0.1091  0.0636
 5482SOL    HW117345   2.189   4.543   0.465 -0.9785  1.5353 -0.3414
 5482SOL    HW217346   2.117   4.407   0.412  1.2340  0.3173 -0.3435
 5483SOL     OW17347   6.843   2.244   5.467 -0.5696 -0.2344  0.0013
 5483SOL    HW117348   6.815   2.149   5.450  0.5888 -0.2205 -2.3388
 5483SOL    HW217349   6.859   2.257   5.565  0.7666 -2.9226  0.2375
 5484SOL     OW17350   2.831   0.439   4.537  0.1348  0.2568 -0.2824
 5484SOL    HW117351   2.848   0.535   4.559 -1.2474  0.4839 -0.1393
 5484SOL    HW217352   2.796   0.432   4.444 -0.8257  0.0151  0.0853
 5485SOL     OW17353   2.131   1.729   0.030  0.6131  0.0455 -0.1849
 5485SOL    HW117354   2.175   1.661   0.088  0.1950 -0.0008  0.0854
 5485SOL    HW217355   2.178   1.734  -0.058  1.0146 -0.1596  0.0156
 5486SOL     OW17356   2.221   3.230   5.385 -0.1926  0.1510 -0.6490
 5486SOL    HW117357   2.249   3.321   5.355  1.2524  0.2811  0.9204
 5486SOL    HW217358   2.297   3.186   5.433 -0.9427 -1.8055 -1.1569
 5487SOL     OW17359   0.457   0.734   1.342 -0.0732  0.4878 -0.0713
 5487SOL    HW117360   0.442   0.710   1.438  0.9347 -0.8973 -0.2257
 5487SOL    HW217361   0.519   0.813   1.337  0.6111 -0.0039  0.4303
 5488SOL     OW17362   2.606   4.543   0.614 -0.0857  0.1782 -0.0706
 5488SOL    HW117363   2.510   4.541   0.643 -0.2644  0.1633 -0.6510
 5488SOL    HW217364   2.645   4.633   0.635 -0.7797  0.8547 -1.5491
 5489SOL     OW17365   4.699   1.473   4.470 -0.4666 -0.0554 -0.6883
 5489SOL    HW117366   4.795   1.501   4.473 -0.2427 -0.7886 -0.8091
 5489SOL    HW217367   4.665   1.480   4.377  0.1924 -2.0852 -1.1386
 5490SOL     OW17368   0.043   6.166   1.734  0.3580  0.8779 -0.8569
 5490SOL    HW117369   0.082   6.189   1.644  1.8950  0.4568 -0.3280
 5490SOL    HW217370   0.043   6.067   1.746  1.6351  0.9794  0.2039
 5491SOL     OW17371   5.511   3.827   0.079  0.8034 -0.1153  0.1916
 5491SOL    HW117372   5.462   3.745   0.052 -1.1311  0.7140  0.9896
 5491SOL    HW217373   5.449   3.905   0.077  1.7808  0.7979  2.3760
 5492SOL     OW17374   4.821   5.306   6.090 -0.0998 -0.1545 -0.9494
 5492SOL    HW117375   4.815   5.368   6.169 -1.9178  0.4575 -1.4989
 5492SOL    HW217376   4.805   5.212   6.121  0.1006 -0.0339 -0.4631
 5493SOL     OW17377   3.725   5.319   6.545  0.0779 -0.3728  0.2051
 5493SOL    HW117378   3.672   5.251   6.495 -0.8994 -0.0995  0.8444
 5493SOL    HW217379   3.821   5.290   6.548 -0.1738 -1.3038 -0.2395
 5494SOL     OW17380   4.421   3.150   0.369 -0.1372 -0.1150  0.2680
 5494SOL    HW117381   4.372   3.198   0.442 -4.2740 -2.2102 -0.7876
 5494SOL    HW217382   4.399   3.052   0.373  0.1640 -0.4676 -3.1634
 5495SOL     OW17383   5.569   4.643   4.905  0.1919 -0.1487 -0.0258
 5495SOL    HW117384   5.588   4.545   4.904 -2.0768 -0.6813  1.5167
 5495SOL    HW217385   5.520   4.669   4.823  0.3541 -0.3914 -0.2006
 5496SOL     OW17386   0.544   6.373   6.799  0.0505 -0.6649 -0.3236
 5496SOL    HW117387   0.615   6.360   6.868 -0.8440 -0.9095  0.5844
 5496SOL    HW217388   0.459   6.330   6.831 -0.6515  0.0854 -1.1350
 5497SOL     OW17389   4.033   4.772   1.132  0.2172 -0.4553 -0.0071
 5497SOL    HW117390   4.102   4.834   1.170  1.1782 -1.1212 -0.5921
 5497SOL    HW217391   4.036   4.686   1.182  1.8118 -1.5076 -1.7587
 5498SOL     OW17392   4.544   4.742   5.694  0.0635  0.2860 -0.0578
 5498SOL    HW117393   4.607   4.739   5.772 -0.5842  2.5941  0.6289
 5498SOL    HW217394   4.492   4.827   5.696 -1.0147 -0.2422 -2.2434
 5499SOL     OW17395   6.104   4.073   1.559 -0.1935  0.4063 -0.3226
 5499SOL    HW117396   6.163   4.017   1.617 -2.1704 -1.0087  0.4206
 5499SOL    HW217397   6.140   4.075   1.466  0.5541 -1.1301 -0.0859
 5500SOL     OW17398   4.536   4.368   2.595  1.0752  0.6903 -0.6410
 5500SOL    HW117399   4.536   4.346   2.498 -0.1574 -1.9645 -0.1421
 5500SOL    HW217400   4.616   4.326   2.638  1.5512  1.7519 -0.4602
 5501SOL     OW17401   3.653   0.946   5.137 -0.0300  0.4151  0.4796
 5501SOL    HW117402   3.724   0.962   5.206  0.7871 -2.0139  0.2920
 5501SOL    HW217403   3.584   0.884   5.174 -0.0810 -0.1719 -0.5508
 5502SOL     OW17404   0.402   4.431   5.755  0.2629  0.0826 -0.0354
 5502SOL    HW117405   0.312   4.457   5.719 -0.8904 -2.1456  1.0296
 5502SOL    HW217406   0.424   4.339   5.724  1.4442 -0.0235  1.0666
 5503SOL     OW17407   5.118   4.560   1.571  0.0521 -0.0608  0.1352
 5503SOL    HW117408   5.102   4.616   1.490  1.2529  0.0434 -0.0453
 5503SOL    HW217409   5.030   4.524   1.604 -0.8793  2.4625  0.6821
 5504SOL     OW17410   3.629   6.074   0.358 -0.5727 -0.4106 -0.9076
 5504SOL    HW117411   3.603   5.982   0.387  0.1553 -0.7342 -1.2507
 5504SOL    HW217412   3.692   6.114   0.425 -1.8676  0.3615 -0.0902
 5505SOL     OW17413   4.542   1.817   2.129 -0.9803  0.0408 -0.2750
 5505SOL    HW117414   4.507   1.873   2.053 -3.3600 -0.0876  0.6447
 5505SOL    HW217415   4.629   1.855   2.161 -1.1269  1.5191 -1.5014
 5506SOL     OW17416   0.646   6.341   0.041 -0.1670 -0.2609 -0.5637
 5506SOL    HW117417   0.564   6.398   0.048 -0.0379 -0.2163  0.6378
 5506SOL    HW217418   0.727   6.398   0.054  0.0257 -0.4798 -0.7899
 5507SOL     OW17419   1.259   0.063   1.186  0.5499  0.0046 -0.1940
 5507SOL    HW117420   1.331   0.007   1.146 -0.1281 -0.9894 -0.0443
 5507SOL    HW217421   1.177   0.008   1.202 -0.0420  0.9620  0.2371
 5508SOL     OW17422   0.929   2.260   2.034 -0.2311  0.0064  0.2017
 5508SOL    HW117423   0.847   2.253   2.091  0.6763  0.7007  1.6506
 5508SOL    HW217424   0.997   2.317   2.080  0.7535  0.1657 -1.3612
 5509SOL     OW17425   3.958   3.846   3.487 -0.0326  0.1803  0.2357
 5509SOL    HW117426   3.962   3.877   3.582 -1.4843 -0.6703  0.6112
 5509SOL    HW217427   4.014   3.764   3.476 -1.6442 -1.0747  0.9629
 5510SOL     OW17428   2.336   4.780   2.622 -0.0731  0.4549 -0.2077
 5510SOL    HW117429   2.403   4.852   2.609  0.9669 -0.5628 -0.6645
 5510SOL    HW217430   2.380   4.691   2.612 -0.2551 -0.4533  4.6056
 5511SOL     OW17431   6.494   3.860   0.567 -0.2110 -0.3638  0.1965
 5511SOL    HW117432   6.564   3.906   0.622 -1.1785  0.5783  0.6929
 5511SOL    HW217433   6.538   3.809   0.493  0.9496  1.0998 -0.1795
 5512SOL     OW17434   1.201   6.211   3.754  0.1096 -0.1922  0.1195
 5512SOL    HW117435   1.149   6.296   3.742 -0.1980 -0.1676  1.4096
 5512SOL    HW217436   1.148   6.148   3.811 -0.0822 -1.6523 -1.5941
 5513SOL     OW17437   5.077   1.170   1.101 -0.5678  0.7083  0.0892
 5513SOL    HW117438   5.073   1.098   1.171  0.5471  0.7522  0.2276
 5513SOL    HW217439   5.115   1.253   1.141  2.0327  0.1427 -0.9755
 5514SOL     OW17440   5.081   4.472   6.944 -0.3091  0.8218  0.6366
 5514SOL    HW117441   5.086   4.405   7.018 -0.4069  1.1940  0.9840
 5514SOL    HW217442   5.151   4.542   6.957 -0.1157  0.7126  0.2008
 5515SOL     OW17443   4.310   1.783   1.775  0.8068 -0.9501  0.1341
 5515SOL    HW117444   4.227   1.830   1.804  0.9918  0.2467 -1.1872
 5515SOL    HW217445   4.312   1.692   1.816 -0.4004 -0.4487  1.3934
 5516SOL     OW17446   1.784   1.374   5.389 -0.0066  0.4218  0.4657
 5516SOL    HW117447   1.849   1.371   5.466  0.8355  0.3293 -0.2275
 5516SOL    HW217448   1.831   1.410   5.308 -0.8725  0.4886 -0.0170
 5517SOL     OW17449   0.103   6.960   2.865 -0.8471  0.0685 -0.1930
 5517SOL    HW117450   0.088   6.905   2.782  0.9994 -0.5292 -0.1801
 5517SOL    HW217451   0.130   7.052   2.839  1.5909 -0.6225 -0.3725
 5518SOL     OW17452   1.646   1.331   1.366 -0.4948  0.2870  0.0259
 5518SOL    HW117453   1.550   1.357   1.369 -1.0911 -1.6524 -0.7618
 5518SOL    HW217454   1.685   1.358   1.278 -0.8322 -0.5631 -0.3881
 5519SOL     OW17455   6.086   6.349   3.184  0.1546  0.0424  0.2865
 5519SOL    HW117456   6.160   6.321   3.122 -0.7009 -0.3397 -0.5914
 5519SOL    HW217457   6.044   6.433   3.150  0.0264  0.1193  0.6367
 5520SOL     OW17458   3.520   6.364   4.658  0.2877  0.1372 -0.0480
 5520SOL    HW117459   3.436   6.323   4.624 -0.2448 -0.1209  1.4779
 5520SOL    HW217460   3.563   6.301   4.723  0.8189  0.9403  0.3935
 5521SOL     OW17461   0.723   1.126   3.571 -0.2182 -0.3394  0.2950
 5521SOL    HW117462   0.696   1.100   3.478 -0.2641  0.0321  0.2027
 5521SOL    HW217463   0.718   1.226   3.580  3.5629  0.0862 -0.5276
 5522SOL     OW17464   3.860   5.170   4.110  0.2439  0.4680 -0.3874
 5522SOL    HW117465   3.774   5.127   4.086  0.5740  0.0032 -0.7655
 5522SOL    HW217466   3.905   5.204   4.027  1.9471 -2.1934 -0.6723
 5523SOL     OW17467   3.464   1.563   5.486  0.4970  0.0997 -0.1947
 5523SOL    HW117468   3.526   1.620   5.540 -0.4745  1.0710 -0.0843
 5523SOL    HW217469   3.516   1.515   5.416  1.1490  2.4229 -1.4090
 5524SOL     OW17470   5.834   6.737   5.631  0.2741  0.0031  0.1263
 5524SOL    HW117471   5.923   6.712   5.670  0.3210  1.3347  0.9342
 5524SOL    HW217472   5.766   6.741   5.703  0.0260  1.0199 -0.1506
 5525SOL     OW17473   4.400   0.165   0.225 -0.1477  0.2090 -0.5235
 5525SOL    HW117474   4.342   0.168   0.306  1.1376 -1.5953  0.5333
 5525SOL    HW217475   4.431   0.258   0.204 -1.4970  0.8790  0.2819
 5526SOL     OW17476   5.091   4.858   4.684 -0.1697  0.2388 -0.5314
 5526SOL    HW117477   5.114   4.761   4.677  0.5120  0.4269 -0.9327
 5526SOL    HW217478   5.121   4.906   4.602  1.7313  1.2441  0.6863
 5527SOL     OW17479   5.578   5.883   1.783 -0.4785  0.0506  0.0120
 5527SOL    HW117480   5.658   5.823   1.780 -0.0369  0.5179  1.5192
 5527SOL    HW217481   5.520   5.866   1.703  0.2974 -1.4426 -0.2637
 5528SOL     OW17482   2.016   6.173   5.887  0.2867  0.1368 -0.2765
 5528SOL    HW117483   1.969   6.085   5.888 -1.7283  1.1367 -1.2424
 5528SOL    HW217484   1.974   6.235   5.953 -0.3968  1.3334 -1.7586
 5529SOL     OW17485   4.363   4.278   5.496 -0.8023  0.0941  0.3496
 5529SOL    HW117486   4.302   4.231   5.432  0.6197  0.0678 -1.0246
 5529SOL    HW217487   4.341   4.376   5.498 -0.2729  0.2460 -0.8790
 5530SOL     OW17488   3.820   6.787   6.688 -0.1817 -1.0775 -0.0461
 5530SOL    HW117489   3.722   6.786   6.671 -0.4322  0.4768  1.1265
 5530SOL    HW217490   3.866   6.847   6.623  0.0981 -2.1756 -0.9068
 5531SOL     OW17491   4.131   6.471   1.858 -0.5546  0.4382  0.3500
 5531SOL    HW117492   4.228   6.493   1.864 -0.1454 -0.6301 -1.6290
 5531SOL    HW217493   4.085   6.537   1.799 -0.4703 -0.5761 -0.8892
 5532SOL     OW17494   4.648   5.849   6.279  0.0179 -0.2897  0.4878
 5532SOL    HW117495   4.585   5.866   6.203 -0.7162 -0.0408  1.1324
 5532SOL    HW217496   4.618   5.901   6.359 -0.9317 -2.7248  1.8288
 5533SOL     OW17497   2.488   1.397   2.339  0.1635  0.1287 -0.1887
 5533SOL    HW117498   2.441   1.379   2.253 -0.2901  0.3827  0.0040
 5533SOL    HW217499   2.424   1.438   2.405  0.5567  0.1326  0.1990
 5534SOL     OW17500   1.640   7.011   6.134  0.2915  0.7117  0.3978
 5534SOL    HW117501   1.562   6.981   6.190  1.4896 -0.4296  1.5280
 5534SOL    HW217502   1.610   7.082   6.071 -1.2336  1.7037  2.1437
 5535SOL     OW17503   0.982   2.282   3.695 -0.0401  0.2487 -0.3013
 5535SOL    HW117504   1.004   2.212   3.628  0.3953  0.3648 -0.2795
 5535SOL    HW217505   1.059   2.295   3.757 -0.5805 -0.1397  0.4749
 5536SOL     OW17506   0.209   2.737   0.584  0.1384  0.5229 -0.0935
 5536SOL    HW117507   0.257   2.683   0.515  0.1949  3.2284 -2.3713
 5536SOL    HW217508   0.154   2.808   0.539 -2.1442  0.6690  2.6028
 5537SOL     OW17509   0.060   4.384   4.417  0.2363 -0.2325 -0.5222
 5537SOL    HW117510   0.031   4.475   4.386  0.5542 -0.2254 -0.8038
 5537SOL    HW217511   0.137   4.353   4.362  0.5647 -0.3856  0.0173
 5538SOL     OW17512   2.179   3.470   5.055  0.0845 -0.0953  0.0701
 5538SOL    HW117513   2.187   3.552   4.999 -2.0273  1.3746  1.7988
 5538SOL    HW217514   2.147   3.394   4.998 -2.1315  1.3748 -0.7698
 5539SOL     OW17515   4.081   0.053   2.880 -0.1161  0.0036 -0.3135
 5539SOL    HW117516   4.134   0.133   2.908  0.0184  0.1206 -0.9017
 5539SOL    HW217517   4.006   0.039   2.945  0.8318 -0.3782  0.7346
 5540SOL     OW17518   0.075   6.286   3.961 -0.0883  0.4738 -0.2964
 5540SOL    HW117519   0.012   6.363   3.952 -1.5465 -0.6414 -0.0676
 5540SOL    HW217520   0.109   6.282   4.055 -3.0018 -1.2826  0.8268
 5541SOL     OW17521   3.525   6.424   2.634  0.2553 -0.2630 -0.1032
 5541SOL    HW117522   3.565   6.489   2.698 -0.9091  1.9773 -1.5159
 5541SOL    HW217523   3.529   6.461   2.542 -0.3922 -2.2682 -0.9966
 5542SOL     OW17524   2.546   2.102   3.339 -0.1698 -0.2267  0.2428
 5542SOL    HW117525   2.487   2.182   3.352  0.7539  0.4984  0.1054
 5542SOL    HW217526   2.633   2.131   3.300 -0.4820 -1.5433 -1.5469
 5543SOL     OW17527   0.227   6.993   1.913 -0.4507  0.1098  0.1341
 5543SOL    HW117528   0.221   7.021   1.817  0.3221  0.0983  0.0726
 5543SOL    HW217529   0.213   6.894   1.919  4.7028 -0.9644 -0.7240
 5544SOL     OW17530   1.240   1.168   2.802  0.5767 -0.2057  0.1527
 5544SOL    HW117531   1.266   1.075   2.776  0.7096 -0.3530  0.7948
 5544SOL    HW217532   1.301   1.200   2.875  0.5244  0.3813 -0.0565
 5545SOL     OW17533   0.858   4.741   5.995  0.1577  0.0360 -0.6652
 5545SOL    HW117534   0.848   4.661   6.054  1.6502 -1.5290 -2.4138
 5545SOL    HW217535   0.780   4.745   5.932 -0.5631  0.7391  0.2324
 5546SOL     OW17536   4.374   1.331   4.113  0.0834 -0.4571 -0.4993
 5546SOL    HW117537   4.396   1.252   4.172 -0.2433 -1.4692 -1.6921
 5546SOL    HW217538   4.399   1.310   4.019 -0.9773  0.4566 -1.0075
 5547SOL     OW17539   3.911   1.148   3.303  0.6699  0.2657  0.1275
 5547SOL    HW117540   3.928   1.190   3.214 -1.3918 -1.5765 -1.2628
 5547SOL    HW217541   3.919   1.049   3.295 -1.8023 -0.1150  1.3528
 5548SOL     OW17542   4.866   0.046   6.447  0.3564 -0.4139  0.6442
 5548SOL    HW117543   4.925  -0.029   6.478  1.7237  0.6490  0.7263
 5548SOL    HW217544   4.771   0.015   6.447  0.8969 -2.2367  0.3690
 5549SOL     OW17545   3.141   1.725   0.277  0.1771  0.6078 -0.1644
 5549SOL    HW117546   3.239   1.739   0.289 -0.2619  2.9264  1.3984
 5549SOL    HW217547   3.104   1.680   0.358  0.1803 -2.2093 -1.6010
 5550SOL     OW17548   4.829   3.829   1.029 -0.3139 -0.2812 -0.1195
 5550SOL    HW117549   4.820   3.906   0.965 -2.5021 -1.1297 -0.9375
 5550SOL    HW217550   4.772   3.846   1.110  0.4337 -0.3560  0.4272
 5551SOL     OW17551   4.650   2.234   0.772  0.2228 -0.3903 -0.0813
 5551SOL    HW117552   4.728   2.186   0.813 -0.0220  0.3269  1.2918
 5551SOL    HW217553   4.607   2.291   0.842 -2.5730 -2.0245 -0.3441
 5552SOL     OW17554   1.928   6.097   4.061  0.2506 -0.0577  0.0593
 5552SOL    HW117555   1.883   6.176   4.020  0.4396 -0.0488 -0.1364
 5552SOL    HW217556   1.883   6.013   4.031  1.3076 -0.1444 -1.3983
 5553SOL     OW17557   3.671   1.864   6.288 -0.3392  0.4206 -0.1701
 5553SOL    HW117558   3.642   1.774   6.321  1.4456 -0.9174 -1.9881
 5553SOL    HW217559   3.611   1.894   6.214  0.6810 -0.6418 -1.4685
 5554SOL     OW17560   5.666   4.805   1.804 -0.1129 -0.1888  0.0468
 5554SOL    HW117561   5.702   4.878   1.747  1.6735 -0.7584  0.3843
 5554SOL    HW217562   5.578   4.833   1.843 -0.1579  1.1774 -0.9802
 5555SOL     OW17563   3.081   0.658   3.853  0.0634 -0.3168  0.3153
 5555SOL    HW117564   3.044   0.567   3.871  1.1441 -0.7965  0.2021
 5555SOL    HW217565   3.107   0.701   3.940  2.9982 -1.6481  0.2180
 5556SOL     OW17566   5.163   1.083   6.589 -0.1438  0.4126  0.0692
 5556SOL    HW117567   5.189   1.092   6.685 -0.6796 -1.3540  0.4148
 5556SOL    HW217568   5.212   1.152   6.535  1.1732  0.5816  1.4064
 5557SOL     OW17569   4.087   4.783   0.832 -0.6005 -0.1950  0.1628
 5557SOL    HW117570   4.056   4.794   0.926  0.2896  2.0539  0.2281
 5557SOL    HW217571   4.133   4.694   0.823 -0.8181 -0.5133  1.7908
 5558SOL     OW17572   4.879   4.777   1.204  0.6452  0.3022  0.2438
 5558SOL    HW117573   4.786   4.763   1.172  0.7264  0.8141 -0.2207
 5558SOL    HW217574   4.940   4.789   1.125  1.0637  0.2113  0.5504
 5559SOL     OW17575   5.412   5.491   2.493 -0.0476 -0.0819  0.1340
 5559SOL    HW117576   5.384   5.572   2.440  0.1193 -1.4419 -2.1531
 5559SOL    HW217577   5.361   5.411   2.461  2.1249 -1.5046  0.0439
 5560SOL     OW17578   3.547   6.083   4.425 -0.3347  0.3072 -0.3129
 5560SOL    HW117579   3.465   6.066   4.480 -0.0575 -0.5373 -0.1540
 5560SOL    HW217580   3.557   6.012   4.356 -0.6555  1.3288 -1.4575
 5561SOL     OW17581   1.143   0.070   6.608 -0.3734  0.3959 -0.7510
 5561SOL    HW117582   1.208  -0.002   6.629 -0.9962  0.0061 -0.1159
 5561SOL    HW217583   1.123   0.070   6.510 -0.8541 -0.7249 -0.6665
 5562SOL     OW17584   1.061   3.474   3.547 -0.2967  0.2452 -0.5079
 5562SOL    HW117585   0.981   3.446   3.495 -0.5837 -1.7109  0.9042
 5562SOL    HW217586   1.033   3.512   3.635  0.3245 -1.6933  0.5682
 5563SOL     OW17587   5.095   1.747   0.402 -0.5989 -0.3796  0.4837
 5563SOL    HW117588   5.155   1.794   0.467  0.5551 -0.8720 -0.2042
 5563SOL    HW217589   5.073   1.810   0.327 -0.4207 -0.3955  0.4168
 5564SOL     OW17590   6.612   4.439   5.054 -0.2089  0.3267 -0.6001
 5564SOL    HW117591   6.605   4.510   5.123 -1.4862 -0.7724  0.4678
 5564SOL    HW217592   6.606   4.349   5.098  1.4509 -0.4721 -1.8943
 5565SOL     OW17593   4.798   5.562   1.841 -0.0367 -1.1332 -0.3145
 5565SOL    HW117594   4.698   5.556   1.845 -0.4482  2.4599 -1.2845
 5565SOL    HW217595   4.831   5.613   1.921  0.5923  0.4924 -1.5564
 5566SOL     OW17596   3.161   1.811   4.785 -0.4667 -0.1330 -1.1010
 5566SOL    HW117597   3.137   1.785   4.879 -2.4064 -0.0541 -1.5161
 5566SOL    HW217598   3.211   1.898   4.786  2.6922 -1.8135  0.0378
 5567SOL     OW17599   1.723   0.917   2.723  0.2557  0.7110  0.0534
 5567SOL    HW117600   1.665   0.998   2.712 -1.6761 -0.6785 -0.5520
 5567SOL    HW217601   1.667   0.835   2.712  1.9580 -0.7366  1.6924
 5568SOL     OW17602   0.094   0.384   6.765 -0.2814 -0.0442 -0.9952
 5568SOL    HW117603   0.157   0.306   6.758 -1.3697 -1.0219 -0.3937
 5568SOL    HW217604   0.005   0.351   6.798 -0.6757  1.5119 -0.4312
 5569SOL     OW17605   2.024   2.727   2.619  0.4826  0.4867 -0.6830
 5569SOL    HW117606   1.981   2.710   2.708  1.0184 -0.7799 -0.6454
 5569SOL    HW217607   2.121   2.702   2.623  0.0870 -1.5134 -2.1560
 5570SOL     OW17608   1.563   2.409   3.762  0.1438 -0.1622  0.0667
 5570SOL    HW117609   1.503   2.353   3.820 -2.3103  1.4314 -0.7906
 5570SOL    HW217610   1.559   2.504   3.792 -0.0744  0.4572 -1.8634
 5571SOL     OW17611   5.639   3.465   5.890  0.3799 -0.4122  0.3678
 5571SOL    HW117612   5.699   3.486   5.967  0.2336 -2.6724  1.1557
 5571SOL    HW217613   5.654   3.371   5.860  0.1873  0.3133 -2.1897
 5572SOL     OW17614   4.075   1.341   3.752  0.0276 -0.0635 -0.4686
 5572SOL    HW117615   4.145   1.276   3.724  0.2375 -0.4132  0.8074
 5572SOL    HW217616   4.118   1.421   3.795 -0.2124  1.0492 -2.1879
 5573SOL     OW17617   0.232   4.399   1.481  0.2002 -0.6375 -0.0403
 5573SOL    HW117618   0.227   4.378   1.579  0.1556  1.3275  0.4276
 5573SOL    HW217619   0.285   4.483   1.468 -1.1659  0.0356 -1.5598
 5574SOL     OW17620   1.503   6.757   2.024 -0.0499 -0.2095 -0.0125
 5574SOL    HW117621   1.427   6.779   2.084  0.9612 -2.7565  2.4020
 5574SOL    HW217622   1.587   6.799   2.059  0.0880  0.8036 -1.4537
 5575SOL     OW17623   1.317   0.347   4.216 -0.2452  0.3319  0.3036
 5575SOL    HW117624   1.310   0.406   4.297 -0.2282  1.0669 -0.2177
 5575SOL    HW217625   1.227   0.340   4.173 -0.1989  0.1701  0.2357
 5576SOL     OW17626   3.509   1.860   3.405  0.6915  0.3051  0.2649
 5576SOL    HW117627   3.426   1.830   3.453  1.0129  1.0039  1.2810
 5576SOL    HW217628   3.503   1.958   3.386  0.9906  0.2240 -0.2637
 5577SOL     OW17629   2.532   1.686   0.017  0.2965 -0.8357  0.3887
 5577SOL    HW117630   2.472   1.746   0.071 -0.2391 -0.1765 -0.9126
 5577SOL    HW217631   2.533   1.595   0.059 -2.2954 -1.1172  0.0362
 5578SOL     OW17632   5.278   5.472   4.680  0.3669 -0.0402 -0.0072
 5578SOL    HW117633   5.222   5.555   4.681 -2.0640 -1.5808  0.9591
 5578SOL    HW217634   5.294   5.442   4.774  1.2465 -0.6626 -0.3452
 5579SOL     OW17635   4.466   3.550   1.060  0.1451  0.1483  0.0997
 5579SOL    HW117636   4.497   3.529   1.152  0.6044 -0.0125 -0.0871
 5579SOL    HW217637   4.545   3.568   1.001 -0.0137 -1.6092 -0.7170
 5580SOL     OW17638   6.567   4.022   1.686 -0.4008 -0.2135  0.1030
 5580SOL    HW117639   6.573   4.110   1.733 -0.5066  0.2969 -0.8128
 5580SOL    HW217640   6.608   3.950   1.742  4.9984  1.2675 -1.4242
 5581SOL     OW17641   6.049   5.573   6.546 -0.2337 -0.2832 -0.0361
 5581SOL    HW117642   6.016   5.644   6.483 -0.3516 -0.3787 -0.0826
 5581SOL    HW217643   6.076   5.492   6.494 -2.8242 -1.3776  0.1597
 5582SOL     OW17644   1.616   2.644   6.467 -0.0461 -0.0892  0.4687
 5582SOL    HW117645   1.707   2.655   6.428 -0.4661  1.8585 -0.0870
 5582SOL    HW217646   1.603   2.711   6.540 -0.7472 -0.9255  1.1356
 5583SOL     OW17647   2.807   2.280   5.640 -0.0288 -0.1480 -0.7580
 5583SOL    HW117648   2.857   2.194   5.650 -1.6937 -1.1440 -0.7748
 5583SOL    HW217649   2.873   2.355   5.630  1.4536 -1.3984 -0.7678
 5584SOL     OW17650   2.389   6.321   1.416 -0.0748 -0.5382  0.5304
 5584SOL    HW117651   2.402   6.247   1.481  1.0767  1.3971  2.6806
 5584SOL    HW217652   2.310   6.376   1.444  0.4282  0.3119  0.3120
 5585SOL     OW17653   6.731   3.110   4.738 -0.0767 -0.1099 -0.2513
 5585SOL    HW117654   6.721   3.152   4.829 -2.0547  0.5369 -0.7277
 5585SOL    HW217655   6.821   3.132   4.701  0.6338 -0.0966  1.3956
 5586SOL     OW17656   6.046   0.603   5.605 -0.3056 -0.3871 -0.1355
 5586SOL    HW117657   6.087   0.693   5.588 -2.2485  0.5523 -0.1160
 5586SOL    HW217658   6.098   0.556   5.677  0.7020  0.7339 -0.0936
 5587SOL     OW17659   5.083   6.298   4.203 -0.1829 -0.7943 -0.4482
 5587SOL    HW117660   5.118   6.391   4.211 -2.0242  0.0744 -1.6045
 5587SOL    HW217661   5.123   6.240   4.274  1.4079  0.7282 -0.0442
 5588SOL     OW17662   0.786   6.444   3.394  0.2174  0.1483  0.4093
 5588SOL    HW117663   0.783   6.400   3.305 -0.9720 -1.2138  1.0893
 5588SOL    HW217664   0.811   6.540   3.383 -1.0778  0.3181 -1.5236
 5589SOL     OW17665   1.495   2.912   5.650  0.2349  0.2870 -0.1678
 5589SOL    HW117666   1.583   2.886   5.610 -0.9509 -0.1281 -2.7163
 5589SOL    HW217667   1.450   2.830   5.686  0.5442  0.3804  0.4456
 5590SOL     OW17668   4.522   2.539   4.720  0.4393 -0.1883  0.3304
 5590SOL    HW117669   4.574   2.620   4.746  0.3708  0.0917 -0.3873
 5590SOL    HW217670   4.510   2.537   4.620 -1.8131  0.3096  0.5284
 5591SOL     OW17671   4.251   6.861   2.266  0.2571  0.0366 -0.2583
 5591SOL    HW117672   4.193   6.935   2.232 -1.1708 -1.3639 -0.9519
 5591SOL    HW217673   4.335   6.857   2.213 -0.9474 -0.6715 -2.2035
 5592SOL     OW17674   2.083   1.929   1.132 -0.3805  0.0200 -0.5449
 5592SOL    HW117675   2.144   2.008   1.138 -1.5269  0.8947 -0.1491
 5592SOL    HW217676   1.990   1.960   1.113 -1.3457 -0.9995  2.0918
 5593SOL     OW17677   2.046   3.098   3.272  0.0646 -0.2496  0.0183
 5593SOL    HW117678   2.096   3.184   3.273  2.4097 -1.5091  1.3575
 5593SOL    HW217679   1.965   3.105   3.329 -1.1825  1.7409 -1.8633
 5594SOL     OW17680   2.187   5.384   6.484 -0.1889  0.2994 -0.1433
 5594SOL    HW117681   2.244   5.336   6.418 -3.3053 -0.9889 -2.1213
 5594SOL    HW217682   2.167   5.476   6.450  1.1717  1.0125  0.8894
 5595SOL     OW17683   6.785   0.106   3.650  0.2725 -0.0044  0.2561
 5595SOL    HW117684   6.884   0.111   3.663  0.4159 -0.8806 -0.3917
 5595SOL    HW217685   6.760   0.014   3.621 -0.6144  0.4789 -0.5803
 5596SOL     OW17686   1.172   1.635   2.384 -0.5848 -0.0619 -0.3406
 5596SOL    HW117687   1.237   1.565   2.414  0.3685  0.7729 -0.4229
 5596SOL    HW217688   1.214   1.725   2.391 -1.3234  0.3977 -1.5297
 5597SOL     OW17689   6.434   2.347   5.360 -0.3496 -0.3440  0.1793
 5597SOL    HW117690   6.487   2.331   5.277  0.5810  0.6330  0.5669
 5597SOL    HW217691   6.339   2.369   5.335  0.2339  1.3540 -0.7433
 5598SOL     OW17692   4.357   0.720   3.852  0.1662  0.2785 -0.2957
 5598SOL    HW117693   4.280   0.658   3.863  0.2126 -0.0638 -1.7071
 5598SOL    HW217694   4.420   0.710   3.929 -0.6320 -0.2461  0.3001
 5599SOL     OW17695   3.389   5.151   5.903  0.0366 -0.0969  0.4636
 5599SOL    HW117696   3.321   5.142   5.976  1.8637  0.7296  2.3714
 5599SOL    HW217697   3.379   5.240   5.860  1.1918  0.9522  2.2201
 5600SOL     OW17698   4.690   3.322   0.352 -0.0306  0.3638 -0.1764
 5600SOL    HW117699   4.602   3.288   0.318  1.3214 -1.3015 -2.2379
 5600SOL    HW217700   4.743   3.360   0.275  1.2581  0.9137  0.9394
 5601SOL     OW17701   6.304   6.281   0.503  0.5639 -0.2914  0.3271
 5601SOL    HW117702   6.343   6.300   0.413 -2.3410 -0.0446 -1.0056
 5601SOL    HW217703   6.290   6.366   0.552 -0.9734 -0.0265 -0.4814
 5602SOL     OW17704   1.547   0.793   1.580  0.3305 -0.4909  0.1335
 5602SOL    HW117705   1.483   0.762   1.650 -0.3301 -2.0507 -1.0942
 5602SOL    HW217706   1.615   0.722   1.563  2.4634  1.1232  1.3844
 5603SOL     OW17707   0.482   5.670   6.995  0.0945  0.1305 -0.4505
 5603SOL    HW117708   0.441   5.761   7.000 -0.5509 -0.1069 -1.1629
 5603SOL    HW217709   0.572   5.677   6.951 -0.4461  0.2900 -1.5692
 5604SOL     OW17710   4.893   0.671   6.782  0.0663  0.3311  0.3613
 5604SOL    HW117711   4.869   0.758   6.826 -0.3377  0.8076 -0.7630
 5604SOL    HW217712   4.992   0.669   6.765 -0.0239  0.9063 -0.2816
 5605SOL     OW17713   6.686   6.969   3.293  0.9983 -0.4117  0.0489
 5605SOL    HW117714   6.762   6.943   3.234  2.2596  0.9265  1.0153
 5605SOL    HW217715   6.639   7.048   3.254  1.9616  0.6047  0.8857
 5606SOL     OW17716   6.598   4.032   4.178  0.4869 -0.2667 -0.1033
 5606SOL    HW117717   6.512   4.013   4.224  0.6312 -1.0145 -0.1158
 5606SOL    HW217718   6.661   4.076   4.242  0.2852 -0.2191  0.0655
 5607SOL     OW17719   1.698   1.261   4.597 -0.8840 -0.0678 -0.5010
 5607SOL    HW117720   1.796   1.245   4.588 -0.6267  0.3023  1.1867
 5607SOL    HW217721   1.673   1.259   4.694 -2.4507  0.3934 -0.8632
 5608SOL     OW17722   6.121   5.710   4.473 -0.1213  0.3442 -0.4699
 5608SOL    HW117723   6.213   5.748   4.483 -0.0497  0.3345 -1.0418
 5608SOL    HW217724   6.062   5.746   4.545  0.1482  0.9146 -0.5252
 5609SOL     OW17725   6.489   6.964   2.282 -0.2559  0.2697  0.4267
 5609SOL    HW117726   6.509   6.955   2.185  2.1448 -0.2481  0.8951
 5609SOL    HW217727   6.480   6.873   2.323 -3.5316  0.4498  0.3679
 5610SOL     OW17728   4.354   6.969   4.770 -0.2489  0.3041 -0.0290
 5610SOL    HW117729   4.276   6.907   4.780 -1.0723  1.4237  0.8117
 5610SOL    HW217730   4.329   7.059   4.806  1.4221  0.7060  0.2008
 5611SOL     OW17731   6.621   2.604   3.695  0.1718 -0.0376  0.1978
 5611SOL    HW117732   6.614   2.635   3.600 -1.5807 -1.0940 -0.0665
 5611SOL    HW217733   6.652   2.680   3.752  1.2635  0.6195 -1.2020
 5612SOL     OW17734   5.654   2.381   4.588 -0.1277 -0.1781  0.3228
 5612SOL    HW117735   5.557   2.362   4.595 -0.3091  0.6810  0.2183
 5612SOL    HW217736   5.706   2.297   4.607 -0.9236 -1.4029 -2.4254
 5613SOL     OW17737   2.230   4.171   1.468 -0.6310  0.3923 -0.1921
 5613SOL    HW117738   2.200   4.245   1.528 -1.7164 -1.1207  1.2296
 5613SOL    HW217739   2.178   4.173   1.382 -1.2726  0.7635  0.2021
 5614SOL     OW17740   5.283   4.608   1.137  0.2598 -0.8305 -0.0992
 5614SOL    HW117741   5.377   4.611   1.170  0.3151 -0.7232 -0.2639
 5614SOL    HW217742   5.261   4.516   1.105  0.4801 -0.7268 -0.5522
 5615SOL     OW17743   3.179   5.082   6.066 -0.5605 -0.1445  0.3262
 5615SOL    HW117744   3.184   5.071   6.166  1.1799  0.7379  0.3806
 5615SOL    HW217745   3.208   4.998   6.022 -0.9948 -0.4209  0.5604
 5616SOL     OW17746   1.247   5.899   2.743  0.1196  0.5054 -0.5287
 5616SOL    HW117747   1.341   5.864   2.742  0.4160  1.1349  1.4936
 5616SOL    HW217748   1.229   5.944   2.830 -1.7541  1.2968 -1.2709
 5617SOL     OW17749   2.242   0.166   3.467 -0.0427  0.4461 -0.3071
 5617SOL    HW117750   2.255   0.145   3.370 -0.2488 -0.3084 -0.1744
 5617SOL    HW217751   2.238   0.265   3.479 -0.7213  0.5356 -1.1656
 5618SOL     OW17752   1.574   1.602   3.566 -0.0289 -0.1173 -0.1214
 5618SOL    HW117753   1.550   1.544   3.643  0.6727 -3.1207 -2.0173
 5618SOL    HW217754   1.646   1.558   3.512 -0.1517  2.0866 -2.2529
 5619SOL     OW17755   1.835   0.797   0.995  0.2601  0.3451 -0.8558
 5619SOL    HW117756   1.928   0.823   0.968 -0.2577  1.2364 -1.8147
 5619SOL    HW217757   1.801   0.862   1.063 -1.0638  2.3739 -3.3109
 5620SOL     OW17758   2.325   6.202   3.215  0.0985  0.4005 -0.4541
 5620SOL    HW117759   2.328   6.285   3.159 -0.3692  1.5197  1.0950
 5620SOL    HW217760   2.407   6.148   3.198  1.0017  1.7749 -0.6544
 5621SOL     OW17761   5.713   6.188   5.623  0.4693 -0.3381 -0.4306
 5621SOL    HW117762   5.634   6.218   5.676  1.4063  0.3653  0.6104
 5621SOL    HW217763   5.685   6.170   5.529 -0.4604  2.2951 -0.7278
 5622SOL     OW17764   6.521   3.697   3.660 -0.5626 -0.0409 -0.1869
 5622SOL    HW117765   6.501   3.685   3.563 -0.5410 -1.9777  0.0047
 5622SOL    HW217766   6.617   3.673   3.677 -1.1501 -1.9690  0.6352
 5623SOL     OW17767   0.924   5.568   2.835 -0.2784  0.1637 -0.2328
 5623SOL    HW117768   0.848   5.579   2.899 -0.5529 -1.3960 -0.2653
 5623SOL    HW217769   0.945   5.657   2.793  1.9039  1.9952  4.1401
 5624SOL     OW17770   4.569   1.980   4.968  0.2735 -0.0665  0.4799
 5624SOL    HW117771   4.655   2.003   5.013  0.9247 -0.4146 -0.5391
 5624SOL    HW217772   4.584   1.902   4.907 -0.1794  1.3024 -1.4816
 5625SOL     OW17773   6.940   4.350   0.497  0.0318 -0.3896 -0.2414
 5625SOL    HW117774   6.980   4.276   0.442  0.3704 -0.2965 -0.1253
 5625SOL    HW217775   7.004   4.427   0.500  0.5103 -0.8186  1.2095
 5626SOL     OW17776   1.444   1.814   4.312  0.3376 -0.8186 -0.3043
 5626SOL    HW117777   1.444   1.720   4.344 -4.3213 -0.5210  1.4233
 5626SOL    HW217778   1.426   1.816   4.214 -1.0238 -1.8286 -0.1111
 5627SOL     OW17779   3.424   5.475   1.233  0.5903 -0.1281  0.1345
 5627SOL    HW117780   3.454   5.384   1.261 -2.5181 -1.2179  0.3707
 5627SOL    HW217781   3.408   5.531   1.315 -1.0724 -0.6935  0.2334
 5628SOL     OW17782   2.703   0.916   5.881  0.7607 -0.1636  0.2338
 5628SOL    HW117783   2.703   0.825   5.838 -0.7378 -1.2156  2.2985
 5628SOL    HW217784   2.753   0.912   5.967  0.8351  1.0404  0.2561
 5629SOL     OW17785   2.400   5.471   0.399  0.0040 -0.5570  0.3302
 5629SOL    HW117786   2.397   5.490   0.301 -0.3179 -0.5079  0.3482
 5629SOL    HW217787   2.396   5.557   0.450  0.3243 -0.5737  0.3855
 5630SOL     OW17788   6.035   2.160   6.775 -0.2904  0.2590  0.1797
 5630SOL    HW117789   6.087   2.209   6.705 -1.7809  1.3776 -0.2052
 5630SOL    HW217790   6.075   2.178   6.865  0.9699 -0.2819 -0.2563
 5631SOL     OW17791   5.644   3.189   0.827 -0.0372  0.5972  0.0351
 5631SOL    HW117792   5.726   3.138   0.853  0.0263  0.7964  0.2269
 5631SOL    HW217793   5.611   3.157   0.738  0.6204  0.9540 -0.3439
 5632SOL     OW17794   3.851   5.841   2.009  0.0098  0.0622 -0.5678
 5632SOL    HW117795   3.784   5.864   2.080 -0.1735 -1.3607 -0.2508
 5632SOL    HW217796   3.912   5.769   2.043  1.5460  1.1229 -0.9526
 5633SOL     OW17797   6.649   5.735   5.505 -0.4273 -0.0305 -0.0644
 5633SOL    HW117798   6.684   5.751   5.412  1.5128  1.4739  0.8313
 5633SOL    HW217799   6.663   5.639   5.530 -2.9969 -1.0239 -2.0304
 5634SOL     OW17800   4.583   4.523   4.906 -0.2549 -0.6722  0.0223
 5634SOL    HW117801   4.658   4.522   4.973 -0.4323  1.9000  0.3321
 5634SOL    HW217802   4.496   4.535   4.954 -0.5645 -0.5641 -0.5587
 5635SOL     OW17803   3.430   5.133   4.736 -0.1256 -0.6063  0.1184
 5635SOL    HW117804   3.387   5.172   4.654 -3.2049 -1.3049  1.2561
 5635SOL    HW217805   3.503   5.071   4.708  0.0926  0.5119 -2.0051
 5636SOL     OW17806   1.355   0.409   0.243  0.1484 -0.7764  0.5978
 5636SOL    HW117807   1.409   0.491   0.265 -0.0406 -0.3683 -0.4053
 5636SOL    HW217808   1.367   0.341   0.316  0.7493 -0.0781  1.1741
 5637SOL     OW17809   4.442   7.019   3.044  0.0862 -0.1109  0.0558
 5637SOL    HW117810   4.420   6.998   3.139  1.1615  2.5527  0.9923
 5637SOL    HW217811   4.372   6.982   2.984 -1.4151 -0.5689  2.0123
 5638SOL     OW17812   6.033   1.924   4.245 -0.0600  0.3059  0.6218
 5638SOL    HW117813   6.116   1.920   4.190 -0.2963  0.6858  0.2259
 5638SOL    HW217814   6.056   1.953   4.338  0.1332  1.4232  0.2380
 5639SOL     OW17815   5.244   3.107   3.620 -0.1356 -0.2614 -0.4194
 5639SOL    HW117816   5.197   3.168   3.683 -0.0773 -1.0885  0.4456
 5639SOL    HW217817   5.290   3.161   3.549  1.4362  0.8376  1.3588
 5640SOL     OW17818   1.479   3.576   6.840  0.3779  0.2803  0.2239
 5640SOL    HW117819   1.565   3.528   6.826  0.3143 -0.4216  2.0279
 5640SOL    HW217820   1.423   3.527   6.906 -0.5014  1.8540  0.7164
 5641SOL     OW17821   5.610   6.792   2.244  0.4578 -0.3386  0.7844
 5641SOL    HW117822   5.530   6.743   2.280  1.3981 -3.4021 -0.9240
 5641SOL    HW217823   5.589   6.830   2.155  0.5330  0.0313  0.9229
 5642SOL     OW17824   3.673   4.046   1.026  0.7036 -0.2765 -0.1331
 5642SOL    HW117825   3.650   3.987   0.948  1.2240 -1.5689  0.6634
 5642SOL    HW217826   3.617   4.022   1.104  0.5377  0.6748  0.0547
 5643SOL     OW17827   6.427   2.688   3.239  0.8818  0.6510 -0.4684
 5643SOL    HW117828   6.399   2.595   3.266  2.5098  0.1670 -0.3124
 5643SOL    HW217829   6.429   2.694   3.140  0.9990  0.4406 -0.4800
 5644SOL     OW17830   2.742   5.065   1.211 -0.2781 -0.5448 -0.1798
 5644SOL    HW117831   2.671   5.132   1.231 -0.1601 -0.3238 -0.4838
 5644SOL    HW217832   2.717   5.012   1.130 -1.1350 -1.9884  0.9754
 5645SOL     OW17833   1.586   0.002   0.002 -0.3720  0.7533 -0.1903
 5645SOL    HW117834   1.542  -0.087   0.012  0.0273  0.5741  0.0072
 5645SOL    HW217835   1.518   0.071  -0.024 -0.7419  0.4596 -0.0075
 5646SOL     OW17836   5.381   4.653   3.834 -0.2482  0.7811  0.7158
 5646SOL    HW117837   5.331   4.617   3.914  0.5044  2.2031  1.8677
 5646SOL    HW217838   5.329   4.728   3.794 -0.5498  0.1669 -0.0824
 5647SOL     OW17839   5.701   6.737   6.342  0.3160 -0.0860  0.2507
 5647SOL    HW117840   5.730   6.778   6.428  1.7170  1.6192 -0.9704
 5647SOL    HW217841   5.781   6.703   6.292 -0.0004  2.0745 -1.8998
 5648SOL     OW17842   4.237   1.916   6.759 -0.5465  0.5441  0.9640
 5648SOL    HW117843   4.260   1.873   6.672 -0.3479 -1.1653  1.8200
 5648SOL    HW217844   4.146   1.957   6.753  0.1947  2.1079 -0.5849
 5649SOL     OW17845   5.509   1.811   4.118  0.8424  0.4046 -0.3783
 5649SOL    HW117846   5.479   1.831   4.025 -1.9108 -2.0839 -0.1808
 5649SOL    HW217847   5.487   1.888   4.178 -1.6594  0.2593 -1.0147
 5650SOL     OW17848   0.382   1.355   6.345 -0.1083  0.4675 -0.2854
 5650SOL    HW117849   0.411   1.333   6.438  0.3254  1.1396 -0.2566
 5650SOL    HW217850   0.384   1.272   6.289 -1.6157 -0.2178  0.6106
 5651SOL     OW17851   3.545   6.539   3.600  0.5757  0.1993 -0.5391
 5651SOL    HW117852   3.478   6.468   3.622  0.2372  0.6154 -0.2296
 5651SOL    HW217853   3.503   6.629   3.607  1.8034  0.6563  2.1972
 5652SOL     OW17854   0.554   0.470   3.614  0.4744  0.1688 -0.2739
 5652SOL    HW117855   0.489   0.493   3.541  1.1037  1.2521 -0.5221
 5652SOL    HW217856   0.637   0.524   3.602  1.3114 -0.9661  0.2177
 5653SOL     OW17857   4.431   2.853   0.618  0.3467 -0.3404 -0.0569
 5653SOL    HW117858   4.371   2.777   0.643  0.5858 -0.4183  0.2827
 5653SOL    HW217859   4.524   2.832   0.646  0.1374  0.8294  1.6296
 5654SOL     OW17860   3.872   5.339   0.242  0.3854 -0.1988  0.0955
 5654SOL    HW117861   3.841   5.340   0.146  0.2843 -1.2288  0.1150
 5654SOL    HW217862   3.947   5.275   0.253  1.6935  1.3132  0.3381
 5655SOL     OW17863   0.326   1.959   1.697 -0.0808 -0.2943 -0.2190
 5655SOL    HW117864   0.330   1.872   1.649 -1.1303 -1.6810  2.0514
 5655SOL    HW217865   0.419   1.988   1.721  0.2380 -1.1705 -0.3445
 5656SOL     OW17866   3.076   4.455   5.338  0.0038  0.5400  0.2748
 5656SOL    HW117867   3.170   4.476   5.311 -0.1381 -1.0700 -1.7489
 5656SOL    HW217868   3.014   4.476   5.262 -1.1824  0.7890  1.2729
 5657SOL     OW17869   5.482   2.504   5.060  0.1997  0.3837  0.1772
 5657SOL    HW117870   5.522   2.589   5.026  0.7604 -0.2183 -0.7316
 5657SOL    HW217871   5.412   2.524   5.128 -0.5024  1.6142 -0.8758
 5658SOL     OW17872   1.196   6.150   1.705  0.2552  0.4229 -0.4873
 5658SOL    HW117873   1.290   6.168   1.735  0.5953 -0.7053 -0.8313
 5658SOL    HW217874   1.197   6.124   1.608 -0.1350 -1.8633  0.0759
 5659SOL     OW17875   3.997   3.168   2.657 -0.1205  0.1648 -0.2506
 5659SOL    HW117876   3.951   3.084   2.688  1.0931 -0.3583  0.1745
 5659SOL    HW217877   4.033   3.154   2.565  2.3991 -0.7669  0.7890
 5660SOL     OW17878   6.975   0.028   5.755 -0.2231  0.2565 -0.0603
 5660SOL    HW117879   7.012   0.062   5.841  0.1920  0.2326 -0.2303
 5660SOL    HW217880   6.985   0.098   5.684 -1.3832  0.6289  0.1214
 5661SOL     OW17881   1.472   3.452   2.583  0.0477  0.2796 -0.1839
 5661SOL    HW117882   1.406   3.463   2.508 -0.2791  0.6378  0.1525
 5661SOL    HW217883   1.553   3.508   2.564  0.5200 -0.6040 -0.8789
 5662SOL     OW17884   1.758   2.791   5.547  0.3378  0.1960 -0.0744
 5662SOL    HW117885   1.849   2.826   5.527  0.0939 -0.0174 -1.6858
 5662SOL    HW217886   1.763   2.722   5.619  1.1244  1.7735  1.4733
 5663SOL     OW17887   2.592   6.664   3.322  0.1440  0.0734 -0.4884
 5663SOL    HW117888   2.524   6.595   3.351 -0.7604 -0.2459 -3.1173
 5663SOL    HW217889   2.582   6.745   3.380  0.4392 -1.4926  1.9279
 5664SOL     OW17890   4.203   0.329   1.593  0.1553 -0.2568  0.1775
 5664SOL    HW117891   4.137   0.379   1.537  0.9438  0.8369  0.2023
 5664SOL    HW217892   4.279   0.298   1.535  1.3423  1.5131  0.7134
 5665SOL     OW17893   5.853   6.513   1.872 -0.3801  0.6171  0.1310
 5665SOL    HW117894   5.840   6.512   1.971  2.1047  0.3819  0.5314
 5665SOL    HW217895   5.788   6.450   1.830 -0.7131 -0.1831  1.7444
 5666SOL     OW17896   0.658   3.691   0.751  0.3468 -0.6606  0.0654
 5666SOL    HW117897   0.706   3.603   0.753  1.6096  0.0149  1.0947
 5666SOL    HW217898   0.612   3.706   0.838 -0.8265 -0.7983 -0.5212
 5667SOL     OW17899   4.017   1.269   2.562 -0.2099  0.2313  0.1168
 5667SOL    HW117900   3.977   1.361   2.566  0.3952  0.4598  1.6629
 5667SOL    HW217901   3.955   1.204   2.605 -2.0874 -0.7399 -3.6281
 5668SOL     OW17902   1.849   4.180   0.099 -0.2774  0.1435 -0.0767
 5668SOL    HW117903   1.884   4.208   0.189 -1.3607 -1.9119  1.0674
 5668SOL    HW217904   1.815   4.260   0.050  1.1179  1.4431  0.9637
 5669SOL     OW17905   4.380   6.862   5.864 -0.2059  0.3509  0.1462
 5669SOL    HW117906   4.474   6.853   5.895 -0.1973 -0.9847 -0.1822
 5669SOL    HW217907   4.318   6.857   5.942 -0.0874 -0.9562  0.1834
 5670SOL     OW17908   3.775   3.796   5.376 -0.0078 -0.1587  0.1757
 5670SOL    HW117909   3.815   3.787   5.467  0.2174 -0.2890  0.0643
 5670SOL    HW217910   3.759   3.705   5.338  0.4554 -0.1014 -0.1594
 5671SOL     OW17911   6.911   3.109   6.747 -0.3313 -0.1010  0.5497
 5671SOL    HW117912   6.896   3.041   6.675 -1.2903 -1.2742  1.8082
 5671SOL    HW217913   6.862   3.193   6.724  1.0132  0.2936 -1.1092
 5672SOL     OW17914   6.171   2.879   2.526  0.2716 -0.2735 -0.3992
 5672SOL    HW117915   6.121   2.801   2.564 -0.6045  0.8795  0.9056
 5672SOL    HW217916   6.157   2.883   2.427  1.1682 -2.3401 -0.6593
 5673SOL     OW17917   2.176   6.323   0.335  0.4497  0.3521  0.1917
 5673SOL    HW117918   2.164   6.415   0.297 -0.0357  0.0825 -0.3201
 5673SOL    HW217919   2.212   6.329   0.428  2.6699  1.0228 -0.6530
 5674SOL     OW17920   6.977   2.732   3.691 -0.3444 -0.4106  0.1099
 5674SOL    HW117921   6.922   2.813   3.672  0.2434 -0.3829 -1.6014
 5674SOL    HW217922   6.937   2.653   3.645  0.0427 -0.7491  0.3473
 5675SOL     OW17923   1.397   5.600   4.178 -0.2725  0.0216  0.1456
 5675SOL    HW117924   1.353   5.532   4.121 -1.2895  0.4597  0.3905
 5675SOL    HW217925   1.337   5.625   4.254  0.6687  0.1374  0.8865
 5676SOL     OW17926   4.176   3.867   5.753 -0.1628 -0.1610  0.1996
 5676SOL    HW117927   4.167   3.818   5.840 -0.6932 -1.9844 -0.8277
 5676SOL    HW217928   4.096   3.849   5.696  0.8023 -0.1592 -1.2181
 5677SOL     OW17929   2.214   2.474   2.304  0.6994  0.6303  0.0523
 5677SOL    HW117930   2.284   2.427   2.251  0.1119  0.6386 -0.7422
 5677SOL    HW217931   2.142   2.410   2.330 -0.4523  1.1690 -1.6207
 5678SOL     OW17932   1.127   6.489   2.032  0.4764  0.2197 -0.6454
 5678SOL    HW117933   1.168   6.559   1.973  0.2079 -0.7155 -1.9844
 5678SOL    HW217934   1.149   6.399   1.996 -2.8422 -0.3617 -1.5533
 5679SOL     OW17935   5.204   1.208   3.827  0.3967  0.4152  0.1334
 5679SOL    HW117936   5.238   1.224   3.920  0.1415  0.2947  0.2501
 5679SOL    HW217937   5.280   1.194   3.765  0.5693  0.4904  0.3275
 5680SOL     OW17938   2.886   5.271   5.845  0.4141  0.0628  0.1632
 5680SOL    HW117939   2.943   5.316   5.914  1.1861 -1.0345  0.2654
 5680SOL    HW217940   2.893   5.320   5.758  1.2491  0.1448  0.2704
 5681SOL     OW17941   3.158   4.790   0.209  0.0554  0.2845 -0.2042
 5681SOL    HW117942   3.072   4.781   0.159 -0.0198  1.8958 -0.4198
 5681SOL    HW217943   3.184   4.702   0.248 -1.4831 -0.3032 -0.4688
 5682SOL     OW17944   3.564   3.188   6.144 -0.0678 -0.3129  0.1283
 5682SOL    HW117945   3.541   3.270   6.092  0.5748 -1.0336 -1.3449
 5682SOL    HW217946   3.540   3.106   6.092 -1.0693 -1.1048  1.7311
 5683SOL     OW17947   2.487   0.091   6.886  0.3158  0.0006 -1.1322
 5683SOL    HW117948   2.509   0.007   6.836 -1.0941 -1.0997 -0.0029
 5683SOL    HW217949   2.426   0.070   6.962 -0.7487  2.1703 -1.2870
 5684SOL     OW17950   6.723   6.635   6.712 -0.7991 -0.4163 -0.3183
 5684SOL    HW117951   6.775   6.660   6.795 -0.8419 -2.3394  0.3367
 5684SOL    HW217952   6.625   6.641   6.731 -0.8225 -1.6955  0.0992
 5685SOL     OW17953   3.003   4.738   6.061  0.0610  0.1104 -0.0684
 5685SOL    HW117954   3.100   4.731   6.084  0.6054 -1.0041 -2.3924
 5685SOL    HW217955   2.987   4.821   6.008 -0.1944  0.0948 -0.0151
 5686SOL     OW17956   4.966   3.134   4.898  0.0160  0.0550 -0.1456
 5686SOL    HW117957   5.055   3.117   4.855  0.4663  0.0581  0.7714
 5686SOL    HW217958   4.967   3.225   4.941 -0.4965  0.1308 -0.2916
 5687SOL     OW17959   2.211   3.974   2.731  0.3847  0.4306 -0.4408
 5687SOL    HW117960   2.268   4.009   2.657  0.0344 -0.0010 -0.9267
 5687SOL    HW217961   2.146   4.044   2.760  0.6261  0.6518 -0.4338
 5688SOL     OW17962   3.688   5.856   4.862  0.5689  0.6604 -0.5854
 5688SOL    HW117963   3.622   5.780   4.861  0.6272  0.5172  1.7004
 5688SOL    HW217964   3.780   5.820   4.851  0.4809  0.5595 -0.9972
 5689SOL     OW17965   2.721   0.580   4.289 -0.5790  0.1223 -0.2374
 5689SOL    HW117966   2.711   0.525   4.206  0.1329  0.4174 -0.5228
 5689SOL    HW217967   2.647   0.648   4.292  0.7739  1.7964 -1.9568
 5690SOL     OW17968   0.618   1.359   6.208  0.4917 -0.4589  0.1142
 5690SOL    HW117969   0.530   1.385   6.247 -0.0609  0.6070 -1.7312
 5690SOL    HW217970   0.690   1.373   6.277 -0.5833  0.0147  1.1807
 5691SOL     OW17971   1.319   6.343   1.198  0.6957 -0.5334  0.3787
 5691SOL    HW117972   1.392   6.291   1.243  0.2745 -0.6841  0.9083
 5691SOL    HW217973   1.341   6.441   1.200 -0.1280 -0.3302  2.5615
 5692SOL     OW17974   0.010   6.867   6.759 -0.6412 -0.9112 -0.1753
 5692SOL    HW117975   0.087   6.919   6.797  0.9281 -1.6407 -2.1652
 5692SOL    HW217976  -0.028   6.806   6.829  0.9034 -0.8719  0.7304
 5693SOL     OW17977   5.616   5.728   3.295 -0.0990 -0.2298 -0.3462
 5693SOL    HW117978   5.559   5.646   3.285  0.8615 -1.0638  0.7293
 5693SOL    HW217979   5.712   5.701   3.299  0.1030  0.5152  3.6133
 5694SOL     OW17980   2.532   5.410   4.068  0.0256 -0.1562 -0.7500
 5694SOL    HW117981   2.592   5.386   3.992 -0.3011 -0.0840 -1.0341
 5694SOL    HW217982   2.450   5.352   4.064  0.8684 -1.4980  0.6541
 5695SOL     OW17983   1.867   2.411   6.612  0.0436  0.7636  0.0620
 5695SOL    HW117984   1.811   2.489   6.639 -0.8233  0.4832 -0.8771
 5695SOL    HW217985   1.827   2.327   6.648  0.7260  0.6895  0.6852
 5696SOL     OW17986   4.200   3.425   1.170  0.2150 -0.3271  0.7022
 5696SOL    HW117987   4.287   3.471   1.152 -1.1768  2.8056  1.3119
 5696SOL    HW217988   4.138   3.440   1.093 -1.4808  2.1483  2.3969
 5697SOL     OW17989   3.189   6.887   2.936 -0.1076  0.5695  0.3348
 5697SOL    HW117990   3.203   6.981   2.903 -1.7789  1.2494  1.4009
 5697SOL    HW217991   3.208   6.883   3.034  2.7678 -0.9404 -0.1664
 5698SOL     OW17992   2.031   5.156   3.862 -0.3998  0.4647  0.1808
 5698SOL    HW117993   2.067   5.235   3.813 -0.4762 -0.0126 -0.6725
 5698SOL    HW217994   2.001   5.087   3.796 -0.7780 -0.0768  0.9065
 5699SOL     OW17995   1.388   0.840   6.503  0.0245  0.8303 -0.1790
 5699SOL    HW117996   1.305   0.821   6.450  0.3396  0.5257 -0.5633
 5699SOL    HW217997   1.372   0.920   6.562 -1.5275 -0.9022  1.9130
 5700SOL     OW17998   0.526   6.705   1.572 -0.2951 -0.4583  0.1181
 5700SOL    HW117999   0.494   6.697   1.666  1.6874 -0.8045  0.8124
 5700SOL    HW218000   0.505   6.620   1.522  0.0818 -0.9133  0.7240
 5701SOL     OW18001   3.001   2.274   6.921 -0.3994 -0.3168 -0.3096
 5701SOL    HW118002   3.002   2.201   6.990  1.0058 -0.4327 -0.4390
 5701SOL    HW218003   2.963   2.357   6.962  0.1753 -0.4596  0.5241
 5702SOL     OW18004   6.276   2.423   3.246 -0.0163 -0.3460  0.4976
 5702SOL    HW118005   6.233   2.454   3.331  0.7655 -0.1501  0.8294
 5702SOL    HW218006   6.208   2.373   3.190 -0.6469 -0.1003  1.0324
 5703SOL     OW18007   2.125   6.029   3.029  0.2410 -0.5060  0.1818
 5703SOL    HW118008   2.151   6.032   2.933 -1.0492  0.4203 -0.1657
 5703SOL    HW218009   2.176   6.098   3.080  0.5502 -0.6473  0.0655
 5704SOL     OW18010   4.623   4.962   2.125  0.1714 -0.8298  0.3347
 5704SOL    HW118011   4.600   4.918   2.039  0.7118 -0.6510  0.0909
 5704SOL    HW218012   4.695   5.031   2.109 -0.1701 -0.3518  0.8182
 5705SOL     OW18013   4.132   3.240   1.484  0.0154  0.6951  0.3641
 5705SOL    HW118014   4.088   3.263   1.397 -0.6497 -1.4380  0.0804
 5705SOL    HW218015   4.097   3.299   1.557 -1.5444  0.6091 -0.2943
 5706SOL     OW18016   5.787   4.044   6.333  0.0552 -0.4881  0.0908
 5706SOL    HW118017   5.704   4.099   6.344  0.7589  0.3155  1.8323
 5706SOL    HW218018   5.794   4.012   6.239 -0.8239  1.7376 -0.7995
 5707SOL     OW18019   3.899   3.993   3.012 -0.4241  0.1124  0.3395
 5707SOL    HW118020   3.966   4.003   2.939  0.4385  2.3002  1.3239
 5707SOL    HW218021   3.812   4.031   2.982 -0.4105 -0.0872  0.0454
 5708SOL     OW18022   5.871   0.644   3.650 -0.2788 -0.1964 -0.1447
 5708SOL    HW118023   5.826   0.722   3.693  0.0770 -0.0438 -0.0465
 5708SOL    HW218024   5.822   0.620   3.566 -1.1227 -0.6506  0.4590
 5709SOL     OW18025   6.055   3.450   2.408 -0.1231 -0.1900 -0.1340
 5709SOL    HW118026   6.070   3.384   2.334 -0.9463 -1.3760  0.6997
 5709SOL    HW218027   6.002   3.527   2.374  0.1323 -0.3645 -0.9465
 5710SOL     OW18028   2.949   4.092   5.845 -0.0159 -0.5086 -0.1092
 5710SOL    HW118029   2.946   4.137   5.934  2.8719  0.5734 -0.4495
 5710SOL    HW218030   2.939   4.160   5.772  1.6719 -0.7336 -0.5998
 5711SOL     OW18031   0.326   6.017   5.907  0.8651 -0.5411 -0.1120
 5711SOL    HW118032   0.236   5.977   5.888  1.6806 -1.9693 -1.1973
 5711SOL    HW218033   0.397   5.959   5.867  2.3728 -0.1918  1.8893
 5712SOL     OW18034   6.729   2.434   2.652  0.2431 -0.6072  0.1115
 5712SOL    HW118035   6.782   2.507   2.611  0.9872 -0.8166  0.6797
 5712SOL    HW218036   6.697   2.372   2.581 -1.9814  1.2430 -0.6023
 5713SOL     OW18037   5.144   3.194   2.103  0.0588  0.2866  0.5987
 5713SOL    HW118038   5.049   3.205   2.133 -0.1447  0.6479 -0.1590
 5713SOL    HW218039   5.150   3.206   2.004  0.7098 -0.9753  0.4640
 5714SOL     OW18040   6.538   0.894   6.278  0.3210 -0.2187  0.2572
 5714SOL    HW118041   6.591   0.852   6.205  0.1010 -1.1537  0.6218
 5714SOL    HW218042   6.518   0.826   6.349  0.0922  0.5388  0.9434
 5715SOL     OW18043   0.743   6.193   4.101 -0.2773 -0.6848  0.3382
 5715SOL    HW118044   0.740   6.115   4.038 -0.2445 -1.2782  1.0552
 5715SOL    HW218045   0.775   6.274   4.052  0.3419 -1.2780 -0.2637
 5716SOL     OW18046   4.107   1.687   4.756  0.5126  0.7140 -0.0078
 5716SOL    HW118047   4.154   1.742   4.825  1.2539 -0.2436  0.2694
 5716SOL    HW218048   4.081   1.600   4.796 -0.0878  0.6039 -0.6241
 5717SOL     OW18049   5.269   3.501   3.216  0.6787 -0.2249 -0.3143
 5717SOL    HW118050   5.274   3.579   3.155  1.8656  1.1852  1.4621
 5717SOL    HW218051   5.214   3.524   3.296 -0.1787 -1.7402 -0.4260
 5718SOL     OW18052   2.536   5.662   0.693 -0.0455 -0.0879 -0.4780
 5718SOL    HW118053   2.580   5.728   0.753  1.3572 -0.4284 -1.1058
 5718SOL    HW218054   2.483   5.597   0.749 -1.0877  1.2656  0.1660
 5719SOL     OW18055   2.075   2.193   4.696  0.5737 -0.5991 -0.3221
 5719SOL    HW118056   2.029   2.111   4.662  0.4571 -0.5607 -0.2587
 5719SOL    HW218057   2.090   2.257   4.621 -1.6282  0.4316  0.0201
 5720SOL     OW18058   4.562   6.210   2.643 -0.6576 -0.1743  0.0951
 5720SOL    HW118059   4.639   6.162   2.601  0.1699  2.0335 -1.0504
 5720SOL    HW218060   4.485   6.213   2.579 -1.5405 -1.8552  1.0143
 5721SOL     OW18061   4.817   2.056   4.576  0.3531  0.2347  0.1665
 5721SOL    HW118062   4.858   2.068   4.667 -2.8207 -1.6032  1.9946
 5721SOL    HW218063   4.795   1.960   4.562 -3.5025  1.0752 -0.4863
 5722SOL     OW18064   6.181   4.342   0.276 -0.7394 -0.3531 -0.0445
 5722SOL    HW118065   6.176   4.322   0.374  0.1234 -0.0437  0.0717
 5722SOL    HW218066   6.217   4.262   0.228 -1.7200 -0.7160 -0.1953
 5723SOL     OW18067   2.053   1.085   2.131 -0.1587 -0.1230  0.5815
 5723SOL    HW118068   2.006   1.167   2.163  0.2663 -0.5976  2.5505
 5723SOL    HW218069   2.080   1.098   2.036 -1.0725  1.5673  0.5010
 5724SOL     OW18070   4.986   6.422   2.486 -0.3701  0.5158  1.0189
 5724SOL    HW118071   4.970   6.370   2.402  0.4970 -1.0176  1.7595
 5724SOL    HW218072   4.899   6.449   2.526 -0.7944  1.2032 -0.3165
 5725SOL     OW18073   1.216   4.910   3.204 -0.7889  0.2343  0.3409
 5725SOL    HW118074   1.278   4.868   3.270 -0.8786 -2.2450 -0.9903
 5725SOL    HW218075   1.122   4.887   3.228 -0.7934 -1.2603 -0.8868
 5726SOL     OW18076   1.209   4.872   0.405  0.1241 -0.2565 -0.1961
 5726SOL    HW118077   1.180   4.871   0.310  1.1462  1.0472 -0.5605
 5726SOL    HW218078   1.265   4.791   0.424  0.0289 -0.4531 -0.7448
 5727SOL     OW18079   0.798   4.156   3.512  0.3404  0.4124 -0.9239
 5727SOL    HW118080   0.824   4.150   3.416  0.6338 -0.7862 -0.7897
 5727SOL    HW218081   0.840   4.081   3.563 -0.9159  0.2074 -0.1245
 5728SOL     OW18082   1.781   2.205   1.969  0.1336  0.5165 -0.0879
 5728SOL    HW118083   1.871   2.235   2.001  0.7731  0.5692 -1.8220
 5728SOL    HW218084   1.791   2.157   1.882 -1.5020  0.2946 -0.1848
 5729SOL     OW18085   6.514   6.305   6.338  0.7863 -0.3407  0.1586
 5729SOL    HW118086   6.574   6.265   6.406  0.3656 -0.4425  0.4767
 5729SOL    HW218087   6.419   6.282   6.359  0.7589 -1.9875 -1.5287
 5730SOL     OW18088   0.712   2.755   0.937 -0.1668 -0.0881 -0.1841
 5730SOL    HW118089   0.686   2.845   0.971  0.3084  0.4727 -1.2594
 5730SOL    HW218090   0.631   2.706   0.906 -0.0949  1.5119 -3.2021
 5731SOL     OW18091   5.390   5.344   6.111  0.1570  0.4109  0.1450
 5731SOL    HW118092   5.428   5.291   6.036  0.1240 -0.7973  0.9616
 5731SOL    HW218093   5.294   5.365   6.092  1.0577  3.3951 -1.8854
 5732SOL     OW18094   0.529   6.879   3.254 -0.0533 -0.2168 -0.1154
 5732SOL    HW118095   0.497   6.973   3.250 -0.5485 -0.4191 -1.3929
 5732SOL    HW218096   0.451   6.817   3.260  0.1525 -0.6223 -1.2547
 5733SOL     OW18097   4.243   5.334   5.845 -0.0738  0.5242 -0.0053
 5733SOL    HW118098   4.338   5.322   5.816  0.3315 -0.1967  1.4976
 5733SOL    HW218099   4.235   5.309   5.942 -2.0340 -0.6625 -0.4196
 5734SOL     OW18100   2.202   1.386   3.754 -0.3691  0.7729  0.2169
 5734SOL    HW118101   2.137   1.461   3.746  1.5843  2.6563  1.1859
 5734SOL    HW218102   2.285   1.418   3.797  1.1097 -1.6461 -0.6293
 5735SOL     OW18103   3.846   3.342   2.233  0.1862 -0.1827  0.1725
 5735SOL    HW118104   3.765   3.382   2.275 -0.8107 -0.0581 -1.7620
 5735SOL    HW218105   3.915   3.413   2.219  0.2841 -0.1059  1.0028
 5736SOL     OW18106   2.093   1.413   2.026 -0.4046  0.1342 -0.0875
 5736SOL    HW118107   2.191   1.403   2.041 -0.2292  1.5364 -0.1594
 5736SOL    HW218108   2.069   1.510   2.023 -2.1110 -0.1395  1.9658
 5737SOL     OW18109   0.303   6.498   4.247  0.2877 -0.0906 -0.3772
 5737SOL    HW118110   0.351   6.503   4.335  1.3135 -1.4084 -0.8411
 5737SOL    HW218111   0.247   6.415   4.244  1.5433 -0.9260 -1.5725
 5738SOL     OW18112   3.349   3.729   3.010 -0.1258  0.0470  0.6613
 5738SOL    HW118113   3.350   3.717   3.109  0.0344 -1.1200  0.5319
 5738SOL    HW218114   3.321   3.644   2.966  1.6669 -0.0613 -0.3742
 5739SOL     OW18115   4.714   7.011   3.082  0.4648 -0.1586 -0.0932
 5739SOL    HW118116   4.615   7.016   3.069  0.6101  2.3777 -0.8093
 5739SOL    HW218117   4.739   7.060   3.166  1.1423 -0.5569 -0.0570
 5740SOL     OW18118   3.348   6.275   0.350 -0.3792 -0.3501  0.6205
 5740SOL    HW118119   3.366   6.373   0.362  1.4755 -0.7272  1.2155
 5740SOL    HW218120   3.372   6.226   0.434 -1.0328 -1.3547  0.2349
 5741SOL     OW18121   1.087   2.579   4.086  0.2253  0.4193 -0.0831
 5741SOL    HW118122   1.062   2.675   4.070 -2.4532  0.0183  1.1989
 5741SOL    HW218123   1.081   2.559   4.184 -0.2381 -1.3006 -0.4331
 5742SOL     OW18124   2.315   2.490   3.619  0.0062  0.8547 -0.0775
 5742SOL    HW118125   2.229   2.481   3.568  0.2259 -0.6743 -0.2431
 5742SOL    HW218126   2.295   2.506   3.716 -0.4802  0.4032 -0.0962
 5743SOL     OW18127   3.300   1.855   7.012  0.3045 -0.4845 -0.0469
 5743SOL    HW118128   3.204   1.828   7.015  0.2230 -0.2688 -0.5981
 5743SOL    HW218129   3.347   1.819   7.093 -0.1928 -0.7614  0.1252
 5744SOL     OW18130   5.296   2.461   2.251  0.0214  0.1334 -0.1383
 5744SOL    HW118131   5.274   2.465   2.349  1.1683 -1.7663  0.2483
 5744SOL    HW218132   5.224   2.410   2.203  0.3704 -0.5699  0.0620
 5745SOL     OW18133   6.077   3.322   2.655  0.2651  0.9194  0.4608
 5745SOL    HW118134   5.996   3.354   2.704  0.1574  0.7420  0.3988
 5745SOL    HW218135   6.077   3.358   2.562 -1.1984 -1.2952 -0.4899
 5746SOL     OW18136   3.026   3.840   3.656  0.2207  0.1905  0.7494
 5746SOL    HW118137   3.126   3.841   3.646  0.1447 -2.2559 -1.7072
 5746SOL    HW218138   2.984   3.854   3.566 -1.6319  0.0230  1.5476
 5747SOL     OW18139   0.824   0.830   5.393  0.7402  0.0820 -0.3010
 5747SOL    HW118140   0.842   0.825   5.491 -0.6877 -1.0529 -0.0655
 5747SOL    HW218141   0.787   0.743   5.360 -0.5593  1.0064 -1.4597
 5748SOL     OW18142   5.807   5.832   5.279 -0.0175  0.3071  0.1535
 5748SOL    HW118143   5.853   5.921   5.280 -0.6502  0.6432 -0.3796
 5748SOL    HW218144   5.781   5.809   5.186 -1.0093  0.1621  0.4629
 5749SOL     OW18145   1.771   5.541   6.745  0.4220 -0.4654  0.0986
 5749SOL    HW118146   1.766   5.555   6.646 -3.3222  1.1105  0.3417
 5749SOL    HW218147   1.844   5.599   6.783 -0.9034  2.4035 -1.3778
 5750SOL     OW18148   4.426   3.172   1.714 -0.8054  0.2820  0.2166
 5750SOL    HW118149   4.488   3.116   1.770 -0.5741 -0.7241 -0.9888
 5750SOL    HW218150   4.345   3.118   1.690 -0.6386  0.4839 -0.8579
 5751SOL     OW18151   0.477   3.406   2.527  0.1072 -0.6039 -0.5150
 5751SOL    HW118152   0.477   3.484   2.590 -1.4955 -1.1512  0.2252
 5751SOL    HW218153   0.439   3.435   2.439  1.6951 -0.0087 -1.0316
 5752SOL     OW18154   0.265   0.570   6.640 -0.3633 -0.3158 -0.0568
 5752SOL    HW118155   0.268   0.518   6.554  0.3165 -0.2942 -0.0492
 5752SOL    HW218156   0.202   0.526   6.703 -0.0580 -0.9426 -0.1799
 5753SOL     OW18157   0.535   6.965   4.387 -0.0048  0.3698 -0.3830
 5753SOL    HW118158   0.601   6.903   4.429 -0.8302 -1.1911 -1.2787
 5753SOL    HW218159   0.544   6.960   4.287 -3.0390 -1.8533 -0.6848
 5754SOL     OW18160   0.495   4.183   1.810  0.3188 -0.0403  0.2025
 5754SOL    HW118161   0.462   4.167   1.717 -0.0384  0.6598  0.2029
 5754SOL    HW218162   0.515   4.095   1.854  1.9537 -0.3563 -1.0589
 5755SOL     OW18163   4.465   6.553   6.985  0.2505 -0.0732 -0.3874
 5755SOL    HW118164   4.465   6.646   7.023 -2.8654 -0.2911  0.3949
 5755SOL    HW218165   4.487   6.487   7.057  0.4137 -0.0788 -0.4427
 5756SOL     OW18166   3.419   2.909   0.645  0.3730 -0.0626  0.1299
 5756SOL    HW118167   3.365   2.992   0.663  0.5368 -0.0223  0.4399
 5756SOL    HW218168   3.424   2.894   0.546 -0.9894 -0.5726  0.1065
 5757SOL     OW18169   3.857   3.789   0.468  0.0444 -0.1726  0.3046
 5757SOL    HW118170   3.926   3.721   0.442  0.2796  0.2968 -0.3092
 5757SOL    HW218171   3.769   3.744   0.478  0.7571 -1.1927  3.1165
 5758SOL     OW18172   1.091   4.809   5.108 -0.0521 -0.0073  0.0490
 5758SOL    HW118173   1.065   4.728   5.161 -0.9580  0.8711  1.0025
 5758SOL    HW218174   1.161   4.860   5.157 -0.3782  0.4337  0.0649
 5759SOL     OW18175   2.840   6.744   3.271 -0.1473  0.7279 -0.1729
 5759SOL    HW118176   2.868   6.733   3.176 -2.6163  1.6821 -1.1155
 5759SOL    HW218177   2.741   6.731   3.277  0.1141 -0.7091  2.5479
 5760SOL     OW18178   4.888   3.964   4.827  0.1625  0.8335 -0.5846
 5760SOL    HW118179   4.953   3.900   4.868  1.4988  1.3022 -1.8762
 5760SOL    HW218180   4.823   3.994   4.897  1.3152  0.3346  0.7665
 5761SOL     OW18181   3.718   0.931   6.304 -0.5379 -0.3371  0.6876
 5761SOL    HW118182   3.687   0.869   6.232 -0.8719  0.2625  0.3161
 5761SOL    HW218183   3.818   0.923   6.313 -0.6118 -1.1786  0.8830
 5762SOL     OW18184   4.975   2.685   4.686 -0.0044  0.3509 -0.8052
 5762SOL    HW118185   5.070   2.657   4.701 -0.0459  0.4218 -0.4042
 5762SOL    HW218186   4.945   2.654   4.595  0.5077  0.6243 -1.0679
 5763SOL     OW18187   5.697   2.370   6.888 -1.1312 -0.1448  0.6847
 5763SOL    HW118188   5.728   2.295   6.830 -3.4034 -2.4153  2.2203
 5763SOL    HW218189   5.652   2.439   6.832 -0.3808 -0.6590 -0.5915
 5764SOL     OW18190   0.775   1.601   5.349 -0.1056 -0.3431 -0.3329
 5764SOL    HW118191   0.714   1.681   5.343 -0.4197 -0.5966 -0.5099
 5764SOL    HW218192   0.869   1.631   5.333 -0.2129  0.0040 -0.3414
 5765SOL     OW18193   0.272   0.722   0.211 -0.1094  0.3302 -0.7716
 5765SOL    HW118194   0.340   0.774   0.158  0.3142  0.1232 -0.4367
 5765SOL    HW218195   0.211   0.674   0.149  0.5317 -0.0992 -1.0816
 5766SOL     OW18196   2.832   6.970   4.038  0.2493 -0.2150  0.7674
 5766SOL    HW118197   2.749   6.924   4.068 -0.4694 -2.6191 -4.0726
 5766SOL    HW218198   2.908   6.942   4.096 -1.7404  0.0523  3.7279
 5767SOL     OW18199   6.556   2.110   5.646 -0.1341  0.0822  0.1453
 5767SOL    HW118200   6.615   2.102   5.565 -0.3510  0.1930 -0.0229
 5767SOL    HW218201   6.549   2.206   5.672 -0.6320  0.1182 -0.1227
 5768SOL     OW18202   2.148   6.149   1.675  0.0605 -0.3319 -0.3415
 5768SOL    HW118203   2.172   6.244   1.695 -0.1565 -0.4018  0.2731
 5768SOL    HW218204   2.232   6.096   1.662  0.2692 -0.4607  1.2539
 5769SOL     OW18205   1.925   4.975   1.855  0.3948  0.5659  0.5051
 5769SOL    HW118206   1.937   4.935   1.764 -1.4833  0.3830  0.2931
 5769SOL    HW218207   1.886   4.906   1.916  1.4838  0.7411  1.4177
 5770SOL     OW18208   0.717   3.332   2.208  0.2516 -0.2312  0.3230
 5770SOL    HW118209   0.785   3.387   2.256  0.6180  0.9146 -1.4221
 5770SOL    HW218210   0.756   3.297   2.123 -1.4061  0.7877 -0.9170
 5771SOL     OW18211   5.580   0.448   4.352  0.1461  0.4624 -0.0733
 5771SOL    HW118212   5.497   0.395   4.370  1.4009 -1.0528  1.6220
 5771SOL    HW218213   5.652   0.387   4.319  1.1197  1.4131  0.2261
 5772SOL     OW18214   2.435   0.628   4.572 -0.1099  0.2264 -0.0530
 5772SOL    HW118215   2.464   0.684   4.494  0.7298 -1.1938 -0.8062
 5772SOL    HW218216   2.342   0.652   4.598 -0.4384  0.6735 -1.5522
 5773SOL     OW18217   0.421   1.207   6.956 -0.6087 -0.2582  0.1238
 5773SOL    HW118218   0.400   1.124   7.008  1.6700 -0.6046  0.6005
 5773SOL    HW218219   0.498   1.190   6.895 -1.2622  1.0334 -1.1191
 5774SOL     OW18220   2.918   4.502   1.524 -0.2200  0.3879 -0.1311
 5774SOL    HW118221   2.937   4.477   1.619  4.0431 -1.6134 -1.2815
 5774SOL    HW218222   2.961   4.590   1.504 -0.1384  0.2701 -0.4802
 5775SOL     OW18223   6.541   4.097   1.181  0.6252 -0.2693  0.0212
 5775SOL    HW118224   6.611   4.131   1.244 -0.4736 -0.4101  1.3501
 5775SOL    HW218225   6.585   4.042   1.110  1.8781 -0.2059  0.7137
 5776SOL     OW18226   0.824   5.640   1.076  0.1774  0.1180 -0.4716
 5776SOL    HW118227   0.753   5.643   1.006  0.7765  0.3422 -1.0802
 5776SOL    HW218228   0.822   5.550   1.121 -0.1701 -0.0542 -0.8239
 5777SOL     OW18229   0.535   3.863   5.099 -0.2822 -0.8897 -0.8855
 5777SOL    HW118230   0.450   3.813   5.084 -1.2430  0.9369 -1.9430
 5777SOL    HW218231   0.515   3.951   5.141  1.4762 -1.7765  2.1179
 5778SOL     OW18232   3.039   4.759   1.523 -0.5989  0.5372 -0.1236
 5778SOL    HW118233   3.095   4.835   1.556 -0.4640  0.4511 -0.1560
 5778SOL    HW218234   3.015   4.775   1.427  0.4231 -0.0379 -0.4916
 5779SOL     OW18235   2.711   5.747   5.219 -0.3631  0.2379  0.2348
 5779SOL    HW118236   2.666   5.661   5.241 -1.2345  0.3381 -1.0838
 5779SOL    HW218237   2.745   5.789   5.304 -0.5530 -1.0430  0.9662
 5780SOL     OW18238   2.763   0.042   5.684 -0.5353 -0.0949  0.0134
 5780SOL    HW118239   2.663   0.048   5.683 -0.5257  0.1180  0.2297
 5780SOL    HW218240   2.790  -0.052   5.703 -0.7060  0.1811  1.7871
 5781SOL     OW18241   2.652   6.644   7.018  0.2769 -0.2353 -0.0478
 5781SOL    HW118242   2.671   6.741   7.037 -0.7151  0.2526 -1.4464
 5781SOL    HW218243   2.667   6.591   7.102  2.0997  0.9151  0.4183
 5782SOL     OW18244   4.665   4.117   6.337  0.1484 -0.4701  0.0975
 5782SOL    HW118245   4.692   4.077   6.425 -0.7380 -0.4645  0.3797
 5782SOL    HW218246   4.656   4.216   6.347  2.3813 -0.1469 -0.6111
 5783SOL     OW18247   4.581   4.354   0.928  0.7258  0.1001 -0.3904
 5783SOL    HW118248   4.497   4.307   0.957  1.0657 -0.4918 -0.3612
 5783SOL    HW218249   4.564   4.398   0.840  0.8397 -1.3547 -1.1749
 5784SOL     OW18250   3.162   1.744   2.105 -0.5891 -0.3474 -0.0318
 5784SOL    HW118251   3.203   1.653   2.104  0.6002  0.1751 -1.3437
 5784SOL    HW218252   3.110   1.756   2.189 -0.3666 -2.0559  0.3814
 5785SOL     OW18253   6.932   0.502   0.571 -0.4761  0.0781  0.1069
 5785SOL    HW118254   7.019   0.452   0.563 -0.2415  0.3589  0.8483
 5785SOL    HW218255   6.936   0.564   0.649 -0.0585  2.6808 -1.8625
 5786SOL     OW18256   4.873   1.289   5.805 -0.3340  0.0382 -0.3505
 5786SOL    HW118257   4.924   1.325   5.883 -0.4783  0.5807 -0.5037
 5786SOL    HW218258   4.935   1.282   5.726  0.8144 -3.8689  0.6570
 5787SOL     OW18259   5.919   2.958   5.475 -0.0794  0.1832 -0.2955
 5787SOL    HW118260   5.994   2.896   5.498  0.2112  0.4085 -0.6393
 5787SOL    HW218261   5.833   2.920   5.511  0.3516  0.5308  1.1725
 5788SOL     OW18262   0.656   3.925   5.597  0.0572 -0.0347 -0.7674
 5788SOL    HW118263   0.663   3.843   5.540  1.1792  0.1869 -0.9776
 5788SOL    HW218264   0.746   3.946   5.636 -0.4246  0.5406  0.0805
 5789SOL     OW18265   0.894   2.112   2.661 -0.8966 -0.3139  0.7870
 5789SOL    HW118266   0.841   2.170   2.723  0.4744 -0.6839  2.3771
 5789SOL    HW218267   0.970   2.070   2.711 -0.1186 -1.1654 -1.0080
 5790SOL     OW18268   1.532   0.742   1.106  0.2614  0.9849 -0.2058
 5790SOL    HW118269   1.506   0.838   1.111 -0.8748  0.6388  1.1517
 5790SOL    HW218270   1.631   0.734   1.113  0.2623  1.9782  1.2773
 5791SOL     OW18271   2.374   3.781   1.754  0.0460 -0.3728 -0.3406
 5791SOL    HW118272   2.283   3.744   1.771  0.3538 -1.0514 -0.1363
 5791SOL    HW218273   2.376   3.878   1.780 -0.4539 -0.5056  0.2175
 5792SOL     OW18274   5.431   6.978   3.370 -0.1778  0.5781  0.5216
 5792SOL    HW118275   5.495   7.015   3.438  0.7613 -1.1819  0.6477
 5792SOL    HW218276   5.408   6.883   3.393  0.2279 -0.1058 -1.6275
 5793SOL     OW18277   3.756   3.505   0.133  0.3402 -0.0740  0.5468
 5793SOL    HW118278   3.829   3.505   0.201  0.1803 -0.7909  0.7264
 5793SOL    HW218279   3.795   3.526   0.043  0.6675  0.1447  0.7374
 5794SOL     OW18280   2.557   2.414   0.525  0.1331  0.1237  0.2549
 5794SOL    HW118281   2.656   2.398   0.526  0.2089  0.5450  1.4628
 5794SOL    HW218282   2.511   2.340   0.574 -0.3267 -0.8907 -1.5956
 5795SOL     OW18283   2.308   2.182   5.320  0.6566  0.6386  0.0353
 5795SOL    HW118284   2.234   2.246   5.341  0.2530  0.0523  0.4464
 5795SOL    HW218285   2.303   2.104   5.383 -0.1994 -0.8754 -1.8369
 5796SOL     OW18286   3.514   4.315   0.049  0.2033  0.3069 -0.0617
 5796SOL    HW118287   3.429   4.335   0.000 -0.2480  0.1686  0.6600
 5796SOL    HW218288   3.582   4.281  -0.016  0.3756  2.3157 -1.0153
 5797SOL     OW18289   1.128   1.466   1.787  0.4543 -0.4520 -0.1604
 5797SOL    HW118290   1.065   1.514   1.849 -0.6448  1.3163 -2.4892
 5797SOL    HW218291   1.108   1.368   1.790 -1.7652 -0.0623 -0.0584
 5798SOL     OW18292   2.869   0.138   3.563  0.4350  0.1065 -0.2045
 5798SOL    HW118293   2.882   0.061   3.625  2.1660  1.0996  0.7367
 5798SOL    HW218294   2.828   0.214   3.613  0.1085  0.2945 -0.7536
 5799SOL     OW18295   2.645   5.756   1.964  0.0837  0.2695  0.4320
 5799SOL    HW118296   2.604   5.749   1.872  2.2082  0.3894 -0.5705
 5799SOL    HW218297   2.656   5.665   2.003  1.4531  0.0016 -0.5173
 5800SOL     OW18298   2.258   4.167   0.972  0.0522  0.1261  0.5427
 5800SOL    HW118299   2.183   4.162   0.906 -0.4497  0.0659  1.1059
 5800SOL    HW218300   2.221   4.167   1.065  0.7123  0.8460  0.8188
 5801SOL     OW18301   0.573   6.193   0.910 -0.1862  0.2497  0.1397
 5801SOL    HW118302   0.583   6.291   0.896 -0.8984  0.6427  2.1498
 5801SOL    HW218303   0.663   6.149   0.908  0.5029  1.4283  2.4213
 5802SOL     OW18304   4.030   2.001   0.769 -0.1492  0.2799  0.2956
 5802SOL    HW118305   3.980   1.916   0.754  1.2072 -0.7509  1.3417
 5802SOL    HW218306   4.082   2.024   0.686 -2.3897  1.4757 -0.8779
 5803SOL     OW18307   1.060   1.011   0.328  0.0302  0.5357  0.3977
 5803SOL    HW118308   1.048   0.912   0.341 -1.0398  0.8498  2.1200
 5803SOL    HW218309   1.152   1.037   0.356  0.3178  0.0403 -0.0567
 5804SOL     OW18310   6.553   4.630   3.743 -0.1718  0.4525  0.0818
 5804SOL    HW118311   6.462   4.593   3.724 -0.3653  1.7961 -1.9710
 5804SOL    HW218312   6.554   4.728   3.722  1.6669  0.5292  0.3442
 5805SOL     OW18313   4.353   7.018   1.932 -0.3052  0.5151 -0.3505
 5805SOL    HW118314   4.303   7.032   1.847 -0.3691 -0.4712 -0.4876
 5805SOL    HW218315   4.295   7.042   2.010 -0.7200  0.1248 -0.5377
 5806SOL     OW18316   0.497   6.466   6.377  0.3144  0.5551  0.2763
 5806SOL    HW118317   0.474   6.533   6.447 -1.8577 -0.4106  0.5555
 5806SOL    HW218318   0.514   6.377   6.419 -2.3443 -0.3744 -0.3999
 5807SOL     OW18319   4.198   1.538   4.123  0.3638  0.2114 -0.1193
 5807SOL    HW118320   4.238   1.624   4.154 -0.2420 -0.0263  1.4474
 5807SOL    HW218321   4.265   1.464   4.136 -0.7836 -0.4103  3.7320
 5808SOL     OW18322   2.059   5.386   0.236  0.1596  0.1455  0.7650
 5808SOL    HW118323   2.106   5.474   0.244 -2.6020  1.7169  0.9351
 5808SOL    HW218324   2.094   5.323   0.306  2.5749  0.8440  0.2799
 5809SOL     OW18325   4.530   6.210   3.413  0.5167 -0.5101 -0.0426
 5809SOL    HW118326   4.604   6.144   3.396  1.5080 -0.3072  2.8611
 5809SOL    HW218327   4.569   6.300   3.431 -0.4320 -0.3238  1.2261
 5810SOL     OW18328   6.155   5.037   2.200 -0.7160 -0.0779  0.0648
 5810SOL    HW118329   6.164   5.016   2.297 -2.5861  0.3181  0.3553
 5810SOL    HW218330   6.184   4.958   2.145  2.7686  0.5121  0.7971
 5811SOL     OW18331   5.742   0.873   6.804 -0.2984  0.0987  0.1394
 5811SOL    HW118332   5.748   0.967   6.771  0.5923 -0.2139 -0.6597
 5811SOL    HW218333   5.710   0.814   6.730  0.3225 -0.4000  0.2561
 5812SOL     OW18334   5.366   0.689   0.482 -0.6056 -0.2809 -0.0045
 5812SOL    HW118335   5.447   0.696   0.425 -0.5816  2.3969  0.2209
 5812SOL    HW218336   5.317   0.776   0.482 -2.6348 -1.3325  1.1322
 5813SOL     OW18337   2.403   1.514   6.424 -0.0565 -0.5279  0.1166
 5813SOL    HW118338   2.391   1.451   6.501 -0.3995 -1.8735 -1.0006
 5813SOL    HW218339   2.500   1.516   6.398 -0.3694 -2.7298 -1.5220
 5814SOL     OW18340   2.990   0.372   0.712 -0.3017 -0.6416  0.0513
 5814SOL    HW118341   3.004   0.412   0.802 -1.2760  0.1320 -0.1281
 5814SOL    HW218342   3.005   0.273   0.717 -0.1114 -0.5715  0.9960
 5815SOL     OW18343   3.620   4.518   0.239 -0.3007 -0.1884  0.1127
 5815SOL    HW118344   3.638   4.444   0.174  0.4639  0.1716 -0.1025
 5815SOL    HW218345   3.676   4.505   0.321 -2.0077 -1.1984  1.1742
 5816SOL     OW18346   4.610   2.022   3.219  0.2954 -0.6690  0.0893
 5816SOL    HW118347   4.557   2.097   3.178 -0.9659 -1.7465 -0.3443
 5816SOL    HW218348   4.702   2.022   3.180 -0.2871 -0.5029 -1.3903
 5817SOL     OW18349   1.100   2.923   1.490  0.0157  0.0064  0.3819
 5817SOL    HW118350   1.100   3.015   1.450 -1.8787 -0.6497 -1.3315
 5817SOL    HW218351   1.101   2.930   1.590  2.5296  1.7731  0.3331
 5818SOL     OW18352   0.957   4.280   0.696 -0.7846 -0.3882  0.2668
 5818SOL    HW118353   1.010   4.218   0.755 -0.1075 -0.9914 -0.9244
 5818SOL    HW218354   0.909   4.226   0.627 -0.5344  0.3785 -0.5186
 5819SOL     OW18355   1.355   3.121   2.478 -0.1940 -0.5351 -0.6571
 5819SOL    HW118356   1.411   3.158   2.552 -0.0882 -0.2272 -0.8916
 5819SOL    HW218357   1.382   3.026   2.459  0.1245 -0.4444 -0.6491
 5820SOL     OW18358   1.720   6.515   4.429 -0.1768 -0.0841  0.5206
 5820SOL    HW118359   1.764   6.515   4.340 -2.3682  0.8888 -0.6284
 5820SOL    HW218360   1.730   6.605   4.472 -0.2867 -0.1269  0.6377
 5821SOL     OW18361   4.438   0.576   5.066  0.5542  0.4074  0.1676
 5821SOL    HW118362   4.414   0.650   5.003  1.1280  0.0982 -0.4207
 5821SOL    HW218363   4.448   0.491   5.015  2.0172  0.3490  0.5084
 5822SOL     OW18364   1.132   2.057   4.004 -0.5920  0.1643 -0.0474
 5822SOL    HW118365   1.174   2.117   3.935 -1.4955  2.1764  1.0591
 5822SOL    HW218366   1.120   2.108   4.089 -1.8812 -1.4841  0.8143
 5823SOL     OW18367   0.685   0.794   5.839 -0.0303 -0.1515  0.7010
 5823SOL    HW118368   0.609   0.771   5.900  0.0203  0.2858  0.9316
 5823SOL    HW218369   0.756   0.843   5.891  0.5499 -0.8146  0.5609
 5824SOL     OW18370   0.470   0.745   1.056 -0.7520 -0.3986  0.4453
 5824SOL    HW118371   0.560   0.759   1.016 -1.3067  0.5213 -0.5454
 5824SOL    HW218372   0.464   0.794   1.143 -0.5595  0.2352  0.1092
 5825SOL     OW18373   6.162   1.422   3.123  0.3900 -0.7434  0.3031
 5825SOL    HW118374   6.095   1.376   3.182 -0.1363 -0.8905 -0.3895
 5825SOL    HW218375   6.251   1.378   3.133 -0.0249 -1.7110 -0.0894
 5826SOL     OW18376   1.395   4.149   4.885  0.1973  0.2356 -0.4298
 5826SOL    HW118377   1.487   4.185   4.872  0.1235  1.3919  1.7102
 5826SOL    HW218378   1.392   4.052   4.862  2.6019 -0.4645  1.7841
 5827SOL     OW18379   4.436   6.033   1.344 -0.3889  0.4772 -0.4504
 5827SOL    HW118380   4.345   5.996   1.362 -0.7282  0.5836 -1.8312
 5827SOL    HW218381   4.495   5.960   1.310 -0.4439  0.7382 -1.1268
 5828SOL     OW18382   3.859   5.846   0.812 -0.4572  0.0311 -0.0333
 5828SOL    HW118383   3.774   5.810   0.851 -0.4153 -1.0147 -0.8418
 5828SOL    HW218384   3.889   5.786   0.738  1.9799 -0.7131  1.4397
 5829SOL     OW18385   5.592   1.098   4.174 -0.1513  0.3165  0.0116
 5829SOL    HW118386   5.600   1.119   4.077 -0.7147  0.6808  0.0372
 5829SOL    HW218387   5.555   1.178   4.222 -0.0063  0.0925  0.5042
 5830SOL     OW18388   0.553   1.434   4.003 -0.2127  0.0874  0.0001
 5830SOL    HW118389   0.461   1.407   4.031  0.0310 -0.0582  0.6987
 5830SOL    HW218390   0.548   1.504   3.933 -0.8587 -0.9752 -1.0534
 5831SOL     OW18391   3.745   4.998   6.488  0.2916  0.3053  0.0305
 5831SOL    HW118392   3.767   4.919   6.430 -0.3953 -1.4360  2.0125
 5831SOL    HW218393   3.674   5.052   6.444  2.2702  1.1550 -2.3978
 5832SOL     OW18394   6.463   2.774   6.842  0.4165  0.0121  0.0974
 5832SOL    HW118395   6.557   2.744   6.827  0.9469  0.9439  1.4128
 5832SOL    HW218396   6.408   2.697   6.875  1.1188 -0.1656  0.8848
 5833SOL     OW18397   4.255   0.607   6.065 -0.4221  0.5582  0.3484
 5833SOL    HW118398   4.266   0.686   6.126  1.4653  0.8200 -0.2622
 5833SOL    HW218399   4.339   0.594   6.013 -1.1729 -1.0874 -0.5084
 5834SOL     OW18400   5.759   3.251   1.663 -0.1694  0.1186  0.4102
 5834SOL    HW118401   5.820   3.298   1.727  2.5368 -3.0045  0.4017
 5834SOL    HW218402   5.770   3.290   1.572 -0.5387  1.5601  0.9474
 5835SOL     OW18403   4.288   2.380   4.672  0.2663  0.1200 -0.6938
 5835SOL    HW118404   4.223   2.422   4.735 -0.0822  0.2984 -1.1666
 5835SOL    HW218405   4.381   2.411   4.693  0.0386  0.9655 -0.9024
 5836SOL     OW18406   6.508   1.229   5.545 -0.1472 -0.0586 -0.4369
 5836SOL    HW118407   6.408   1.231   5.540 -0.1055  0.0247 -1.3536
 5836SOL    HW218408   6.542   1.148   5.497  0.2051 -0.4377  0.4245
 5837SOL     OW18409   5.667   4.981   6.621  0.3118  0.0247 -0.2022
 5837SOL    HW118410   5.634   5.072   6.645  2.2229  0.5408  0.7511
 5837SOL    HW218411   5.722   4.985   6.538  1.0206 -0.0917  0.2474
 5838SOL     OW18412   3.055   1.201   1.649  0.4157  0.6170 -0.3842
 5838SOL    HW118413   2.964   1.203   1.609  0.6029  1.9186 -0.7811
 5838SOL    HW218414   3.063   1.273   1.718  0.3301 -1.1112  1.5494
 5839SOL     OW18415   0.079   0.304   3.500 -0.5893 -0.2414  0.1967
 5839SOL    HW118416   0.048   0.278   3.591 -1.7319 -0.1150 -0.1328
 5839SOL    HW218417   0.003   0.346   3.450 -0.2450 -1.1237 -1.1229
 5840SOL     OW18418   4.388   0.683   5.304 -0.5088 -0.4527  0.3465
 5840SOL    HW118419   4.398   0.655   5.209  0.2061  1.7954 -0.3132
 5840SOL    HW218420   4.475   0.720   5.338 -1.2992  0.7925  1.1313
 5841SOL     OW18421   4.973   4.914   0.092 -0.5950 -0.0981 -0.2487
 5841SOL    HW118422   4.930   4.945   0.007 -1.0381  0.4059  0.1435
 5841SOL    HW218423   5.057   4.864   0.072  0.5506  1.9742 -0.9019
 5842SOL     OW18424   6.248   0.956   0.591 -0.1082 -0.1542 -0.3038
 5842SOL    HW118425   6.183   0.967   0.666  1.0866 -1.1238  0.9039
 5842SOL    HW218426   6.318   1.027   0.596  0.4727 -0.7397  0.0386
 5843SOL     OW18427   6.874   3.562   0.441 -0.1736 -0.8043  0.1598
 5843SOL    HW118428   6.872   3.603   0.532 -3.2772  1.8125 -0.8832
 5843SOL    HW218429   6.787   3.516   0.423  0.4104 -1.3416 -1.4809
 5844SOL     OW18430   0.352   3.828   6.706  0.5641  0.1826  0.0284
 5844SOL    HW118431   0.451   3.837   6.708  0.4845  0.9365  1.8316
 5844SOL    HW218432   0.310   3.904   6.756 -1.0949  1.6638 -3.2361
 5845SOL     OW18433   6.888   0.765   1.195 -0.6092 -0.2277 -0.5114
 5845SOL    HW118434   6.841   0.853   1.192 -0.3588  0.0496  1.7273
 5845SOL    HW218435   6.821   0.692   1.208 -0.6557 -0.1527 -0.3313
 5846SOL     OW18436   0.585   0.480   4.448  0.1963 -0.3408 -0.5854
 5846SOL    HW118437   0.671   0.474   4.501 -1.0595 -0.9013  1.5069
 5846SOL    HW218438   0.573   0.397   4.395 -0.4379 -1.6185  1.4424
 5847SOL     OW18439   6.133   1.243   6.041 -0.0333  0.1070  0.6226
 5847SOL    HW118440   6.159   1.269   6.134 -0.0353 -1.5016  1.0918
 5847SOL    HW218441   6.057   1.300   6.011  0.4132  1.1141  1.3253
 5848SOL     OW18442   0.329   0.237   6.716 -0.3375  0.9771 -0.2917
 5848SOL    HW118443   0.389   0.159   6.734  0.4303  0.7206 -3.4889
 5848SOL    HW218444   0.381   0.311   6.674 -1.8922  1.4275 -1.5095
 5849SOL     OW18445   0.423   6.139   3.277 -0.2938 -0.1109 -0.0842
 5849SOL    HW118446   0.357   6.129   3.351  0.5361 -1.9993  0.4590
 5849SOL    HW218447   0.505   6.185   3.312 -0.6677  0.7717 -0.3483
 5850SOL     OW18448   5.599   5.687   2.667 -0.0314 -0.1606  0.1878
 5850SOL    HW118449   5.650   5.669   2.584 -0.7582  0.6122 -0.4402
 5850SOL    HW218450   5.524   5.621   2.675 -0.4212  0.2316 -0.1726
 5851SOL     OW18451   0.859   4.096   0.539  0.2706  0.3251 -0.0726
 5851SOL    HW118452   0.838   4.021   0.602  1.0371 -0.5601 -0.8437
 5851SOL    HW218453   0.792   4.098   0.466  0.4621  0.1501 -0.2545
 5852SOL     OW18454   3.577   6.843   6.471  0.2118  0.2838  0.3127
 5852SOL    HW118455   3.528   6.814   6.388  1.7970  0.4990 -0.7408
 5852SOL    HW218456   3.524   6.818   6.551 -1.2432 -0.1887 -0.7519
 5853SOL     OW18457   0.723   3.485   4.124 -0.2441 -0.6928  0.7400
 5853SOL    HW118458   0.680   3.453   4.208  0.4537 -0.3206  1.2578
 5853SOL    HW218459   0.773   3.570   4.143  0.1870 -0.7771  0.0189
 5854SOL     OW18460   2.378   3.169   5.653  0.3143 -0.0738 -0.5592
 5854SOL    HW118461   2.357   3.094   5.716 -0.1483 -0.2932 -0.9617
 5854SOL    HW218462   2.475   3.169   5.631  0.4537 -0.0794  0.0439
 5855SOL     OW18463   6.865   1.860   5.995 -0.0146  0.1946  0.1279
 5855SOL    HW118464   6.812   1.895   5.917 -0.2402 -0.6872 -0.1218
 5855SOL    HW218465   6.811   1.792   6.044 -0.1399  1.2057  1.4717
 5856SOL     OW18466   3.912   4.931   4.867  0.0227  0.5346  0.0952
 5856SOL    HW118467   3.963   4.907   4.784 -0.3195 -2.4347  0.6163
 5856SOL    HW218468   3.816   4.947   4.845 -0.1202 -0.5073 -0.1001
 5857SOL     OW18469   7.010   3.219   6.033  0.3130 -0.5607  0.3114
 5857SOL    HW118470   7.012   3.129   6.078 -0.4773 -0.0634  1.3599
 5857SOL    HW218471   6.930   3.270   6.063  1.0217  0.7018  0.0984
 5858SOL     OW18472   1.489   3.561   5.433 -0.6124  0.1310 -0.1421
 5858SOL    HW118473   1.490   3.660   5.438 -0.0180  0.2185 -1.4391
 5858SOL    HW218474   1.564   3.530   5.375  0.0467 -1.1700  1.3299
 5859SOL     OW18475   0.626   2.558   4.863 -0.3109 -0.7996  0.1303
 5859SOL    HW118476   0.689   2.631   4.887  0.1099 -0.9269 -0.5665
 5859SOL    HW218477   0.534   2.596   4.849 -0.0809 -0.3922 -0.2910
 5860SOL     OW18478   7.013   3.064   1.266  0.0386  0.3638 -0.9511
 5860SOL    HW118479   6.981   2.982   1.314 -0.0171  1.1524  0.3786
 5860SOL    HW218480   7.113   3.068   1.268  0.0156  0.6897 -0.4014
 5861SOL     OW18481   5.396   1.294   2.188  0.7649 -0.0238  0.5043
 5861SOL    HW118482   5.331   1.273   2.260 -1.8895 -1.3043 -2.0430
 5861SOL    HW218483   5.477   1.236   2.197 -1.4172 -3.3896  0.1174
 5862SOL     OW18484   3.166   0.128   2.783  0.2791 -0.6288 -0.2847
 5862SOL    HW118485   3.233   0.183   2.833 -1.2061 -1.3148  2.6484
 5862SOL    HW218486   3.100   0.188   2.738 -0.3228  0.0773  1.4572
 5863SOL     OW18487   3.178   0.466   4.681 -0.1190 -0.3212 -0.1871
 5863SOL    HW118488   3.140   0.374   4.672  1.0718 -0.7436 -1.2223
 5863SOL    HW218489   3.264   0.462   4.731  0.5757  0.0205 -1.3116
 5864SOL     OW18490   0.164   2.967   0.277  0.4080 -0.0160  0.5094
 5864SOL    HW118491   0.133   2.874   0.257 -2.8363  0.7611  1.3115
 5864SOL    HW218492   0.132   2.994   0.368  2.3644  1.4819  0.8126
 5865SOL     OW18493   3.108   6.647   2.507  0.1632 -0.0379  0.8893
 5865SOL    HW118494   3.178   6.695   2.560  0.1801 -0.8874  1.6583
 5865SOL    HW218495   3.122   6.666   2.410  0.9696  0.4495  1.0832
 5866SOL     OW18496   5.411   1.871   3.884  0.1328  0.2957  0.4303
 5866SOL    HW118497   5.360   1.916   3.811  0.2522  0.1888  0.2805
 5866SOL    HW218498   5.461   1.793   3.846 -0.2923 -0.1287  0.7376
 5867SOL     OW18499   1.013   0.748   0.421  0.0183  0.0412  0.2393
 5867SOL    HW118500   1.007   0.809   0.501 -0.9841 -0.6310  0.6979
 5867SOL    HW218501   0.981   0.657   0.447  1.2804 -0.6333 -0.5012
 5868SOL     OW18502   6.732   3.004   3.865 -0.5152 -0.5298  0.4953
 5868SOL    HW118503   6.702   2.916   3.900  2.1216 -1.7527 -0.0553
 5868SOL    HW218504   6.814   2.992   3.809  0.4906  2.3881  1.1391
 5869SOL     OW18505   5.860   3.961   3.293  0.6038  0.5967  0.2514
 5869SOL    HW118506   5.767   3.968   3.256  0.2561 -1.4039  0.6101
 5869SOL    HW218507   5.858   3.973   3.392  0.8517  1.3328  0.1700
 5870SOL     OW18508   4.305   5.606   2.451  0.3907 -0.1617 -0.6022
 5870SOL    HW118509   4.267   5.598   2.543  0.7534 -1.5094 -0.5475
 5870SOL    HW218510   4.392   5.655   2.455  0.4747 -0.3422 -0.2061
 5871SOL     OW18511   4.137   3.843   1.311 -0.5850  0.0166 -0.2458
 5871SOL    HW118512   4.052   3.865   1.264 -0.2839 -0.7376 -1.1831
 5871SOL    HW218513   4.205   3.813   1.244  0.6803  1.3388  0.3748
 5872SOL     OW18514   6.538   1.895   4.040 -0.5888 -0.2590 -0.3001
 5872SOL    HW118515   6.557   1.992   4.027  1.3696 -0.5914 -0.1762
 5872SOL    HW218516   6.545   1.847   3.952 -2.8875 -0.1454 -0.6265
 5873SOL     OW18517   3.892   3.614   3.775  0.4825  0.1268  0.1450
 5873SOL    HW118518   3.793   3.611   3.781  0.4011  1.2488 -0.3653
 5873SOL    HW218519   3.922   3.565   3.692 -0.0072  3.2919 -2.1035
 5874SOL     OW18520   3.289   1.303   1.576  0.0050  0.5798 -0.2449
 5874SOL    HW118521   3.291   1.347   1.486 -0.7242 -0.2664 -0.6851
 5874SOL    HW218522   3.207   1.247   1.585  1.0138 -0.9000  0.2119
 5875SOL     OW18523   4.395   6.631   1.808  0.0851  0.6525 -0.3514
 5875SOL    HW118524   4.450   6.626   1.891 -0.1919 -2.5120 -0.2385
 5875SOL    HW218525   4.454   6.654   1.730  0.5275  2.5906  0.5061
 5876SOL     OW18526   5.060   3.251   6.277  0.4641  0.2741 -0.2367
 5876SOL    HW118527   5.070   3.157   6.243  1.9047  0.6801 -1.0135
 5876SOL    HW218528   5.142   3.278   6.326 -0.0587  1.0431  0.2379
 5877SOL     OW18529   5.963   6.450   3.589 -0.1293 -0.4854  0.6383
 5877SOL    HW118530   5.896   6.519   3.560 -1.7241 -2.4337 -0.5607
 5877SOL    HW218531   5.980   6.460   3.687 -0.7730  1.2058  0.6161
 5878SOL     OW18532   6.089   5.737   5.261  0.3704 -0.1261 -0.1623
 5878SOL    HW118533   6.065   5.695   5.349  1.3043 -0.1731  0.0761
 5878SOL    HW218534   6.023   5.810   5.240  0.4334  0.2277  0.8162
 5879SOL     OW18535   1.304   0.103   3.809 -0.7697  0.1579  0.3376
 5879SOL    HW118536   1.241   0.181   3.814 -1.8431 -0.7451  3.0527
 5879SOL    HW218537   1.277   0.035   3.877 -0.3403 -2.9991 -2.3927
 5880SOL     OW18538   3.181   0.494   3.558 -0.3887 -0.7277 -0.8255
 5880SOL    HW118539   3.174   0.553   3.638  0.6998 -0.8745 -0.6068
 5880SOL    HW218540   3.171   0.398   3.586 -3.1996 -0.6372 -1.3194
 5881SOL     OW18541   0.710   5.601   4.846  0.6973  0.4339 -0.2540
 5881SOL    HW118542   0.803   5.586   4.878  0.3745 -2.8545 -0.5167
 5881SOL    HW218543   0.646   5.550   4.904 -0.5601 -0.0832 -2.0055
 5882SOL     OW18544   1.252   1.906   5.836  0.0828 -0.4578  0.3095
 5882SOL    HW118545   1.201   1.872   5.757 -0.2128 -1.7327  1.0284
 5882SOL    HW218546   1.311   1.981   5.808 -2.3700  1.2846 -0.5163
 5883SOL     OW18547   6.052   1.372   1.648 -0.1096 -0.0897  0.1336
 5883SOL    HW118548   6.000   1.321   1.579 -0.7958 -0.7416  1.1093
 5883SOL    HW218549   6.002   1.456   1.671 -0.3619 -0.3459  0.5270
 5884SOL     OW18550   2.580   1.091   4.472  0.0315 -0.0614  0.2659
 5884SOL    HW118551   2.619   1.179   4.498 -0.3820 -0.1080  1.0872
 5884SOL    HW218552   2.480   1.099   4.469  0.0474 -0.1676 -0.9461
 5885SOL     OW18553   3.127   2.427   5.827 -0.3317 -0.8943  0.3272
 5885SOL    HW118554   3.077   2.423   5.740 -1.0692  3.1357  0.4056
 5885SOL    HW218555   3.063   2.438   5.903  0.4600 -0.8485  1.0010
 5886SOL     OW18556   5.157   4.195   2.870  0.1991  0.0278  0.9414
 5886SOL    HW118557   5.161   4.235   2.961 -0.6896  0.1204  0.9518
 5886SOL    HW218558   5.165   4.267   2.801  0.5982 -0.0109  0.9455
 5887SOL     OW18559   3.962   0.346   4.866 -0.1881 -0.3917  0.2457
 5887SOL    HW118560   3.908   0.345   4.782 -1.4856  1.2801  1.0021
 5887SOL    HW218561   4.010   0.433   4.874  0.3682 -0.7565  0.9849
 5888SOL     OW18562   5.171   2.184   5.994 -0.0947  0.8585  0.0167
 5888SOL    HW118563   5.197   2.274   5.957  1.2289  0.5783  0.1912
 5888SOL    HW218564   5.138   2.126   5.919  1.4869  0.6715 -0.5819
 5889SOL     OW18565   1.253   4.850   6.747 -0.0126 -0.5339 -0.5025
 5889SOL    HW118566   1.310   4.930   6.768  1.1124 -0.9579 -1.8381
 5889SOL    HW218567   1.252   4.835   6.649  1.0609 -3.0864 -0.1782
 5890SOL     OW18568   1.878   1.706   3.915  0.1208 -0.9659 -0.5190
 5890SOL    HW118569   1.824   1.669   3.990 -1.6294  1.4650 -0.4538
 5890SOL    HW218570   1.944   1.773   3.951 -0.2063 -0.3442 -1.0480
 5891SOL     OW18571   3.409   5.256   4.967 -0.2508  0.1850 -0.4436
 5891SOL    HW118572   3.338   5.326   4.974 -1.0054 -0.5968 -0.0030
 5891SOL    HW218573   3.414   5.223   4.873 -0.2999  0.4256 -0.5302
 5892SOL     OW18574   6.133   5.206   0.289  0.0506 -0.2514  0.0235
 5892SOL    HW118575   6.125   5.256   0.203 -1.3379  1.4005  1.0528
 5892SOL    HW218576   6.229   5.204   0.318 -0.0384  4.6763  1.4474
 5893SOL     OW18577   2.326   6.756   2.472  0.5050  0.2975 -0.1014
 5893SOL    HW118578   2.344   6.757   2.374 -0.1937  2.4739 -0.2642
 5893SOL    HW218579   2.250   6.817   2.493  0.6121 -0.1493  1.7990
 5894SOL     OW18580   3.223   5.026   6.730  0.7179 -0.7135  0.3486
 5894SOL    HW118581   3.232   5.068   6.821  2.2835  0.7443 -0.4223
 5894SOL    HW218582   3.127   5.029   6.702  0.3990 -0.0292  1.4370
 5895SOL     OW18583   5.954   2.687   0.873 -0.0479 -0.1241  0.5517
 5895SOL    HW118584   5.876   2.681   0.810 -1.0281 -0.2770  1.7536
 5895SOL    HW218585   6.012   2.606   0.860  0.9635  0.8668 -1.6465
 5896SOL     OW18586   6.041   1.513   5.887 -0.3047  0.4807 -0.5943
 5896SOL    HW118587   6.033   1.457   5.804 -2.7134  2.3763 -1.7791
 5896SOL    HW218588   5.950   1.535   5.921  0.6067  1.7739  1.1631
 5897SOL     OW18589   5.504   6.917   2.031 -0.0740  0.1770 -0.5973
 5897SOL    HW118590   5.540   6.959   1.948 -1.1136  1.0546 -0.6367
 5897SOL    HW218591   5.433   6.850   2.008  0.1145 -0.0788 -0.4440
 5898SOL     OW18592   5.429   3.047   6.866 -0.3159  0.3180 -0.0083
 5898SOL    HW118593   5.366   3.005   6.932 -1.9683  2.3827 -0.1626
 5898SOL    HW218594   5.515   3.069   6.912 -0.3856 -0.8191  0.7109
 5899SOL     OW18595   4.003   1.075   6.102  0.3697  0.1357 -0.1718
 5899SOL    HW118596   3.934   1.031   6.046  2.0147  0.0136 -2.2224
 5899SOL    HW218597   4.020   1.168   6.068  0.1280  0.7368  1.2808
 5900SOL     OW18598   1.646   0.122   0.242 -0.4904  0.1490 -0.4463
 5900SOL    HW118599   1.647   0.220   0.221  0.7903  0.3851  0.5866
 5900SOL    HW218600   1.647   0.070   0.157  1.8129  1.0662 -1.0495
 5901SOL     OW18601   5.772   0.385   4.832 -0.7070 -0.2543 -0.2678
 5901SOL    HW118602   5.745   0.463   4.888 -2.7361 -0.2143 -1.2221
 5901SOL    HW218603   5.746   0.300   4.879 -1.6201 -0.2422 -0.7288
 5902SOL     OW18604   0.453   4.562   4.162 -0.1747  0.0022 -0.0956
 5902SOL    HW118605   0.489   4.631   4.100 -1.3453 -1.3122 -2.3325
 5902SOL    HW218606   0.527   4.500   4.189  0.4003  0.7543  0.0903
 5903SOL     OW18607   0.764   3.760   5.176  0.3855  0.3353  0.0545
 5903SOL    HW118608   0.760   3.755   5.276 -0.9876  1.9026  0.1242
 5903SOL    HW218609   0.681   3.804   5.141  1.0129  0.1839 -1.7585
 5904SOL     OW18610   3.232   6.589   3.861 -0.6195 -0.1704 -0.3078
 5904SOL    HW118611   3.149   6.626   3.903 -1.3596  0.1678 -1.9727
 5904SOL    HW218612   3.224   6.489   3.854 -1.1124 -0.0966 -0.8904
 5905SOL     OW18613   6.175   0.073   6.818 -0.0331  0.1547 -0.1511
 5905SOL    HW118614   6.255   0.016   6.798  1.2974  1.0365  2.2728
 5905SOL    HW218615   6.123   0.031   6.892 -0.7194  0.6180 -0.3652
 5906SOL     OW18616   4.598   2.612   1.927 -0.7496 -0.0646  0.3562
 5906SOL    HW118617   4.562   2.664   1.850 -0.7056 -0.4773  0.0581
 5906SOL    HW218618   4.578   2.515   1.915  0.1818 -0.2655  0.3364
 5907SOL     OW18619   2.893   6.841   1.041  0.2209  0.0620  0.2039
 5907SOL    HW118620   2.982   6.882   1.061  1.1804 -1.5795 -0.5174
 5907SOL    HW218621   2.841   6.831   1.126  1.7393 -1.2015  1.0464
 5908SOL     OW18622   2.971   2.495   5.626 -0.0109  0.0423 -0.1612
 5908SOL    HW118623   3.002   2.473   5.533 -0.5131  0.2171 -0.3733
 5908SOL    HW218624   2.979   2.594   5.641 -1.1761  0.1989 -0.4902
 5909SOL     OW18625   0.082   5.751   3.993  0.8493 -0.5169 -0.3253
 5909SOL    HW118626   0.068   5.685   3.920 -0.6922  1.0298 -1.4975
 5909SOL    HW218627   0.168   5.800   3.977  1.6123 -1.6672  0.1358
 5910SOL     OW18628   3.201   3.861   1.015 -0.5110  0.2320 -0.5058
 5910SOL    HW118629   3.254   3.776   1.018  0.2832  0.5821 -2.9072
 5910SOL    HW218630   3.104   3.839   1.019 -0.3226 -0.5553  1.6896
 5911SOL     OW18631   3.020   6.229   6.481 -0.1755  0.2602 -0.4652
 5911SOL    HW118632   3.089   6.296   6.510 -1.5060  1.1784  0.7090
 5911SOL    HW218633   2.929   6.268   6.491 -0.8825 -0.3719 -3.4349
 5912SOL     OW18634   0.373   4.642   1.423  0.4261  0.4406 -0.7821
 5912SOL    HW118635   0.376   4.732   1.467 -1.1013  0.6301 -0.9989
 5912SOL    HW218636   0.368   4.654   1.324 -0.8833  0.1654 -0.7607
 5913SOL     OW18637   1.750   3.639   5.800  0.2872 -0.2766 -0.1737
 5913SOL    HW118638   1.665   3.591   5.775  0.4120 -0.4983 -0.1815
 5913SOL    HW218639   1.735   3.737   5.797 -0.3093 -0.3109  0.9869
 5914SOL     OW18640   4.820   0.728   0.384  0.0020 -0.0220 -1.0083
 5914SOL    HW118641   4.771   0.718   0.471 -0.1216  2.8906 -0.6449
 5914SOL    HW218642   4.918   0.731   0.401 -0.0643  2.0502 -0.6853
 5915SOL     OW18643   6.868   2.902   5.513  0.1264  0.1747  0.6087
 5915SOL    HW118644   6.886   2.932   5.420  1.3353  1.1851  1.1350
 5915SOL    HW218645   6.802   2.827   5.512 -0.4661  0.6773 -0.9860
 5916SOL     OW18646   4.654   3.130   6.225  0.1228 -0.2527 -0.0129
 5916SOL    HW118647   4.586   3.068   6.265  0.1399  0.6402  1.5147
 5916SOL    HW218648   4.653   3.122   6.126 -0.2636 -2.2696  0.1141
 5917SOL     OW18649   3.970   3.872   4.410 -0.2638  0.3275 -0.0818
 5917SOL    HW118650   3.901   3.944   4.404 -0.7396 -0.1081  0.0394
 5917SOL    HW218651   3.949   3.812   4.487 -2.3187 -2.3909 -2.5434
 5918SOL     OW18652   1.114   4.161   0.894  0.3376  0.2618  0.2824
 5918SOL    HW118653   1.166   4.109   0.962  0.7268  3.7933  3.0161
 5918SOL    HW218654   1.170   4.236   0.860 -1.1970  0.9214 -0.9217
 5919SOL     OW18655   6.215   5.738   2.071  0.3293  0.1208 -0.0867
 5919SOL    HW118656   6.283   5.806   2.099 -0.9708  1.2713  0.4195
 5919SOL    HW218657   6.138   5.740   2.135  1.3302 -3.6846  1.5005
 5920SOL     OW18658   6.921   4.896   0.290 -0.4754 -0.6239  0.0567
 5920SOL    HW118659   6.878   4.875   0.378 -0.9703 -0.4528 -0.1416
 5920SOL    HW218660   6.859   4.950   0.234 -0.0430 -0.4670 -0.2824
 5921SOL     OW18661   6.345   5.665   4.843 -0.4618  0.3994 -0.7079
 5921SOL    HW118662   6.333   5.588   4.906  0.9282 -0.5586 -1.5466
 5921SOL    HW218663   6.280   5.738   4.866 -0.0099  0.1011  1.8182
 5922SOL     OW18664   1.857   2.906   3.026 -0.3652  0.2328 -0.5771
 5922SOL    HW118665   1.875   2.857   2.940 -1.1886 -0.1847 -0.5256
 5922SOL    HW218666   1.795   2.982   3.008  0.9073  1.2762 -0.6536
 5923SOL     OW18667   2.855   0.018   0.496  0.1173  0.2809 -0.3909
 5923SOL    HW118668   2.881   0.095   0.438 -1.2410  1.1223  0.0524
 5923SOL    HW218669   2.902   0.027   0.584 -0.7461  1.1659  0.0046
 5924SOL     OW18670   2.371   4.625   3.778 -0.6634  0.7240  0.0567
 5924SOL    HW118671   2.456   4.671   3.752 -0.3670 -0.1219 -0.5388
 5924SOL    HW218672   2.381   4.582   3.867 -0.0503 -0.3454 -0.5064
 5925SOL     OW18673   0.188   3.367   2.900  0.9493 -0.0848  0.2668
 5925SOL    HW118674   0.220   3.329   2.987  0.7053 -0.1288  0.3367
 5925SOL    HW218675   0.180   3.293   2.833 -0.5121 -0.3300  0.6894
 5926SOL     OW18676   2.809   0.833   5.373 -0.5129 -0.2636 -0.6340
 5926SOL    HW118677   2.820   0.803   5.468 -1.2935  1.3761 -0.0022
 5926SOL    HW218678   2.715   0.863   5.358 -0.1451  0.4277 -1.6550
 5927SOL     OW18679   3.155   6.619   4.489 -0.2829  0.1541  0.1237
 5927SOL    HW118680   3.166   6.520   4.483  1.0118  0.2765  0.0587
 5927SOL    HW218681   3.178   6.649   4.581 -1.6180  0.3068  0.4259
 5928SOL     OW18682   1.919   6.227   0.584  1.0102 -0.1998 -0.0270
 5928SOL    HW118683   1.901   6.131   0.563  0.4701 -0.0890 -0.0702
 5928SOL    HW218684   1.890   6.284   0.506 -0.7256  0.1893  0.8599
 5929SOL     OW18685   4.560   2.522   4.455 -0.5290 -0.5309  0.7910
 5929SOL    HW118686   4.603   2.575   4.383 -0.0387 -0.6536  0.9944
 5929SOL    HW218687   4.612   2.438   4.472 -1.0852 -0.9004  0.7293
 5930SOL     OW18688   1.573   3.414   2.027  0.4232  0.4599  0.2079
 5930SOL    HW118689   1.491   3.438   2.079  1.4179  2.7657  0.8258
 5930SOL    HW218690   1.612   3.329   2.065 -1.2025 -0.2397  0.4024
 5931SOL     OW18691   5.211   2.677   0.878 -0.3342 -0.0552 -0.3177
 5931SOL    HW118692   5.238   2.620   0.800  0.4739  0.1636 -0.2083
 5931SOL    HW218693   5.127   2.642   0.918  0.6371 -1.7614  0.3300
 5932SOL     OW18694   2.730   6.876   4.532 -0.0540 -0.2003  0.2539
 5932SOL    HW118695   2.800   6.882   4.603 -0.4475  0.9834  0.5742
 5932SOL    HW218696   2.653   6.935   4.557  0.6029  1.8036 -2.0609
 5933SOL     OW18697   5.271   6.029   5.740  0.7833  0.1889  0.8049
 5933SOL    HW118698   5.174   6.028   5.716  0.9971  0.7419 -0.1015
 5933SOL    HW218699   5.313   5.943   5.712  0.7418  0.2958  0.4158
 5934SOL     OW18700   2.631   6.700   2.004  0.3219  0.4739 -0.0187
 5934SOL    HW118701   2.573   6.761   1.950 -0.5231 -0.1239  0.1942
 5934SOL    HW218702   2.665   6.627   1.946 -3.1969 -2.0575  0.7827
 5935SOL     OW18703   5.812   6.174   2.032  0.4786 -0.4611 -0.2643
 5935SOL    HW118704   5.717   6.149   2.052  0.6836 -1.0022  0.0485
 5935SOL    HW218705   5.850   6.224   2.110  0.6503 -0.8158 -0.1176
 5936SOL     OW18706   2.823   0.375   2.284  0.0261 -1.0443  0.0611
 5936SOL    HW118707   2.782   0.304   2.226  0.3464 -1.1610 -0.0207
 5936SOL    HW218708   2.844   0.455   2.229 -0.7981 -0.6883  0.2440
 5937SOL     OW18709   6.255   0.798   6.028  0.1849  0.2269  0.4732
 5937SOL    HW118710   6.222   0.858   5.955  0.6631  0.3562  0.3626
 5937SOL    HW218711   6.184   0.790   6.098  0.0415  0.7813  0.4022
 5938SOL     OW18712   1.311   4.876   2.196  0.0212 -0.3031 -0.6796
 5938SOL    HW118713   1.227   4.902   2.149  0.5779 -1.6128 -2.5080
 5938SOL    HW218714   1.302   4.783   2.231  0.7880 -0.5691 -1.1594
 5939SOL     OW18715   1.126   6.809   4.637  0.0016 -0.0385  0.5096
 5939SOL    HW118716   1.156   6.736   4.699 -0.0124  1.5164  2.4114
 5939SOL    HW218717   1.206   6.850   4.593  0.8192  2.9708  4.2999
 5940SOL     OW18718   3.143   3.126   5.761 -0.1246 -0.0028 -0.3760
 5940SOL    HW118719   3.171   3.148   5.854 -2.4965  2.1254 -0.0572
 5940SOL    HW218720   3.218   3.147   5.698  0.3884  1.7937  0.7579
 5941SOL     OW18721   6.507   6.459   4.592 -0.0929 -0.0974 -0.0034
 5941SOL    HW118722   6.495   6.507   4.679  2.1954 -1.1583  0.9929
 5941SOL    HW218723   6.418   6.430   4.557 -1.2087  1.7994  1.1143
 5942SOL     OW18724   6.191   0.655   5.134  0.1051 -0.1197 -0.0297
 5942SOL    HW118725   6.207   0.726   5.066 -0.2628 -1.6174 -1.7843
 5942SOL    HW218726   6.236   0.679   5.219  3.1005  0.5245 -1.6603
 5943SOL     OW18727   6.174   4.438   3.324  0.0178 -0.5318  0.1512
 5943SOL    HW118728   6.191   4.346   3.359 -1.0864  0.0959  2.5438
 5943SOL    HW218729   6.085   4.440   3.277  0.0224 -0.6676  0.1361
 5944SOL     OW18730   6.749   0.990   3.600 -0.1711 -0.0627  0.2311
 5944SOL    HW118731   6.743   1.090   3.596  0.5846 -0.0386 -1.5267
 5944SOL    HW218732   6.703   0.957   3.682 -2.1781  1.5856 -0.1459
 5945SOL     OW18733   4.030   6.868   6.848 -0.3219 -0.1965 -0.3667
 5945SOL    HW118734   3.987   6.796   6.794 -0.7731  0.8672 -1.4711
 5945SOL    HW218735   4.020   6.956   6.801  2.7964  0.1631 -0.5393
 5946SOL     OW18736   2.841   3.625   2.592  0.3853 -0.0045  0.5754
 5946SOL    HW118737   2.743   3.643   2.587  0.0020 -1.9151  0.5214
 5946SOL    HW218738   2.891   3.698   2.546 -1.0063  0.9043  0.4495
 5947SOL     OW18739   2.720   2.388   6.041 -0.2626 -0.7226 -0.0476
 5947SOL    HW118740   2.681   2.301   6.009 -2.3796  0.1298  0.0443
 5947SOL    HW218741   2.659   2.463   6.016  0.0818  0.4417  2.3447
 5948SOL     OW18742   6.827   5.202   0.496  0.2508  0.6866  0.2418
 5948SOL    HW118743   6.831   5.105   0.520  2.2652  0.4579 -0.7717
 5948SOL    HW218744   6.829   5.257   0.579  0.2116 -0.1218  0.7934
 5949SOL     OW18745   5.650   2.620   2.008 -0.3125 -0.8138  0.5689
 5949SOL    HW118746   5.698   2.600   2.094 -1.2825 -0.0862  1.3022
 5949SOL    HW218747   5.565   2.567   2.005 -0.6748 -0.2260  0.4262
 5950SOL     OW18748   3.493   2.983   1.013 -0.5014  0.1061  0.6942
 5950SOL    HW118749   3.447   2.894   1.006  0.6091 -0.5322  1.1436
 5950SOL    HW218750   3.591   2.970   0.998 -0.2013  1.1160  1.6903
 5951SOL     OW18751   3.410   2.513   6.489  0.4266  0.2863  0.1987
 5951SOL    HW118752   3.355   2.595   6.501 -1.0895 -0.6714  0.0529
 5951SOL    HW218753   3.456   2.490   6.575 -2.7705 -1.2075  1.6752
 5952SOL     OW18754   6.327   0.112   2.421 -0.1359  0.8317 -0.2050
 5952SOL    HW118755   6.364   0.045   2.356  0.5751  0.7814  0.2473
 5952SOL    HW218756   6.340   0.204   2.383 -1.0490  0.7302 -0.7941
 5953SOL     OW18757   2.528   6.974   2.267  0.1222 -0.0320 -0.0845
 5953SOL    HW118758   2.508   6.877   2.248 -0.0659 -0.2898  1.3441
 5953SOL    HW218759   2.456   7.031   2.227  0.5607 -0.4127 -1.4899
 5954SOL     OW18760   6.211   5.313   3.768  0.3602 -0.0874 -0.4440
 5954SOL    HW118761   6.304   5.327   3.733  0.5489 -0.2487 -0.0074
 5954SOL    HW218762   6.203   5.352   3.859  0.4835 -1.5331  0.2058
 5955SOL     OW18763   3.287   0.014   4.998  0.0243  0.4582 -0.7642
 5955SOL    HW118764   3.265  -0.074   4.956 -1.0428 -0.2423  1.1231
 5955SOL    HW218765   3.229   0.085   4.959 -1.1825 -0.2367 -0.2955
 5956SOL     OW18766   0.636   4.194   5.916 -0.9166 -0.5656 -0.5725
 5956SOL    HW118767   0.670   4.169   6.007 -0.2570 -0.0739 -0.6805
 5956SOL    HW218768   0.692   4.268   5.878 -3.3670  1.7960  0.1237
 5957SOL     OW18769   1.391   5.848   5.683  0.0282 -0.8703  1.1563
 5957SOL    HW118770   1.374   5.931   5.629  1.2042 -1.5642 -0.3959
 5957SOL    HW218771   1.357   5.768   5.633  2.0205 -1.6358  0.8916
 5958SOL     OW18772   5.449   2.296   2.723  0.3397 -0.0207 -0.6217
 5958SOL    HW118773   5.357   2.325   2.698  0.9326  1.2967 -1.3940
 5958SOL    HW218774   5.472   2.334   2.813  0.3643  0.2223 -0.7282
 5959SOL     OW18775   0.370   2.683   4.959  0.0260 -0.1428  0.0098
 5959SOL    HW118776   0.336   2.592   4.984 -0.4952  0.6040  2.3061
 5959SOL    HW218777   0.308   2.725   4.892  0.1121 -1.3433 -0.8382
 5960SOL     OW18778   6.869   3.161   2.128 -0.3608  0.7963 -0.7818
 5960SOL    HW118779   6.854   3.161   2.029  0.3049  1.6554 -0.8903
 5960SOL    HW218780   6.926   3.238   2.153 -0.2462  0.3921  0.2429
 5961SOL     OW18781   2.710   3.140   6.721  0.4119  0.8223 -0.4173
 5961SOL    HW118782   2.760   3.188   6.648  0.5645 -1.0985 -1.6363
 5961SOL    HW218783   2.754   3.052   6.739  0.0827  1.0503  1.7040
 5962SOL     OW18784   1.682   2.532   3.379  0.0969  0.6114  0.9040
 5962SOL    HW118785   1.749   2.542   3.452 -0.2534  4.1161  0.8881
 5962SOL    HW218786   1.726   2.550   3.291 -0.5638  1.5511  0.7614
 5963SOL     OW18787   3.214   5.830   2.260 -0.2014  0.3269  0.4167
 5963SOL    HW118788   3.285   5.900   2.252  0.7390 -0.5131  1.1354
 5963SOL    HW218789   3.206   5.802   2.356 -1.6905  0.5785  0.3901
 5964SOL     OW18790   6.906   3.485   4.373 -0.1516  0.0764  0.6408
 5964SOL    HW118791   7.005   3.485   4.381 -0.0901 -0.8963  0.1025
 5964SOL    HW218792   6.876   3.567   4.326  0.5062 -0.1783 -0.2471
 5965SOL     OW18793   4.327   4.102   0.347 -0.3699 -0.3850 -0.6558
 5965SOL    HW118794   4.236   4.064   0.364 -0.6842  0.8336  0.5725
 5965SOL    HW218795   4.319   4.181   0.287  0.0146 -0.8680 -1.3579
 5966SOL     OW18796   2.600   0.742   1.101  0.6148  0.2014 -0.3307
 5966SOL    HW118797   2.595   0.673   1.029 -0.1064 -0.1713  0.0702
 5966SOL    HW218798   2.582   0.832   1.061  0.2280 -0.0022 -0.6252
 5967SOL     OW18799   3.473   0.584   5.019 -0.2006 -0.1791  0.0184
 5967SOL    HW118800   3.563   0.544   5.036  0.3326  0.7537 -0.5069
 5967SOL    HW218801   3.452   0.577   4.921 -0.3271  0.3276  0.0028
 5968SOL     OW18802   0.695   1.489   3.238 -0.1203 -0.3125 -0.0007
 5968SOL    HW118803   0.712   1.528   3.148 -1.9486  0.5476 -0.0200
 5968SOL    HW218804   0.596   1.481   3.254  0.1566 -0.9910  1.7002
 5969SOL     OW18805   4.435   1.065   5.185 -0.6427 -0.0614 -0.0378
 5969SOL    HW118806   4.436   1.138   5.116 -1.3411 -0.8897 -0.9467
 5969SOL    HW218807   4.456   1.104   5.275  1.9386  0.8094 -0.9254
 5970SOL     OW18808   2.100   1.112   1.855  0.1811 -0.4892 -0.4745
 5970SOL    HW118809   2.030   1.118   1.784  0.5400  2.2825 -0.6814
 5970SOL    HW218810   2.187   1.144   1.819  0.5719  0.1587  0.9805
 5971SOL     OW18811   3.737   6.034   2.781 -0.1995  0.0622  0.3842
 5971SOL    HW118812   3.811   6.091   2.816  0.8598 -0.7349 -0.5029
 5971SOL    HW218813   3.766   5.938   2.779 -1.3973 -0.3248  0.3952
 5972SOL     OW18814   0.541   0.873   4.670  0.7379  0.3871  0.1946
 5972SOL    HW118815   0.489   0.810   4.612  1.3652  0.5972 -0.6174
 5972SOL    HW218816   0.478   0.928   4.725  0.0965  0.5870 -0.7166
 5973SOL     OW18817   5.029   6.362   3.681 -0.5163 -0.2558 -0.1952
 5973SOL    HW118818   5.048   6.447   3.730 -0.7395 -0.0981 -0.3798
 5973SOL    HW218819   4.952   6.376   3.619 -0.4131 -0.5311 -0.3866
 5974SOL     OW18820   4.111   1.583   6.865  0.6495  0.1854 -0.5361
 5974SOL    HW118821   4.089   1.512   6.932 -3.6113 -0.7319 -2.5746
 5974SOL    HW218822   4.140   1.541   6.780 -0.7050  0.8655 -1.3690
 5975SOL     OW18823   1.171   5.437   4.963  0.3047 -0.6289  0.4130
 5975SOL    HW118824   1.249   5.426   4.901  0.2505 -0.6791  0.3546
 5975SOL    HW218825   1.199   5.413   5.056  0.7446  0.6322  0.6357
 5976SOL     OW18826   3.451   0.892   4.427  0.0474 -0.2743 -0.1423
 5976SOL    HW118827   3.407   0.811   4.467 -0.2521  0.3569  0.8281
 5976SOL    HW218828   3.458   0.964   4.496  0.5588  0.4418 -0.9225
 5977SOL     OW18829   5.238   2.234   3.106 -0.4054  0.0196  0.4223
 5977SOL    HW118830   5.265   2.330   3.115  0.5918 -0.2829  0.8644
 5977SOL    HW218831   5.157   2.216   3.162 -0.3200  0.5086  0.7079
 5978SOL     OW18832   0.025   4.074   6.543  0.4496 -0.6385 -0.2888
 5978SOL    HW118833   0.045   4.144   6.474  1.6082 -0.5518  0.1169
 5978SOL    HW218834  -0.024   3.998   6.500  0.5175 -0.2571 -1.0539
 5979SOL     OW18835   2.341   3.083   0.628 -0.0770  0.7663 -0.8130
 5979SOL    HW118836   2.306   3.175   0.647 -0.7298  0.6490 -1.3879
 5979SOL    HW218837   2.359   3.035   0.714  0.4825  1.5088 -0.5127
 5980SOL     OW18838   5.157   5.262   4.573  0.4632 -0.0948  0.3222
 5980SOL    HW118839   5.080   5.286   4.512 -1.5060 -2.5608  1.6773
 5980SOL    HW218840   5.205   5.346   4.599 -0.8528  1.4008 -1.7230
 5981SOL     OW18841   0.116   2.251   2.842  0.0905 -0.0975 -0.2672
 5981SOL    HW118842   0.156   2.213   2.925  0.7915 -1.6290 -1.2584
 5981SOL    HW218843   0.069   2.337   2.864  1.8169  0.5026  1.3661
 5982SOL     OW18844   6.589   2.709   3.454 -0.1866  0.0916 -0.1254
 5982SOL    HW118845   6.542   2.776   3.511  0.6238  0.3401  0.2610
 5982SOL    HW218846   6.539   2.698   3.368 -0.7519  0.6091  0.1283
 5983SOL     OW18847   4.831   4.766   4.749 -0.1304 -1.1388  0.3063
 5983SOL    HW118848   4.912   4.789   4.694 -0.6578 -0.1174 -0.0718
 5983SOL    HW218849   4.758   4.735   4.688 -0.3318 -1.1515  0.5546
 5984SOL     OW18850   4.778   6.644   6.356 -0.0837 -0.0836  0.3057
 5984SOL    HW118851   4.815   6.690   6.276 -0.5490  1.0589  0.7309
 5984SOL    HW218852   4.829   6.560   6.373  1.5411  0.8393  0.1761
 5985SOL     OW18853   4.443   0.347   3.088 -0.6222 -0.3805 -0.2818
 5985SOL    HW118854   4.489   0.295   3.160 -0.7423  0.1762  0.2055
 5985SOL    HW218855   4.512   0.391   3.031 -0.5208  1.0711  0.9020
 5986SOL     OW18856   1.655   3.259   0.010  0.2048 -0.5071  0.7304
 5986SOL    HW118857   1.626   3.322   0.082 -1.5243  0.4372 -0.7208
 5986SOL    HW218858   1.579   3.242  -0.052  0.8148 -3.5584  0.6911
 5987SOL     OW18859   4.100   6.459   4.959  0.8001 -0.3999  0.0399
 5987SOL    HW118860   4.119   6.508   5.044  1.6000 -0.3353 -0.1659
 5987SOL    HW218861   4.150   6.372   4.959  1.4506 -0.0417 -0.6956
 5988SOL     OW18862   5.016   5.892   0.451  0.2580  0.1674  0.4426
 5988SOL    HW118863   4.997   5.932   0.540 -0.3791  0.4749  0.1709
 5988SOL    HW218864   4.955   5.932   0.382  0.9558  0.1667 -0.1892
 5989SOL     OW18865   2.175   3.379   2.568  0.0921  0.1438 -0.2877
 5989SOL    HW118866   2.152   3.476   2.580 -0.6815 -0.0876  0.1451
 5989SOL    HW218867   2.136   3.347   2.482 -1.4439 -0.3018  0.5437
 5990SOL     OW18868   0.670   3.949   4.169  0.0967 -0.4357  0.0326
 5990SOL    HW118869   0.714   3.996   4.245  1.3054 -2.0858  0.4035
 5990SOL    HW218870   0.731   3.951   4.089 -0.9675  0.8829 -0.7901
 5991SOL     OW18871   0.664   0.126   1.975 -0.4830 -0.4478  0.6057
 5991SOL    HW118872   0.567   0.153   1.975 -0.4140 -0.1814  1.2350
 5991SOL    HW218873   0.673   0.035   1.936 -1.0935 -0.8166  1.2913
 5992SOL     OW18874   5.348   4.075   6.617 -0.6158  0.3482  0.2663
 5992SOL    HW118875   5.337   4.012   6.540 -1.7733 -0.6128  1.1813
 5992SOL    HW218876   5.260   4.090   6.661 -0.0495  1.2448  1.1421
 5993SOL     OW18877   2.506   4.834   4.167  0.1450  0.0294 -0.1775
 5993SOL    HW118878   2.438   4.763   4.181 -1.2250  0.8599 -2.1694
 5993SOL    HW218879   2.529   4.840   4.070 -0.2295  2.6164 -0.2005
 5994SOL     OW18880   1.452   5.518   0.741 -0.1706  0.1480 -0.0519
 5994SOL    HW118881   1.414   5.527   0.833  2.0524  1.2469  0.8436
 5994SOL    HW218882   1.513   5.440   0.738  0.2548  0.4909 -0.3978
 5995SOL     OW18883   4.595   1.606   2.267  0.1666 -0.3124  0.5895
 5995SOL    HW118884   4.566   1.690   2.221 -2.5778 -1.8823 -0.7646
 5995SOL    HW218885   4.586   1.618   2.366 -0.4249  0.8968  0.4064
 5996SOL     OW18886   6.926   6.066   6.537  0.2001 -0.1653 -0.8359
 5996SOL    HW118887   7.000   6.093   6.599  0.6126  1.0896 -1.8427
 5996SOL    HW218888   6.924   6.127   6.459 -1.0370 -1.0403 -1.5206
 5997SOL     OW18889   1.018   3.860   2.149 -0.1624  0.0795 -0.2663
 5997SOL    HW118890   1.079   3.845   2.071 -0.1103 -0.6841 -0.0847
 5997SOL    HW218891   1.012   3.776   2.203  0.0634  0.6885  0.7401
 5998SOL     OW18892   4.471   6.404   2.994  0.6279  0.3675  0.6940
 5998SOL    HW118893   4.441   6.352   3.074  2.1154  2.7152  2.9472
 5998SOL    HW218894   4.524   6.345   2.934 -1.6109 -1.7966  0.6804
 5999SOL     OW18895   4.690   4.405   1.827  0.1681  0.2024 -0.7641
 5999SOL    HW118896   4.658   4.437   1.738  0.3411 -2.1727 -1.7521
 5999SOL    HW218897   4.628   4.335   1.862 -0.0497  1.2918  1.1647
 6000SOL     OW18898   6.028   1.697   3.622 -0.4748 -0.3818  0.0727
 6000SOL    HW118899   6.098   1.745   3.569  0.5461 -1.3068  0.5548
 6000SOL    HW218900   6.062   1.606   3.648 -1.9687 -0.9745  0.0599
 6001SOL     OW18901   2.566   0.388   6.124  0.0325  0.1727 -0.1444
 6001SOL    HW118902   2.478   0.341   6.118 -0.7540  1.6976 -1.0182
 6001SOL    HW218903   2.617   0.352   6.202 -0.8941 -1.4833 -0.2421
 6002SOL     OW18904   5.598   5.072   2.409  0.1842  0.2923 -0.1012
 6002SOL    HW118905   5.545   5.029   2.482  1.8589 -0.2994  0.8253
 6002SOL    HW218906   5.630   5.162   2.439  0.3386  0.3192 -0.3429
 6003SOL     OW18907   3.908   1.928   6.647 -0.0520 -0.0917  0.5888
 6003SOL    HW118908   3.902   1.865   6.724  0.5565 -3.0202 -1.6021
 6003SOL    HW218909   3.817   1.943   6.608 -0.6325  2.7057  2.6832
 6004SOL     OW18910   1.420   5.766   1.604  0.2039  0.0812  0.3335
 6004SOL    HW118911   1.326   5.744   1.576  0.0198  0.1238  0.9084
 6004SOL    HW218912   1.449   5.704   1.676  1.0608 -0.7045 -0.6670
 6005SOL     OW18913   6.660   5.865   1.056 -0.6509  1.0436 -0.7635
 6005SOL    HW118914   6.750   5.909   1.052 -0.8930  1.4732 -2.6954
 6005SOL    HW218915   6.606   5.893   0.976 -1.9575 -0.3879 -0.4319
 6006SOL     OW18916   4.602   6.287   3.762 -0.8202 -0.5749  0.5967
 6006SOL    HW118917   4.597   6.230   3.843 -0.6432  0.3984  1.3065
 6006SOL    HW218918   4.686   6.268   3.712 -0.6338 -0.7450  0.9740
 6007SOL     OW18919   0.342   0.221   4.185  0.5011 -0.5384 -0.0599
 6007SOL    HW118920   0.436   0.244   4.207  0.6079  2.9062 -3.1338
 6007SOL    HW218921   0.287   0.305   4.183 -2.2783 -2.2365 -0.0020
 6008SOL     OW18922   1.804   3.893   4.285  0.4053 -0.1280 -0.2004
 6008SOL    HW118923   1.798   3.943   4.199  0.8086  1.1073  0.4513
 6008SOL    HW218924   1.734   3.926   4.348  0.8800 -0.1440  0.3515
 6009SOL     OW18925   4.030   2.870   0.221 -0.1541 -0.0596 -0.6526
 6009SOL    HW118926   4.011   2.962   0.186 -1.6578 -0.3259 -0.6149
 6009SOL    HW218927   4.047   2.874   0.319  1.8510  0.4113 -0.9808
 6010SOL     OW18928   4.436   6.124   4.192 -0.3751 -0.6699  0.7255
 6010SOL    HW118929   4.413   6.083   4.281  1.4797 -0.3695  1.3913
 6010SOL    HW218930   4.535   6.135   4.186 -0.5778  0.5055 -0.8750
 6011SOL     OW18931   6.511   1.380   3.098  0.1086 -0.0100  0.0125
 6011SOL    HW118932   6.513   1.373   3.198  1.0686  0.9944  0.0826
 6011SOL    HW218933   6.540   1.293   3.058 -1.1058 -0.6988  0.5795
 6012SOL     OW18934   1.276   3.610   4.102 -0.1063  0.5990 -0.2790
 6012SOL    HW118935   1.263   3.695   4.153 -1.9089  0.5483 -0.5862
 6012SOL    HW218936   1.349   3.622   4.035 -0.0346  1.7627 -0.0110
 6013SOL     OW18937   5.373   0.374   1.656  0.0353  0.0979 -0.7769
 6013SOL    HW118938   5.295   0.436   1.648 -1.2358 -1.3647 -0.1806
 6013SOL    HW218939   5.441   0.396   1.586 -1.7269  0.2712 -2.5137
 6014SOL     OW18940   4.170   6.011   3.396 -0.1308 -0.7831 -0.5000
 6014SOL    HW118941   4.162   6.080   3.323  0.5286 -0.7654 -0.5600
 6014SOL    HW218942   4.246   6.035   3.456  1.4722 -2.5344 -1.7066
 6015SOL     OW18943   3.650   5.278   5.050 -0.1011 -0.7533 -0.3531
 6015SOL    HW118944   3.562   5.269   5.004 -0.0987 -2.5991 -0.0441
 6015SOL    HW218945   3.635   5.306   5.145 -0.3083 -0.5923 -0.4313
 6016SOL     OW18946   0.068   5.641   2.137 -0.2275  0.3223  0.3545
 6016SOL    HW118947   0.017   5.701   2.075 -0.0472 -2.1517 -2.4472
 6016SOL    HW218948   0.022   5.553   2.143  2.9485 -1.6750 -1.4589
 6017SOL     OW18949   4.693   6.661   3.031  0.2804  0.1897 -0.2953
 6017SOL    HW118950   4.753   6.655   3.111  1.9036 -0.7465 -1.5231
 6017SOL    HW218951   4.633   6.581   3.028  1.9495 -1.0960 -1.2761
 6018SOL     OW18952   0.714   4.535   4.843  0.6274  0.0261  0.6442
 6018SOL    HW118953   0.678   4.445   4.863  0.9379 -0.2751 -0.1074
 6018SOL    HW218954   0.793   4.553   4.900 -1.5859  1.3703  3.5579
 6019SOL     OW18955   0.768   1.214   1.941  0.6222  0.3682  0.3795
 6019SOL    HW118956   0.716   1.139   1.983  0.5605 -0.7242 -1.5428
 6019SOL    HW218957   0.708   1.294   1.932 -0.5947 -0.6513 -1.1616
 6020SOL     OW18958   3.098   0.011   1.129 -0.3401  0.1600 -0.0388
 6020SOL    HW118959   3.158   0.054   1.062 -0.0001 -1.7399 -1.0095
 6020SOL    HW218960   3.150  -0.013   1.211 -0.4407  1.1253  0.3286
 6021SOL     OW18961   5.342   6.598   5.396 -0.1799 -0.2458 -0.2456
 6021SOL    HW118962   5.251   6.638   5.384 -0.3378 -0.1467  1.1859
 6021SOL    HW218963   5.336   6.521   5.459  1.1333  1.4359  2.0609
 6022SOL     OW18964   5.148   0.076   6.548  0.3488  0.3851 -0.2001
 6022SOL    HW118965   5.058   0.070   6.592  1.1754 -1.7998  1.3095
 6022SOL    HW218966   5.148   0.155   6.486 -1.3958  2.7165  2.4782
 6023SOL     OW18967   5.555   0.922   4.828 -0.0219  0.1469 -0.2423
 6023SOL    HW118968   5.589   0.892   4.917  0.8658 -0.1746 -0.6725
 6023SOL    HW218969   5.483   0.859   4.797  0.2390 -0.2183 -0.1129
 6024SOL     OW18970   3.912   4.062   5.595  0.1080  0.4893 -0.3144
 6024SOL    HW118971   3.909   3.964   5.576  0.2951  0.2563  0.7715
 6024SOL    HW218972   3.831   4.106   5.558 -1.1729 -0.4810  1.2149
 6025SOL     OW18973   4.755   3.028   0.883  0.0903 -0.2158  0.1549
 6025SOL    HW118974   4.822   3.023   0.957 -0.1572 -0.0979  0.3889
 6025SOL    HW218975   4.760   2.945   0.828 -0.3476 -0.7017  0.8438
 6026SOL     OW18976   1.718   6.768   5.679 -0.0004  0.3981 -0.1582
 6026SOL    HW118977   1.737   6.850   5.733  1.2556  0.0159  0.0170
 6026SOL    HW218978   1.634   6.781   5.627 -0.3850  1.3814  0.6780
 6027SOL     OW18979   6.237   6.795   4.143  0.0942 -0.1082  0.2722
 6027SOL    HW118980   6.310   6.818   4.207 -0.9764  0.7948  1.1960
 6027SOL    HW218981   6.259   6.833   4.053  1.3021 -0.8471  0.2291
 6028SOL     OW18982   5.364   0.507   3.975  0.1152 -0.2540  0.3500
 6028SOL    HW118983   5.316   0.593   3.994  2.6599  1.6096 -1.0053
 6028SOL    HW218984   5.452   0.507   4.024  0.8226 -1.3772 -0.8746
 6029SOL     OW18985   4.455   5.591   2.877 -0.4419 -0.2485 -0.6417
 6029SOL    HW118986   4.415   5.506   2.843  0.5892 -0.5792 -1.0506
 6029SOL    HW218987   4.551   5.576   2.901  0.5678  1.4018 -3.2627
 6030SOL     OW18988   1.806   3.205   4.968 -0.3096  0.4903 -0.2053
 6030SOL    HW118989   1.794   3.147   4.887  0.9442  0.4165 -0.3636
 6030SOL    HW218990   1.903   3.226   4.979 -0.6885  2.2350  0.0832
 6031SOL     OW18991   4.183   1.898   4.912 -0.2943  0.7072  0.7807
 6031SOL    HW118992   4.277   1.926   4.933  0.0090 -0.6048  1.3181
 6031SOL    HW218993   4.120   1.973   4.933  0.7120  2.0248 -0.6872
 6032SOL     OW18994   0.233   0.857   3.086  0.6533  0.1457  0.1098
 6032SOL    HW118995   0.247   0.823   3.179  1.5125 -0.8772 -0.3720
 6032SOL    HW218996   0.292   0.806   3.023  0.6898  1.3797 -0.8843
 6033SOL     OW18997   2.596   0.998   3.155 -0.4251 -0.3404  0.3809
 6033SOL    HW118998   2.687   1.016   3.194  0.5728 -0.1802 -1.8848
 6033SOL    HW218999   2.576   1.065   3.084 -2.0917 -0.7553  0.4046
 6034SOL     OW19000   6.618   4.876   0.252 -0.9709  0.1023  0.4346
 6034SOL    HW119001   6.692   4.887   0.185  0.4691  0.2163  1.9903
 6034SOL    HW219002   6.618   4.782   0.286 -1.5287  0.1153  0.4664
 6035SOL     OW19003   6.584   0.053   0.174 -0.0290 -0.1946  0.6093
 6035SOL    HW119004   6.518   0.009   0.113 -1.4376  2.0748  0.4102
 6035SOL    HW219005   6.603  -0.008   0.251 -1.2488 -1.4826 -0.0671
 6036SOL     OW19006   5.863   6.052   1.753 -0.4471  0.2283  0.1176
 6036SOL    HW119007   5.859   6.116   1.830 -2.3512 -1.4043  1.5092
 6036SOL    HW219008   5.779   6.061   1.698  0.3426  0.5266 -1.0718
 6037SOL     OW19009   1.562   2.862   6.619 -0.2217 -0.3346  0.4634
 6037SOL    HW119010   1.606   2.924   6.553  0.0415  0.5547  1.4571
 6037SOL    HW219011   1.592   2.885   6.711 -0.9892 -1.2377  0.9480
 6038SOL     OW19012   1.740   3.211   3.413 -0.4319  0.0321  0.6622
 6038SOL    HW119013   1.679   3.142   3.374  0.2817 -0.9681  1.2674
 6038SOL    HW219014   1.753   3.192   3.510  0.6183  0.3895  0.6039
 6039SOL     OW19015   4.778   3.418   0.106 -0.6582 -0.1162  0.0643
 6039SOL    HW119016   4.746   3.512   0.118 -0.5275 -0.0390 -0.1736
 6039SOL    HW219017   4.781   3.396   0.008  0.7268  0.1285  0.0297
 6040SOL     OW19018   3.795   0.253   0.379 -0.0331 -0.0795  0.3590
 6040SOL    HW119019   3.716   0.291   0.332  0.2025  0.1783  0.1724
 6040SOL    HW219020   3.844   0.191   0.317  0.5626  0.6479  0.0956
 6041SOL     OW19021   5.405   4.336   3.351 -0.8188  0.4208  0.1233
 6041SOL    HW119022   5.473   4.263   3.344 -0.1260  1.1047 -0.5038
 6041SOL    HW219023   5.421   4.387   3.436 -0.4820  0.6370 -0.0662
 6042SOL     OW19024   0.207   0.958   1.030 -0.1203  0.4979 -0.0803
 6042SOL    HW119025   0.296   0.964   0.985 -0.0585  2.1369  0.1959
 6042SOL    HW219026   0.141   1.014   0.979 -0.5857  0.6029  0.6279
 6043SOL     OW19027   1.046   5.424   5.415 -0.1167 -0.2083 -0.3147
 6043SOL    HW119028   1.074   5.329   5.423  3.3144  0.6647 -0.6225
 6043SOL    HW219029   1.090   5.466   5.335  0.1803  2.1623  0.9976
 6044SOL     OW19030   4.886   4.170   4.109 -0.1287  0.5876  0.0129
 6044SOL    HW119031   4.868   4.182   4.011  0.5690  0.6572 -0.1096
 6044SOL    HW219032   4.981   4.144   4.122 -0.4919 -0.5323  0.5923
 6045SOL     OW19033   1.126   4.871   2.546  0.0100 -1.0797  0.2673
 6045SOL    HW119034   1.220   4.839   2.561 -0.4220 -1.9085  1.3898
 6045SOL    HW219035   1.119   4.967   2.573  0.1829 -1.4619  1.7986
 6046SOL     OW19036   6.644   0.132   5.396  0.1598  0.0098 -0.2188
 6046SOL    HW119037   6.625   0.135   5.495 -2.0560 -2.5106 -0.4400
 6046SOL    HW219038   6.597   0.208   5.351 -0.4159  0.0921  0.4916
 6047SOL     OW19039   0.183   3.746   0.697 -0.4294 -0.0476 -0.3531
 6047SOL    HW119040   0.205   3.821   0.759 -1.0786 -0.6192  0.5987
 6047SOL    HW219041   0.219   3.660   0.735 -1.4015 -0.5000 -0.4225
 6048SOL     OW19042   1.427   4.167   2.135 -0.1535  0.9590  0.2212
 6048SOL    HW119043   1.525   4.181   2.149  0.2207 -1.0897  0.0869
 6048SOL    HW219044   1.376   4.206   2.212  1.0523 -0.7084  1.9971
 6049SOL     OW19045   4.910   6.296   2.246 -0.2901 -0.5999 -0.0123
 6049SOL    HW119046   4.902   6.232   2.170 -2.2108  0.4298 -0.7331
 6049SOL    HW219047   4.886   6.388   2.215  0.6167  0.1682  1.4452
 6050SOL     OW19048   2.159   4.270   5.762 -0.0783  0.1604 -0.4132
 6050SOL    HW119049   2.229   4.293   5.830  0.6085  2.3005 -1.7211
 6050SOL    HW219050   2.187   4.189   5.711  1.8910  1.3997 -1.4135
 6051SOL     OW19051   1.029   2.868   6.592 -0.4345 -0.9931 -0.7233
 6051SOL    HW119052   1.110   2.927   6.604  0.1306 -1.5170 -1.8127
 6051SOL    HW219053   1.013   2.854   6.495 -2.3964 -0.1675 -0.5645
 6052SOL     OW19054   2.954   4.941   1.320 -0.4770  0.0649  0.3699
 6052SOL    HW119055   2.866   4.979   1.292 -0.1886  0.4532 -0.0227
 6052SOL    HW219056   3.021   4.956   1.247  0.0093  0.0963  0.8183
 6053SOL     OW19057   3.696   6.980   3.648  0.1715 -0.0859  0.1092
 6053SOL    HW119058   3.619   6.916   3.652 -0.0446  0.2291  1.7769
 6053SOL    HW219059   3.711   7.008   3.553 -2.7693  1.0003 -0.1503
 6054SOL     OW19060   1.403   4.363   3.606  0.8452  0.0923 -0.4361
 6054SOL    HW119061   1.464   4.436   3.576 -0.2238  0.2321 -2.4361
 6054SOL    HW219062   1.402   4.359   3.706  1.4370  2.3368 -0.3018
 6055SOL     OW19063   4.845   6.808   5.671 -0.1277  0.5192 -0.5249
 6055SOL    HW119064   4.756   6.852   5.684  0.2718  0.9074  1.0851
 6055SOL    HW219065   4.834   6.709   5.683 -0.1698  0.6666  0.8662
 6056SOL     OW19066   3.211   5.782   0.000  0.2299 -0.1440  0.3861
 6056SOL    HW119067   3.143   5.709  -0.009 -0.8047  0.7673  0.6961
 6056SOL    HW219068   3.247   5.782   0.094  1.3780 -1.2250 -0.0252
 6057SOL     OW19069   6.568   3.377   3.749  0.6405 -1.0277  0.0356
 6057SOL    HW119070   6.483   3.324   3.750  0.6354 -1.1354 -1.9034
 6057SOL    HW219071   6.615   3.366   3.836 -1.2907 -1.0169  1.1203
 6058SOL     OW19072   4.907   6.042   6.694 -0.4944  0.1636 -0.0682
 6058SOL    HW119073   4.929   5.959   6.745  3.8212  0.4279 -1.1226
 6058SOL    HW219074   4.947   6.037   6.603  1.5339  3.9831  0.3954
 6059SOL     OW19075   6.635   0.574   2.262  0.0982  0.1983  0.2726
 6059SOL    HW119076   6.624   0.581   2.163  0.3010 -0.4911  0.1945
 6059SOL    HW219077   6.549   0.598   2.308  0.8762  3.8593  0.1186
 6060SOL     OW19078   0.138   3.933   1.973 -0.1405 -0.2057  0.3329
 6060SOL    HW119079   0.138   3.999   1.897 -0.1561  0.3520  0.8055
 6060SOL    HW219080   0.044   3.917   2.003 -0.1752 -0.8251 -0.1018
 6061SOL     OW19081   0.436   0.160   6.412 -0.4465  0.1313  0.3625
 6061SOL    HW119082   0.466   0.155   6.317 -0.5961  1.4086  0.2310
 6061SOL    HW219083   0.515   0.148   6.472 -0.5571 -2.1768  0.1429
 6062SOL     OW19084   0.805   2.638   5.590  0.0155 -1.0479  0.2134
 6062SOL    HW119085   0.868   2.589   5.530 -0.9480 -2.1385  0.0504
 6062SOL    HW219086   0.841   2.729   5.610  1.3655 -1.4560 -0.2944
 6063SOL     OW19087   1.733   6.363   5.177 -0.1769  0.3970  0.2365
 6063SOL    HW119088   1.670   6.431   5.213 -3.4709 -1.3127 -1.8079
 6063SOL    HW219089   1.799   6.409   5.117  0.8277  2.2725  2.6037
 6064SOL     OW19090   0.127   3.606   4.227  0.3225  0.3051 -0.1376
 6064SOL    HW119091   0.095   3.662   4.151 -0.3533 -0.5019 -0.4602
 6064SOL    HW219092   0.181   3.529   4.191 -0.0699 -0.1252  0.1904
 6065SOL     OW19093   5.252   5.627   6.017 -0.1839 -0.4767 -0.0015
 6065SOL    HW119094   5.251   5.583   5.927 -0.2046 -0.1913 -0.1425
 6065SOL    HW219095   5.346   5.633   6.050 -0.0190  0.6328 -0.6118
 6066SOL     OW19096   4.122   5.583   6.623  0.0414  0.1561  0.0302
 6066SOL    HW119097   4.024   5.565   6.612  0.0302 -0.4620  1.0147
 6066SOL    HW219098   4.160   5.613   6.535 -0.9707  0.1404 -0.4312
 6067SOL     OW19099   2.489   0.131   3.841  0.4967 -0.3684 -0.2876
 6067SOL    HW119100   2.409   0.130   3.781  0.6653 -1.6144 -0.5162
 6067SOL    HW219101   2.460   0.150   3.935  0.1616  0.9739 -0.6467
 6068SOL     OW19102   3.621   4.803   5.284 -0.1135 -0.3815  0.1666
 6068SOL    HW119103   3.709   4.767   5.314 -0.1924  0.9685  2.2264
 6068SOL    HW219104   3.548   4.759   5.336 -0.4753  0.1960  0.1493
 6069SOL     OW19105   0.212   1.307   6.801 -0.7998 -0.2247  0.1554
 6069SOL    HW119106   0.282   1.255   6.851 -0.3021  0.4412  0.1663
 6069SOL    HW219107   0.199   1.267   6.711 -1.3050 -1.1022  0.5952
 6070SOL     OW19108   1.372   0.410   0.841 -0.2318  0.1872  0.2512
 6070SOL    HW119109   1.289   0.403   0.898 -0.0903 -0.5553  0.3839
 6070SOL    HW219110   1.367   0.342   0.768 -0.7787  1.6666 -1.1337
 6071SOL     OW19111   3.257   0.319   6.332 -0.0653 -0.4140  0.5993
 6071SOL    HW119112   3.290   0.393   6.391 -0.1699  1.4141 -1.5295
 6071SOL    HW219113   3.163   0.297   6.356 -0.8322  1.7900 -0.1925
 6072SOL     OW19114   3.314   5.971   0.696 -0.0782 -0.5555  0.2487
 6072SOL    HW119115   3.344   5.933   0.784 -0.0647  0.0121  0.4929
 6072SOL    HW219116   3.230   6.024   0.710  0.3806  0.2339  0.0689
 6073SOL     OW19117   3.407   0.581   6.127  0.0794 -0.3115  0.3013
 6073SOL    HW119118   3.472   0.637   6.178  0.7461 -0.4850 -0.3297
 6073SOL    HW219119   3.437   0.485   6.128 -1.4247 -0.8117  1.9614
 6074SOL     OW19120   4.979   2.214   3.717 -0.3285  0.7259 -0.0442
 6074SOL    HW119121   4.921   2.144   3.676 -0.7282  0.5533  0.7777
 6074SOL    HW219122   5.036   2.173   3.788 -1.4093  1.3934  1.2710
 6075SOL     OW19123   1.088   0.633   4.289 -0.3104  0.5384  0.1586
 6075SOL    HW119124   1.038   0.557   4.246 -1.1737  1.5243 -0.6344
 6075SOL    HW219125   1.169   0.597   4.336 -0.0915 -0.7474 -1.1262
 6076SOL     OW19126   0.890   5.669   3.304 -0.0811 -0.1277  0.1824
 6076SOL    HW119127   0.914   5.763   3.328 -0.3188  0.2612 -1.0526
 6076SOL    HW219128   0.916   5.608   3.380  0.7354  0.8286  0.6994
 6077SOL     OW19129   5.421   0.841   2.641  0.0631 -0.6280 -0.0768
 6077SOL    HW119130   5.344   0.880   2.591 -0.6363 -1.5632  0.2409
 6077SOL    HW219131   5.461   0.911   2.700 -0.8024 -0.2236  0.0475
 6078SOL     OW19132   5.516   3.764   2.149 -0.1561  0.1993 -0.5003
 6078SOL    HW119133   5.468   3.737   2.233  1.1923  1.8594  0.9026
 6078SOL    HW219134   5.614   3.774   2.169  0.2861  0.0915 -2.4445
 6079SOL     OW19135   2.551   2.420   4.672  0.5110 -0.2849 -0.6635
 6079SOL    HW119136   2.505   2.457   4.591  0.7559  0.4701 -0.4626
 6079SOL    HW219137   2.531   2.478   4.751  0.4773 -0.8788 -0.2308
 6080SOL     OW19138   5.780   5.620   2.468 -0.0614 -0.4221 -0.7556
 6080SOL    HW119139   5.867   5.593   2.511 -0.3449  1.0840  0.8660
 6080SOL    HW219140   5.799   5.670   2.383  0.6325 -0.4324 -0.6149
 6081SOL     OW19141   1.085   4.922   4.268 -0.3519 -0.4472 -0.0433
 6081SOL    HW119142   1.156   4.897   4.202 -1.2796  1.2071 -1.7623
 6081SOL    HW219143   1.021   4.846   4.278  1.3462 -1.8037  1.2136
 6082SOL     OW19144   1.219   3.007   4.210  0.1895  0.4968 -0.3524
 6082SOL    HW119145   1.162   3.040   4.285  1.7516  0.3092  0.9909
 6082SOL    HW219146   1.261   3.084   4.163 -0.3772  0.6002 -0.6879
 6083SOL     OW19147   2.670   5.639   4.461 -0.2849  0.8527  0.3952
 6083SOL    HW119148   2.646   5.736   4.464  1.5810  1.3505  0.6061
 6083SOL    HW219149   2.694   5.608   4.553  0.0629  0.4734  0.1818
 6084SOL     OW19150   6.132   1.925   0.258  0.6353 -0.2882  0.9850
 6084SOL    HW119151   6.195   1.970   0.194 -0.8103 -0.4723 -0.6444
 6084SOL    HW219152   6.042   1.915   0.215 -0.4589 -0.2940  3.1422
 6085SOL     OW19153   3.161   5.123   3.459 -0.0438 -0.4021  0.2697
 6085SOL    HW119154   3.087   5.123   3.526  0.0559  1.0495  0.4114
 6085SOL    HW219155   3.231   5.058   3.487 -0.8681 -1.1804  0.5749
 6086SOL     OW19156   3.515   0.043   2.931  0.2599 -0.0682 -0.2093
 6086SOL    HW119157   3.511   0.124   2.873  2.8686  0.1799 -0.1886
 6086SOL    HW219158   3.610   0.027   2.958  0.3218 -4.5240 -2.2165
 6087SOL     OW19159   6.170   1.809   5.038 -0.2029  0.4958 -0.3593
 6087SOL    HW119160   6.125   1.835   4.953 -0.4403 -0.0922 -0.4194
 6087SOL    HW219161   6.232   1.882   5.067  0.9601  0.1094 -1.7897
 6088SOL     OW19162   3.574   3.690   0.473 -0.7013 -0.4115 -0.0258
 6088SOL    HW119163   3.524   3.741   0.402 -1.1364  1.5868  1.6376
 6088SOL    HW219164   3.513   3.674   0.550  0.4389 -0.4335  0.8823
 6089SOL     OW19165   3.399   6.055   5.852  0.2084  0.3497 -0.4999
 6089SOL    HW119166   3.394   6.138   5.795 -2.3629  0.4546 -0.2469
 6089SOL    HW219167   3.480   6.060   5.911 -0.8425  3.6622  0.8992
 6090SOL     OW19168   6.510   3.746   4.245  0.2846  1.0170  0.3935
 6090SOL    HW119169   6.490   3.763   4.341  2.3110  1.7022  0.7425
 6090SOL    HW219170   6.598   3.787   4.221  0.1562  0.2710 -1.5856
 6091SOL     OW19171   3.511   0.454   2.975 -0.1085  0.2446  0.1643
 6091SOL    HW119172   3.595   0.475   3.025  1.0539  1.2948 -2.0876
 6091SOL    HW219173   3.446   0.529   2.985 -0.0345  0.2796  0.3915
 6092SOL     OW19174   4.585   0.868   5.079  0.2330  0.3674 -0.4006
 6092SOL    HW119175   4.553   0.846   4.987  2.5039  0.8543 -1.3811
 6092SOL    HW219176   4.540   0.951   5.111 -0.4689  0.2830 -1.1249
 6093SOL     OW19177   0.734   3.070   6.265  0.5478  0.2178 -0.0454
 6093SOL    HW119178   0.758   2.989   6.212 -0.5255  0.3649 -0.7969
 6093SOL    HW219179   0.810   3.135   6.264  2.1497 -1.4569  2.0564
 6094SOL     OW19180   1.558   5.441   1.099 -0.0165 -0.0897 -0.4840
 6094SOL    HW119181   1.503   5.362   1.126 -0.8460 -0.2312 -2.4090
 6094SOL    HW219182   1.498   5.512   1.061  0.8705  0.8445 -0.1831
 6095SOL     OW19183   4.842   4.845   2.634 -0.0129  0.7227  0.4792
 6095SOL    HW119184   4.928   4.831   2.585  0.7467  1.7930  1.4561
 6095SOL    HW219185   4.774   4.779   2.601  1.5431 -1.0126  0.5879
 6096SOL     OW19186   0.563   0.534   2.273 -0.0332  0.0012  0.6296
 6096SOL    HW119187   0.581   0.491   2.362  0.0425  0.7309  0.9750
 6096SOL    HW219188   0.473   0.577   2.275 -0.8009 -1.4892 -0.2524
 6097SOL     OW19189   1.845   5.200   2.522 -0.0929  0.2474 -0.7812
 6097SOL    HW119190   1.829   5.108   2.558  0.2056  0.4501 -0.1126
 6097SOL    HW219191   1.810   5.268   2.587 -0.2673  0.6125 -1.2448
 6098SOL     OW19192   1.228   1.588   6.172  0.2661  0.3959  0.1316
 6098SOL    HW119193   1.278   1.672   6.192  1.8800 -0.4535 -0.1331
 6098SOL    HW219194   1.293   1.512   6.164 -1.1387 -0.8691  0.2904
 6099SOL     OW19195   1.566   1.144   2.691  0.7856 -0.8555  0.3910
 6099SOL    HW119196   1.559   1.244   2.681  1.2145 -0.8019  0.6016
 6099SOL    HW219197   1.511   1.100   2.620  2.0711 -0.4833 -0.8656
 6100SOL     OW19198   6.739   2.177   6.134  0.5825  0.2121  0.0450
 6100SOL    HW119199   6.734   2.091   6.186 -1.4964  0.3053  0.0718
 6100SOL    HW219200   6.657   2.187   6.078  1.2597  1.7256 -0.7369
 6101SOL     OW19201   3.561   0.660   6.352  0.3839  0.0900  0.1914
 6101SOL    HW119202   3.625   0.583   6.361 -0.5469 -0.5616  1.6232
 6101SOL    HW219203   3.598   0.740   6.399  0.5341 -0.0358  0.2894
 6102SOL     OW19204   1.706   0.902   1.960 -0.5917 -0.8418 -0.4472
 6102SOL    HW119205   1.740   0.846   2.035  0.4979 -0.6466 -0.7768
 6102SOL    HW219206   1.688   0.995   1.994 -0.6297 -0.8996 -0.3080
 6103SOL     OW19207   4.479   2.002   3.743  0.3077 -0.3144  0.4038
 6103SOL    HW119208   4.460   1.985   3.840  0.4568 -2.8949  0.0667
 6103SOL    HW219209   4.421   2.076   3.710  2.2756  2.6643  3.0815
 6104SOL     OW19210   3.226   6.858   4.778 -0.1473 -0.0852  0.4975
 6104SOL    HW119211   3.248   6.925   4.706  0.1794  0.6794  1.2944
 6104SOL    HW219212   3.292   6.783   4.775 -0.0329  0.0288  0.1134
 6105SOL     OW19213   5.514   1.439   6.443 -1.0821  0.2598  0.4276
 6105SOL    HW119214   5.508   1.352   6.491 -0.5493  0.4825  0.9164
 6105SOL    HW219215   5.594   1.489   6.476 -2.1198  1.5219  1.1594
 6106SOL     OW19216   2.983   1.069   2.627  0.8515  0.2203  0.2216
 6106SOL    HW119217   2.999   1.161   2.591  1.3685 -0.3516 -1.0902
 6106SOL    HW219218   2.943   1.075   2.718 -0.5205  1.7367 -0.4376
 6107SOL     OW19219   2.895   3.614   3.785 -0.0722  0.4076  0.2512
 6107SOL    HW119220   2.813   3.663   3.814 -0.5644 -1.1853  1.6551
 6107SOL    HW219221   2.962   3.680   3.749 -1.9573  1.7279 -1.0094
 6108SOL     OW19222   0.992   4.410   0.384  0.2257 -0.0152 -0.3610
 6108SOL    HW119223   0.902   4.453   0.390  0.6697  1.7556 -3.7490
 6108SOL    HW219224   0.984   4.325   0.333  0.4418  0.0542 -0.5100
 6109SOL     OW19225   6.641   4.340   5.628 -0.1100  0.0021 -0.5614
 6109SOL    HW119226   6.557   4.299   5.593  0.3240 -1.3640 -0.0490
 6109SOL    HW219227   6.701   4.269   5.664  1.0255  1.0147 -0.3850
 6110SOL     OW19228   6.154   6.955   3.332 -0.2464  0.5231 -0.2012
 6110SOL    HW119229   6.219   6.920   3.265 -0.1824 -0.0142  0.1380
 6110SOL    HW219230   6.096   6.881   3.365 -0.3033  0.7875  0.3061
 6111SOL     OW19231   2.579   5.418   1.135 -0.8516 -0.0038 -0.1889
 6111SOL    HW119232   2.556   5.388   1.228 -2.5159  0.6813 -0.3346
 6111SOL    HW219233   2.642   5.495   1.139 -1.0702  0.1508  0.4005
 6112SOL     OW19234   5.146   3.559   2.101  0.2122  0.0997 -0.2506
 6112SOL    HW119235   5.115   3.546   2.007 -1.7134 -1.2161  0.4974
 6112SOL    HW219236   5.225   3.501   2.119  0.1611 -0.1685 -0.8680
 6113SOL     OW19237   0.364   5.508   1.927  0.3774  0.5710  0.2601
 6113SOL    HW119238   0.285   5.448   1.937  0.2449  1.0835  2.9449
 6113SOL    HW219239   0.333   5.604   1.927  0.8546  0.7415 -0.8295
 6114SOL     OW19240   2.408   4.352   2.118  0.2884 -0.2680 -0.2780
 6114SOL    HW119241   2.379   4.367   2.024  2.0089 -1.4219 -1.0262
 6114SOL    HW219242   2.385   4.259   2.146 -0.1937  0.0592  0.4558
 6115SOL     OW19243   6.243   5.834   4.159  0.1138  0.2238 -0.1707
 6115SOL    HW119244   6.334   5.820   4.121  0.6722 -0.9498  1.4369
 6115SOL    HW219245   6.232   5.929   4.186  1.3983  0.1178  0.8234
 6116SOL     OW19246   4.532   0.998   1.827 -0.5326 -0.1810  0.0816
 6116SOL    HW119247   4.589   0.975   1.906  0.6954 -0.6182 -0.9082
 6116SOL    HW219248   4.580   1.062   1.768  0.4896 -3.0612 -2.4936
 6117SOL     OW19249   2.247   4.973   0.751 -0.5335 -0.8092 -0.6070
 6117SOL    HW119250   2.196   4.906   0.696  1.9610 -2.5051 -1.0636
 6117SOL    HW219251   2.341   4.939   0.764 -0.0172  1.2791  1.6758
 6118SOL     OW19252   5.361   3.012   0.624  0.0372 -0.0384  0.1367
 6118SOL    HW119253   5.347   2.923   0.581  0.2671  0.1533 -0.3500
 6118SOL    HW219254   5.374   3.082   0.553  0.8014  0.2201  0.5169
 6119SOL     OW19255   2.584   0.857   3.516  0.0942  0.2666 -0.1619
 6119SOL    HW119256   2.616   0.764   3.495 -1.3641  0.2039 -2.3765
 6119SOL    HW219257   2.652   0.923   3.484  0.0002  0.0298 -0.8619
 6120SOL     OW19258   1.387   0.006   1.485  0.1114 -0.2733  0.3704
 6120SOL    HW119259   1.476   0.022   1.440 -0.5890  3.7183 -0.0120
 6120SOL    HW219260   1.316   0.000   1.415 -0.5518  2.5228  0.6910
 6121SOL     OW19261   6.504   4.993   1.185  0.4076  0.1495 -0.0128
 6121SOL    HW119262   6.437   5.066   1.168  0.3087 -0.2905 -1.6761
 6121SOL    HW219263   6.476   4.941   1.266 -1.6018 -0.3532 -0.9547
 6122SOL     OW19264   2.143   3.761   2.902  0.2957 -0.2939  0.0601
 6122SOL    HW119265   2.166   3.820   2.824 -0.7465 -0.9113 -0.7313
 6122SOL    HW219266   2.143   3.816   2.986 -0.8972  0.8958 -0.6843
 6123SOL     OW19267   5.464   1.115   6.114 -0.2280  0.0262 -0.2335
 6123SOL    HW119268   5.433   1.105   6.020 -1.4836 -1.2961  0.2691
 6123SOL    HW219269   5.503   1.028   6.146 -0.7217  0.1549  0.7569
 6124SOL     OW19270   3.313   0.773   5.425  0.0170 -0.1901  0.3539
 6124SOL    HW119271   3.245   0.701   5.435  1.2935 -1.3697  0.7823
 6124SOL    HW219272   3.332   0.814   5.515 -1.0354  1.0224  0.0475
 6125SOL     OW19273   0.721   1.596   2.179 -0.7430  0.2362 -0.5797
 6125SOL    HW119274   0.740   1.507   2.219 -2.4835 -0.3906 -1.0756
 6125SOL    HW219275   0.794   1.660   2.204  0.8720 -1.4689 -0.7387
 6126SOL     OW19276   2.932   0.601   5.130  0.2808  0.1861  0.0291
 6126SOL    HW119277   2.884   0.679   5.089  1.3760  1.1415  0.5349
 6126SOL    HW219278   3.012   0.579   5.075  0.3315 -0.1814  0.2469
 6127SOL     OW19279   2.685   1.418   0.078  0.0033  0.5493  0.0585
 6127SOL    HW119280   2.769   1.375   0.045 -0.2969  0.4425 -0.5695
 6127SOL    HW219281   2.611   1.351   0.078  0.2358  0.2097  2.0362
 6128SOL     OW19282   0.538   2.724   5.203 -0.4020  0.6144 -0.6572
 6128SOL    HW119283   0.451   2.734   5.154  0.4554  1.5020 -2.0897
 6128SOL    HW219284   0.612   2.710   5.137  0.5996  0.2949  0.5018
 6129SOL     OW19285   1.700   6.006   0.232  0.3089 -0.1386 -0.0917
 6129SOL    HW119286   1.791   5.977   0.260  0.8850  1.2469 -0.4581
 6129SOL    HW219287   1.647   5.927   0.202  1.5555 -0.8904 -0.3418
 6130SOL     OW19288   2.644   2.079   3.771  0.0947 -0.2449 -0.7989
 6130SOL    HW119289   2.640   2.019   3.691 -1.6553  1.5495 -2.1619
 6130SOL    HW219290   2.730   2.129   3.771  0.2636 -0.5285 -1.3523
 6131SOL     OW19291   0.166   1.210   1.320  0.1131 -0.1661  0.1073
 6131SOL    HW119292   0.168   1.133   1.383 -0.7500 -0.2070  0.1048
 6131SOL    HW219293   0.252   1.215   1.269  0.3764 -0.8044  0.4869
 6132SOL     OW19294   4.344   4.628   4.459  0.5769  0.7302 -0.1930
 6132SOL    HW119295   4.418   4.561   4.449 -0.8756 -0.6054 -4.2021
 6132SOL    HW219296   4.274   4.592   4.521 -0.6661 -2.2937 -3.0177
 6133SOL     OW19297   5.319   6.966   4.195  0.4659  0.0190  0.0538
 6133SOL    HW119298   5.312   7.053   4.145 -2.6440 -0.4235 -0.4915
 6133SOL    HW219299   5.368   6.982   4.281 -1.1511  2.6916  0.6253
 6134SOL     OW19300   4.153   0.327   2.505 -0.1986  0.1962  0.0285
 6134SOL    HW119301   4.055   0.306   2.512 -0.2037 -0.2790 -1.2826
 6134SOL    HW219302   4.202   0.247   2.472  0.5650  0.6035  0.1597
 6135SOL     OW19303   2.473   6.418   3.367  0.2249  0.1321  0.0747
 6135SOL    HW119304   2.537   6.403   3.442  1.3451 -0.2002 -0.9172
 6135SOL    HW219305   2.399   6.351   3.373 -0.0120  0.4735  1.1986
 6136SOL     OW19306   5.982   2.688   4.966  0.1413  0.1781 -0.0946
 6136SOL    HW119307   5.915   2.720   5.032  0.7696  0.4410  0.4185
 6136SOL    HW219308   5.980   2.588   4.961 -2.0607  0.2399 -1.9459
 6137SOL     OW19309   1.953   5.874   4.923 -0.0426  0.0808  0.2681
 6137SOL    HW119310   1.879   5.931   4.961 -0.7038 -1.7814  1.9240
 6137SOL    HW219311   2.040   5.901   4.965 -0.1773  0.5208  0.2770
 6138SOL     OW19312   0.756   6.706   3.154  0.0015  0.1420 -0.4311
 6138SOL    HW119313   0.823   6.708   3.228  0.3310 -1.0299 -0.6788
 6138SOL    HW219314   0.709   6.794   3.150 -0.7363 -0.0646  1.8295
 6139SOL     OW19315   1.669   3.858   6.047  0.1863 -0.0122 -0.0665
 6139SOL    HW119316   1.634   3.950   6.067  1.7370  0.4470  0.6413
 6139SOL    HW219317   1.604   3.790   6.082  0.2657  0.8072  1.7645
 6140SOL     OW19318   5.864   5.641   0.691  0.6089 -0.1498  0.0774
 6140SOL    HW119319   5.857   5.740   0.691  1.5096 -0.0698 -0.6620
 6140SOL    HW219320   5.896   5.610   0.601 -0.4684 -1.1794  0.0132
 6141SOL     OW19321   3.287   0.800   3.711 -0.3105  0.1465  0.0361
 6141SOL    HW119322   3.376   0.757   3.696 -0.6121 -0.3319 -0.4013
 6141SOL    HW219323   3.237   0.750   3.782 -0.2422  0.3980  0.2623
 6142SOL     OW19324   1.732   6.436   6.797 -0.0925 -0.1866  0.7557
 6142SOL    HW119325   1.671   6.495   6.744  1.6229  2.4562  1.5137
 6142SOL    HW219326   1.679   6.362   6.838 -1.9912 -0.5462 -2.0613
 6143SOL     OW19327   5.012   1.759   3.167 -0.4233  0.2484  0.0495
 6143SOL    HW119328   5.091   1.709   3.201 -0.3705 -0.8888 -1.6339
 6143SOL    HW219329   4.931   1.702   3.171 -0.8334  0.8331  0.2390
 6144SOL     OW19330   6.639   0.721   0.560 -0.1335  0.2284 -0.3659
 6144SOL    HW119331   6.654   0.787   0.486  0.6173 -0.6313 -1.0008
 6144SOL    HW219332   6.716   0.724   0.623  1.2275 -1.7964 -1.7906
 6145SOL     OW19333   2.071   3.241   4.954 -0.1571 -0.2867  0.4951
 6145SOL    HW119334   2.121   3.164   4.993  0.6394 -0.1763 -0.3072
 6145SOL    HW219335   2.070   3.235   4.854 -1.9245 -0.3988  0.4731
 6146SOL     OW19336   4.814   5.130   2.657  0.1990 -0.5597  0.6998
 6146SOL    HW119337   4.890   5.158   2.715 -0.3711 -0.6767  1.5061
 6146SOL    HW219338   4.806   5.031   2.656 -0.8051 -0.5064  1.7488
 6147SOL     OW19339   2.631   5.107   3.996 -0.5562 -0.4638  0.1126
 6147SOL    HW119340   2.696   5.032   3.981 -0.7705 -0.6508  0.1039
 6147SOL    HW219341   2.550   5.092   3.941 -0.5618 -0.1725  0.0400
 6148SOL     OW19342   3.860   6.562   1.798 -0.0415  0.3836  0.3776
 6148SOL    HW119343   3.891   6.650   1.762 -0.4785  1.0927  1.7023
 6148SOL    HW219344   3.891   6.551   1.892  0.0816 -0.9265  0.2049
 6149SOL     OW19345   5.385   3.036   2.666 -0.1199  0.1681 -0.7221
 6149SOL    HW119346   5.364   3.080   2.579 -1.9693  0.2272 -0.2751
 6149SOL    HW219347   5.304   3.034   2.724  1.6997  2.7575  2.2156
 6150SOL     OW19348   0.203   6.996   0.804 -0.1242 -0.7368  0.7449
 6150SOL    HW119349   0.148   7.008   0.886 -0.2831 -0.8583  0.6565
 6150SOL    HW219350   0.271   6.924   0.819  1.3081  0.7180  1.5248
 6151SOL     OW19351   2.274   4.587   5.926  0.2687  0.5584  0.2620
 6151SOL    HW119352   2.220   4.669   5.909 -0.3838  0.2043  0.5759
 6151SOL    HW219353   2.337   4.571   5.850 -0.0984  0.9609 -0.1260
 6152SOL     OW19354   2.342   4.866   6.697  0.5045 -0.0021  0.0693
 6152SOL    HW119355   2.337   4.772   6.730 -0.4858 -0.5149 -1.4354
 6152SOL    HW219356   2.329   4.868   6.598  0.2750  1.7388  0.0943
 6153SOL     OW19357   4.295   5.987   0.176 -0.3028  0.0003  0.0856
 6153SOL    HW119358   4.253   5.983   0.085 -0.7338  1.0544  0.2260
 6153SOL    HW219359   4.331   5.897   0.200 -0.0923 -0.2762 -1.1729
 6154SOL     OW19360   6.203   1.000   3.306 -0.1861 -0.0245 -0.1407
 6154SOL    HW119361   6.194   0.996   3.406  0.0847 -3.0708 -0.1286
 6154SOL    HW219362   6.299   0.988   3.281 -0.5242 -1.6399 -0.7573
 6155SOL     OW19363   0.598   5.354   1.979  0.7362 -0.0982 -0.0199
 6155SOL    HW119364   0.583   5.275   1.919  1.7393  0.2629 -0.7781
 6155SOL    HW219365   0.522   5.418   1.967 -0.1455 -0.9746  0.6860
 6156SOL     OW19366   6.144   1.030   4.188  0.2373  0.8512  0.1021
 6156SOL    HW119367   6.205   0.953   4.210  2.3077  2.5306  0.6279
 6156SOL    HW219368   6.050   0.997   4.183  1.0338 -1.7133  0.2229
 6157SOL     OW19369   0.280   6.384   3.504  0.2682 -0.1806 -0.0421
 6157SOL    HW119370   0.235   6.417   3.421  1.4938  0.6580 -0.4038
 6157SOL    HW219371   0.249   6.439   3.582 -0.1838 -0.3591 -0.0916
 6158SOL     OW19372   4.904   0.065   6.720  0.1905  0.3099 -0.0845
 6158SOL    HW119373   4.883   0.093   6.626  2.0429  0.9767 -0.3489
 6158SOL    HW219374   4.822   0.029   6.764 -0.6682 -0.2313 -2.0332
 6159SOL     OW19375   2.940   1.965   6.172  0.6934  0.4500 -0.7120
 6159SOL    HW119376   2.849   1.925   6.188  1.6887 -1.8711 -0.5180
 6159SOL    HW219377   2.938   2.019   6.088 -0.8053  0.3065 -0.8021
 6160SOL     OW19378   1.398   3.689   2.385  0.0601  0.1438  0.2277
 6160SOL    HW119379   1.471   3.699   2.453  0.9614 -1.7313 -0.3920
 6160SOL    HW219380   1.391   3.774   2.332  0.7767  0.8742  1.2510
 6161SOL     OW19381   1.120   5.932   6.496  0.1853  0.0475  0.6903
 6161SOL    HW119382   1.107   6.031   6.495  2.2711  0.3519  0.0643
 6161SOL    HW219383   1.183   5.908   6.570  0.8646 -0.6238 -0.0898
 6162SOL     OW19384   1.307   1.543   6.671  0.3643 -0.1794  0.1700
 6162SOL    HW119385   1.277   1.480   6.600 -1.0427  2.0691 -1.3531
 6162SOL    HW219386   1.228   1.569   6.728  1.4640 -2.0203  2.7606
 6163SOL     OW19387   3.283   3.379   1.116 -0.1855  0.4440 -0.2059
 6163SOL    HW119388   3.190   3.369   1.080 -0.2609  1.3228 -0.2694
 6163SOL    HW219389   3.343   3.312   1.071 -0.4472  0.9727 -1.3824
 6164SOL     OW19390   2.523   3.376   6.679 -0.0852  0.8029 -0.0716
 6164SOL    HW119391   2.609   3.352   6.635  0.1027  1.1989  0.0738
 6164SOL    HW219392   2.541   3.407   6.773 -0.5773 -1.2543  0.7613
 6165SOL     OW19393   4.410   6.679   0.987  0.4338  0.0918  0.7073
 6165SOL    HW119394   4.316   6.704   1.011  0.4925  2.2484 -1.0074
 6165SOL    HW219395   4.464   6.762   0.974  2.3016 -1.0913  0.5710
 6166SOL     OW19396   1.984   1.032   4.665  0.6351 -0.2693 -0.3392
 6166SOL    HW119397   1.935   1.041   4.752  1.0448  1.4462 -0.2533
 6166SOL    HW219398   2.081   1.019   4.683  0.7880  0.5551 -0.5244
 6167SOL     OW19399   3.580   2.517   5.717 -0.1453 -0.0528  0.4811
 6167SOL    HW119400   3.664   2.555   5.756 -1.3623  0.6761  2.5402
 6167SOL    HW219401   3.602   2.435   5.665  1.8638  0.2727  0.7423
 6168SOL     OW19402   2.556   1.165   2.951  0.4333  0.0628 -0.1800
 6168SOL    HW119403   2.625   1.231   2.921  0.0139  0.3902 -0.4269
 6168SOL    HW219404   2.472   1.179   2.899  0.0700 -0.1117  0.3546
 6169SOL     OW19405   1.826   6.820   1.382  0.0941  0.5091 -0.4026
 6169SOL    HW119406   1.850   6.827   1.479 -0.8214 -0.0593 -0.1313
 6169SOL    HW219407   1.816   6.724   1.356  0.6984  0.6365 -1.1618
 6170SOL     OW19408   0.002   4.686   1.382  0.4169 -0.5799  0.2464
 6170SOL    HW119409  -0.007   4.754   1.309 -0.1291 -0.2232  0.6413
 6170SOL    HW219410  -0.043   4.601   1.354  3.5476 -1.8610 -1.4972
 6171SOL     OW19411   5.333   5.934   0.997 -0.1381  0.1553  0.4335
 6171SOL    HW119412   5.249   5.988   1.002  0.1381  0.6464 -0.1712
 6171SOL    HW219413   5.324   5.864   0.926  0.6765  1.4869 -1.0325
 6172SOL     OW19414   6.538   2.851   4.629 -0.1391 -0.3300 -0.6657
 6172SOL    HW119415   6.586   2.907   4.697 -1.8708  1.3225 -0.7121
 6172SOL    HW219416   6.529   2.903   4.544 -0.2188 -1.4020 -1.3266
 6173SOL     OW19417   0.930   0.979   4.695  0.0137  0.5128 -0.0889
 6173SOL    HW119418   0.901   0.964   4.600  2.2865 -0.9619 -0.6124
 6173SOL    HW219419   1.013   1.034   4.697 -0.4258  1.1745  1.1279
 6174SOL     OW19420   0.868   1.765   4.547 -0.1199  0.0264 -0.2977
 6174SOL    HW119421   0.794   1.723   4.600  1.0186 -1.6825 -0.0030
 6174SOL    HW219422   0.832   1.844   4.497 -2.0021 -0.4157  0.2856
 6175SOL     OW19423   4.015   5.434   0.721 -0.2705 -0.0100  1.0088
 6175SOL    HW119424   4.050   5.366   0.657  0.4986 -1.1406  2.5608
 6175SOL    HW219425   3.937   5.396   0.772 -1.4123  1.1652  0.2064
 6176SOL     OW19426   0.773   4.313   3.145 -0.3619  0.2667 -0.8016
 6176SOL    HW119427   0.703   4.242   3.152  0.6790 -0.7252 -0.0348
 6176SOL    HW219428   0.803   4.321   3.050 -0.0252 -0.8003 -0.7983
 6177SOL     OW19429   0.505   6.909   5.458 -0.0328 -0.4195 -0.3639
 6177SOL    HW119430   0.602   6.893   5.478  0.6144  1.4365 -1.7426
 6177SOL    HW219431   0.484   6.873   5.367 -1.0706 -2.1267  0.4856
 6178SOL     OW19432   0.531   3.141   6.009  0.1575  0.3899  0.0961
 6178SOL    HW119433   0.559   3.045   6.020  0.2549  0.5302  1.1289
 6178SOL    HW219434   0.581   3.198   6.073  3.1000  1.7708 -3.1383
 6179SOL     OW19435   6.941   3.314   3.062  0.3776  0.1859  0.0697
 6179SOL    HW119436   6.960   3.402   3.020 -0.0578  0.6318  0.7937
 6179SOL    HW219437   6.970   3.241   3.000  1.1971  0.8302 -0.3276
 6180SOL     OW19438   4.463   5.904   5.309  0.0310  0.2195 -0.1504
 6180SOL    HW119439   4.510   5.961   5.242  2.2009  0.1245  1.1762
 6180SOL    HW219440   4.473   5.945   5.400 -0.6174 -0.9507  0.4657
 6181SOL     OW19441   5.902   3.372   1.849 -0.0219 -0.0623 -0.7226
 6181SOL    HW119442   5.855   3.364   1.937  0.6236 -0.1543 -0.3790
 6181SOL    HW219443   5.941   3.464   1.841  2.0742 -0.8063  0.2106
 6182SOL     OW19444   4.229   6.134   2.992  0.4904 -0.2261 -0.1779
 6182SOL    HW119445   4.288   6.205   3.030 -2.0934  2.4502 -0.7280
 6182SOL    HW219446   4.241   6.130   2.893 -0.0903  0.2628 -0.2805
 6183SOL     OW19447   3.884   5.231   3.815 -0.7503  0.4591 -0.4697
 6183SOL    HW119448   3.936   5.302   3.767  1.0673 -0.8067 -0.4456
 6183SOL    HW219449   3.924   5.141   3.796 -1.4012 -0.3173  1.5647
 6184SOL     OW19450   6.166   6.913   4.723  0.2518 -0.1749 -0.2138
 6184SOL    HW119451   6.070   6.931   4.704  0.5103  1.0972 -0.4614
 6184SOL    HW219452   6.193   6.827   4.680 -1.2598 -1.6197  1.6018
 6185SOL     OW19453   0.300   0.498   3.448 -0.1782  0.4587  0.3914
 6185SOL    HW119454   0.246   0.583   3.445 -1.2824 -0.2504 -0.7048
 6185SOL    HW219455   0.239   0.420   3.453  0.8425 -0.2948  1.8287
 6186SOL     OW19456   0.802   3.293   0.545 -0.1326  0.4034  0.0832
 6186SOL    HW119457   0.817   3.220   0.612 -0.3658 -1.6542 -1.9702
 6186SOL    HW219458   0.710   3.284   0.506  0.4870  0.6428 -1.5060
 6187SOL     OW19459   4.396   4.978   5.717 -0.6963 -0.1653 -0.0616
 6187SOL    HW119460   4.301   5.005   5.734 -0.6438  0.9958 -1.4551
 6187SOL    HW219461   4.451   4.998   5.799 -1.1253  1.8785 -0.2195
 6188SOL     OW19462   2.068   2.444   3.471  0.1476  0.3654 -0.8366
 6188SOL    HW119463   1.987   2.501   3.481 -1.0042 -1.2654 -0.4286
 6188SOL    HW219464   2.053   2.377   3.398  0.8756 -0.3374 -0.3607
 6189SOL     OW19465   0.937   5.301   4.842  0.3940 -0.1460 -0.1191
 6189SOL    HW119466   0.995   5.345   4.911  0.6862  0.2587 -0.6195
 6189SOL    HW219467   0.972   5.210   4.822  1.2458  0.3345 -0.8816
 6190SOL     OW19468   1.143   2.371   3.883 -0.1932  0.8284 -0.2885
 6190SOL    HW119469   1.240   2.353   3.898  1.1293  4.9642 -2.2093
 6190SOL    HW219470   1.115   2.449   3.939 -1.9992  0.6501 -0.8858
 6191SOL     OW19471   4.035   0.074   6.699 -0.0791 -0.3768 -0.3073
 6191SOL    HW119472   3.999   0.154   6.650  0.2024  0.2637  0.5003
 6191SOL    HW219473   4.132   0.088   6.717 -0.0138 -0.9365 -0.2054
 6192SOL     OW19474   5.734   6.818   3.868 -0.3004 -0.0567  0.0434
 6192SOL    HW119475   5.688   6.890   3.920 -1.0835  0.7736 -1.7236
 6192SOL    HW219476   5.675   6.738   3.861 -0.6056  0.1973 -0.3672
 6193SOL     OW19477   1.817   6.723   3.593 -0.2157  0.1399 -0.2709
 6193SOL    HW119478   1.759   6.650   3.627  0.6923 -0.3929  0.1835
 6193SOL    HW219479   1.761   6.801   3.566 -1.0957 -0.1971  0.5398
 6194SOL     OW19480   4.034   0.464   2.977  0.9605  0.3730  0.0787
 6194SOL    HW119481   4.095   0.492   2.902 -0.2288  1.8059 -0.4006
 6194SOL    HW219482   4.072   0.383   3.022  1.3308 -1.0553 -2.5758
 6195SOL     OW19483   4.829   5.270   1.237 -0.4224 -0.5850  0.2562
 6195SOL    HW119484   4.823   5.353   1.293  0.0783 -0.6475  0.4001
 6195SOL    HW219485   4.862   5.194   1.293  2.1829 -0.1670 -0.5905
 6196SOL     OW19486   5.424   5.271   0.851  0.0407  0.0224  0.5774
 6196SOL    HW119487   5.412   5.203   0.924 -1.5055 -1.6148 -1.1066
 6196SOL    HW219488   5.512   5.256   0.807  1.0160  1.0567  2.0591
 6197SOL     OW19489   5.052   4.756   4.280 -0.3263  0.3162 -0.2353
 6197SOL    HW119490   5.038   4.682   4.345 -1.1248 -0.5433 -1.3394
 6197SOL    HW219491   5.142   4.797   4.295  0.6786 -1.7186 -0.3894
 6198SOL     OW19492   1.276   3.005   2.191 -0.2989  0.1810  0.0566
 6198SOL    HW119493   1.352   3.057   2.153 -2.1972  0.9730 -2.9856
 6198SOL    HW219494   1.277   2.912   2.154 -0.5312  0.0422  0.3962
 6199SOL     OW19495   1.098   5.155   5.410 -0.5068  0.1014  0.5627
 6199SOL    HW119496   1.071   5.151   5.314  0.7099  0.8553  0.1696
 6199SOL    HW219497   1.184   5.106   5.423 -0.3965  0.4407  1.1686
 6200SOL     OW19498   1.752   0.724   0.752  0.5184 -0.2031 -0.3177
 6200SOL    HW119499   1.715   0.632   0.739 -2.2966  0.8978 -0.8579
 6200SOL    HW219500   1.784   0.735   0.846 -2.4747 -0.7005  0.8553
 6201SOL     OW19501   5.498   3.165   5.912  0.6535 -0.4286  0.6411
 6201SOL    HW119502   5.558   3.156   5.832  1.2089  0.4238  0.9503
 6201SOL    HW219503   5.553   3.164   5.995  0.1280 -0.7478  0.9891
 6202SOL     OW19504   6.218   2.667   3.625 -0.4743  0.3650  0.5440
 6202SOL    HW119505   6.280   2.741   3.600  0.8569 -1.1079 -0.7428
 6202SOL    HW219506   6.263   2.605   3.688 -0.2697 -1.1461 -1.0056
 6203SOL     OW19507   5.604   0.741   2.453  0.4137 -0.2404 -0.1508
 6203SOL    HW119508   5.555   0.687   2.384 -0.9102  0.3096  0.3211
 6203SOL    HW219509   5.552   0.741   2.538  2.0529 -0.9627  0.9111
 6204SOL     OW19510   1.750   4.047   4.068 -0.1521 -0.3692 -0.4157
 6204SOL    HW119511   1.706   4.036   3.979  1.9186 -0.1930 -1.5357
 6204SOL    HW219512   1.817   4.121   4.063  0.5365 -0.8526  1.0738
 6205SOL     OW19513   0.983   4.249   3.899  0.1658 -0.1649  0.3819
 6205SOL    HW119514   0.904   4.191   3.912  2.1354 -2.9944  0.6188
 6205SOL    HW219515   0.961   4.322   3.834 -2.2267 -1.6467 -0.5740
 6206SOL     OW19516   2.540   6.020   4.004 -0.4360  0.5852  0.7041
 6206SOL    HW119517   2.594   5.952   4.053 -1.0482  1.0311  2.0572
 6206SOL    HW219518   2.595   6.102   3.988 -0.1683  0.3553  0.4423
 6207SOL     OW19519   3.884   3.291   3.927  0.6586  0.1947  0.5870
 6207SOL    HW119520   3.793   3.303   3.968  0.7062 -0.3034  0.8439
 6207SOL    HW219521   3.944   3.243   3.992  0.9384  0.0093  0.1956
 6208SOL     OW19522   1.668   4.184   0.773  0.1811 -0.0993  0.6283
 6208SOL    HW119523   1.673   4.284   0.775  0.8406 -0.0191 -1.6228
 6208SOL    HW219524   1.596   4.152   0.834 -0.7432  1.8201  0.6083
 6209SOL     OW19525   1.005   1.536   1.015 -0.0356  0.2532 -0.3679
 6209SOL    HW119526   0.906   1.545   1.012 -0.2221 -0.9863  0.9643
 6209SOL    HW219527   1.048   1.624   0.995 -1.4294  1.0765  0.1665
 6210SOL     OW19528   3.887   0.250   2.510 -0.2634  0.2350 -0.2945
 6210SOL    HW119529   3.844   0.214   2.428 -0.5774  1.6795 -0.8027
 6210SOL    HW219530   3.821   0.308   2.559  0.3863  0.5999  0.1595
 6211SOL     OW19531   6.503   1.314   5.264 -0.0479 -0.0825 -0.0204
 6211SOL    HW119532   6.477   1.357   5.351 -0.7671 -2.3662  0.9713
 6211SOL    HW219533   6.434   1.334   5.195 -1.0065 -0.5787  0.7625
 6212SOL     OW19534   3.820   6.764   0.723 -0.1843 -0.4152  0.2504
 6212SOL    HW119535   3.790   6.674   0.692 -1.0844  0.4975 -1.6926
 6212SOL    HW219536   3.752   6.801   0.787  0.9171 -1.6667  2.2414
 6213SOL     OW19537   6.751   3.876   0.732  0.1909 -0.3635  0.1165
 6213SOL    HW119538   6.775   3.944   0.663 -1.3693 -0.5067 -0.5915
 6213SOL    HW219539   6.778   3.785   0.699  1.6993 -0.1943  0.7938
 6214SOL     OW19540   2.384   3.438   5.944  0.1081 -0.6835  0.1277
 6214SOL    HW119541   2.359   3.524   5.988 -1.6874 -1.2428  0.2573
 6214SOL    HW219542   2.316   3.415   5.874  0.9990 -1.6023 -0.4688
 6215SOL     OW19543   2.239   6.192   2.218  0.3189  0.1075  0.3855
 6215SOL    HW119544   2.272   6.149   2.302 -1.8713  1.4669  2.0449
 6215SOL    HW219545   2.314   6.241   2.174  1.9304 -2.0751  0.5183
 6216SOL     OW19546   3.728   2.084   1.794  0.0560 -0.8785  0.2516
 6216SOL    HW119547   3.696   2.166   1.842 -0.0255 -0.0791 -1.1213
 6216SOL    HW219548   3.701   2.089   1.698  1.1526 -1.9283 -0.1382
 6217SOL     OW19549   3.646   2.628   5.350 -0.1333  0.1843  0.7018
 6217SOL    HW119550   3.567   2.649   5.293  1.5395  0.9912 -1.4364
 6217SOL    HW219551   3.640   2.681   5.435 -0.4752  2.5609 -0.7047
 6218SOL     OW19552   3.137   0.192   4.874 -0.3773 -0.1956  0.0399
 6218SOL    HW119553   3.099   0.184   4.782 -0.5572  0.9632  0.0061
 6218SOL    HW219554   3.125   0.285   4.908 -0.1494 -0.5576  1.1699
 6219SOL     OW19555   0.979   1.430   4.883  0.6981 -0.0107  0.2314
 6219SOL    HW119556   0.997   1.506   4.820  0.6073 -0.6337 -0.5637
 6219SOL    HW219557   0.902   1.453   4.942  0.7254  0.5469  0.0541
 6220SOL     OW19558   5.908   6.770   1.814 -0.2357 -0.6752 -0.1169
 6220SOL    HW119559   5.876   6.686   1.856 -2.7636  0.1856 -0.1742
 6220SOL    HW219560   5.887   6.769   1.717  0.2242 -0.1886 -0.2270
 6221SOL     OW19561   4.429   5.651   5.324  0.4534  0.5423 -0.1018
 6221SOL    HW119562   4.418   5.750   5.314 -0.3599  0.6471  1.5106
 6221SOL    HW219563   4.513   5.631   5.373  2.1352  0.2345 -2.8617
 6222SOL     OW19564   3.103   1.237   1.182 -0.0482 -0.0212  0.1368
 6222SOL    HW119565   3.042   1.193   1.248 -0.4624  0.2959 -0.0319
 6222SOL    HW219566   3.163   1.301   1.230 -0.4406  0.3098  0.1959
 6223SOL     OW19567   5.425   4.438   4.610 -0.5647  0.2366  0.3601
 6223SOL    HW119568   5.436   4.513   4.545  2.9363 -0.6786 -0.2754
 6223SOL    HW219569   5.337   4.448   4.656 -1.5243  3.0543 -1.7418
 6224SOL     OW19570   3.935   4.249   0.512  0.1851 -0.5476 -0.0474
 6224SOL    HW119571   3.956   4.345   0.534  1.9754 -0.6518 -1.0843
 6224SOL    HW219572   3.846   4.225   0.551 -0.6067  1.7107 -0.2871
 6225SOL     OW19573   6.745   0.616   4.980  0.5352 -0.1897  0.5661
 6225SOL    HW119574   6.709   0.700   5.022  0.3138  0.6516 -1.1736
 6225SOL    HW219575   6.845   0.620   4.976  0.4693  1.0147 -1.3463
 6226SOL     OW19576   3.991   6.094   4.476 -0.0576  0.1540  0.3047
 6226SOL    HW119577   4.059   6.093   4.403 -1.8357 -1.3613 -1.4636
 6226SOL    HW219578   3.917   6.157   4.452 -0.3849  0.0798  1.0799
 6227SOL     OW19579   4.652   3.714   5.912 -0.2594  0.6268  0.2196
 6227SOL    HW119580   4.719   3.678   5.847 -0.7121  1.9779 -1.0478
 6227SOL    HW219581   4.686   3.801   5.949 -0.9611  0.9276  0.1663
 6228SOL     OW19582   4.136   1.759   2.465 -0.2988  0.0543  0.3653
 6228SOL    HW119583   4.200   1.745   2.541  1.0945  2.5592 -0.2350
 6228SOL    HW219584   4.183   1.744   2.378 -2.0131 -3.2951 -0.1318
 6229SOL     OW19585   5.240   4.595   0.178 -0.1262  0.1242 -0.2985
 6229SOL    HW119586   5.314   4.580   0.112 -0.6368 -0.5537 -0.7312
 6229SOL    HW219587   5.202   4.506   0.206 -1.1135  0.4844 -0.4616
 6230SOL     OW19588   4.964   3.584   3.921 -0.0751 -0.5008 -0.1541
 6230SOL    HW119589   4.939   3.627   4.008 -0.8851 -1.9690  0.3634
 6230SOL    HW219590   5.063   3.566   3.920 -0.1226 -0.8710  0.6587
 6231SOL     OW19591   3.409   6.696   5.651 -0.4972 -0.0142 -0.1580
 6231SOL    HW119592   3.429   6.631   5.578  0.7676 -1.9699  1.8201
 6231SOL    HW219593   3.328   6.666   5.701  0.6165 -0.6469  1.3355
 6232SOL     OW19594   2.684   5.597   3.710  0.3319  0.1093  0.0738
 6232SOL    HW119595   2.609   5.663   3.715 -0.0345 -0.3390  0.6972
 6232SOL    HW219596   2.647   5.504   3.709  0.8715 -0.1097  0.1042
 6233SOL     OW19597   1.395   0.650   3.055  0.4377  0.2805 -0.5297
 6233SOL    HW119598   1.448   0.734   3.065  0.2879  0.4415 -1.1061
 6233SOL    HW219599   1.326   0.662   2.985 -1.8959  0.8537  1.7040
 6234SOL     OW19600   5.217   4.448   2.749 -0.3308  0.0553 -0.1901
 6234SOL    HW119601   5.157   4.510   2.698 -0.0539 -0.0833 -0.6964
 6234SOL    HW219602   5.292   4.418   2.689 -0.7748 -1.2305 -0.1222
 6235SOL     OW19603   6.932   3.529   2.628  0.1331 -0.4734  0.2596
 6235SOL    HW119604   7.017   3.561   2.588  0.4525 -0.5003  0.9111
 6235SOL    HW219605   6.913   3.436   2.597  0.3181 -0.4505  0.0793
 6236SOL     OW19606   6.223   5.980   5.755 -0.2001 -0.1539  0.7060
 6236SOL    HW119607   6.293   5.954   5.688 -0.5021 -0.2116  0.4130
 6236SOL    HW219608   6.265   5.985   5.846  0.0723 -0.6871  0.6114
 6237SOL     OW19609   3.012   2.032   5.018 -0.5872  0.1028  0.6528
 6237SOL    HW119610   3.073   2.107   4.991 -1.6736  1.4565  1.8217
 6237SOL    HW219611   2.917   2.058   5.000 -0.9446 -1.3880  0.2457
 6238SOL     OW19612   1.387   6.427   6.623 -0.2182  0.3028 -0.6907
 6238SOL    HW119613   1.418   6.355   6.686 -0.4135  0.0363 -0.8980
 6238SOL    HW219614   1.457   6.498   6.618 -0.0152  0.1213 -0.4933
 6239SOL     OW19615   0.461   3.681   5.515 -0.4943  0.2852  0.1215
 6239SOL    HW119616   0.447   3.596   5.465  2.0367  0.4155 -0.9465
 6239SOL    HW219617   0.406   3.680   5.599 -0.6698 -2.2985  0.0494
 6240SOL     OW19618   3.688   3.007   3.180 -0.2896  0.0948  0.1422
 6240SOL    HW119619   3.697   3.016   3.080 -1.2447  1.8855  0.1793
 6240SOL    HW219620   3.598   2.969   3.201  0.6510 -2.2028  0.3035
 6241SOL     OW19621   3.078   5.509   0.738 -0.2838  0.0368  1.4137
 6241SOL    HW119622   3.177   5.495   0.747 -0.0908 -1.2407 -1.5792
 6241SOL    HW219623   3.030   5.424   0.757 -0.7477  0.3956  1.8836
 6242SOL     OW19624   2.415   0.926   5.961 -0.2738 -0.1011  0.2608
 6242SOL    HW119625   2.491   0.892   5.906 -0.9901 -1.2727 -0.0279
 6242SOL    HW219626   2.379   0.852   6.017  0.4273  1.0614  2.3349
 6243SOL     OW19627   0.492   5.609   4.158  0.4222  0.3668  0.2758
 6243SOL    HW119628   0.569   5.670   4.177 -0.2486  1.3234 -0.0089
 6243SOL    HW219629   0.412   5.639   4.208  0.0726 -0.2860  0.1253
 6244SOL     OW19630   5.917   4.055   5.572  0.6337 -0.2949 -0.3086
 6244SOL    HW119631   5.992   4.067   5.508  0.2202 -0.0559 -0.7579
 6244SOL    HW219632   5.832   4.039   5.521  0.1986  0.4639  0.1637
 6245SOL     OW19633   2.972   4.776   0.869  0.5585  0.0550 -0.0134
 6245SOL    HW119634   3.011   4.686   0.888  0.5753 -0.2331 -1.3224
 6245SOL    HW219635   3.043   4.846   0.880  0.7397 -0.1691  0.2630
 6246SOL     OW19636   0.822   4.758   0.107  0.2372  0.3834  0.1863
 6246SOL    HW119637   0.918   4.775   0.129 -0.1483 -0.0338  2.3723
 6246SOL    HW219638   0.795   4.668   0.141 -0.6260 -0.0859 -1.5781
 6247SOL     OW19639   1.697   5.576   4.214 -0.4577 -0.5062 -0.5744
 6247SOL    HW119640   1.597   5.579   4.226 -0.3977  1.0725 -0.1942
 6247SOL    HW219641   1.741   5.623   4.290  0.4735  0.3817 -1.6207
 6248SOL     OW19642   6.175   2.231   5.049  0.2567  0.4394 -0.3970
 6248SOL    HW119643   6.242   2.167   5.085  0.3367  0.4894 -0.4551
 6248SOL    HW219644   6.171   2.223   4.949  1.1996  1.4208 -0.5314
 6249SOL     OW19645   6.543   6.994   1.028 -0.3059  0.2289 -0.3312
 6249SOL    HW119646   6.532   7.091   1.005  0.2206  0.1894 -0.7719
 6249SOL    HW219647   6.541   6.983   1.128  3.4523  1.2482  0.0337
 6250SOL     OW19648   5.853   5.633   6.103  0.6323 -0.2635 -0.5076
 6250SOL    HW119649   5.916   5.663   6.031  0.6171  0.3615 -0.2724
 6250SOL    HW219650   5.817   5.714   6.150  0.3897 -0.6566 -0.0180
 6251SOL     OW19651   0.215   4.257   6.940  0.4811 -0.4670 -0.0332
 6251SOL    HW119652   0.237   4.184   7.005  0.1262  0.5229  1.2515
 6251SOL    HW219653   0.177   4.335   6.990  1.2747  0.7782 -1.2907
 6252SOL     OW19654   6.498   6.576   3.333 -0.4498 -0.4014 -0.2439
 6252SOL    HW119655   6.407   6.580   3.375 -0.1068  0.3583  0.4808
 6252SOL    HW219656   6.510   6.490   3.284 -1.8182 -0.2074 -0.9604
 6253SOL     OW19657   3.820   5.448   1.853  0.2650 -0.1039 -0.2394
 6253SOL    HW119658   3.778   5.481   1.938  0.8223 -0.5717  0.2250
 6253SOL    HW219659   3.871   5.364   1.872  0.1144 -0.3993 -1.1065
 6254SOL     OW19660   0.495   4.749   3.185  0.4487  0.0768 -0.0080
 6254SOL    HW119661   0.489   4.752   3.285  0.4234  0.7185 -0.0260
 6254SOL    HW219662   0.408   4.719   3.148 -0.1729  1.6347  0.0934
 6255SOL     OW19663   3.454   6.602   2.155 -0.4911 -0.1192  0.4516
 6255SOL    HW119664   3.543   6.610   2.111  1.4953 -0.2746  4.0930
 6255SOL    HW219665   3.419   6.694   2.174  0.2848 -0.0227  1.4941
 6256SOL     OW19666   6.546   6.572   5.856 -0.3871  0.2565 -0.2387
 6256SOL    HW119667   6.466   6.628   5.877  0.1574  0.6723  0.7871
 6256SOL    HW219668   6.558   6.503   5.926 -0.5877 -0.6552 -1.0824
 6257SOL     OW19669   3.824   6.589   3.602  0.3653  0.2077 -0.1109
 6257SOL    HW119670   3.869   6.641   3.674  1.5793  0.1912 -0.8259
 6257SOL    HW219671   3.731   6.566   3.630  0.8612  0.0479  1.5124
 6258SOL     OW19672   6.699   3.022   1.273 -0.2789 -0.3191 -0.5618
 6258SOL    HW119673   6.699   3.109   1.225 -1.1307 -0.1007 -0.1863
 6258SOL    HW219674   6.743   2.952   1.216 -0.7089  0.0778 -1.3924
 6259SOL     OW19675   6.843   0.713   1.984 -0.4833 -0.2974 -0.1322
 6259SOL    HW119676   6.866   0.658   1.904  3.8403  1.7226 -0.5631
 6259SOL    HW219677   6.883   0.671   2.066  0.7721  0.8483 -0.1123
 6260SOL     OW19678   1.456   3.827   5.440  0.0963  0.4862  0.1638
 6260SOL    HW119679   1.507   3.911   5.459 -1.1673  1.2773  0.1723
 6260SOL    HW219680   1.366   3.833   5.482  0.3092 -1.2822  0.9637
 6261SOL     OW19681   2.794   5.575   4.724 -0.2917 -0.4380 -0.1577
 6261SOL    HW119682   2.893   5.562   4.718  0.0835  2.5027 -3.7743
 6261SOL    HW219683   2.775   5.646   4.792  0.4206  0.8356 -1.2320
 6262SOL     OW19684   6.379   0.455   5.098  0.3365 -0.2294 -0.1167
 6262SOL    HW119685   6.314   0.528   5.117 -1.2986 -1.7746  0.6196
 6262SOL    HW219686   6.348   0.402   5.018  1.2771 -0.3552 -0.4136
 6263SOL     OW19687   0.161   1.196   2.948 -0.2901  0.3584 -0.3673
 6263SOL    HW119688   0.220   1.157   2.877  0.4833  0.2914  0.3072
 6263SOL    HW219689   0.102   1.266   2.906 -0.6086 -0.4355 -1.2773
 6264SOL     OW19690   2.954   0.249   6.103 -0.0884  0.3545  0.5663
 6264SOL    HW119691   2.935   0.220   6.197  0.3376  2.4050  1.3282
 6264SOL    HW219692   2.882   0.312   6.072 -0.8740 -1.1951 -0.9630
 6265SOL     OW19693   5.111   5.506   2.653 -0.0141  0.4512 -0.1351
 6265SOL    HW119694   5.141   5.421   2.696  1.8008  2.0279  1.9725
 6265SOL    HW219695   5.072   5.486   2.564 -0.2036 -2.6227  0.5144
 6266SOL     OW19696   4.459   2.708   6.166 -0.2465 -0.2879  0.3657
 6266SOL    HW119697   4.433   2.624   6.213  1.5029 -1.2965 -0.3505
 6266SOL    HW219698   4.512   2.685   6.084  0.4796  1.5277  0.2788
 6267SOL     OW19699   6.960   0.610   0.828  0.0530 -0.4866 -0.8082
 6267SOL    HW119700   7.038   0.621   0.889  0.6638  1.0972 -1.8227
 6267SOL    HW219701   6.898   0.540   0.865  0.2635  0.5875  1.7590
 6268SOL     OW19702   6.385   4.384   6.040  0.1640  0.2040 -0.0391
 6268SOL    HW119703   6.350   4.424   5.955  1.6558 -1.0997 -1.3274
 6268SOL    HW219704   6.425   4.456   6.097 -1.0993  1.1355 -0.2662
 6269SOL     OW19705   2.312   4.920   6.429 -0.7412 -0.5308  0.2002
 6269SOL    HW119706   2.224   4.902   6.386 -1.4977  0.0379  1.4799
 6269SOL    HW219707   2.360   4.991   6.377  0.8910 -3.6637 -3.0128
 6270SOL     OW19708   2.731   3.898   0.183 -0.1836  0.2275 -0.0239
 6270SOL    HW119709   2.799   3.959   0.141  0.3427 -0.6938 -0.5469
 6270SOL    HW219710   2.736   3.808   0.140  0.6057 -0.8821  2.2055
 6271SOL     OW19711   6.499   5.650   5.228  0.4186 -0.0651 -0.4251
 6271SOL    HW119712   6.493   5.649   5.328  0.0741 -0.9217 -0.4458
 6271SOL    HW219713   6.407   5.651   5.190  0.5503  0.2008 -0.7365
 6272SOL     OW19714   5.732   6.009   2.939  0.0988  0.4293 -0.1966
 6272SOL    HW119715   5.818   6.044   2.977 -0.0507  0.2475  0.3101
 6272SOL    HW219716   5.665   6.083   2.935  0.2825  0.5795 -0.6215
 6273SOL     OW19717   1.870   0.028   2.425  0.0791 -0.5378  0.6991
 6273SOL    HW119718   1.868   0.020   2.326  2.1822  0.3228  0.5296
 6273SOL    HW219719   1.778   0.049   2.459 -1.2937 -3.6749 -0.7120
 6274SOL     OW19720   0.939   3.982   3.011 -0.1179 -0.5827 -0.4690
 6274SOL    HW119721   0.854   4.021   2.976  0.5544  0.6300 -0.7970
 6274SOL    HW219722   1.004   4.055   3.030  1.3386 -1.5545 -1.4873
 6275SOL     OW19723   1.678   6.837   2.202 -0.2214  0.4420  0.6344
 6275SOL    HW119724   1.730   6.919   2.223 -1.8002  1.3982  0.9897
 6275SOL    HW219725   1.696   6.767   2.272  0.7566  0.6477  0.6009
 6276SOL     OW19726   3.057   0.642   5.387  0.1908 -0.4113 -0.0857
 6276SOL    HW119727   3.010   0.695   5.458  0.1822 -1.0724  0.4113
 6276SOL    HW219728   3.034   0.680   5.297  1.4484  1.4200  0.3114
 6277SOL     OW19729   1.712   4.358   6.587 -0.4437  0.4972 -0.1836
 6277SOL    HW119730   1.697   4.352   6.489  0.3924 -1.9839 -0.2153
 6277SOL    HW219731   1.630   4.328   6.636  0.5313 -2.5671 -0.2442
 6278SOL     OW19732   6.029   2.436   4.169 -0.1933  0.2024 -0.0410
 6278SOL    HW119733   6.082   2.351   4.166 -0.3598  0.0693  0.7261
 6278SOL    HW219734   6.090   2.514   4.156 -0.1041 -0.0456 -1.2287
 6279SOL     OW19735   6.690   0.010   4.422  0.0175  0.1465 -0.2046
 6279SOL    HW119736   6.701   0.060   4.337 -0.1697  0.4269 -0.0659
 6279SOL    HW219737   6.717  -0.086   4.409 -1.4321 -0.1749 -0.9724
 6280SOL     OW19738   2.606   6.377   6.048 -0.5703 -0.5351  0.3794
 6280SOL    HW119739   2.542   6.448   6.019 -0.3179 -1.4505 -2.7178
 6280SOL    HW219740   2.678   6.366   5.980  0.9357 -1.9182  2.0976
 6281SOL     OW19741   6.628   5.806   0.632  0.7605  0.2045 -0.1580
 6281SOL    HW119742   6.596   5.742   0.563  1.3710 -0.6742  0.3602
 6281SOL    HW219743   6.663   5.888   0.587  1.1795 -0.3701 -0.8952
 6282SOL     OW19744   4.026   3.359   5.580 -0.1901 -0.4998  0.3252
 6282SOL    HW119745   4.076   3.367   5.666  2.8729 -2.5022 -1.0810
 6282SOL    HW219746   4.072   3.293   5.520 -1.8580  1.1472 -3.0769
 6283SOL     OW19747   1.379   4.102   1.471 -0.1277 -0.0535 -0.4259
 6283SOL    HW119748   1.295   4.143   1.435 -0.1374 -0.8953 -1.4105
 6283SOL    HW219749   1.362   4.061   1.560 -0.5464  0.5322 -0.2369
 6284SOL     OW19750   3.958   6.179   5.161 -0.7418 -0.5416  0.2946
 6284SOL    HW119751   3.880   6.116   5.156 -0.5802 -0.7426  0.2907
 6284SOL    HW219752   3.925   6.272   5.175 -0.9534 -0.7784  1.5150
 6285SOL     OW19753   3.140   0.206   3.592 -0.3027  0.0769 -0.0311
 6285SOL    HW119754   3.165   0.113   3.616 -2.4519 -0.6918 -0.5343
 6285SOL    HW219755   3.046   0.208   3.558 -0.0951  2.3309 -0.6870
 6286SOL     OW19756   2.181   5.962   5.011 -0.1604 -0.3951 -0.2979
 6286SOL    HW119757   2.203   6.010   5.095  0.6168 -0.1961 -0.6095
 6286SOL    HW219758   2.252   5.979   4.942  1.1538 -3.3785  0.1477
 6287SOL     OW19759   1.367   4.012   4.461  0.5572 -0.1509 -0.6178
 6287SOL    HW119760   1.314   3.953   4.522 -1.5030  2.2090 -0.0075
 6287SOL    HW219761   1.457   4.029   4.502 -1.0504  2.0900  2.4012
 6288SOL     OW19762   6.121   4.833   4.993  0.2004  0.4420 -0.6747
 6288SOL    HW119763   6.179   4.766   5.040  0.8762  1.1745 -0.4488
 6288SOL    HW219764   6.077   4.892   5.060  0.1295  0.6499 -0.9033
 6289SOL     OW19765   4.857   4.132   1.536  0.0808 -0.1606 -0.4368
 6289SOL    HW119766   4.817   4.220   1.510 -0.5065 -0.6707 -1.2918
 6289SOL    HW219767   4.814   4.100   1.621 -0.2711 -0.0055 -0.5550
 6290SOL     OW19768   6.557   6.146   5.645  0.2307  0.0744 -0.2307
 6290SOL    HW119769   6.513   6.138   5.734  1.5564  1.4053  0.6117
 6290SOL    HW219770   6.568   6.243   5.622  2.9630 -0.1363 -0.1863
 6291SOL     OW19771   3.819   3.622   3.032  0.6438  0.4400 -0.4319
 6291SOL    HW119772   3.804   3.647   2.937  0.3619 -0.2158 -0.5643
 6291SOL    HW219773   3.917   3.608   3.049  0.5780 -0.8338 -0.9872
 6292SOL     OW19774   0.159   1.108   4.631  0.4006 -0.1556  0.1162
 6292SOL    HW119775   0.221   1.163   4.575  0.9278 -0.9134 -0.0508
 6292SOL    HW219776   0.203   1.084   4.717 -0.2387  0.6036  0.6758
 6293SOL     OW19777   0.048   2.186   3.825 -0.7185 -0.2581 -0.1444
 6293SOL    HW119778   0.065   2.258   3.757 -1.1714 -1.1759 -1.2487
 6293SOL    HW219779   0.132   2.135   3.841 -1.2849 -1.9975 -2.3412
 6294SOL     OW19780   2.361   3.984   6.985 -0.0226  0.4174 -0.1940
 6294SOL    HW119781   2.264   3.996   7.008  0.1038 -0.3244  0.7872
 6294SOL    HW219782   2.417   4.029   7.054  0.3444  1.4823 -1.1534
 6295SOL     OW19783   3.505   5.207   0.209  0.1806  0.4159  0.0407
 6295SOL    HW119784   3.516   5.306   0.211 -1.1462  0.5694  1.7380
 6295SOL    HW219785   3.465   5.176   0.295  0.0454 -1.5432 -0.6761
 6296SOL     OW19786   1.380   3.034   6.360 -0.0742  0.0191  1.0526
 6296SOL    HW119787   1.306   3.017   6.295  0.9801 -1.2990  0.1404
 6296SOL    HW219788   1.417   3.126   6.345 -0.3904  0.0378  0.3391
 6297SOL     OW19789   3.889   3.454   1.099 -0.3437  0.7773 -0.1103
 6297SOL    HW119790   3.857   3.534   1.048 -0.7116  0.6500 -0.0843
 6297SOL    HW219791   3.877   3.470   1.197 -4.5192 -0.9040 -0.1261
 6298SOL     OW19792   5.968   6.559   3.065  0.2579  0.4340  0.2936
 6298SOL    HW119793   5.967   6.537   2.968 -1.1633 -0.3798  0.4641
 6298SOL    HW219794   5.987   6.657   3.078  1.0607  0.4244 -0.7575
 6299SOL     OW19795   4.973   1.049   4.920 -0.3474 -0.0790 -0.0041
 6299SOL    HW119796   4.950   0.952   4.915  1.2047 -0.4124 -1.7205
 6299SOL    HW219797   5.047   1.062   4.986 -0.6502 -0.0302  0.3292
 6300SOL     OW19798   3.079   0.781   1.931 -0.1223  0.1003  0.2495
 6300SOL    HW119799   3.021   0.706   1.898  0.5258  0.4476 -1.8108
 6300SOL    HW219800   3.137   0.749   2.006 -0.3128 -1.2762 -0.1731
 6301SOL     OW19801   1.194   4.322   2.203  0.1030 -0.0938 -0.0143
 6301SOL    HW119802   1.119   4.260   2.224 -1.3240  0.9804 -1.6288
 6301SOL    HW219803   1.194   4.341   2.104  2.5459 -0.0909 -0.0716
 6302SOL     OW19804   6.291   0.739   6.800  0.5763  0.2618  0.2253
 6302SOL    HW119805   6.377   0.786   6.780  1.1098 -1.5463 -2.2016
 6302SOL    HW219806   6.310   0.646   6.831 -0.5171  0.4663  1.6157
 6303SOL     OW19807   5.061   5.498   6.471  0.0656  0.6644 -0.4871
 6303SOL    HW119808   5.078   5.575   6.409  0.8422  0.1125 -0.9760
 6303SOL    HW219809   4.984   5.521   6.531  0.1284  1.7246 -0.7784
 6304SOL     OW19810   2.042   1.654   1.957  0.1091  0.3482 -0.2856
 6304SOL    HW119811   1.979   1.731   1.969  1.1986  1.0291  1.3831
 6304SOL    HW219812   2.107   1.675   1.884  0.1583  0.8405 -0.1029
 6305SOL     OW19813   4.779   4.507   5.127  0.0205  0.1336 -1.1952
 6305SOL    HW119814   4.860   4.461   5.093  0.0370  1.1573 -2.6458
 6305SOL    HW219815   4.707   4.440   5.146  0.8657 -0.6858 -0.8213
 6306SOL     OW19816   5.771   2.199   6.696 -0.1432  0.6233  0.2992
 6306SOL    HW119817   5.869   2.188   6.679 -0.2397 -0.2382  0.2149
 6306SOL    HW219818   5.725   2.227   6.611 -0.0400  0.4780  0.1939
 6307SOL     OW19819   4.024   3.544   2.228 -0.1169 -0.0056 -0.2754
 6307SOL    HW119820   3.932   3.585   2.225  0.6762  1.8491 -0.9895
 6307SOL    HW219821   4.061   3.555   2.320 -0.2208  0.1473 -0.2505
 6308SOL     OW19822   5.804   2.132   3.946  0.0814  0.4081  0.1130
 6308SOL    HW119823   5.777   2.074   4.023  2.2721 -0.2759  0.4289
 6308SOL    HW219824   5.840   2.075   3.873 -0.3846  1.1963 -0.7584
 6309SOL     OW19825   0.329   4.748   1.812  0.6896 -0.4625 -0.5133
 6309SOL    HW119826   0.242   4.747   1.764 -0.0756 -2.2638  0.8092
 6309SOL    HW219827   0.402   4.715   1.751 -0.2233 -2.5068 -0.5859
 6310SOL     OW19828   6.140   3.126   3.353 -0.1347  0.8133 -0.6048
 6310SOL    HW119829   6.045   3.152   3.365 -0.6010 -0.7921 -0.6240
 6310SOL    HW219830   6.169   3.066   3.428  0.1486 -0.5460 -1.7541
 6311SOL     OW19831   1.938   1.772   4.889  0.3795  0.4725 -0.0960
 6311SOL    HW119832   1.897   1.862   4.906 -1.8925 -0.8901  2.5496
 6311SOL    HW219833   2.023   1.763   4.941 -1.9500 -0.4678  3.9971
 6312SOL     OW19834   0.493   1.345   0.804  0.0296  0.2250  0.1517
 6312SOL    HW119835   0.409   1.291   0.795 -0.6906  0.2485  4.3939
 6312SOL    HW219836   0.470   1.442   0.812  0.6651  0.4288 -0.4076
 6313SOL     OW19837   4.562   3.405   6.451  0.1406 -0.2420 -0.5172
 6313SOL    HW119838   4.571   3.322   6.507 -1.2005  1.4306  2.3692
 6313SOL    HW219839   4.469   3.411   6.415 -0.1552  0.6091  0.3558
 6314SOL     OW19840   0.823   1.095   1.552  0.1428 -0.2349 -0.5413
 6314SOL    HW119841   0.862   1.008   1.523  1.4640 -0.0622  0.6136
 6314SOL    HW219842   0.849   1.167   1.487 -0.9641 -0.6602 -1.5049
 6315SOL     OW19843   0.751   2.810   2.067 -0.1813 -0.1111  0.3820
 6315SOL    HW119844   0.691   2.803   1.988 -0.5401  0.1424  0.6256
 6315SOL    HW219845   0.698   2.837   2.147 -0.3751 -3.0885  1.3922
 6316SOL     OW19846   4.903   6.133   2.007  0.2098  0.0716  0.3571
 6316SOL    HW119847   4.979   6.078   1.972  0.8236  0.6761  0.7103
 6316SOL    HW219848   4.828   6.072   2.035  0.0558 -0.4600 -1.1594
 6317SOL     OW19849   5.253   5.379   4.293  0.5688 -0.2697 -0.3104
 6317SOL    HW119850   5.268   5.283   4.269  0.3864  0.0138 -1.6135
 6317SOL    HW219851   5.156   5.401   4.282  0.7119  0.2153 -0.6069
 6318SOL     OW19852   2.228   6.448   4.348  0.3165  0.2874  0.2273
 6318SOL    HW119853   2.275   6.422   4.432  1.4383 -0.3876 -0.5771
 6318SOL    HW219854   2.198   6.365   4.300  2.7127  0.4301 -1.6885
 6319SOL     OW19855   3.165   0.531   5.013 -0.0962 -0.3765  0.0610
 6319SOL    HW119856   3.171   0.619   4.967  1.0975 -0.9101 -0.8619
 6319SOL    HW219857   3.257   0.500   5.039 -0.0693 -2.6850 -2.2910
 6320SOL     OW19858   2.114   2.883   2.050  0.2062  0.3488 -0.2507
 6320SOL    HW119859   2.120   2.982   2.060  0.1536  0.1850  1.7991
 6320SOL    HW219860   2.155   2.839   2.130 -2.6858 -1.2262  0.4849
 6321SOL     OW19861   3.530   0.056   2.090  0.2588 -0.0472  0.4896
 6321SOL    HW119862   3.585   0.091   2.165  1.9339  0.5438 -0.9455
 6321SOL    HW219863   3.590   0.024   2.016 -1.3168 -0.8791 -0.5003
 6322SOL     OW19864   3.951   5.241   2.212  0.2156 -0.1403 -0.5440
 6322SOL    HW119865   4.018   5.313   2.229  0.0223  0.1567 -1.0253
 6322SOL    HW219866   3.957   5.172   2.285  0.5580  0.2400 -0.2078
 6323SOL     OW19867   5.147   4.107   1.982 -0.5342 -0.0491  0.1725
 6323SOL    HW119868   5.218   4.091   1.914 -1.1004  0.0201 -0.4414
 6323SOL    HW219869   5.136   4.026   2.039 -0.8653 -0.5449 -0.5775
 6324SOL     OW19870   0.416   2.329   1.651 -1.2067  0.1736 -0.2180
 6324SOL    HW119871   0.492   2.385   1.683 -0.8289 -0.5218  0.1317
 6324SOL    HW219872   0.411   2.334   1.551 -2.5651  2.5657 -0.1171
 6325SOL     OW19873   3.155   7.004   2.269 -0.0605  1.0465 -0.3497
 6325SOL    HW119874   3.140   7.100   2.245  1.1729  1.3309 -0.0650
 6325SOL    HW219875   3.177   6.998   2.367  0.2322  0.5172 -0.4487
 6326SOL     OW19876   3.247   0.104   3.294  0.3246  0.3513  0.3539
 6326SOL    HW119877   3.328   0.149   3.255  1.2450 -0.2572  1.4751
 6326SOL    HW219878   3.216   0.156   3.374  0.6515 -0.3180  0.9282
 6327SOL     OW19879   0.472   1.082   3.160  0.0271  0.4547  0.1072
 6327SOL    HW119880   0.382   1.054   3.195  0.2509 -0.5296 -0.0897
 6327SOL    HW219881   0.460   1.156   3.094 -0.7926 -0.7750 -1.1685
 6328SOL     OW19882   3.325   4.517   0.814  0.3679  0.1335 -0.4058
 6328SOL    HW119883   3.275   4.431   0.818  0.6524  0.0113  0.8529
 6328SOL    HW219884   3.417   4.501   0.779  0.5853 -0.1554  0.2922
 6329SOL     OW19885   6.997   1.654   1.778  0.5624  0.2955 -0.0201
 6329SOL    HW119886   7.074   1.593   1.796 -0.6228 -1.7783 -1.6344
 6329SOL    HW219887   6.986   1.667   1.680 -0.6099  1.2808  0.2080
 6330SOL     OW19888   2.053   1.792   6.371  0.2772 -0.7848  0.2981
 6330SOL    HW119889   2.089   1.870   6.320  0.3426 -1.0017  0.0109
 6330SOL    HW219890   2.021   1.722   6.307 -1.4012 -0.2672  0.5186
 6331SOL     OW19891   3.876   0.999   5.295 -1.2377 -0.3114  0.3020
 6331SOL    HW119892   3.938   1.078   5.299 -2.4100  0.6092  0.8204
 6331SOL    HW219893   3.852   0.970   5.388  0.5204 -2.4067  0.1737
 6332SOL     OW19894   6.135   6.446   6.450  0.7391  0.4390  0.8246
 6332SOL    HW119895   6.145   6.522   6.514 -1.7903  0.8345  0.8565
 6332SOL    HW219896   6.085   6.476   6.369  1.5888 -0.6962 -0.1589
 6333SOL     OW19897   6.048   0.485   1.804 -0.0455 -0.1754  0.0688
 6333SOL    HW119898   5.997   0.410   1.845  0.4928 -0.6371 -0.1016
 6333SOL    HW219899   5.985   0.544   1.753 -0.4912 -0.4218  0.3295
 6334SOL     OW19900   4.859   1.836   6.940  0.3791  0.0193  0.7816
 6334SOL    HW119901   4.817   1.870   7.024  0.6894  1.1272  0.5061
 6334SOL    HW219902   4.935   1.896   6.914 -1.7721  1.7580 -2.1080
 6335SOL     OW19903   1.105   0.747   0.880  0.1750  0.5005  0.0822
 6335SOL    HW119904   1.061   0.658   0.893  0.4964  0.1677 -0.9702
 6335SOL    HW219905   1.204   0.735   0.883  0.2372  1.1812  2.0476
 6336SOL     OW19906   0.267   2.201   6.860  0.2073  0.8152 -0.7878
 6336SOL    HW119907   0.351   2.193   6.807  1.2903  1.7054  0.6966
 6336SOL    HW219908   0.209   2.273   6.821  0.7876  1.1684 -1.0147
 6337SOL     OW19909   1.285   3.354   4.769 -0.2881 -0.4675 -0.6512
 6337SOL    HW119910   1.235   3.276   4.807  0.3886  0.0389  1.4327
 6337SOL    HW219911   1.312   3.415   4.844  1.5853  0.3519 -1.9328
 6338SOL     OW19912   0.830   6.094   0.874 -0.6034 -0.0808  0.0293
 6338SOL    HW119913   0.921   6.131   0.857 -0.8385  0.7916  0.5788
 6338SOL    HW219914   0.829   5.996   0.853  1.2271 -0.7722  2.6497
 6339SOL     OW19915   4.931   1.193   2.588  0.1076  0.1151  0.3598
 6339SOL    HW119916   4.937   1.094   2.598 -0.0202  0.0902  0.1866
 6339SOL    HW219917   4.945   1.236   2.677 -0.4229 -0.0815  0.5389
 6340SOL     OW19918   3.912   2.417   6.680 -0.4200  0.9304 -0.2130
 6340SOL    HW119919   3.965   2.497   6.710  2.2013 -1.0119  0.7591
 6340SOL    HW219920   3.874   2.435   6.589 -0.7560  3.5986  0.3595
 6341SOL     OW19921   1.382   3.168   1.377 -0.4576 -0.1703  0.1363
 6341SOL    HW119922   1.474   3.202   1.360 -0.7926  0.8348  0.2817
 6341SOL    HW219923   1.384   3.068   1.384  0.7220 -0.1215  0.7599
 6342SOL     OW19924   0.928   4.066   5.987  0.0364  0.2276 -0.5459
 6342SOL    HW119925   1.011   4.099   5.943  0.1179  1.1262  0.2525
 6342SOL    HW219926   0.931   3.966   5.994  1.6294  0.3245  0.6255
 6343SOL     OW19927   1.814   6.519   1.272  0.4601 -0.2499 -0.2591
 6343SOL    HW119928   1.785   6.428   1.242 -0.6822  0.5487 -1.7624
 6343SOL    HW219929   1.845   6.572   1.193 -0.7159  1.2970  0.2581
 6344SOL     OW19930   3.371   2.380   5.354  0.3917  0.1186  0.5304
 6344SOL    HW119931   3.391   2.478   5.359  1.9240 -0.1688  0.3073
 6344SOL    HW219932   3.303   2.364   5.283  1.3196  0.8619 -0.5561
 6345SOL     OW19933   2.285   1.393   4.230 -0.1994  0.5496 -0.0028
 6345SOL    HW119934   2.263   1.319   4.167 -1.4833  0.8109  0.1076
 6345SOL    HW219935   2.257   1.366   4.323 -1.9323  1.6445 -0.1564
 6346SOL     OW19936   3.962   1.157   2.063 -0.4206 -0.1707 -0.1333
 6346SOL    HW119937   3.899   1.079   2.064  0.2783 -0.7422 -0.1913
 6346SOL    HW219938   4.007   1.164   2.152  1.4142 -1.4183 -0.9049
 6347SOL     OW19939   3.054   6.109   3.931  0.1069  0.6166 -0.5376
 6347SOL    HW119940   2.959   6.139   3.932 -1.1639 -2.7403 -2.4191
 6347SOL    HW219941   3.073   6.056   4.014  0.2452  1.0061 -0.3186
 6348SOL     OW19942   2.616   2.364   4.123  0.0603 -0.2920  0.1519
 6348SOL    HW119943   2.672   2.390   4.202  0.1233  0.5186 -0.1485
 6348SOL    HW219944   2.534   2.422   4.121 -2.3074 -3.2223  2.1929
 6349SOL     OW19945   5.451   1.777   4.701 -0.5453  0.4937  0.3992
 6349SOL    HW119946   5.523   1.817   4.757 -0.8122  0.9684  0.4075
 6349SOL    HW219947   5.402   1.707   4.753 -1.0762  1.2355  0.9138
 6350SOL     OW19948   4.953   6.841   0.114 -0.1996  0.1463 -0.0551
 6350SOL    HW119949   4.994   6.930   0.137 -1.3606  1.0268 -1.2336
 6350SOL    HW219950   4.926   6.795   0.199  0.1924  1.0342  0.5756
 6351SOL     OW19951   2.943   1.931   3.951  0.7979 -0.3799  0.2582
 6351SOL    HW119952   2.857   1.887   3.923  0.5920  0.3578 -0.3008
 6351SOL    HW219953   2.931   1.974   4.040  0.7433 -0.7162  0.4147
 6352SOL     OW19954   3.038   3.312   5.259  0.0944 -0.2983  0.4708
 6352SOL    HW119955   3.129   3.309   5.218  0.5753 -1.3614  1.5362
 6352SOL    HW219956   3.038   3.375   5.337 -0.3542  0.4283 -0.1060
 6353SOL     OW19957   6.638   2.275   0.691 -0.4008  0.1362 -0.0223
 6353SOL    HW119958   6.674   2.353   0.742  1.2950 -0.8007  0.2816
 6353SOL    HW219959   6.614   2.202   0.754 -0.7696 -0.0649 -0.3920
 6354SOL     OW19960   6.962   4.781   1.914  0.1859 -0.1822  0.1248
 6354SOL    HW119961   6.992   4.872   1.943  1.7782 -1.1657  1.8201
 6354SOL    HW219962   7.030   4.741   1.853 -0.5367 -0.2241 -0.6624
 6355SOL     OW19963   4.629   5.139   4.804  0.3107  0.1143 -0.7230
 6355SOL    HW119964   4.602   5.075   4.732 -1.2466  0.9171 -0.9089
 6355SOL    HW219965   4.696   5.203   4.768  2.2250 -1.6014 -0.4154
 6356SOL     OW19966   1.538   2.119   3.151  0.2242  0.3350  0.3469
 6356SOL    HW119967   1.482   2.078   3.223 -0.8146  1.6499  0.3275
 6356SOL    HW219968   1.555   2.052   3.079 -0.6065 -0.3433  0.7727
 6357SOL     OW19969   1.085   6.533   5.260 -0.0914 -0.3224  0.5661
 6357SOL    HW119970   1.113   6.440   5.282 -2.3393 -0.8137  1.7071
 6357SOL    HW219971   1.005   6.558   5.316 -0.8809  1.4983 -1.2271
 6358SOL     OW19972   1.421   6.413   3.902 -0.1881 -0.0737 -0.1746
 6358SOL    HW119973   1.397   6.318   3.920 -1.5060  0.3314  0.3428
 6358SOL    HW219974   1.451   6.422   3.807 -2.2581 -0.6535 -0.9564
 6359SOL     OW19975   0.562   1.543   1.662 -0.2558  0.1209  0.5990
 6359SOL    HW119976   0.564   1.504   1.754 -1.5199 -1.7550 -0.1110
 6359SOL    HW219977   0.650   1.529   1.617  0.9407  2.4916  2.0127
 6360SOL     OW19978   2.163   4.739   3.601  0.3738 -0.4114  0.3594
 6360SOL    HW119979   2.244   4.717   3.656  0.6310 -0.8753 -0.1809
 6360SOL    HW219980   2.172   4.831   3.563  1.6235 -1.1530 -1.3115
 6361SOL     OW19981   4.095   1.865   2.047  0.2661  0.3358  0.8524
 6361SOL    HW119982   4.006   1.825   2.068  1.0455 -1.2929  1.2104
 6361SOL    HW219983   4.093   1.905   1.956 -0.2265 -1.6849 -0.0838
 6362SOL     OW19984   6.668   1.282   0.945  0.1676 -0.7142 -0.3097
 6362SOL    HW119985   6.751   1.308   0.896 -0.4999 -1.8178 -2.1235
 6362SOL    HW219986   6.594   1.345   0.922 -0.5656 -2.1205 -2.0864
 6363SOL     OW19987   0.405   1.008   5.430  0.6133  0.3397  0.4741
 6363SOL    HW119988   0.307   0.989   5.434  0.6479 -0.2903 -1.0332
 6363SOL    HW219989   0.451   0.961   5.505 -0.3028  1.3248  1.7177
 6364SOL     OW19990   0.558   1.108   2.180 -0.4928  0.1721 -0.0155
 6364SOL    HW119991   0.540   1.064   2.092 -2.1324  2.7118 -1.0828
 6364SOL    HW219992   0.572   1.038   2.250  2.6834 -1.9971 -2.5016
 6365SOL     OW19993   7.012   1.729   5.703  0.1162  0.1599 -0.3175
 6365SOL    HW119994   7.024   1.704   5.799  0.1207 -0.1011 -0.3852
 6365SOL    HW219995   6.961   1.815   5.697 -0.7377 -0.3248 -0.1092
 6366SOL     OW19996   5.447   4.014   2.182 -0.0119  0.5352  0.0098
 6366SOL    HW119997   5.484   3.922   2.173  1.3389  1.1171 -0.6929
 6366SOL    HW219998   5.359   4.019   2.135 -0.4206 -0.5576  0.6285
 6367SOL     OW19999   6.763   5.434   1.624 -0.0336 -0.5527 -0.6972
 6367SOL    HW120000   6.827   5.463   1.696 -1.5418 -0.9097  0.8655
 6367SOL    HW220001   6.772   5.336   1.609  0.5076 -0.4216 -1.2330
 6368SOL     OW20002   0.263   2.039   3.871 -0.7205 -0.4383 -0.3937
 6368SOL    HW120003   0.231   1.952   3.834 -0.8369 -0.7207  0.3429
 6368SOL    HW220004   0.279   2.029   3.969 -2.7134  0.8903  0.1362
 6369SOL     OW20005   6.188   4.254   0.821 -0.3010  0.4786 -0.3525
 6369SOL    HW120006   6.255   4.328   0.829  0.3432 -0.0318 -0.9452
 6369SOL    HW220007   6.227   4.170   0.859 -0.3527  0.0268 -1.2770
 6370SOL     OW20008   0.165   2.474   5.368  0.4700  0.2012  0.6071
 6370SOL    HW120009   0.255   2.452   5.331  0.4370  2.7299 -1.3264
 6370SOL    HW220010   0.095   2.423   5.318  0.6745  0.5921 -0.0905
 6371SOL     OW20011   6.277   1.849   3.544  0.4187  0.0188  0.3169
 6371SOL    HW120012   6.305   1.877   3.452 -1.2886 -1.0100 -0.5816
 6371SOL    HW220013   6.356   1.850   3.605  1.1515  2.9480 -0.5555
 6372SOL     OW20014   6.646   6.532   1.814 -0.1016  0.0720 -0.1220
 6372SOL    HW120015   6.692   6.583   1.887 -1.9448  2.6214 -0.6400
 6372SOL    HW220016   6.693   6.549   1.727 -0.7347  0.9461 -0.2999
 6373SOL     OW20017   4.277   5.117   0.699 -0.4000  0.2744  0.4760
 6373SOL    HW120018   4.290   5.018   0.704  0.4674  0.3099 -0.6223
 6373SOL    HW220019   4.282   5.156   0.791  0.0881 -0.6081  0.8334
 6374SOL     OW20020   3.671   4.814   1.426 -0.1779 -0.7619  0.3046
 6374SOL    HW120021   3.668   4.806   1.526  0.5381 -0.1133  0.3893
 6374SOL    HW220022   3.757   4.776   1.393  0.1748  0.2315  0.0657
 6375SOL     OW20023   3.588   0.878   0.996 -0.1619 -0.4345  0.6812
 6375SOL    HW120024   3.567   0.782   1.015  0.3826 -0.3920  1.5092
 6375SOL    HW220025   3.511   0.935   1.025 -1.8997 -0.8272 -2.6544
 6376SOL     OW20026   3.338   4.070   6.715 -0.3900  0.3551  0.2963
 6376SOL    HW120027   3.423   4.118   6.697 -1.4433  2.5775  0.8843
 6376SOL    HW220028   3.300   4.036   6.628  1.2057 -0.9735  0.0717
 6377SOL     OW20029   5.644   1.580   4.835  0.1566 -0.3023 -0.3598
 6377SOL    HW120030   5.698   1.609   4.756  1.1344 -2.9193 -0.7655
 6377SOL    HW220031   5.550   1.564   4.806 -0.7247  3.2446  0.1174
 6378SOL     OW20032   2.124   0.859   5.041  0.4287  0.4745  0.1845
 6378SOL    HW120033   2.026   0.839   5.040 -0.0951  2.6777 -1.3086
 6378SOL    HW220034   2.176   0.775   5.026 -1.1562 -0.8661  1.8294
 6379SOL     OW20035   4.827   1.898   0.183 -0.4952  0.7478 -0.2767
 6379SOL    HW120036   4.925   1.910   0.202 -0.3729  0.7914 -0.9320
 6379SOL    HW220037   4.804   1.801   0.192 -0.1943  0.6012 -1.0283
 6380SOL     OW20038   0.426   5.809   6.683  0.1280  0.5803  0.7840
 6380SOL    HW120039   0.500   5.813   6.750  2.0976  0.6613 -1.2897
 6380SOL    HW220040   0.393   5.714   6.676 -0.9385  0.7630  2.6424
 6381SOL     OW20041   4.511   3.334   5.816  0.3438  0.4390  0.7005
 6381SOL    HW120042   4.502   3.424   5.859  1.5651  0.7615  0.3237
 6381SOL    HW220043   4.523   3.345   5.717 -4.0851 -0.3461 -0.1185
 6382SOL     OW20044   6.464   6.440   5.581  0.2039  0.4761  0.0406
 6382SOL    HW120045   6.465   6.423   5.483 -0.1266  0.8948 -0.0386
 6382SOL    HW220046   6.396   6.511   5.602  2.1410  2.3884  0.2314
 6383SOL     OW20047   2.465   0.328   1.614  0.1834  0.5364 -0.1925
 6383SOL    HW120048   2.478   0.267   1.693 -1.3998  2.0019  1.2761
 6383SOL    HW220049   2.543   0.389   1.607  0.8933 -0.3793 -0.5178
 6384SOL     OW20050   0.743   0.787   4.024  0.1582  0.0548 -0.0471
 6384SOL    HW120051   0.673   0.752   3.963 -0.4976  1.1141  0.0693
 6384SOL    HW220052   0.761   0.883   4.003  1.8312 -0.2941 -0.2959
 6385SOL     OW20053   5.517   1.797   3.492 -0.1981 -0.2274  0.2347
 6385SOL    HW120054   5.499   1.805   3.394 -0.1506  0.1310  0.2543
 6385SOL    HW220055   5.593   1.857   3.517  0.2682 -0.8620  0.3607
 6386SOL     OW20056   3.208   5.803   6.029  0.9161 -0.0878  0.2988
 6386SOL    HW120057   3.122   5.853   6.034 -0.3512 -2.1922  0.5259
 6386SOL    HW220058   3.267   5.831   6.105  0.6871  1.7321 -0.1425
 6387SOL     OW20059   2.977   1.311   5.329  0.1545  0.7004  0.2582
 6387SOL    HW120060   2.941   1.233   5.276  1.4827  0.7308 -0.7457
 6387SOL    HW220061   2.912   1.334   5.401 -0.3964 -1.1790  0.4358
 6388SOL     OW20062   0.420   3.381   2.247  0.3522 -0.0979 -0.3654
 6388SOL    HW120063   0.514   3.351   2.228  0.4465  0.0782 -0.1875
 6388SOL    HW220064   0.356   3.332   2.188  0.6124  0.2594 -0.9465
 6389SOL     OW20065   6.187   1.228   3.999  0.1293  0.1257 -0.0233
 6389SOL    HW120066   6.220   1.290   4.070  0.3779 -1.0273  0.8972
 6389SOL    HW220067   6.186   1.134   4.034 -0.7375 -0.3374 -1.2080
 6390SOL     OW20068   2.244   5.504   1.640 -0.0887  0.4613  0.3493
 6390SOL    HW120069   2.272   5.408   1.637  2.1716  0.9447  2.6432
 6390SOL    HW220070   2.236   5.539   1.547  2.4581 -1.0596 -0.5232
 6391SOL     OW20071   0.634   2.976   6.502  0.1384 -1.0425 -0.2692
 6391SOL    HW120072   0.670   3.015   6.417  0.5720  1.3758  0.9440
 6391SOL    HW220073   0.534   2.981   6.501  0.1690 -0.4202 -0.3656
 6392SOL     OW20074   3.358   6.972   0.551  0.3115  0.0457  0.6341
 6392SOL    HW120075   3.415   7.022   0.617 -0.8081  1.5588  0.4950
 6392SOL    HW220076   3.353   7.024   0.466 -1.2637 -0.0624  0.6464
 6393SOL     OW20077   3.172   6.851   6.733  0.0789  0.1634  0.5081
 6393SOL    HW120078   3.178   6.806   6.644 -0.5978  1.7004 -0.3634
 6393SOL    HW220079   3.183   6.783   6.805  2.3835 -0.8764 -0.7162
 6394SOL     OW20080   1.906   3.798   6.862  0.2029 -0.0900  0.2992
 6394SOL    HW120081   1.928   3.861   6.788 -1.8074  1.4046  0.8885
 6394SOL    HW220082   1.929   3.704   6.835 -0.9415  0.3403 -2.4373
 6395SOL     OW20083   4.896   0.431   2.853  0.4524 -0.0463 -0.1461
 6395SOL    HW120084   4.883   0.485   2.937 -2.3023 -1.5255  0.5138
 6395SOL    HW220085   4.946   0.347   2.875 -0.1431 -0.3664 -0.0071
 6396SOL     OW20086   1.329   1.431   2.518 -0.7043 -0.3241  0.1799
 6396SOL    HW120087   1.320   1.343   2.470 -1.2531  0.3363 -0.9530
 6396SOL    HW220088   1.425   1.459   2.518 -0.4786 -1.0630  0.8187
 6397SOL     OW20089   1.488   1.246   1.669 -0.1587 -0.3524 -0.4087
 6397SOL    HW120090   1.451   1.198   1.589 -1.2672  0.6086 -0.4967
 6397SOL    HW220091   1.574   1.291   1.645  0.0562 -0.9420 -0.7581
 6398SOL     OW20092   5.665   6.883   0.276  0.2317 -0.1924 -0.1488
 6398SOL    HW120093   5.706   6.794   0.296  0.0224 -0.2561  0.0060
 6398SOL    HW220094   5.698   6.950   0.343 -1.4557 -0.6880  1.2437
 6399SOL     OW20095   0.208   2.792   1.966 -0.1701 -0.2021  0.4057
 6399SOL    HW120096   0.201   2.792   1.867  0.5240 -2.5822  0.2897
 6399SOL    HW220097   0.120   2.816   2.006 -0.4774  0.6980 -0.7719
 6400SOL     OW20098   0.727   1.747   5.959 -0.5071  0.0202  0.3907
 6400SOL    HW120099   0.702   1.783   5.869 -0.1310 -1.9400 -0.5693
 6400SOL    HW220100   0.784   1.814   6.007 -2.0487  1.7775 -0.1214
 6401SOL     OW20101   0.972   1.473   6.039  0.3804  0.0827  0.2810
 6401SOL    HW120102   1.032   1.534   6.091  0.0698 -0.2084  1.0010
 6401SOL    HW220103   1.019   1.387   6.021  1.0705  0.7584 -1.3324
 6402SOL     OW20104   5.802   3.895   0.020  0.8172 -0.2748 -0.3286
 6402SOL    HW120105   5.704   3.880   0.032  0.1039  2.6593 -1.7191
 6402SOL    HW220106   5.850   3.867   0.103 -1.2257 -1.1523  0.6463
 6403SOL     OW20107   3.661   6.884   4.825  0.2094  0.2441 -0.1264
 6403SOL    HW120108   3.644   6.981   4.845  0.9389  0.3285  0.0962
 6403SOL    HW220109   3.702   6.876   4.735 -0.0158  0.1207 -0.2199
 6404SOL     OW20110   3.315   0.200   4.374  0.2645 -0.4051  0.1018
 6404SOL    HW120111   3.222   0.231   4.392  0.4505 -0.6363  1.5856
 6404SOL    HW220112   3.331   0.198   4.275 -0.9096  0.7566 -0.1392
 6405SOL     OW20113   6.046   4.717   3.631  0.6364  0.5423 -0.6157
 6405SOL    HW120114   5.972   4.758   3.684  1.9410  0.7948  1.1057
 6405SOL    HW220115   6.119   4.784   3.617  1.4892 -0.3062 -0.3640
 6406SOL     OW20116   1.509   2.418   6.533 -0.4296  0.1201  0.0944
 6406SOL    HW120117   1.548   2.340   6.485 -1.7553 -0.8111  0.4766
 6406SOL    HW220118   1.565   2.500   6.516  0.4921 -0.7150 -1.0012
 6407SOL     OW20119   3.112   6.358   5.955  0.5560 -0.1733 -0.1404
 6407SOL    HW120120   3.208   6.342   5.980  0.7323 -1.4004 -1.5004
 6407SOL    HW220121   3.054   6.339   6.034  1.3189 -0.9586  0.2572
 6408SOL     OW20122   5.822   0.968   6.069 -0.1357  0.0010 -0.2624
 6408SOL    HW120123   5.803   1.060   6.036  1.6194  0.8899  1.0086
 6408SOL    HW220124   5.850   0.910   5.993  0.8932  1.1469 -0.7883
 6409SOL     OW20125   4.114   5.321   6.675  0.0504  0.0079 -0.3730
 6409SOL    HW120126   4.087   5.272   6.758  1.6335  0.5532  0.5104
 6409SOL    HW220127   4.115   5.419   6.694  4.1355  0.0192  0.2642
 6410SOL     OW20128   5.011   1.276   2.349  0.6661 -0.1259  0.6576
 6410SOL    HW120129   5.066   1.208   2.301 -0.4117 -1.5266  1.3113
 6410SOL    HW220130   5.001   1.249   2.445 -1.3156 -0.0594  0.5127
 6411SOL     OW20131   1.047   3.189   2.582 -0.7771 -0.2512  0.1769
 6411SOL    HW120132   1.100   3.158   2.661 -0.6684  2.0275  1.0664
 6411SOL    HW220133   1.096   3.166   2.498 -0.2996 -1.6149  0.7985
 6412SOL     OW20134   2.199   5.361   1.175 -0.1713  0.0913 -0.2532
 6412SOL    HW120135   2.131   5.288   1.162 -1.6330  1.0557  1.5713
 6412SOL    HW220136   2.186   5.431   1.105 -0.4972 -0.1351 -0.4231
 6413SOL     OW20137   4.968   6.063   1.332 -1.0790  0.0486 -0.2230
 6413SOL    HW120138   4.950   6.097   1.240 -2.1353  0.1396  0.0047
 6413SOL    HW220139   4.987   6.140   1.393 -0.5034 -0.0019 -0.3380
 6414SOL     OW20140   2.421   4.448   4.004 -0.1097  0.0284  0.1163
 6414SOL    HW120141   2.377   4.415   4.088 -1.4998  3.2022  0.7753
 6414SOL    HW220142   2.407   4.382   3.930 -1.8052 -1.2795  1.5380
 6415SOL     OW20143   6.183   1.620   2.891  0.5952  0.1708 -0.4566
 6415SOL    HW120144   6.099   1.674   2.890 -0.5880 -1.5718 -0.2426
 6415SOL    HW220145   6.175   1.547   2.959  2.2228 -0.1726 -0.5782
 6416SOL     OW20146   6.936   0.256   0.257  0.0515  0.4901  0.2414
 6416SOL    HW120147   6.914   0.352   0.271 -1.7437 -0.0861  1.7765
 6416SOL    HW220148   6.891   0.201   0.327  0.5146 -1.5422 -0.9768
 6417SOL     OW20149   3.038   4.426   5.877 -1.1392  0.1277 -0.2082
 6417SOL    HW120150   2.948   4.400   5.913 -1.2326 -0.0373 -0.5490
 6417SOL    HW220151   3.107   4.418   5.949 -1.4903  0.8298  0.2189
 6418SOL     OW20152   4.483   1.537   6.784  0.1384 -0.4029 -0.2958
 6418SOL    HW120153   4.488   1.601   6.861  1.7046  1.3959 -1.8028
 6418SOL    HW220154   4.567   1.482   6.781  0.5933  0.3305 -1.3446
 6419SOL     OW20155   6.397   1.663   5.086  0.6066  0.0942 -0.7162
 6419SOL    HW120156   6.373   1.617   5.171  0.7290 -0.5722 -1.0335
 6419SOL    HW220157   6.353   1.753   5.083  0.2147 -0.0724 -0.1639
 6420SOL     OW20158   2.323   2.778   4.303 -0.6937  0.7513  0.3162
 6420SOL    HW120159   2.258   2.703   4.315 -0.2406  0.4916  1.2331
 6420SOL    HW220160   2.337   2.825   4.391  0.6310  0.5660  0.2187
 6421SOL     OW20161   3.029   0.213   0.016 -0.2551  0.1824 -0.2657
 6421SOL    HW120162   3.045   0.312   0.018 -1.9791  0.5031 -0.4019
 6421SOL    HW220163   3.064   0.176  -0.070  1.9564  0.3332  0.5062
 6422SOL     OW20164   2.353   5.822   3.436 -0.7603 -0.5001 -0.1838
 6422SOL    HW120165   2.376   5.788   3.344 -0.9447 -1.1590  0.0121
 6422SOL    HW220166   2.258   5.853   3.437 -0.1639  1.5809 -0.8039
 6423SOL     OW20167   3.798   4.848   2.582  0.3490 -0.4975  0.3493
 6423SOL    HW120168   3.708   4.835   2.539 -0.1426 -0.1345  1.2542
 6423SOL    HW220169   3.788   4.856   2.681  1.3603 -0.2396  0.4483
 6424SOL     OW20170   5.357   4.432   6.544  1.0458  0.0898 -0.7363
 6424SOL    HW120171   5.313   4.393   6.625  1.1656  1.1358 -0.1445
 6424SOL    HW220172   5.454   4.447   6.564  1.4085 -1.0172 -1.5935
 6425SOL     OW20173   0.501   2.577   5.808  0.3172 -0.2860 -0.2416
 6425SOL    HW120174   0.481   2.514   5.733  1.7121  1.3622 -2.0674
 6425SOL    HW220175   0.552   2.529   5.879 -1.5728 -2.0358  0.0299
 6426SOL     OW20176   6.520   4.908   5.042 -0.4143  0.5718 -0.2046
 6426SOL    HW120177   6.441   4.873   5.091 -0.2805  0.5970  0.0272
 6426SOL    HW220178   6.539   5.001   5.071 -1.2068  1.1170 -1.3282
 6427SOL     OW20179   6.273   5.070   4.832 -0.1660  0.6389  0.0486
 6427SOL    HW120180   6.219   5.154   4.824 -0.4729  0.4453  0.0422
 6427SOL    HW220181   6.214   4.997   4.868 -0.0923  0.2414 -0.6195
 6428SOL     OW20182   0.278   4.992   1.903 -0.6466 -0.1318 -0.4523
 6428SOL    HW120183   0.296   4.894   1.902 -0.2683 -0.0748  0.2791
 6428SOL    HW220184   0.364   5.042   1.904 -0.7731  0.1560  1.6280
 6429SOL     OW20185   0.994   3.169   3.146  0.4807 -0.4461 -0.3203
 6429SOL    HW120186   1.031   3.110   3.218  1.8993 -1.3026 -1.6918
 6429SOL    HW220187   1.044   3.256   3.145 -0.8674  0.3985  0.9695
 6430SOL     OW20188   2.491   5.834   3.654  0.0488  0.1866  0.1502
 6430SOL    HW120189   2.427   5.875   3.719  0.8979  1.1188  0.4166
 6430SOL    HW220190   2.448   5.827   3.564 -0.5732  0.3809  0.4292
 6431SOL     OW20191   0.167   0.379   0.611  0.3074 -0.0742  0.4019
 6431SOL    HW120192   0.223   0.453   0.649  2.3595  0.2509 -2.8558
 6431SOL    HW220193   0.205   0.291   0.637  0.1254  0.0867  1.2143
 6432SOL     OW20194   4.551   6.732   4.711  0.4180 -0.6519  0.3769
 6432SOL    HW120195   4.479   6.800   4.723  0.0253 -1.1018  0.5756
 6432SOL    HW220196   4.564   6.713   4.613  1.2355  0.4569  0.2516
 6433SOL     OW20197   3.369   3.511   2.423  0.0382  0.1825  0.0933
 6433SOL    HW120198   3.375   3.551   2.332  0.9043 -0.8690 -0.3276
 6433SOL    HW220199   3.323   3.423   2.418  1.8442 -0.8283  0.3247
 6434SOL     OW20200   6.371   0.860   1.386  0.3849 -0.7002 -0.3911
 6434SOL    HW120201   6.438   0.935   1.375 -0.4405 -0.0506 -1.1772
 6434SOL    HW220202   6.402   0.798   1.457 -0.1563  1.8111  2.2350
 6435SOL     OW20203   4.467   2.856   1.474  0.6913  0.1673  0.0079
 6435SOL    HW120204   4.485   2.884   1.380  1.8729  1.6299  0.6305
 6435SOL    HW220205   4.402   2.779   1.474 -0.4376  1.0348 -1.9156
 6436SOL     OW20206   2.389   4.897   3.031 -0.8709 -0.1715 -0.3130
 6436SOL    HW120207   2.338   4.818   2.999  0.7430 -0.8719 -1.3191
 6436SOL    HW220208   2.443   4.934   2.955 -0.3248  0.8761  0.5527
 6437SOL     OW20209   5.701   4.834   5.067 -0.0756 -0.3833  0.0414
 6437SOL    HW120210   5.623   4.888   5.099 -0.7776 -1.0653 -0.4836
 6437SOL    HW220211   5.675   4.784   4.984  0.6214 -1.3779  0.4102
 6438SOL     OW20212   0.305   1.088   6.343 -0.1120  0.0994  0.1244
 6438SOL    HW120213   0.322   0.990   6.333  2.2395  0.4203  0.4592
 6438SOL    HW220214   0.246   1.103   6.423  0.0392 -1.0036  0.4647
 6439SOL     OW20215   2.645   1.897   1.269 -0.0203  0.0036  0.2944
 6439SOL    HW120216   2.701   1.824   1.229  1.4347  1.8512 -1.2506
 6439SOL    HW220217   2.643   1.975   1.207 -0.6600  1.6841  2.3133
 6440SOL     OW20218   6.438   1.802   0.040 -0.5729 -0.2728 -0.0629
 6440SOL    HW120219   6.509   1.848   0.094  0.0001 -2.9896  1.7009
 6440SOL    HW220220   6.468   1.795  -0.055  0.0634  1.3885 -0.0227
 6441SOL     OW20221   3.526   4.484   5.988 -0.2400  0.1677 -0.2638
 6441SOL    HW120222   3.435   4.478   5.947 -0.2344 -1.3235 -0.1055
 6441SOL    HW220223   3.595   4.459   5.920 -0.1977 -1.7995  0.4250
 6442SOL     OW20224   1.457   3.103   3.996  0.5844  0.2303  0.5643
 6442SOL    HW120225   1.413   3.177   4.047 -0.9086 -0.0537 -0.2562
 6442SOL    HW220226   1.524   3.141   3.933 -1.6421  1.1608 -1.3794
 6443SOL     OW20227   5.047   2.641   6.888 -0.2176  0.2900  0.1744
 6443SOL    HW120228   5.146   2.655   6.896 -0.0093 -1.9323  3.0345
 6443SOL    HW220229   5.000   2.720   6.926  0.5418  0.1610  1.4372
 6444SOL     OW20230   6.621   6.125   6.549 -0.1178  0.0559  0.1128
 6444SOL    HW120231   6.715   6.090   6.555  0.1522  0.9430  1.7438
 6444SOL    HW220232   6.564   6.059   6.501  1.0959 -1.0382  0.1211
 6445SOL     OW20233   1.645   0.889   2.421 -0.2498  0.2749 -0.6570
 6445SOL    HW120234   1.736   0.919   2.395  0.4864  0.1080  1.5429
 6445SOL    HW220235   1.629   0.796   2.386  1.0722 -0.3303  0.2753
 6446SOL     OW20236   0.306   0.431   1.635 -0.7047  0.3242 -0.9529
 6446SOL    HW120237   0.321   0.367   1.711  0.3333 -0.1000 -1.4946
 6446SOL    HW220238   0.312   0.381   1.548  0.0265  1.1347 -1.3831
 6447SOL     OW20239   0.172   3.108   2.773 -0.5680  0.2818 -0.1956
 6447SOL    HW120240   0.094   3.106   2.836 -1.9530 -0.3594 -1.8493
 6447SOL    HW220241   0.142   3.147   2.686  1.4071  1.5505 -0.3507
 6448SOL     OW20242   1.041   5.217   0.184  0.1829 -0.3386  0.7562
 6448SOL    HW120243   1.120   5.263   0.226 -0.4869  0.3675  1.2638
 6448SOL    HW220244   0.979   5.186   0.255 -1.7962  2.3146  0.3704
 6449SOL     OW20245   2.631   6.998   3.304  0.4534  0.0254  0.1041
 6449SOL    HW120246   2.623   7.009   3.403  1.1416  1.0163  0.0689
 6449SOL    HW220247   2.727   7.009   3.278  0.4200 -1.1992 -0.5680
 6450SOL     OW20248   3.823   1.609   6.027  0.2511  0.0320  0.2929
 6450SOL    HW120249   3.876   1.678   6.077 -2.0512  1.9148  0.3511
 6450SOL    HW220250   3.784   1.544   6.092  0.1597  0.3597  0.5737
 6451SOL     OW20251   0.779   1.313   3.896  0.1766  0.0233  0.3182
 6451SOL    HW120252   0.802   1.364   3.814  0.5605  0.2447  0.5621
 6451SOL    HW220253   0.718   1.368   3.954  1.3783  0.6210  1.0501
 6452SOL     OW20254   5.230   3.360   6.608  0.2613 -0.1282 -0.1784
 6452SOL    HW120255   5.148   3.405   6.573  1.0927  0.4618 -1.4423
 6452SOL    HW220256   5.309   3.420   6.596  0.8646 -0.6153  1.1827
 6453SOL     OW20257   0.871   3.679   4.235 -0.0382 -0.3807 -0.0126
 6453SOL    HW120258   0.956   3.671   4.288  0.1282 -0.8898 -0.3434
 6453SOL    HW220259   0.884   3.745   4.161 -0.1600  0.0741  0.3700
 6454SOL     OW20260   4.421   5.754   1.607 -0.1428 -0.0195  0.1377
 6454SOL    HW120261   4.513   5.724   1.633 -0.4639  0.0870  1.4670
 6454SOL    HW220262   4.395   5.710   1.521  1.5347  0.7390 -0.8128
 6455SOL     OW20263   3.976   6.167   3.796  0.1486  0.1463  0.0035
 6455SOL    HW120264   4.064   6.192   3.837 -0.6087  0.1582  1.6790
 6455SOL    HW220265   3.954   6.232   3.723  0.0754  2.0999  1.6611
 6456SOL     OW20266   5.359   4.245   1.171  0.7540  0.1944  0.5827
 6456SOL    HW120267   5.280   4.271   1.226  0.2379  0.4220 -0.2526
 6456SOL    HW220268   5.349   4.150   1.141  0.4632  0.4299 -0.0812
 6457SOL     OW20269   6.474   6.617   0.719 -0.2560  0.3770 -0.5863
 6457SOL    HW120270   6.525   6.536   0.747 -1.1994 -0.3496 -0.9231
 6457SOL    HW220271   6.535   6.697   0.720  0.5576 -0.2336  0.2430
 6458SOL     OW20272   1.738   4.018   0.569 -0.4074 -0.2882 -0.0225
 6458SOL    HW120273   1.725   4.072   0.652 -0.6135 -2.2002  1.2537
 6458SOL    HW220274   1.652   4.018   0.516 -1.4013 -1.7509  1.4909
 6459SOL     OW20275   4.739   0.602   6.159 -0.0708 -0.4144  0.0501
 6459SOL    HW120276   4.783   0.676   6.108  2.0256 -1.5661  0.0855
 6459SOL    HW220277   4.729   0.522   6.100  0.5344 -1.1051  0.8616
 6460SOL     OW20278   6.899   4.828   6.041  0.4048  0.0120  0.4292
 6460SOL    HW120279   6.995   4.834   6.014  0.9621 -0.0165  2.2640
 6460SOL    HW220280   6.885   4.745   6.094 -0.5005  0.3387  0.7158
 6461SOL     OW20281   0.040   0.900   3.862 -0.4279 -0.1441  0.3423
 6461SOL    HW120282  -0.008   0.827   3.910  0.2074 -1.1185 -0.4583
 6461SOL    HW220283   0.139   0.884   3.867 -0.2514  0.9083  0.5302
 6462SOL     OW20284   5.224   4.632   6.429 -0.5044  0.1121 -0.5954
 6462SOL    HW120285   5.270   4.556   6.475 -0.4920  0.6153  0.2489
 6462SOL    HW220286   5.125   4.623   6.441 -0.4401  1.6552  1.9428
 6463SOL     OW20287   4.923   2.400   0.021  0.3972 -0.4770  0.2552
 6463SOL    HW120288   4.901   2.324  -0.040 -2.8768  0.5277 -0.0206
 6463SOL    HW220289   4.963   2.475  -0.031 -1.7426  0.1046 -0.6879
 6464SOL     OW20290   0.052   0.120   3.728  0.0074 -0.6976  0.3791
 6464SOL    HW120291   0.086   0.056   3.796 -0.2198  0.7120  1.8718
 6464SOL    HW220292   0.054   0.077   3.637  2.1001 -1.9706  0.9682
 6465SOL     OW20293   1.125   6.406   3.137  0.8929 -0.4570 -0.2921
 6465SOL    HW120294   1.132   6.505   3.129  0.5791 -0.3022  1.0436
 6465SOL    HW220295   1.166   6.363   3.057 -2.1770  0.7678 -2.7527
 6466SOL     OW20296   2.046   1.910   4.619  0.2253  0.3136 -0.2636
 6466SOL    HW120297   2.025   1.868   4.531 -0.1461  0.3474 -0.1900
 6466SOL    HW220298   2.041   1.842   4.691  1.8938 -0.0433 -0.4280
 6467SOL     OW20299   2.876   0.728   5.604 -0.3357 -0.2491  0.1814
 6467SOL    HW120300   2.963   0.727   5.654  0.1171 -1.0812 -0.5884
 6467SOL    HW220301   2.801   0.709   5.668 -0.1130  1.7555  1.0890
 6468SOL     OW20302   3.899   1.696   1.732  0.2572  0.1195 -0.2405
 6468SOL    HW120303   3.895   1.606   1.690  0.8114  0.6326 -1.4546
 6468SOL    HW220304   3.818   1.711   1.787  1.2531 -2.0565  1.9991
 6469SOL     OW20305   1.318   5.579   6.865  0.2646 -0.1020 -0.0690
 6469SOL    HW120306   1.290   5.625   6.949 -1.6696 -1.0139 -0.1396
 6469SOL    HW220307   1.418   5.575   6.860  0.4463  1.7171  1.1778
 6470SOL     OW20308   1.785   2.883   2.606  0.1924 -0.0684 -0.0124
 6470SOL    HW120309   1.812   2.979   2.613  0.4594 -0.1201 -0.3068
 6470SOL    HW220310   1.860   2.825   2.639  0.4229 -0.2107 -0.7755
 6471SOL     OW20311   2.836   1.539   4.780  0.4090 -0.0425 -0.0219
 6471SOL    HW120312   2.777   1.608   4.821  0.4623 -0.9173  1.6011
 6471SOL    HW220313   2.825   1.540   4.680 -0.8920  1.1010  0.1166
 6472SOL     OW20314   5.285   1.966   2.963 -1.2117  0.3927  0.1274
 6472SOL    HW120315   5.271   2.063   2.984  0.7682  0.4436  1.3816
 6472SOL    HW220316   5.214   1.936   2.899 -2.0246  2.5835 -0.0867
 6473SOL     OW20317   1.480   2.108   4.099  0.2009 -0.0976  0.1615
 6473SOL    HW120318   1.534   2.091   4.182 -0.6338 -0.2311  0.6875
 6473SOL    HW220319   1.436   2.023   4.070 -1.4545  0.4326  0.9902
 6474SOL     OW20320   6.371   4.786   4.257  0.1715  0.4279 -0.3461
 6474SOL    HW120321   6.411   4.755   4.171  1.8246 -1.5389  1.0422
 6474SOL    HW220322   6.443   4.823   4.316 -0.2281 -1.7834  1.6392
 6475SOL     OW20323   4.521   0.473   5.930 -0.3842  0.2446 -0.0629
 6475SOL    HW120324   4.523   0.471   6.030  2.6717  0.5959 -0.0211
 6475SOL    HW220325   4.479   0.389   5.896 -0.0602 -0.6051  1.5128
 6476SOL     OW20326   3.212   3.559   0.480 -0.1217 -0.6002 -0.0030
 6476SOL    HW120327   3.203   3.460   0.489 -0.5786 -0.5536  0.0516
 6476SOL    HW220328   3.284   3.579   0.413  0.1762 -0.9638  0.2002
 6477SOL     OW20329   2.076   4.335   1.605 -0.0089  0.4055 -1.1477
 6477SOL    HW120330   2.021   4.378   1.534  0.1099  1.6124 -0.5386
 6477SOL    HW220331   2.156   4.392   1.624  1.1565 -1.0175 -1.5992
 6478SOL     OW20332   5.539   1.619   5.208  0.0181 -0.4876 -0.0791
 6478SOL    HW120333   5.596   1.575   5.277  0.8659  1.8171  0.7703
 6478SOL    HW220334   5.448   1.637   5.247 -0.2433 -1.1750 -0.3431
 6479SOL     OW20335   2.660   0.317   0.551  0.4213 -0.7431  0.1471
 6479SOL    HW120336   2.661   0.341   0.454  0.1047 -1.3715 -0.0192
 6479SOL    HW220337   2.698   0.392   0.605 -1.7041  0.7024 -0.2156
 6480SOL     OW20338   2.673   5.348   5.629 -0.2788 -0.2810  0.0368
 6480SOL    HW120339   2.656   5.282   5.556 -0.8538  0.2888 -0.3473
 6480SOL    HW220340   2.750   5.406   5.604  0.6602 -1.2029  0.6611
 6481SOL     OW20341   2.973   2.011   2.876  0.4619 -0.1470  0.0119
 6481SOL    HW120342   2.914   1.982   2.951  0.3576 -1.4940 -0.5701
 6481SOL    HW220343   3.064   1.973   2.889  0.4385 -0.3985 -0.5515
 6482SOL     OW20344   3.458   4.916   2.153 -0.5091  0.1109 -0.0805
 6482SOL    HW120345   3.513   4.875   2.080  1.2194  1.4627  0.4118
 6482SOL    HW220346   3.361   4.904   2.131 -0.0907 -2.2952 -0.9988
 6483SOL     OW20347   1.357   4.770   6.250 -0.0044 -0.1915  0.3625
 6483SOL    HW120348   1.387   4.843   6.188 -0.5048  1.3853  1.8922
 6483SOL    HW220349   1.434   4.713   6.276  0.3039 -0.5716 -1.2724
 6484SOL     OW20350   3.011   1.509   6.638  0.0260 -0.4496 -0.2371
 6484SOL    HW120351   2.998   1.596   6.590 -0.2746 -0.4137 -0.0896
 6484SOL    HW220352   3.015   1.526   6.737  1.0323 -0.4724 -0.2570
 6485SOL     OW20353   0.761   5.401   0.118 -0.2412 -0.0664 -0.2280
 6485SOL    HW120354   0.756   5.398   0.218 -0.1697  0.6128 -0.2000
 6485SOL    HW220355   0.681   5.355   0.080  0.5827 -1.8858  0.1171
 6486SOL     OW20356   6.476   2.432   0.969 -0.0484  0.1972  0.5342
 6486SOL    HW120357   6.526   2.455   1.053 -1.0690  0.3410  1.1139
 6486SOL    HW220358   6.486   2.508   0.903  1.3492 -0.2260  0.2252
 6487SOL     OW20359   0.682   6.774   4.566 -0.1272 -0.0164 -0.0961
 6487SOL    HW120360   0.636   6.841   4.624  0.1532  0.1862 -0.1061
 6487SOL    HW220361   0.672   6.682   4.605 -2.0115 -0.2324 -0.9784
 6488SOL     OW20362   5.074   0.788   5.249  0.2659 -0.7771  0.0880
 6488SOL    HW120363   5.130   0.867   5.225 -1.2134  0.1420 -0.4393
 6488SOL    HW220364   4.999   0.779   5.184  0.7850 -3.0533 -0.2646
 6489SOL     OW20365   6.499   6.714   4.369  0.3017  0.0260  0.1049
 6489SOL    HW120366   6.580   6.679   4.415  0.4620 -0.3735 -0.4802
 6489SOL    HW220367   6.463   6.645   4.306 -0.6368  0.0942  0.5330
 6490SOL     OW20368   1.575   5.100   3.031  0.6182  0.4436 -0.1266
 6490SOL    HW120369   1.575   5.001   3.040  1.9727  0.4935  0.7687
 6490SOL    HW220370   1.666   5.131   3.003 -0.1549  1.3455 -1.8499
 6491SOL     OW20371   0.742   2.314   5.274 -0.7462  0.6383  0.1701
 6491SOL    HW120372   0.714   2.410   5.281  2.5706  1.7107  0.7981
 6491SOL    HW220373   0.739   2.272   5.364 -2.9791 -0.1643 -0.2336
 6492SOL     OW20374   5.628   6.258   6.689 -0.1820 -0.1000 -0.0774
 6492SOL    HW120375   5.546   6.263   6.633 -0.1203  2.9123 -0.0346
 6492SOL    HW220376   5.604   6.225   6.780 -0.7998 -2.0105 -0.8838
 6493SOL     OW20377   1.145   2.759   5.827  0.7453 -0.3200 -0.4312
 6493SOL    HW120378   1.170   2.831   5.892  2.4252 -1.1207 -0.1351
 6493SOL    HW220379   1.126   2.800   5.737  1.3404  0.5243 -0.1794
 6494SOL     OW20380   5.235   1.273   6.155  0.1811  0.7806  0.2126
 6494SOL    HW120381   5.296   1.197   6.135 -0.5438  0.4104 -0.6342
 6494SOL    HW220382   5.289   1.354   6.180  0.9551  0.0005  1.1336
 6495SOL     OW20383   6.242   5.009   0.659  0.5262  0.3724 -0.1997
 6495SOL    HW120384   6.205   4.943   0.724  0.2461 -0.6594 -1.3782
 6495SOL    HW220385   6.341   5.013   0.668  0.4702  0.3943  0.4293
 6496SOL     OW20386   3.212   1.005   1.793  0.2054  0.0059  0.3698
 6496SOL    HW120387   3.152   1.053   1.728  0.7727 -0.7562 -0.7536
 6496SOL    HW220388   3.156   0.950   1.855 -0.2753 -0.9125 -0.8357
 6497SOL     OW20389   3.200   2.793   6.172 -0.9273 -0.3452  0.6411
 6497SOL    HW120390   3.188   2.761   6.078  2.0108 -2.5981  0.8977
 6497SOL    HW220391   3.295   2.780   6.199 -0.8380  3.5913  2.8096
 6498SOL     OW20392   4.613   4.642   6.550  0.1208  0.0325  0.0580
 6498SOL    HW120393   4.598   4.740   6.535 -1.1366 -0.3285 -1.2672
 6498SOL    HW220394   4.708   4.619   6.528  0.4655  0.9582  0.5108
 6499SOL     OW20395   2.640   5.548   3.245 -0.8791  0.0658  0.0142
 6499SOL    HW120396   2.661   5.621   3.180  1.1952  0.4552  1.0260
 6499SOL    HW220397   2.686   5.567   3.332 -0.9105 -2.0729  0.5489
 6500SOL     OW20398   5.109   5.389   6.086 -0.0356  0.0929 -0.5651
 6500SOL    HW120399   5.129   5.483   6.057 -0.8290  0.0405 -1.3187
 6500SOL    HW220400   5.011   5.380   6.102  0.2000 -0.2795  0.7443
 6501SOL     OW20401   2.445   3.215   1.036  0.4507 -0.2139 -0.0536
 6501SOL    HW120402   2.454   3.305   0.992 -0.0000 -0.7689 -1.3145
 6501SOL    HW220403   2.452   3.143   0.967  0.4916 -1.1470  0.9020
 6502SOL     OW20404   6.121   0.942   1.334  0.3037 -0.1768 -0.0644
 6502SOL    HW120405   6.096   1.007   1.405  0.3374  0.1204 -0.3219
 6502SOL    HW220406   6.207   0.897   1.359  0.2512 -0.1636  0.1409
 6503SOL     OW20407   3.074   4.229   1.505 -0.9507 -0.1646 -0.0211
 6503SOL    HW120408   3.008   4.240   1.580 -2.2461 -0.9842 -1.0018
 6503SOL    HW220409   3.096   4.318   1.466 -0.3143  0.2694  1.2594
 6504SOL     OW20410   3.234   3.127   2.577 -0.4131 -0.4758 -0.0340
 6504SOL    HW120411   3.171   3.085   2.643 -2.1973  0.7860 -0.8354
 6504SOL    HW220412   3.326   3.128   2.615 -1.1572 -0.8949  1.9190
 6505SOL     OW20413   5.964   3.424   6.353  0.1652  0.2322 -0.2247
 6505SOL    HW120414   5.935   3.341   6.400 -1.7436  1.6136  1.2699
 6505SOL    HW220415   6.049   3.457   6.394 -0.8792  0.8004  1.6505
 6506SOL     OW20416   6.121   3.083   0.965 -0.0863  0.1907 -0.1704
 6506SOL    HW120417   6.172   2.998   0.977 -1.7409 -0.6011  2.0186
 6506SOL    HW220418   6.181   3.161   0.983  1.0194 -0.5707 -0.4567
 6507SOL     OW20419   6.834   1.279   6.041 -0.1936  0.1818  0.6945
 6507SOL    HW120420   6.918   1.250   6.087  0.2013 -0.1632 -0.2181
 6507SOL    HW220421   6.781   1.199   6.014  1.0722  0.1867 -2.1516
 6508SOL     OW20422   5.339   5.736   0.819 -0.0201 -0.1043  0.1629
 6508SOL    HW120423   5.263   5.680   0.789  1.5927 -2.0441 -0.5307
 6508SOL    HW220424   5.425   5.687   0.805  1.5630  2.6834 -0.9044
 6509SOL     OW20425   6.944   2.773   0.912 -0.6629  0.4635  0.0509
 6509SOL    HW120426   6.996   2.703   0.862 -0.5692  0.4252  0.1987
 6509SOL    HW220427   6.896   2.832   0.848  0.4809  1.2215 -0.1387
 6510SOL     OW20428   6.407   6.182   5.340  0.4535  0.6687 -0.1340
 6510SOL    HW120429   6.435   6.276   5.322  2.4747  0.1235 -0.0536
 6510SOL    HW220430   6.486   6.121   5.332 -0.6425 -0.9297  0.5952
 6511SOL     OW20431   5.674   3.703   0.494  0.1658  0.1218  0.6719
 6511SOL    HW120432   5.746   3.769   0.514  0.3709 -0.1956  0.9876
 6511SOL    HW220433   5.585   3.750   0.493  0.4673  0.7016 -0.7216
 6512SOL     OW20434   4.643   1.174   3.639 -0.1672 -0.3639 -0.2161
 6512SOL    HW120435   4.717   1.241   3.635  0.0629 -0.3995  2.0301
 6512SOL    HW220436   4.667   1.102   3.705 -1.1625 -1.7189 -1.2784
 6513SOL     OW20437   6.641   5.616   6.984 -0.1244  0.5200 -0.0286
 6513SOL    HW120438   6.649   5.545   6.913  1.6334 -1.0916  1.6442
 6513SOL    HW220439   6.633   5.705   6.941 -0.4943 -0.5106 -2.2431
 6514SOL     OW20440   1.807   2.714   0.990  0.5121 -0.5294 -0.1792
 6514SOL    HW120441   1.786   2.794   0.935  0.4245 -0.9584 -0.7826
 6514SOL    HW220442   1.722   2.674   1.025  0.5457 -0.4379  0.0072
 6515SOL     OW20443   0.597   4.516   3.027  0.4409 -0.1847  0.3812
 6515SOL    HW120444   0.615   4.612   3.048 -0.7846 -0.2345  1.8890
 6515SOL    HW220445   0.657   4.458   3.083  1.9443 -0.3300 -1.3129
 6516SOL     OW20446   6.475   1.172   6.825 -0.4801  0.0734 -0.7787
 6516SOL    HW120447   6.407   1.155   6.754 -2.3267 -0.4567  1.0055
 6516SOL    HW220448   6.434   1.157   6.915  1.0604  2.8770  0.5461
 6517SOL     OW20449   5.627   5.563   6.353  0.1898 -0.1996 -0.4254
 6517SOL    HW120450   5.543   5.614   6.373  1.0243  0.3524  1.9854
 6517SOL    HW220451   5.642   5.562   6.254 -2.9525 -0.8855 -1.0310
 6518SOL     OW20452   1.527   6.356   5.854  0.4117 -0.4452 -0.0813
 6518SOL    HW120453   1.481   6.267   5.858  1.0716 -1.0456 -3.0119
 6518SOL    HW220454   1.471   6.420   5.802  1.3724 -0.1782 -0.8217
 6519SOL     OW20455   4.932   2.601   2.522 -0.0945 -0.5585  0.1096
 6519SOL    HW120456   4.852   2.639   2.476  0.4787 -0.2015 -0.6007
 6519SOL    HW220457   5.016   2.638   2.482  0.4347 -0.0106  1.6117
 6520SOL     OW20458   1.291   0.476   2.659  0.3600  0.6085 -0.2166
 6520SOL    HW120459   1.386   0.467   2.688  0.5840  0.3396 -1.0203
 6520SOL    HW220460   1.283   0.548   2.591 -0.1699  1.2510  0.5061
 6521SOL     OW20461   6.087   6.343   1.858 -0.3921 -0.2598 -0.1693
 6521SOL    HW120462   6.056   6.437   1.848 -0.9910 -0.4061  0.2722
 6521SOL    HW220463   6.184   6.342   1.880  0.1807  0.1774 -2.3899
 6522SOL     OW20464   0.102   5.803   5.136 -0.2445 -0.0206  0.3686
 6522SOL    HW120465   0.057   5.875   5.084  0.2750  0.0585  0.0273
 6522SOL    HW220466   0.054   5.791   5.223 -1.6164 -0.6949 -0.4342
 6523SOL     OW20467   5.362   4.087   1.494 -0.1922 -0.2628  0.5617
 6523SOL    HW120468   5.332   4.182   1.503  0.4444 -0.0320  0.2901
 6523SOL    HW220469   5.283   4.026   1.505 -0.8332  0.3450 -0.4840
 6524SOL     OW20470   6.018   5.178   6.588  0.4152 -0.3910 -0.3787
 6524SOL    HW120471   5.971   5.259   6.623  0.3960 -0.2089 -0.8165
 6524SOL    HW220472   5.951   5.111   6.559  0.4221 -0.2171 -0.8054
 6525SOL     OW20473   0.978   6.385   4.830  0.1869  0.6074  0.0613
 6525SOL    HW120474   1.018   6.462   4.880  0.7987  0.3741 -0.0609
 6525SOL    HW220475   1.019   6.300   4.863 -1.6776  0.1527  1.4010
 6526SOL     OW20476   3.784   4.542   6.875 -0.0841 -0.0325  0.7825
 6526SOL    HW120477   3.745   4.612   6.815  1.2926  0.5294  0.5147
 6526SOL    HW220478   3.842   4.586   6.944  0.7933 -0.8997  0.6146
 6527SOL     OW20479   0.744   5.517   2.579 -0.0493 -0.0216  0.7641
 6527SOL    HW120480   0.682   5.487   2.506 -0.0115  1.5400  0.0336
 6527SOL    HW220481   0.711   5.483   2.667 -2.7530  1.7787  0.5892
 6528SOL     OW20482   0.893   3.399   2.484 -0.4618  0.0828 -0.0874
 6528SOL    HW120483   0.968   3.345   2.522 -0.7168  0.4826  1.0221
 6528SOL    HW220484   0.811   3.387   2.541 -0.1611  2.6475  1.0111
 6529SOL     OW20485   1.897   6.073   1.240 -0.6571  0.0086  0.1992
 6529SOL    HW120486   1.946   6.070   1.327 -0.5837 -0.8367  0.1438
 6529SOL    HW220487   1.810   6.120   1.252  0.1298  1.5076  0.3059
 6530SOL     OW20488   2.141   4.952   1.010  0.1730 -0.5148  0.1610
 6530SOL    HW120489   2.077   5.029   1.013  2.1665  1.2045  2.3938
 6530SOL    HW220490   2.202   4.963   0.932 -0.3382 -0.5101 -0.2406
 6531SOL     OW20491   2.887   2.021   0.472  0.3626  0.3522 -0.3352
 6531SOL    HW120492   2.983   2.040   0.452  0.6482  0.2675  0.8786
 6531SOL    HW220493   2.865   2.055   0.564 -0.6248 -0.1145 -0.3884
 6532SOL     OW20494   1.499   4.150   0.978 -0.5111 -0.2337 -0.2342
 6532SOL    HW120495   1.414   4.100   0.995 -2.5292  1.1768 -4.6065
 6532SOL    HW220496   1.486   4.247   1.000  0.3054 -0.1553 -0.0823
 6533SOL     OW20497   4.789   5.812   4.850 -0.1861  0.0170  0.5229
 6533SOL    HW120498   4.793   5.713   4.836  0.5863  0.0783  0.3049
 6533SOL    HW220499   4.697   5.837   4.880 -0.1271 -0.8839  1.5192
 6534SOL     OW20500   2.662   0.296   4.728  0.2001 -0.7707  0.4611
 6534SOL    HW120501   2.710   0.213   4.758  1.2304 -0.2556  0.2980
 6534SOL    HW220502   2.708   0.333   4.647  0.7897  0.8713  1.4992
 6535SOL     OW20503   6.718   3.605   3.407  0.0782 -0.1853 -0.2755
 6535SOL    HW120504   6.729   3.583   3.503 -2.1927 -0.4601 -0.0112
 6535SOL    HW220505   6.712   3.704   3.395  1.1191 -0.1134 -0.2514
 6536SOL     OW20506   1.972   0.475   3.170 -0.0727  0.6429 -0.3966
 6536SOL    HW120507   2.052   0.504   3.118  0.4037  0.0110 -0.0398
 6536SOL    HW220508   1.962   0.375   3.164 -1.5258  0.8110 -1.4016
 6537SOL     OW20509   6.159   3.807   6.948 -0.0634 -0.6604  0.2479
 6537SOL    HW120510   6.180   3.770   7.039 -3.0426 -0.3121  1.1869
 6537SOL    HW220511   6.062   3.831   6.943  0.2694  0.5427 -2.6452
 6538SOL     OW20512   5.391   0.284   0.777 -0.1563  0.4255 -0.1357
 6538SOL    HW120513   5.413   0.343   0.698 -0.7859 -0.4913 -1.0246
 6538SOL    HW220514   5.298   0.249   0.767 -0.0519 -0.1245  0.7590
 6539SOL     OW20515   0.830   5.270   2.114  0.4058 -0.1485  0.1308
 6539SOL    HW120516   0.741   5.264   2.069 -0.0841 -0.1803  1.0854
 6539SOL    HW220517   0.863   5.178   2.136  0.5013 -0.1197  0.1103
 6540SOL     OW20518   3.983   0.731   1.298 -0.2656 -0.1695  0.0175
 6540SOL    HW120519   3.949   0.783   1.220 -0.7009  1.0124  0.9615
 6540SOL    HW220520   4.041   0.656   1.266 -3.8600 -2.4602 -1.6808
 6541SOL     OW20521   1.311   4.959   4.731 -0.4179  0.3419  0.7704
 6541SOL    HW120522   1.272   4.879   4.776 -1.6149  0.2020 -0.4366
 6541SOL    HW220523   1.261   4.977   4.646  1.5138  0.8034 -0.3270
 6542SOL     OW20524   3.665   1.239   2.438  0.7479 -0.1041  0.3571
 6542SOL    HW120525   3.650   1.242   2.536  0.6213 -1.4877  0.4007
 6542SOL    HW220526   3.661   1.144   2.406 -1.0983  0.4469 -1.2783
 6543SOL     OW20527   4.458   1.207   5.426 -0.4323 -0.4233 -0.1304
 6543SOL    HW120528   4.528   1.234   5.492  0.1851  0.9081 -1.2751
 6543SOL    HW220529   4.420   1.118   5.451  0.3959 -0.3404  1.5084
 6544SOL     OW20530   4.545   6.647   2.042 -0.5441 -0.1303 -0.4695
 6544SOL    HW120531   4.573   6.743   2.043  0.5458 -0.4227  0.8162
 6544SOL    HW220532   4.611   6.593   2.095 -1.4625 -1.4970 -0.6752
 6545SOL     OW20533   3.806   0.702   4.041  0.1628  0.0684  0.0153
 6545SOL    HW120534   3.784   0.768   3.970 -0.2074 -0.8280 -0.7219
 6545SOL    HW220535   3.747   0.621   4.032 -1.0372  0.5919  2.3356
 6546SOL     OW20536   6.091   4.908   6.987  0.1874  0.4133 -0.4072
 6546SOL    HW120537   6.137   4.876   7.069 -0.1907 -1.4078 -0.8677
 6546SOL    HW220538   6.021   4.976   7.012  0.4023  0.2437  0.7021
 6547SOL     OW20539   2.708   0.402   0.292  0.6473  0.0424  0.4343
 6547SOL    HW120540   2.702   0.353   0.205  2.7431  0.8385 -0.2276
 6547SOL    HW220541   2.801   0.393   0.329  0.7552  2.4463  0.9075
 6548SOL     OW20542   2.593   1.968   6.857  0.1103 -0.6333 -0.4584
 6548SOL    HW120543   2.517   1.986   6.919  1.0975 -1.5495  1.0826
 6548SOL    HW220544   2.640   1.884   6.885  2.6423  0.7326 -0.3938
 6549SOL     OW20545   0.198   4.753   3.779  0.0486 -0.3664  0.1959
 6549SOL    HW120546   0.116   4.754   3.721 -0.9385 -0.8210  1.5341
 6549SOL    HW220547   0.269   4.810   3.738 -1.3170  0.9242 -0.4539
 6550SOL     OW20548   2.384   6.012   0.813  0.0338  0.8310  0.7925
 6550SOL    HW120549   2.302   5.954   0.805  1.6001 -1.4670  0.2942
 6550SOL    HW220550   2.409   6.020   0.910  1.2955 -1.6884  0.7479
 6551SOL     OW20551   1.586   6.832   4.762  0.0172  0.3599 -0.1157
 6551SOL    HW120552   1.562   6.876   4.675 -0.4729  0.6427  0.1618
 6551SOL    HW220553   1.513   6.768   4.788  0.9253 -0.9588 -0.7403
 6552SOL     OW20554   0.722   3.459   1.624  0.3668  0.1559 -0.2192
 6552SOL    HW120555   0.624   3.439   1.629  0.3843  0.0933 -0.1359
 6552SOL    HW220556   0.742   3.540   1.678  0.4628 -0.1907  0.2647
 6553SOL     OW20557   0.170   6.258   6.442 -0.1541 -0.2333 -0.6476
 6553SOL    HW120558   0.114   6.223   6.367  0.8570 -0.0822 -1.4990
 6553SOL    HW220559   0.140   6.216   6.528 -2.0572  0.4117 -0.9418
 6554SOL     OW20560   3.890   0.897   2.159 -0.7968  0.0474 -0.4919
 6554SOL    HW120561   3.956   0.833   2.196  1.3194  2.7312  0.7346
 6554SOL    HW220562   3.825   0.923   2.231 -0.2195  0.9481 -0.2753
 6555SOL     OW20563   3.306   3.817   5.348 -0.3851 -0.2981  0.5215
 6555SOL    HW120564   3.334   3.726   5.378 -1.4325 -1.0302 -0.6320
 6555SOL    HW220565   3.328   3.829   5.251  2.5611  1.8707  1.2851
 6556SOL     OW20566   3.761   4.058   3.579 -0.0689  0.3392  0.7139
 6556SOL    HW120567   3.846   4.064   3.526 -0.8008  1.4902 -0.3843
 6556SOL    HW220568   3.703   3.987   3.539 -0.0007  0.1641  0.9223
 6557SOL     OW20569   5.156   1.323   6.427 -0.1640  0.2890  0.0803
 6557SOL    HW120570   5.207   1.404   6.457 -0.9879  0.8582 -0.0425
 6557SOL    HW220571   5.211   1.272   6.360  1.2646 -0.4374  1.7210
 6558SOL     OW20572   5.493   3.165   2.940 -0.3019 -0.0419 -0.6362
 6558SOL    HW120573   5.589   3.135   2.942 -0.6815 -1.4494  2.4439
 6558SOL    HW220574   5.487   3.252   2.891  2.5769  0.2238 -0.7244
 6559SOL     OW20575   1.330   6.460   0.610  0.0865  0.0379 -0.0693
 6559SOL    HW120576   1.401   6.392   0.590  0.5968  0.1294  1.3539
 6559SOL    HW220577   1.341   6.494   0.703  0.1768  2.4685 -0.8939
 6560SOL     OW20578   6.408   6.156   5.898  0.1695 -0.2050 -0.2795
 6560SOL    HW120579   6.376   6.092   5.968  0.3501  0.9527  0.9130
 6560SOL    HW220580   6.329   6.187   5.845 -0.5970  1.5130  1.6948
 6561SOL     OW20581   1.677   4.322   2.631 -0.5126  0.3753 -0.1220
 6561SOL    HW120582   1.667   4.396   2.565  0.3828  1.0227  0.4459
 6561SOL    HW220583   1.650   4.235   2.588 -1.9571  1.0611 -0.6637
 6562SOL     OW20584   2.276   2.108   5.955  0.1905 -0.2173 -0.5693
 6562SOL    HW120585   2.359   2.082   6.004 -0.3161  2.2742  1.8276
 6562SOL    HW220586   2.204   2.041   5.974  1.0200 -1.2300 -0.9172
 6563SOL     OW20587   5.518   0.209   5.532 -0.4683  0.1743  0.1514
 6563SOL    HW120588   5.496   0.305   5.544 -0.0870  0.2816  0.0151
 6563SOL    HW220589   5.535   0.167   5.621  0.0890  0.4139  0.1649
 6564SOL     OW20590   1.521   4.088   6.140  0.2961  0.3637  0.7769
 6564SOL    HW120591   1.550   4.181   6.164  2.2058 -0.3042  1.2441
 6564SOL    HW220592   1.436   4.092   6.088  0.0507  2.3328  1.2503
 6565SOL     OW20593   4.347   1.111   3.281  0.0200 -0.3743  0.0621
 6565SOL    HW120594   4.315   1.073   3.193  0.0894  0.1249 -0.1838
 6565SOL    HW220595   4.294   1.071   3.355  1.2742 -2.3210 -0.0053
 6566SOL     OW20596   4.268   6.726   6.439 -0.4101 -0.1293  0.0890
 6566SOL    HW120597   4.368   6.733   6.433 -0.5344  1.7312 -0.7621
 6566SOL    HW220598   4.243   6.661   6.510  1.4019 -1.0252 -0.0330
 6567SOL     OW20599   2.070   4.779   0.039  0.2566 -0.3372  0.2214
 6567SOL    HW120600   1.996   4.844   0.019  0.8381  0.2004 -0.2068
 6567SOL    HW220601   2.157   4.818   0.010  0.4886 -1.8407 -1.2526
 6568SOL     OW20602   0.514   2.237   4.166 -0.1174 -0.0539 -0.1120
 6568SOL    HW120603   0.604   2.212   4.203 -0.2231 -0.5730 -0.1931
 6568SOL    HW220604   0.500   2.335   4.177  0.0249 -0.1253  0.8625
 6569SOL     OW20605   3.068   1.391   1.847  0.3263  0.6672  0.0673
 6569SOL    HW120606   3.042   1.375   1.943 -2.8734  0.4880 -0.6969
 6569SOL    HW220607   3.083   1.489   1.833 -0.0562  0.8079  0.5948
 6570SOL     OW20608   4.983   3.146   6.966  0.3468  0.2616 -0.0972
 6570SOL    HW120609   5.053   3.189   6.909  0.4710  0.7727  0.4232
 6570SOL    HW220610   4.995   3.176   7.061  0.9369 -1.5734  0.4377
 6571SOL     OW20611   0.691   6.409   3.848  0.0259  0.0114 -0.9363
 6571SOL    HW120612   0.762   6.427   3.916  0.1796 -0.0132 -1.0919
 6571SOL    HW220613   0.729   6.356   3.772  0.2750  1.4869 -1.8794
 6572SOL     OW20614   3.357   3.940   0.784 -0.8380 -0.5199  0.4160
 6572SOL    HW120615   3.383   4.029   0.746 -0.3615 -1.3285 -1.2490
 6572SOL    HW220616   3.324   3.952   0.877 -0.6379  1.3784  0.2811
 6573SOL     OW20617   4.776   5.955   0.173  0.5527 -0.3650 -0.5547
 6573SOL    HW120618   4.734   5.865   0.183  2.5068 -1.1696  1.0748
 6573SOL    HW220619   4.817   5.963   0.081  1.1788 -1.5374 -0.3961
 6574SOL     OW20620   3.767   6.623   5.281 -0.2365  0.4681  0.4001
 6574SOL    HW120621   3.795   6.709   5.237 -0.2663  0.4436  0.3329
 6574SOL    HW220622   3.669   6.609   5.265 -0.2368  0.4352  0.4342
 6575SOL     OW20623   1.791   0.611   2.720 -0.3693 -0.2996 -0.3458
 6575SOL    HW120624   1.853   0.685   2.695  0.6357 -0.6910  0.8810
 6575SOL    HW220625   1.797   0.595   2.819 -3.0345  0.1867 -0.0176
 6576SOL     OW20626   5.402   5.227   6.907 -0.5651 -0.1528 -0.6665
 6576SOL    HW120627   5.329   5.215   6.974  0.1488  1.0206  0.3534
 6576SOL    HW220628   5.371   5.193   6.818 -1.7420 -1.1963  0.0987
 6577SOL     OW20629   2.066   4.138   4.971 -0.2544 -0.0618  0.3217
 6577SOL    HW120630   2.122   4.058   4.991 -2.6949 -2.5113 -1.7224
 6577SOL    HW220631   2.072   4.160   4.874 -0.1360  1.9177  0.7247
 6578SOL     OW20632   1.496   6.152   2.770 -0.3678  0.3347  0.0117
 6578SOL    HW120633   1.455   6.107   2.691  1.4702  1.0459 -1.4074
 6578SOL    HW220634   1.507   6.086   2.844  0.1137 -0.9634 -1.1882
 6579SOL     OW20635   5.982   1.473   0.217 -0.0212  0.4971  0.5828
 6579SOL    HW120636   5.993   1.436   0.124  1.3235 -1.2388  1.3660
 6579SOL    HW220637   5.921   1.552   0.214 -0.3937  0.2117 -1.7035
 6580SOL     OW20638   2.183   6.011   2.757  0.1598 -0.6130  0.2917
 6580SOL    HW120639   2.259   6.068   2.727  1.0328 -2.2434 -0.7391
 6580SOL    HW220640   2.101   6.032   2.704 -0.2117  1.2697  1.5215
 6581SOL     OW20641   4.346   4.145   6.791 -0.4067 -0.0635 -0.4558
 6581SOL    HW120642   4.387   4.056   6.774 -0.3748 -0.0826 -0.2863
 6581SOL    HW220643   4.267   4.158   6.732 -1.7532 -1.1235  1.0317
 6582SOL     OW20644   5.661   2.149   5.693 -0.3735  0.0951  0.1948
 6582SOL    HW120645   5.610   2.075   5.648  2.5202 -1.6243 -0.5133
 6582SOL    HW220646   5.756   2.148   5.661 -0.1104  4.0141  0.3749
 6583SOL     OW20647   5.554   4.566   1.200 -0.3850 -0.1179 -0.2522
 6583SOL    HW120648   5.560   4.573   1.299 -1.4638  0.0189 -0.1905
 6583SOL    HW220649   5.644   4.545   1.163  0.0179 -0.2128  0.7565
 6584SOL     OW20650   5.518   2.603   0.575 -0.1662  0.8674  0.5135
 6584SOL    HW120651   5.445   2.671   0.586 -1.5998 -0.4782 -0.2067
 6584SOL    HW220652   5.481   2.512   0.594  1.0174  0.0111 -1.0633
 6585SOL     OW20653   4.163   5.404   2.289  0.5324  0.1887  0.0368
 6585SOL    HW120654   4.153   5.457   2.373  1.2790 -0.1269  0.3347
 6585SOL    HW220655   4.231   5.447   2.230  0.3272  0.1718 -0.2160
 6586SOL     OW20656   4.073   3.353   6.852  0.4860  0.2305  0.1099
 6586SOL    HW120657   4.159   3.387   6.815  0.4402  1.0917  0.7426
 6586SOL    HW220658   4.012   3.430   6.870 -1.3548 -0.4918 -2.4857
 6587SOL     OW20659   5.486   6.595   1.334 -0.6821 -0.5657  0.3443
 6587SOL    HW120660   5.548   6.653   1.387  0.8275 -1.5055 -0.2957
 6587SOL    HW220661   5.465   6.639   1.247 -1.0161 -0.1776  0.6232
 6588SOL     OW20662   6.567   1.025   4.166  0.2573  0.4786  0.1386
 6588SOL    HW120663   6.490   1.087   4.180 -0.8847 -0.3821 -1.9385
 6588SOL    HW220664   6.618   1.052   4.085 -0.9624 -1.8587 -1.5233
 6589SOL     OW20665   6.677   4.723   0.535  0.2779 -0.7345  0.0401
 6589SOL    HW120666   6.690   4.646   0.597 -1.1715 -1.1196 -0.0939
 6589SOL    HW220667   6.665   4.689   0.442 -0.3996 -0.3618 -0.0167
 6590SOL     OW20668   4.111   4.352   6.251  0.1928 -0.2913  0.3594
 6590SOL    HW120669   4.180   4.308   6.309  1.7820  1.6886  0.0941
 6590SOL    HW220670   4.128   4.328   6.155  0.9628  0.7238  0.2298
 6591SOL     OW20671   4.708   5.316   5.144  0.5373  0.3192  0.3357
 6591SOL    HW120672   4.726   5.379   5.068  1.7855 -0.9009 -0.4379
 6591SOL    HW220673   4.787   5.313   5.205  0.5123 -0.4912  0.3493
 6592SOL     OW20674   5.088   4.757   5.148 -0.2727 -0.0958  0.2415
 6592SOL    HW120675   5.068   4.826   5.217  3.1105  0.5689  0.7371
 6592SOL    HW220676   5.080   4.666   5.188 -2.0547  0.0828  0.3647
 6593SOL     OW20677   6.613   2.365   6.840  0.5785  0.0120 -0.3441
 6593SOL    HW120678   6.561   2.283   6.816  0.0106 -0.1909  1.4384
 6593SOL    HW220679   6.611   2.378   6.939  0.3321  2.4089 -0.6116
 6594SOL     OW20680   4.371   4.559   2.983  0.0363  0.0399  0.1730
 6594SOL    HW120681   4.293   4.517   3.029  0.2479  0.1319  0.6217
 6594SOL    HW220682   4.411   4.629   3.043  0.1233  0.3816 -0.2761
 6595SOL     OW20683   1.335   6.384   4.221  0.5689  0.1287  0.3692
 6595SOL    HW120684   1.317   6.293   4.185 -1.3317  0.1651  1.0989
 6595SOL    HW220685   1.415   6.423   4.175  0.6860 -1.4096 -0.8144
 6596SOL     OW20686   4.552   1.780   1.106  0.0746  0.3885 -0.3843
 6596SOL    HW120687   4.489   1.715   1.148 -0.5948  0.6214 -1.0043
 6596SOL    HW220688   4.642   1.772   1.149  0.2301 -1.4881 -0.9496
 6597SOL     OW20689   4.485   1.385   3.068 -0.0903 -0.4897  0.3054
 6597SOL    HW120690   4.473   1.393   3.167  2.8056  0.5431  0.6541
 6597SOL    HW220691   4.468   1.473   3.025 -2.4768 -1.1932 -0.3468
 6598SOL     OW20692   2.827   0.629   2.131 -0.0801  0.1071  0.8934
 6598SOL    HW120693   2.816   0.722   2.166  2.0095  0.6846  0.1555
 6598SOL    HW220694   2.780   0.621   2.043  0.0046  0.5839  0.7990
 6599SOL     OW20695   1.229   3.381   6.248 -0.0345  0.5973 -0.3006
 6599SOL    HW120696   1.204   3.399   6.343 -0.1622  2.2872 -0.6258
 6599SOL    HW220697   1.147   3.385   6.190  0.2846  1.3394 -0.7115
 6600SOL     OW20698   0.463   4.767   3.478  0.1006  0.0657 -0.0169
 6600SOL    HW120699   0.502   4.764   3.570  1.6317  0.8632 -0.6152
 6600SOL    HW220700   0.372   4.808   3.482  0.2415  0.2993  1.1058
 6601SOL     OW20701   1.608   2.634   4.124  0.1750  0.3156  0.2002
 6601SOL    HW120702   1.556   2.705   4.171 -0.4060 -1.2576  2.0619
 6601SOL    HW220703   1.594   2.547   4.170  2.1633 -0.7239 -1.0382
 6602SOL     OW20704   6.570   0.528   1.754  0.0162  0.2736  0.4641
 6602SOL    HW120705   6.665   0.523   1.784  0.9157  0.3487 -2.1265
 6602SOL    HW220706   6.535   0.435   1.739  0.1869  0.2865 -0.0214
 6603SOL     OW20707   2.670   2.904   5.898  0.4688  0.1241  0.7353
 6603SOL    HW120708   2.726   2.987   5.900 -1.8479  1.7527  0.7259
 6603SOL    HW220709   2.597   2.911   5.966 -2.6862  0.3065 -2.3892
 6604SOL     OW20710   6.005   2.596   1.949 -0.1195 -0.1495  0.3473
 6604SOL    HW120711   5.930   2.609   1.884  1.3964 -1.1483 -1.7075
 6604SOL    HW220712   5.999   2.665   2.021  0.4308  3.8608 -3.0678
 6605SOL     OW20713   1.022   6.508   6.043 -0.0506 -0.4846  0.4361
 6605SOL    HW120714   1.032   6.512   5.944  2.5632 -1.4048  0.5967
 6605SOL    HW220715   1.010   6.412   6.071  0.8567 -0.4147  1.1020
 6606SOL     OW20716   0.034   4.434   4.991 -0.3230  0.4727 -0.6009
 6606SOL    HW120717   0.030   4.519   5.043  0.9429  0.2533 -0.1005
 6606SOL    HW220718  -0.034   4.435   4.918 -1.5710  1.1460  0.5365
 6607SOL     OW20719   2.296   3.987   6.364 -0.4748 -0.3222  0.3225
 6607SOL    HW120720   2.215   4.044   6.350 -0.3813 -0.1425  0.5122
 6607SOL    HW220721   2.352   3.988   6.281 -1.0699 -1.0976 -0.1030
 6608SOL     OW20722   4.951   3.796   6.554  0.0146 -0.0876  0.1379
 6608SOL    HW120723   4.853   3.774   6.553 -0.3417  1.4124 -0.3324
 6608SOL    HW220724   4.989   3.772   6.642 -1.2767  1.2358  1.1169
 6609SOL     OW20725   6.980   1.995   2.631  0.1533 -0.1565 -0.5081
 6609SOL    HW120726   7.059   2.054   2.618 -0.7227  1.2183  0.1220
 6609SOL    HW220727   6.970   1.974   2.729  0.1728 -0.9544 -0.6732
 6610SOL     OW20728   6.607   4.972   0.940  0.1058  1.2667  0.4424
 6610SOL    HW120729   6.693   5.022   0.940  0.6108  0.4221 -0.1013
 6610SOL    HW220730   6.563   4.981   1.029  2.9886 -2.0107  2.4433
 6611SOL     OW20731   0.940   4.536   6.881 -0.2790 -0.8976  0.0207
 6611SOL    HW120732   0.894   4.555   6.794 -1.1993 -1.2311  0.4192
 6611SOL    HW220733   0.987   4.618   6.913  0.8285 -1.0239 -1.2316
 6612SOL     OW20734   5.367   5.997   1.598 -0.2028 -0.1554  0.3167
 6612SOL    HW120735   5.340   6.064   1.667  1.1736  0.3858  0.3500
 6612SOL    HW220736   5.294   5.930   1.586 -1.6238  1.3462  0.2676
 6613SOL     OW20737   2.734   4.511   6.585  0.2732 -0.0733 -0.1440
 6613SOL    HW120738   2.803   4.523   6.657  1.3887 -0.7397 -1.0642
 6613SOL    HW220739   2.687   4.425   6.597  0.4070 -0.1490 -0.1547
 6614SOL     OW20740   6.918   0.620   2.255 -0.0867 -0.6039  0.6995
 6614SOL    HW120741   6.821   0.607   2.274 -0.4004 -0.2609 -0.5976
 6614SOL    HW220742   6.943   0.716   2.271 -0.0533 -0.5951  0.5907
 6615SOL     OW20743   6.974   1.844   4.145 -0.5614  0.1678 -0.1156
 6615SOL    HW120744   6.955   1.885   4.056 -2.2368  2.4177  1.1879
 6615SOL    HW220745   6.888   1.813   4.187  0.2511 -1.3207  0.5364
 6616SOL     OW20746   1.258   3.005   6.616 -0.0394  0.9916 -0.1843
 6616SOL    HW120747   1.319   3.009   6.537  1.3820  1.0028  0.8817
 6616SOL    HW220748   1.240   3.098   6.650  0.4795  0.9136  0.3251
 6617SOL     OW20749   6.188   2.436   6.429 -0.5436  0.0062 -0.5319
 6617SOL    HW120750   6.183   2.338   6.445 -0.0522 -0.0067 -0.4667
 6617SOL    HW220751   6.283   2.466   6.429 -0.6759  0.4410 -0.8020
 6618SOL     OW20752   2.584   2.829   0.340 -0.5297  0.4310  0.4633
 6618SOL    HW120753   2.567   2.927   0.345 -0.5841  0.4787 -0.3821
 6618SOL    HW220754   2.505   2.780   0.377 -1.1246  0.7016 -0.3888
 6619SOL     OW20755   4.188   3.194   5.450  0.3920  0.1601 -0.3092
 6619SOL    HW120756   4.245   3.271   5.420  0.8024  0.3729  0.9104
 6619SOL    HW220757   4.203   3.115   5.391  1.3559  0.4698 -0.4974
 6620SOL     OW20758   1.935   3.583   1.134 -0.6501 -0.2764 -0.1048
 6620SOL    HW120759   1.858   3.626   1.086 -0.8719  1.2246  1.5076
 6620SOL    HW220760   1.952   3.630   1.220  2.2714 -0.3706 -0.5068
 6621SOL     OW20761   5.850   6.645   2.122  0.3898  0.2428 -0.2651
 6621SOL    HW120762   5.941   6.663   2.161  0.1729  0.3277  0.2097
 6621SOL    HW220763   5.782   6.701   2.168  0.1965  0.7463 -1.1434
 6622SOL     OW20764   6.109   2.636   6.069 -0.1657  0.5043  0.0541
 6622SOL    HW120765   6.115   2.734   6.051  2.0556  0.5896  0.9322
 6622SOL    HW220766   6.200   2.595   6.064 -1.0716 -1.5853 -0.5137
 6623SOL     OW20767   4.130   1.226   5.603 -0.2183 -0.0121 -0.2465
 6623SOL    HW120768   4.167   1.309   5.644  0.0368 -0.2743  0.0586
 6623SOL    HW220769   4.141   1.230   5.504 -0.2212  0.3223 -0.2354
 6624SOL     OW20770   0.527   1.073   0.969  0.3603 -0.1081  0.1243
 6624SOL    HW120771   0.576   1.117   0.893  1.1694  0.5665  0.9999
 6624SOL    HW220772   0.577   0.991   0.998  0.3619 -0.0482  0.2917
 6625SOL     OW20773   3.714   6.504   0.584 -0.3711 -0.2840  0.5285
 6625SOL    HW120774   3.773   6.424   0.598  0.8408  0.6969  1.2675
 6625SOL    HW220775   3.643   6.505   0.655  0.1896 -0.2155  1.1026
 6626SOL     OW20776   1.340   2.111   5.133  0.1783 -0.3365  0.4384
 6626SOL    HW120777   1.356   2.194   5.186 -0.2647 -0.6445  1.0659
 6626SOL    HW220778   1.409   2.043   5.157  1.2951  0.2472 -0.9697
 6627SOL     OW20779   0.888   1.122   0.515 -0.0495 -0.3686  0.3947
 6627SOL    HW120780   0.819   1.051   0.525 -1.4533  0.9712  0.6241
 6627SOL    HW220781   0.957   1.093   0.449 -0.2668 -2.1516  0.9208
 6628SOL     OW20782   2.761   0.541   0.660 -0.2337  0.5855 -0.0956
 6628SOL    HW120783   2.771   0.639   0.681 -0.4239  0.7651 -0.8123
 6628SOL    HW220784   2.849   0.495   0.675 -0.2066  0.8123  0.4894
 6629SOL     OW20785   0.790   0.561   1.219 -0.2907  0.5449  0.2088
 6629SOL    HW120786   0.754   0.582   1.311 -2.8593  0.9865 -0.8061
 6629SOL    HW220787   0.725   0.501   1.172  0.5197  1.0795 -1.6616
 6630SOL     OW20788   0.029   5.823   0.561 -0.4574 -0.5040  0.2013
 6630SOL    HW120789   0.111   5.770   0.582  0.0917 -0.2382 -1.1289
 6630SOL    HW220790  -0.027   5.772   0.495 -1.0513 -0.3957  0.6108
 6631SOL     OW20791   1.014   5.958   3.386  0.3388  0.3359 -0.6668
 6631SOL    HW120792   1.085   6.019   3.422 -0.2557  0.1510  0.8986
 6631SOL    HW220793   0.933   5.964   3.444  0.1385 -1.6857 -0.6847
 6632SOL     OW20794   3.572   3.347   6.996  0.1244 -0.1914 -0.2574
 6632SOL    HW120795   3.476   3.372   6.985 -0.1530 -0.7980  0.7148
 6632SOL    HW220796   3.611   3.395   7.074  0.4757 -0.3376 -0.3378
 6633SOL     OW20797   4.177   5.541   4.652  0.1443  0.1057  0.0414
 6633SOL    HW120798   4.216   5.630   4.675 -1.9054  0.8992  0.7261
 6633SOL    HW220799   4.143   5.498   4.735 -1.3465 -0.0424 -0.6169
 6634SOL     OW20800   2.517   0.477   5.115 -0.3331 -0.3217 -0.1229
 6634SOL    HW120801   2.550   0.541   5.185 -1.1313 -0.2092  0.1622
 6634SOL    HW220802   2.579   0.478   5.037  1.4438 -1.5722  1.1794
 6635SOL     OW20803   3.073   2.619   1.447 -0.2196 -0.3201  0.7920
 6635SOL    HW120804   3.106   2.571   1.529  0.0981 -0.1604  0.7618
 6635SOL    HW220805   2.992   2.573   1.412 -1.1075  0.3432  1.9207
 6636SOL     OW20806   2.795   1.406   4.349  0.0180  0.0488 -0.2595
 6636SOL    HW120807   2.882   1.378   4.307  0.7776  1.9633 -0.0401
 6636SOL    HW220808   2.720   1.383   4.287  0.8353 -0.0299 -1.2564
 6637SOL     OW20809   4.694   0.668   0.945 -0.2858  0.2107  0.5175
 6637SOL    HW120810   4.633   0.724   1.002 -1.0898 -0.0724 -0.0520
 6637SOL    HW220811   4.786   0.670   0.984 -0.4871  1.2389  0.9897
 6638SOL     OW20812   6.148   5.260   5.926  0.5924 -0.2553  0.1600
 6638SOL    HW120813   6.082   5.330   5.953 -0.4524 -0.2579 -2.2068
 6638SOL    HW220814   6.207   5.238   6.004 -2.0497 -0.1271  2.3349
 6639SOL     OW20815   4.235   2.002   0.564 -0.4056  0.1031 -0.0779
 6639SOL    HW120816   4.237   1.906   0.535  0.6830  0.2154 -0.4163
 6639SOL    HW220817   4.309   2.018   0.630 -0.3336  0.8019 -0.3293
 6640SOL     OW20818   4.157   2.299   6.135 -0.0430  0.6454 -0.0534
 6640SOL    HW120819   4.121   2.383   6.094  0.2377  0.9497  0.3077
 6640SOL    HW220820   4.213   2.250   6.068 -1.7275 -0.2357 -0.8765
 6641SOL     OW20821   6.839   4.938   0.599 -0.0109 -0.0166  0.5786
 6641SOL    HW120822   6.770   4.868   0.581  2.0067 -1.4036 -2.6737
 6641SOL    HW220823   6.903   4.905   0.669 -0.3226 -0.4772  0.6508
 6642SOL     OW20824   6.980   2.987   6.177 -0.0542  0.2022 -0.4749
 6642SOL    HW120825   6.902   2.924   6.176  0.2381 -0.1538 -1.7621
 6642SOL    HW220826   7.052   2.952   6.118  1.5389 -0.0080  1.4732
 6643SOL     OW20827   4.047   2.199   4.658  0.6478 -0.2049  0.1760
 6643SOL    HW120828   4.127   2.251   4.628  2.9480 -3.1412  0.7821
 6643SOL    HW220829   4.032   2.213   4.755  0.0371  0.7668 -0.0440
 6644SOL     OW20830   3.068   6.008   1.815  0.0959 -0.4275  0.0682
 6644SOL    HW120831   3.159   6.030   1.849 -0.2661  0.0919  0.7085
 6644SOL    HW220832   3.027   5.938   1.873  0.0886 -0.6833 -0.2381
 6645SOL     OW20833   0.921   6.028   2.810  0.2622 -0.2303 -0.2976
 6645SOL    HW120834   0.824   6.044   2.827  0.2413  0.9733 -1.4067
 6645SOL    HW220835   0.969   6.019   2.896 -0.8582 -1.0318  0.2705
 6646SOL     OW20836   1.997   4.682   4.327 -0.0337 -0.1127 -0.1465
 6646SOL    HW120837   1.950   4.654   4.410 -0.1470  0.5832  0.0318
 6646SOL    HW220838   1.929   4.711   4.259  0.0246 -1.2308 -0.6993
 6647SOL     OW20839   0.973   5.319   4.532 -0.1313 -0.3230 -0.6926
 6647SOL    HW120840   0.962   5.352   4.625  0.6199  3.3082 -1.7465
 6647SOL    HW220841   0.990   5.220   4.533 -1.1434 -0.5898  2.8667
 6648SOL     OW20842   0.583   6.087   2.124 -0.7359 -0.3657  0.5983
 6648SOL    HW120843   0.551   6.126   2.037 -2.3062 -2.3784  0.2005
 6648SOL    HW220844   0.683   6.079   2.122 -0.7931 -1.1953 -1.4141
 6649SOL     OW20845   5.423   5.225   5.832 -0.1650 -0.0437  0.0286
 6649SOL    HW120846   5.499   5.209   5.770 -0.2143  1.0442 -0.3334
 6649SOL    HW220847   5.368   5.142   5.839 -0.2331 -0.1518 -1.4900
 6650SOL     OW20848   1.121   3.420   3.122  0.0503  0.1571 -0.4095
 6650SOL    HW120849   1.159   3.447   3.034  0.8243 -0.9924 -0.4472
 6650SOL    HW220850   1.109   3.501   3.180 -0.0919  0.8693 -1.4088
 6651SOL     OW20851   4.279   5.783   4.024  0.2699  0.6641  0.1121
 6651SOL    HW120852   4.244   5.695   3.992  2.9546 -0.6177  0.3339
 6651SOL    HW220853   4.252   5.797   4.119  1.6524 -1.1297  0.8457
 6652SOL     OW20854   2.324   2.234   6.936 -0.0819 -0.2308 -0.2340
 6652SOL    HW120855   2.254   2.189   6.992 -0.4297 -1.7396 -1.7912
 6652SOL    HW220856   2.402   2.258   6.993 -1.0913 -0.2063  1.1947
 6653SOL     OW20857   5.062   1.051   1.398  0.7480  0.5665 -0.0779
 6653SOL    HW120858   5.145   1.096   1.431  0.2050  0.0232  2.1783
 6653SOL    HW220859   4.993   1.052   1.470 -1.4038  1.3806 -2.0202
 6654SOL     OW20860   4.305   2.262   3.687 -0.1323  0.1966  0.1404
 6654SOL    HW120861   4.264   2.311   3.764 -1.0915  1.2429 -1.0138
 6654SOL    HW220862   4.403   2.280   3.685 -0.2400  0.8806  0.5919
 6655SOL     OW20863   0.768   3.108   0.781 -0.7918 -0.1787 -0.2434
 6655SOL    HW120864   0.725   3.112   0.871 -0.8959  2.4497 -0.3226
 6655SOL    HW220865   0.852   3.055   0.786 -1.2703 -0.8372  1.1801
 6656SOL     OW20866   5.948   2.008   5.203 -0.2322  0.3291  0.7376
 6656SOL    HW120867   5.918   1.912   5.208  1.9880 -0.5674 -1.2339
 6656SOL    HW220868   5.963   2.033   5.107  0.8960  2.1074  1.3390
 6657SOL     OW20869   0.180   6.559   0.322 -0.0691 -0.3757 -1.0026
 6657SOL    HW120870   0.241   6.516   0.255  1.3222 -1.5439  0.9185
 6657SOL    HW220871   0.230   6.629   0.372 -0.8132 -0.1772 -0.5258
 6658SOL     OW20872   1.667   6.102   1.967 -0.1159 -0.1936  0.8852
 6658SOL    HW120873   1.749   6.066   2.013  0.3340 -1.3930 -0.7974
 6658SOL    HW220874   1.608   6.027   1.940 -0.5503  0.5154 -0.1752
 6659SOL     OW20875   1.429   2.105   5.433  0.1412 -0.6526  0.1029
 6659SOL    HW120876   1.437   2.013   5.393  0.3372 -0.6792  0.2016
 6659SOL    HW220877   1.333   2.126   5.451  0.1000 -0.8533  0.1166
 6660SOL     OW20878   1.363   4.296   3.855 -0.0437  0.6119 -0.6449
 6660SOL    HW120879   1.326   4.207   3.881  0.8064 -0.1851 -2.0399
 6660SOL    HW220880   1.410   4.337   3.933  2.4405 -1.6981 -0.7905
 6661SOL     OW20881   2.188   0.699   4.620 -0.8550 -0.2081 -0.1485
 6661SOL    HW120882   2.169   0.797   4.631 -3.0049 -0.6896  0.9812
 6661SOL    HW220883   2.133   0.662   4.546 -0.6417 -0.7168 -0.0587
 6662SOL     OW20884   5.557   2.702   0.337 -0.1121  0.1922  0.4363
 6662SOL    HW120885   5.576   2.642   0.415  1.2306 -0.1899 -0.1452
 6662SOL    HW220886   5.640   2.709   0.280 -0.5863  1.7170 -0.1063
 6663SOL     OW20887   4.811   1.234   6.228 -0.0450  0.3311  0.2417
 6663SOL    HW120888   4.835   1.159   6.289  0.8013  1.3605  1.2107
 6663SOL    HW220889   4.877   1.308   6.238 -0.1429  0.7131 -1.6230
 6664SOL     OW20890   3.901   3.097   2.972 -0.9994 -0.3454 -0.2365
 6664SOL    HW120891   3.994   3.133   2.961  0.6610 -3.2036  2.6261
 6664SOL    HW220892   3.893   3.011   2.923 -1.9558 -0.4135  0.0278
 6665SOL     OW20893   5.869   4.009   2.415 -0.1337 -0.3460  0.1932
 6665SOL    HW120894   5.775   3.988   2.439 -0.7487  2.1131  0.1816
 6665SOL    HW220895   5.883   3.991   2.317 -1.2860  1.3620 -0.3283
 6666SOL     OW20896   6.253   3.940   6.403 -0.3143 -0.1703 -0.2686
 6666SOL    HW120897   6.291   3.888   6.480  0.3430  1.7446  0.7780
 6666SOL    HW220898   6.328   3.974   6.346 -0.4500  2.0414  0.7420
 6667SOL     OW20899   0.601   3.184   0.364  0.0199  0.6035 -0.0662
 6667SOL    HW120900   0.524   3.138   0.321 -0.7422  0.3210  1.5202
 6667SOL    HW220901   0.645   3.122   0.430  0.5779  1.2963  0.2379
 6668SOL     OW20902   6.877   6.694   6.919 -0.0108  0.3203 -0.7585
 6668SOL    HW120903   6.832   6.770   6.965 -0.7581 -0.4620 -0.1692
 6668SOL    HW220904   6.941   6.650   6.982  0.2480  0.3094 -1.0239
 6669SOL     OW20905   6.269   5.972   6.064 -0.1810 -0.2984  0.2377
 6669SOL    HW120906   6.306   5.919   6.140  1.9227  1.3536  0.4632
 6669SOL    HW220907   6.197   6.032   6.098  0.3418  0.0064  0.8285
 6670SOL     OW20908   6.272   2.018   3.284 -0.2724  0.4580 -0.2543
 6670SOL    HW120909   6.210   2.084   3.241 -1.3752  0.2386  0.9649
 6670SOL    HW220910   6.282   1.938   3.224 -2.7943 -0.4117  0.3707
 6671SOL     OW20911   5.507   0.820   3.579 -0.2202  0.1051 -0.7841
 6671SOL    HW120912   5.414   0.823   3.615  0.7412 -1.2091  2.0661
 6671SOL    HW220913   5.509   0.862   3.488 -3.6011 -0.0241 -1.0344
 6672SOL     OW20914   6.956   5.801   3.524  0.5694  0.3830  0.1607
 6672SOL    HW120915   6.867   5.785   3.566  0.7323  0.8116  0.6803
 6672SOL    HW220916   6.970   5.899   3.511  1.8480  0.5285  2.1098
 6673SOL     OW20917   6.658   1.698   1.073  0.3838 -0.0347 -0.4022
 6673SOL    HW120918   6.655   1.797   1.069  0.7815  0.0022  0.0895
 6673SOL    HW220919   6.642   1.667   1.167 -1.7862 -0.5366 -0.8781
 6674SOL     OW20920   1.822   1.316   0.938 -0.2243  0.0458 -0.0941
 6674SOL    HW120921   1.817   1.399   0.994  0.3386 -1.0999  1.7642
 6674SOL    HW220922   1.737   1.264   0.949 -0.7659  0.5598 -1.6209
 6675SOL     OW20923   2.785   1.660   3.250  0.0601 -0.4455 -0.6913
 6675SOL    HW120924   2.788   1.728   3.176  0.1857 -0.1187 -0.3878
 6675SOL    HW220925   2.873   1.612   3.254  0.2889 -0.0068 -0.3326
 6676SOL     OW20926   6.790   4.762   2.782  0.2074 -0.6152  0.2953
 6676SOL    HW120927   6.722   4.813   2.835  0.2206  0.9235 -1.1072
 6676SOL    HW220928   6.878   4.809   2.787  0.4303 -0.9520 -0.3453
 6677SOL     OW20929   4.284   4.702   6.554  0.9498 -0.0420  0.3078
 6677SOL    HW120930   4.222   4.656   6.490  0.0498  0.7891  0.5423
 6677SOL    HW220931   4.369   4.725   6.508  1.2041 -1.4234  0.0395
 6678SOL     OW20932   6.591   4.383   1.510  0.0901 -0.5664  0.1335
 6678SOL    HW120933   6.532   4.309   1.542 -0.6235  0.3796  1.0799
 6678SOL    HW220934   6.534   4.457   1.473  0.4301  1.2981  2.9935
 6679SOL     OW20935   6.188   6.295   1.464 -0.0883  0.2873 -0.2715
 6679SOL    HW120936   6.227   6.235   1.395 -0.5492 -0.6378  0.2594
 6679SOL    HW220937   6.249   6.299   1.543 -0.2541  0.2053 -0.1408
 6680SOL     OW20938   2.380   3.574   0.743 -0.1016  0.2610 -0.1408
 6680SOL    HW120939   2.297   3.523   0.722 -0.0858 -0.2436  0.9301
 6680SOL    HW220940   2.371   3.668   0.712 -0.2363 -0.3073 -1.9310
 6681SOL     OW20941   1.737   5.300   6.468 -0.1769 -0.5778  0.0891
 6681SOL    HW120942   1.650   5.251   6.469 -0.3027 -0.3541  0.1371
 6681SOL    HW220943   1.794   5.270   6.544 -1.1043  0.8765  1.4161
 6682SOL     OW20944   2.160   3.174   1.977 -0.7783  0.4690  0.1195
 6682SOL    HW120945   2.170   3.274   1.972  1.0788  0.3004 -0.2214
 6682SOL    HW220946   2.164   3.136   1.885  1.9134 -0.1338  0.3924
 6683SOL     OW20947   4.743   2.719   4.830 -0.1265  0.2050 -0.4089
 6683SOL    HW120948   4.828   2.725   4.778 -0.2945  1.3490 -0.5706
 6683SOL    HW220949   4.754   2.653   4.905  1.0441  0.6829 -0.1489
 6684SOL     OW20950   6.766   1.568   5.985  0.2357  0.0710 -0.1558
 6684SOL    HW120951   6.786   1.471   5.998 -0.7941 -0.2474 -0.8568
 6684SOL    HW220952   6.754   1.611   6.074  1.0947 -0.3473  0.1750
 6685SOL     OW20953   2.303   2.019   3.119 -0.0048 -0.1780  0.1999
 6685SOL    HW120954   2.314   2.031   3.218 -0.1471 -0.3768  0.2411
 6685SOL    HW220955   2.245   2.092   3.083  0.1231 -0.0533  0.2499
 6686SOL     OW20956   4.544   2.574   5.943  0.2690  0.1363 -0.1141
 6686SOL    HW120957   4.590   2.488   5.967 -0.7039 -0.9172 -1.7952
 6686SOL    HW220958   4.466   2.554   5.884 -1.7929  1.9717  1.8521
 6687SOL     OW20959   4.159   6.779   1.032 -0.4706 -0.3040  0.0780
 6687SOL    HW120960   4.111   6.857   1.070 -2.5349 -1.6625  0.4230
 6687SOL    HW220961   4.114   6.750   0.947  1.3087 -0.0854 -0.9740
 6688SOL     OW20962   4.840   1.381   1.010  0.2409  0.0996  0.2065
 6688SOL    HW120963   4.913   1.313   1.011 -0.7822 -1.0369  0.1012
 6688SOL    HW220964   4.784   1.371   1.092  0.5233  1.3619  0.5896
 6689SOL     OW20965   0.148   0.397   5.247 -0.5763 -0.6512  0.2337
 6689SOL    HW120966   0.053   0.370   5.228 -0.5143  0.4166 -1.9219
 6689SOL    HW220967   0.209   0.352   5.182  0.2573 -0.4720  0.8843
 6690SOL     OW20968   5.030   2.088   2.333  0.1897 -0.4215 -0.1744
 6690SOL    HW120969   5.127   2.114   2.333  0.7107 -2.2621  0.2617
 6690SOL    HW220970   4.974   2.170   2.321  1.7951  0.6660 -0.5423
 6691SOL     OW20971   0.978   4.782   1.206 -0.4098 -0.0806 -0.3970
 6691SOL    HW120972   0.911   4.824   1.144 -0.5983 -0.7130 -0.6279
 6691SOL    HW220973   0.956   4.685   1.218  1.3045 -0.6887 -1.6653
 6692SOL     OW20974   5.469   2.280   1.298  0.0828 -0.0563  0.0764
 6692SOL    HW120975   5.553   2.329   1.275 -2.1049  3.0238 -2.3304
 6692SOL    HW220976   5.433   2.315   1.385  1.4141 -1.7795  1.4066
 6693SOL     OW20977   6.114   1.456   4.173  0.1144  0.0122 -0.6637
 6693SOL    HW120978   6.198   1.500   4.141  1.1808  0.4511  2.3573
 6693SOL    HW220979   6.035   1.503   4.135  1.2501  2.3058 -0.3708
 6694SOL     OW20980   3.238   4.091   5.752  0.2890  0.2483  0.7425
 6694SOL    HW120981   3.143   4.068   5.771  0.4930 -0.7939  0.5860
 6694SOL    HW220982   3.293   4.081   5.835  0.4930 -0.4898  0.5271
 6695SOL     OW20983   3.681   4.064   5.471 -0.1655  0.2559  0.7890
 6695SOL    HW120984   3.583   4.053   5.486  0.1221 -0.9585  2.0263
 6695SOL    HW220985   3.711   4.003   5.398 -0.1889 -0.1426  1.1021
 6696SOL     OW20986   3.621   5.092   2.264 -0.5416 -0.0077  0.0108
 6696SOL    HW120987   3.563   5.016   2.234  1.0045 -0.9615 -0.6918
 6696SOL    HW220988   3.716   5.074   2.237  0.1933  1.2371  1.5994
 6697SOL     OW20989   3.637   1.808   0.191 -0.2868 -0.8261  0.2089
 6697SOL    HW120990   3.700   1.786   0.117  1.2372 -0.8294  1.4701
 6697SOL    HW220991   3.674   1.884   0.245 -2.4204  0.6693 -0.2874
 6698SOL     OW20992   2.190   0.436   0.096 -0.1270  0.3252  0.1665
 6698SOL    HW120993   2.102   0.390   0.082 -0.9051  1.6915  0.4543
 6698SOL    HW220994   2.257   0.369   0.126 -1.7668 -0.3216  2.7173
 6699SOL     OW20995   4.377   4.577   5.540 -0.0784  0.1225 -0.2200
 6699SOL    HW120996   4.434   4.635   5.598  0.3274  0.3354 -0.8226
 6699SOL    HW220997   4.376   4.613   5.447  1.5691 -1.7467 -1.0392
 6700SOL     OW20998   6.845   2.904   2.494  0.0782  0.0509  0.5181
 6700SOL    HW120999   6.762   2.958   2.477  0.1185 -0.8150 -3.3111
 6700SOL    HW221000   6.916   2.964   2.531 -0.4542  2.2928 -1.8118
 6701SOL     OW21001   3.076   6.050   4.219  0.0933  0.0234  0.4112
 6701SOL    HW121002   3.142   6.124   4.205 -1.2274  1.0164 -0.7706
 6701SOL    HW221003   3.089   6.011   4.310  1.3384  1.1698  0.7538
 6702SOL     OW21004   5.877   3.052   1.340  0.2930 -0.1696 -0.2804
 6702SOL    HW121005   5.827   2.965   1.330 -0.9398  0.5365 -0.3995
 6702SOL    HW221006   5.838   3.120   1.279  0.1136  0.9589  1.0339
 6703SOL     OW21007   4.453   4.015   1.212  0.0623 -0.0663 -0.0627
 6703SOL    HW121008   4.406   4.048   1.294 -1.5498 -0.2337 -0.8811
 6703SOL    HW221009   4.434   4.077   1.136 -0.6088 -1.2595 -0.9106
 6704SOL     OW21010   2.766   5.331   5.259  0.3125  0.7329 -0.0803
 6704SOL    HW121011   2.722   5.391   5.192 -0.7953  2.2999  1.9575
 6704SOL    HW221012   2.827   5.384   5.317  1.1216 -0.5680  0.3053
 6705SOL     OW21013   3.601   5.411   6.773 -0.7158 -0.6591 -0.2404
 6705SOL    HW121014   3.641   5.370   6.691  0.4280 -0.5757  0.2673
 6705SOL    HW221015   3.502   5.418   6.761 -0.4376  0.6943 -2.2187
 6706SOL     OW21016   0.228   5.403   5.040  0.5384 -0.4501  0.1098
 6706SOL    HW121017   0.324   5.432   5.032  0.4741 -0.3914 -0.5529
 6706SOL    HW221018   0.170   5.484   5.046  0.6033 -0.4963  1.5805
 6707SOL     OW21019   2.132   4.554   2.284 -0.3314  0.0534  0.7701
 6707SOL    HW121020   2.178   4.613   2.217  0.8813 -0.4436  1.1464
 6707SOL    HW221021   2.115   4.606   2.367 -2.0318  0.7356  0.0381
 6708SOL     OW21022   4.713   0.803   5.579 -0.5346 -0.4235 -0.6186
 6708SOL    HW121023   4.648   0.750   5.634  0.4138 -2.2161 -1.1300
 6708SOL    HW221024   4.683   0.806   5.484 -0.9535  0.6206 -0.4667
 6709SOL     OW21025   5.722   6.905   5.155 -0.0562 -0.1260  0.3204
 6709SOL    HW121026   5.783   6.934   5.082 -0.7943 -1.0861 -0.7099
 6709SOL    HW221027   5.757   6.937   5.243  1.3438  0.2476 -0.3545
 6710SOL     OW21028   3.864   2.855   5.790  0.9662 -0.0590  0.8622
 6710SOL    HW121029   3.844   2.758   5.801 -2.1144  0.1643 -1.3920
 6710SOL    HW221030   3.902   2.871   5.699  2.2377  0.7916  1.5160
 6711SOL     OW21031   4.152   4.653   5.973  0.1090 -0.0719 -0.4069
 6711SOL    HW121032   4.209   4.705   6.036  1.5464 -1.8418 -0.1848
 6711SOL    HW221033   4.062   4.638   6.014 -0.1048  1.6124 -0.2076
 6712SOL     OW21034   5.497   5.100   0.146 -0.1310 -0.1994  0.6974
 6712SOL    HW121035   5.570   5.085   0.078 -0.5993 -0.2018  0.1913
 6712SOL    HW221036   5.436   5.172   0.114  0.2654  0.5596  1.6312
 6713SOL     OW21037   6.682   6.073   2.609  0.0285 -0.0513 -0.7056
 6713SOL    HW121038   6.589   6.064   2.643  0.5783 -0.4765  0.7576
 6713SOL    HW221039   6.715   5.984   2.576  0.4258 -0.2384  0.1777
 6714SOL     OW21040   5.398   3.850   4.984  0.1469  0.2738 -0.2681
 6714SOL    HW121041   5.393   3.814   4.891 -1.9642  0.1387 -0.1533
 6714SOL    HW221042   5.345   3.935   4.990  1.5401  1.1362  0.4705
 6715SOL     OW21043   6.582   1.828   2.451 -0.0734  0.3907 -0.2858
 6715SOL    HW121044   6.621   1.808   2.361  0.9398 -3.7875  0.8383
 6715SOL    HW221045   6.483   1.812   2.448 -0.3795  2.2354 -1.0563
 6716SOL     OW21046   3.104   6.994   5.653 -0.6269 -0.1344  0.2700
 6716SOL    HW121047   3.167   6.961   5.582 -2.3467  1.0434 -1.9198
 6716SOL    HW221048   3.039   7.058   5.612 -0.8195  1.7197  3.2472
 6717SOL     OW21049   4.857   6.387   1.271  0.4925  0.0139 -0.1934
 6717SOL    HW121050   4.904   6.474   1.253  1.7693 -0.8310 -1.1099
 6717SOL    HW221051   4.889   6.318   1.206  0.6516 -1.5667  1.4770
 6718SOL     OW21052   3.490   6.749   1.239 -0.8243 -0.2175  0.8648
 6718SOL    HW121053   3.535   6.831   1.275 -0.0266 -0.3614  0.2241
 6718SOL    HW221054   3.559   6.683   1.210 -1.4659 -1.1393  1.4027
 6719SOL     OW21055   4.575   4.469   4.449 -0.2546  0.0238  0.1971
 6719SOL    HW121056   4.625   4.422   4.522  0.0003  1.4136  0.9508
 6719SOL    HW221057   4.594   4.424   4.362  1.8973  0.1634  0.5337
 6720SOL     OW21058   1.469   6.953   6.338 -0.0227  0.0849 -0.3595
 6720SOL    HW121059   1.488   6.857   6.360 -1.8012 -0.2452 -0.1284
 6720SOL    HW221060   1.371   6.965   6.325  0.1423  1.9498 -0.0769
 6721SOL     OW21061   6.308   6.866   3.140 -0.0574  0.1084  0.8190
 6721SOL    HW121062   6.359   6.782   3.122  0.7550  0.2857  2.1706
 6721SOL    HW221063   6.371   6.944   3.138 -0.6514  0.5845  0.4317
 6722SOL     OW21064   0.869   1.968   6.381 -0.3380  0.0375  0.1277
 6722SOL    HW121065   0.780   2.014   6.384  0.1683  1.0689 -0.4070
 6722SOL    HW221066   0.942   2.035   6.391  0.4274 -0.6091 -0.9075
 6723SOL     OW21067   5.584   3.996   4.786 -0.3255 -0.4789  0.4293
 6723SOL    HW121068   5.522   3.919   4.774  0.5596 -1.1067 -0.2470
 6723SOL    HW221069   5.661   3.987   4.722 -0.4420  1.2038  0.0202
 6724SOL     OW21070   5.765   3.353   3.620  0.2045 -0.2385  0.3377
 6724SOL    HW121071   5.810   3.443   3.621  1.5612 -0.8560  2.8152
 6724SOL    HW221072   5.666   3.366   3.624  0.1230  1.1226 -2.8314
 6725SOL     OW21073   6.346   0.526   3.656  0.3052 -0.1327  0.5663
 6725SOL    HW121074   6.302   0.437   3.657  0.3011 -0.1402 -0.2304
 6725SOL    HW221075   6.407   0.534   3.735  1.0510 -1.2159  0.1168
 6726SOL     OW21076   4.585   0.377   1.221 -0.9980 -0.1155 -0.0715
 6726SOL    HW121077   4.534   0.463   1.211 -1.2789 -0.4237 -1.5069
 6726SOL    HW221078   4.679   0.396   1.245 -0.7755  0.6837 -1.4510
 6727SOL     OW21079   6.052   5.014   6.156 -0.2126  0.5331  0.1154
 6727SOL    HW121080   6.122   4.980   6.093 -0.5084  1.0845 -0.5209
 6727SOL    HW221081   6.093   5.081   6.218 -0.5402  2.2191 -1.4374
 6728SOL     OW21082   2.157   6.563   1.255 -0.0138  0.9142  0.1802
 6728SOL    HW121083   2.069   6.583   1.212 -0.1695  0.5415  0.3172
 6728SOL    HW221084   2.222   6.535   1.184 -0.8406 -1.7289  0.3389
 6729SOL     OW21085   5.762   0.242   4.202 -0.8217 -0.1659 -0.3334
 6729SOL    HW121086   5.860   0.255   4.219 -0.5024 -2.5223  0.0095
 6729SOL    HW221087   5.745   0.242   4.103 -0.4203 -0.1292 -0.4052
 6730SOL     OW21088   0.142   2.507   2.106  0.0626 -0.7125  0.4992
 6730SOL    HW121089   0.112   2.580   2.167  0.5835 -0.7639  0.8260
 6730SOL    HW221090   0.238   2.486   2.125  0.8999  0.7382 -1.7597
 6731SOL     OW21091   2.471   1.971   0.100 -0.2531 -0.0354  0.2207
 6731SOL    HW121092   2.390   2.030   0.098 -1.5361 -1.7003  0.8583
 6731SOL    HW221093   2.534   2.003   0.171 -0.8888  0.6032  0.5142
 6732SOL     OW21094   6.693   2.723   3.951  0.4712 -0.1106  0.1717
 6732SOL    HW121095   6.697   2.761   4.043 -0.1374 -2.7137  1.3648
 6732SOL    HW221096   6.754   2.644   3.945  0.1741 -0.2452 -1.5370
 6733SOL     OW21097   4.520   0.689   0.546  0.3668 -0.1456 -0.3291
 6733SOL    HW121098   4.581   0.683   0.625 -2.1815  0.1399  1.8200
 6733SOL    HW221099   4.504   0.785   0.523 -1.3771 -0.0584  0.9994
 6734SOL     OW21100   1.289   4.472   6.983 -0.4685  0.1840 -0.1203
 6734SOL    HW121101   1.285   4.532   7.062 -0.9912  0.0057 -0.0080
 6734SOL    HW221102   1.319   4.524   6.903  3.6727 -0.3285  0.8499
 6735SOL     OW21103   5.096   5.239   2.140 -0.2327  0.3186 -0.2169
 6735SOL    HW121104   5.096   5.143   2.112 -0.7068  0.0100  0.8112
 6735SOL    HW221105   5.003   5.268   2.161  0.1078  0.4987  1.1419
 6736SOL     OW21106   7.011   2.993   3.832 -0.1938 -0.3186  0.5932
 6736SOL    HW121107   7.021   2.999   3.733 -1.1447 -0.0874  0.4961
 6736SOL    HW221108   7.028   3.083   3.872  0.7741 -0.5418  0.7110
 6737SOL     OW21109   6.685   6.625   1.341  0.6796  0.6175 -0.2088
 6737SOL    HW121110   6.743   6.608   1.262  0.3010  0.5165 -0.4715
 6737SOL    HW221111   6.594   6.586   1.325  0.3291  1.3486 -0.0944
 6738SOL     OW21112   5.176   1.893   1.927 -0.0464 -0.0680 -0.0831
 6738SOL    HW121113   5.242   1.831   1.972 -0.7802 -1.3942 -0.7675
 6738SOL    HW221114   5.217   1.928   1.843  0.4587  0.5689  0.4189
 6739SOL     OW21115   5.982   4.663   3.964 -0.3333 -0.2873  0.0660
 6739SOL    HW121116   5.996   4.570   4.000 -2.1874 -0.4596  0.4166
 6739SOL    HW221117   6.039   4.727   4.016 -0.1565 -1.0289  0.8098
 6740SOL     OW21118   4.338   5.181   4.850  1.0194 -0.2849 -0.0649
 6740SOL    HW121119   4.438   5.171   4.850  1.0553  0.0636 -0.0222
 6740SOL    HW221120   4.304   5.167   4.943  1.3340  2.4849  0.5447
 6741SOL     OW21121   3.439   6.889   6.725  0.2312 -0.0539 -0.1258
 6741SOL    HW121122   3.339   6.895   6.731  0.0614 -1.5401 -0.8655
 6741SOL    HW221123   3.470   6.808   6.774  1.3348  1.5372  1.9332
 6742SOL     OW21124   5.074   6.874   3.796  0.7360  0.2403 -0.4195
 6742SOL    HW121125   5.081   6.955   3.855 -0.6094  0.0627  0.0232
 6742SOL    HW221126   5.120   6.797   3.840  0.2742  0.2674  0.1245
 6743SOL     OW21127   7.003   5.749   5.600  0.1903  0.1703 -0.1246
 6743SOL    HW121128   7.009   5.791   5.509  0.4518  1.9886  0.7031
 6743SOL    HW221129   6.940   5.800   5.657 -0.5280 -1.3880  0.5338
 6744SOL     OW21130   3.055   4.869   5.780 -0.1239 -0.2751 -0.3154
 6744SOL    HW121131   3.087   4.892   5.688 -1.0375 -0.2132 -0.6205
 6744SOL    HW221132   3.133   4.837   5.834  0.6257  0.6934 -0.7758
 6745SOL     OW21133   5.048   3.140   4.597  0.2690  0.1968  0.0657
 6745SOL    HW121134   4.969   3.087   4.628  1.0045 -0.5647  0.6944
 6745SOL    HW221135   5.050   3.227   4.647 -1.0402  0.9412 -1.0982
 6746SOL     OW21136   0.037   2.600   1.442  0.1350 -0.4760  0.0038
 6746SOL    HW121137   0.031   2.563   1.535  0.5906 -0.6278 -0.0256
 6746SOL    HW221138   0.099   2.544   1.387 -1.5249 -1.4637 -0.9369
 6747SOL     OW21139   6.944   4.397   3.577  0.3304 -0.5070  0.4128
 6747SOL    HW121140   7.030   4.355   3.604 -0.5592 -2.1472  0.8078
 6747SOL    HW221141   6.889   4.416   3.659  0.7295  1.5607  0.2571
 6748SOL     OW21142   2.585   0.286   3.308  0.3484 -0.2246  0.5011
 6748SOL    HW121143   2.554   0.277   3.213 -0.1090  0.0887  0.6193
 6748SOL    HW221144   2.563   0.202   3.358 -0.6158  0.1330  0.6730
 6749SOL     OW21145   0.677   2.205   0.389 -0.1260 -0.2920  0.6747
 6749SOL    HW121146   0.617   2.125   0.390 -0.7040  0.0592 -1.4134
 6749SOL    HW221147   0.767   2.178   0.355 -0.5615  0.0534 -0.8198
 6750SOL     OW21148   4.882   6.770   0.832 -0.3941  0.1127 -0.2850
 6750SOL    HW121149   4.800   6.718   0.858 -0.9238  1.1538  0.1669
 6750SOL    HW221150   4.856   6.846   0.772  0.5423 -0.9260 -2.0934
 6751SOL     OW21151   3.475   2.771   1.943 -0.1835  0.0457 -0.2243
 6751SOL    HW121152   3.436   2.791   2.033 -1.0952 -0.5791 -0.4656
 6751SOL    HW221153   3.410   2.799   1.872  1.2163  2.1089 -0.7830
 6752SOL     OW21154   0.048   0.411   5.799 -0.0313  0.2817  0.2072
 6752SOL    HW121155  -0.046   0.404   5.830  0.5445  0.6596  2.1909
 6752SOL    HW221156   0.093   0.322   5.808 -0.1183  0.1626 -0.4938
 6753SOL     OW21157   2.217   4.796   4.429 -0.0418  0.7092  0.0347
 6753SOL    HW121158   2.127   4.755   4.413 -0.0244  0.5194  0.3994
 6753SOL    HW221159   2.250   4.769   4.520  0.2610  1.0005  0.0144
 6754SOL     OW21160   6.154   6.661   6.618  0.1485 -0.4795  0.0855
 6754SOL    HW121161   6.143   6.750   6.575 -0.0379 -1.0767 -1.1675
 6754SOL    HW221162   6.129   6.667   6.715  0.3674  0.8615  0.0786
 6755SOL     OW21163   0.579   4.735   1.673  0.1064  0.0568 -0.0463
 6755SOL    HW121164   0.644   4.751   1.598  1.7495 -0.4125  1.2170
 6755SOL    HW221165   0.630   4.715   1.757 -1.7008 -1.4598  0.7476
 6756SOL     OW21166   0.464   3.735   0.021 -0.1312  0.5947  0.0540
 6756SOL    HW121167   0.425   3.661   0.076  0.3487  1.0268  1.0127
 6756SOL    HW221168   0.512   3.696  -0.057 -1.4870  0.0034 -0.5176
 6757SOL     OW21169   4.928   3.729   4.138 -0.1990  0.0548 -0.1106
 6757SOL    HW121170   4.908   3.660   4.208 -1.5543  0.6028  0.0735
 6757SOL    HW221171   4.952   3.815   4.182  0.7773 -0.0893 -0.3414
 6758SOL     OW21172   1.924   3.745   1.411 -0.2723  0.6905  0.5174
 6758SOL    HW121173   1.858   3.813   1.381  0.1609  0.3948 -1.2585
 6758SOL    HW221174   2.000   3.791   1.457 -1.4082  1.0770  2.0965
 6759SOL     OW21175   3.566   3.815   3.784 -0.1210  0.1401  0.2999
 6759SOL    HW121176   3.486   3.873   3.801 -0.3874  0.5307 -2.0097
 6759SOL    HW221177   3.643   3.849   3.838 -0.9489  1.0643  0.9417
 6760SOL     OW21178   3.231   3.285   0.518 -0.0387  0.3546  0.1974
 6760SOL    HW121179   3.229   3.234   0.432  0.5649  0.7602 -0.0632
 6760SOL    HW221180   3.326   3.296   0.548 -0.1905  0.9829  0.4568
 6761SOL     OW21181   5.454   6.987   5.214  0.8004 -0.1180  0.3095
 6761SOL    HW121182   5.546   6.951   5.200  0.3836 -1.6506  1.3832
 6761SOL    HW221183   5.418   6.955   5.301 -0.8217  0.3168 -0.1689
 6762SOL     OW21184   6.084   3.724   3.516 -0.3670 -0.0425 -0.1494
 6762SOL    HW121185   6.161   3.749   3.576 -2.3431 -0.1379  2.6187
 6762SOL    HW221186   6.104   3.753   3.423  3.4948 -1.1246  0.1719
 6763SOL     OW21187   6.234   2.994   6.807 -0.1207  0.0676  0.1996
 6763SOL    HW121188   6.252   3.002   6.709 -0.5650 -1.6378 -0.0602
 6763SOL    HW221189   6.311   2.947   6.851  0.4558  1.5592  0.8404
 6764SOL     OW21190   0.873   3.717   5.444 -0.3343 -0.2577 -0.0040
 6764SOL    HW121191   0.897   3.732   5.540  1.7138 -1.6457 -0.2356
 6764SOL    HW221192   0.838   3.624   5.433 -1.8430  0.3308 -0.4210
 6765SOL     OW21193   3.875   5.561   6.506 -0.0180  0.3485  0.3841
 6765SOL    HW121194   3.826   5.643   6.477  0.6496 -0.0852 -2.1801
 6765SOL    HW221195   3.813   5.483   6.505 -1.0639  0.9140  4.2786
 6766SOL     OW21196   5.226   2.890   5.172  0.5571 -0.2514 -0.0076
 6766SOL    HW121197   5.173   2.814   5.134  0.2948  0.6404 -1.5181
 6766SOL    HW221198   5.174   2.935   5.244  0.3921 -1.0067  0.3541
 6767SOL     OW21199   5.209   5.264   2.720 -0.4765  0.2202  0.1154
 6767SOL    HW121200   5.156   5.224   2.645  0.2109  2.9363 -1.9656
 6767SOL    HW221201   5.289   5.207   2.739 -0.2033 -0.1007 -1.8310
 6768SOL     OW21202   4.287   1.571   4.530 -0.4342  0.1515  1.0158
 6768SOL    HW121203   4.257   1.655   4.576 -1.3117  1.5634 -1.8863
 6768SOL    HW221204   4.207   1.519   4.501  0.1113 -1.3368  2.0827
 6769SOL     OW21205   3.533   6.234   6.178  0.3241 -0.2982 -0.0082
 6769SOL    HW121206   3.592   6.184   6.114 -0.3135 -0.8094 -0.2100
 6769SOL    HW221207   3.585   6.259   6.259  1.5084  1.4692 -1.2329
 6770SOL     OW21208   6.272   1.005   4.483  0.1949 -0.1072  0.3441
 6770SOL    HW121209   6.330   0.974   4.408 -0.1931  0.2554 -0.1152
 6770SOL    HW221210   6.221   1.086   4.454  0.4540  0.3696  1.1836
 6771SOL     OW21211   4.558   4.904   2.416 -0.0498 -0.7652 -0.2115
 6771SOL    HW121212   4.518   4.976   2.473 -0.2298 -1.5049  0.6110
 6771SOL    HW221213   4.600   4.946   2.335  2.2063  0.5819  1.5358
 6772SOL     OW21214   3.335   3.550   5.331  0.4809 -0.5866  0.1983
 6772SOL    HW121215   3.373   3.461   5.307  0.8131 -0.1570 -0.9358
 6772SOL    HW221216   3.240   3.539   5.359  1.0530 -1.5173  1.8970
 6773SOL     OW21217   2.527   0.788   0.099 -0.4809 -0.2802 -0.1868
 6773SOL    HW121218   2.457   0.860   0.094 -1.1540 -0.9685 -0.9725
 6773SOL    HW221219   2.536   0.756   0.193 -0.7272  0.2813  0.0342
 6774SOL     OW21220   4.427   6.597   5.259 -0.3852  0.4633  0.6562
 6774SOL    HW121221   4.491   6.527   5.229 -1.6146  0.2225 -1.6160
 6774SOL    HW221222   4.415   6.591   5.358  3.0268  0.5350  1.2231
 6775SOL     OW21223   0.184   4.176   2.824 -0.3085 -0.0244 -0.1551
 6775SOL    HW121224   0.220   4.113   2.757 -1.2561 -0.8246  0.0556
 6775SOL    HW221225   0.104   4.135   2.869  0.1155  0.5992  1.2446
 6776SOL     OW21226   3.348   1.231   4.193 -0.2426  0.0205 -0.1271
 6776SOL    HW121227   3.300   1.203   4.276  3.8627  1.2731  3.0142
 6776SOL    HW221228   3.337   1.329   4.179  0.6569  0.1719  0.1514
 6777SOL     OW21229   2.249   4.035   5.648  0.4167 -0.5082  0.3273
 6777SOL    HW121230   2.318   3.979   5.694  1.9382  0.9062 -0.1347
 6777SOL    HW221231   2.287   4.071   5.563 -0.2436  1.7661  0.9365
 6778SOL     OW21232   0.482   5.550   1.263 -0.0313 -0.0235 -0.0467
 6778SOL    HW121233   0.498   5.643   1.296 -0.9553 -0.4869  1.8495
 6778SOL    HW221234   0.431   5.498   1.332  0.0796 -1.8192 -1.2381
 6779SOL     OW21235   3.831   4.044   4.673 -0.4565 -0.3112 -0.6529
 6779SOL    HW121236   3.835   4.053   4.773  0.4043  1.0167 -0.7808
 6779SOL    HW221237   3.837   4.134   4.631  1.2424 -0.9631 -1.9575
 6780SOL     OW21238   4.707   1.874   1.651 -0.0389 -0.2549 -0.0403
 6780SOL    HW121239   4.668   1.932   1.723  1.8787 -0.6593  1.4266
 6780SOL    HW221240   4.667   1.783   1.656  0.0430 -0.2649  0.4994
 6781SOL     OW21241   4.110   6.332   0.404 -0.0782 -0.2650 -0.2555
 6781SOL    HW121242   4.047   6.340   0.482  2.2765  1.1756  1.6414
 6781SOL    HW221243   4.143   6.238   0.397  0.4848 -0.2025  1.2171
 6782SOL     OW21244   6.802   6.643   1.062  0.3243  0.0917  0.9546
 6782SOL    HW121245   6.714   6.598   1.053  0.9416 -1.0201  0.1234
 6782SOL    HW221246   6.789   6.741   1.075 -1.0653 -0.2937  2.8146
 6783SOL     OW21247   2.090   1.401   4.835  0.1660 -0.0206 -0.5687
 6783SOL    HW121248   2.136   1.320   4.799 -1.3052 -1.3941  0.4773
 6783SOL    HW221249   2.149   1.481   4.824  1.7532 -1.2506 -1.4389
 6784SOL     OW21250   1.690   2.609   5.342 -0.2681 -0.6487 -0.2788
 6784SOL    HW121251   1.592   2.599   5.355  0.0273 -1.2533  1.9209
 6784SOL    HW221252   1.723   2.689   5.393  0.2675  0.1609 -1.8249
 6785SOL     OW21253   0.255   2.848   6.979 -0.2557  0.0593  0.3690
 6785SOL    HW121254   0.211   2.818   6.894 -1.9897  1.5065  0.6724
 6785SOL    HW221255   0.191   2.906   7.030  1.2564  0.3790  1.9889
 6786SOL     OW21256   6.594   3.701   0.374  0.0149 -0.3304 -0.1584
 6786SOL    HW121257   6.641   3.719   0.287  2.2443  1.0338  1.2247
 6786SOL    HW221258   6.611   3.606   0.401  1.7541  0.0048  0.0961
 6787SOL     OW21259   4.805   0.383   0.643  0.3601 -0.1844 -0.0995
 6787SOL    HW121260   4.733   0.316   0.660  0.6351  0.0176  2.0456
 6787SOL    HW221261   4.881   0.367   0.705  1.1474  1.1112 -0.6866
 6788SOL     OW21262   1.105   2.396   2.184  0.0526  0.1394  0.5523
 6788SOL    HW121263   1.114   2.374   2.282  1.0140 -0.7418  0.2822
 6788SOL    HW221264   1.171   2.467   2.160 -0.1093  0.2779  0.5171
 6789SOL     OW21265   5.286   1.973   4.593 -0.3348 -0.4810 -0.3678
 6789SOL    HW121266   5.245   1.989   4.682 -0.3209  0.5795 -0.5393
 6789SOL    HW221267   5.371   1.921   4.603 -0.0765  0.0532  0.2880
 6790SOL     OW21268   1.215   4.837   2.913  0.5698 -0.0690  0.1134
 6790SOL    HW121269   1.296   4.778   2.915 -0.4832 -1.5464 -0.2904
 6790SOL    HW221270   1.195   4.868   3.006  0.3498 -1.4320  0.5339
 6791SOL     OW21271   3.948   4.502   1.244 -0.0917  0.1668 -0.0479
 6791SOL    HW121272   3.851   4.503   1.219 -1.0709  0.5590  3.3480
 6791SOL    HW221273   3.965   4.428   1.309  2.5626 -1.6124 -2.5010
 6792SOL     OW21274   6.003   6.533   5.755  0.0416 -0.4586  1.1022
 6792SOL    HW121275   6.094   6.565   5.729  1.1507  0.1367  5.0931
 6792SOL    HW221276   5.989   6.441   5.719  1.0641  0.3866 -1.7685
 6793SOL     OW21277   1.956   0.336   4.118  0.4990  1.0105 -0.6978
 6793SOL    HW121278   1.875   0.280   4.098 -0.9283  2.2017  1.3532
 6793SOL    HW221279   1.927   0.430   4.137  2.1697  1.0890  1.7897
 6794SOL     OW21280   0.983   3.825   7.002  0.6562  0.4120 -0.2199
 6794SOL    HW121281   0.983   3.732   6.964 -0.5968  0.0463  0.6105
 6794SOL    HW221282   1.033   3.826   7.088  2.1166  0.8960 -1.0416
 6795SOL     OW21283   6.755   4.948   6.465 -0.1697  0.2473  0.7133
 6795SOL    HW121284   6.669   4.933   6.515 -0.7712  0.4804 -0.2077
 6795SOL    HW221285   6.792   5.038   6.488 -1.8856  1.5495 -1.2163
 6796SOL     OW21286   1.711   0.044   0.523 -0.5300  0.1659 -0.2262
 6796SOL    HW121287   1.660   0.106   0.464 -0.7962  1.0939  0.9306
 6796SOL    HW221288   1.770   0.098   0.584 -0.8720 -0.7024  0.9018
 6797SOL     OW21289   6.271   1.511   6.648  0.2534  0.3262  0.4596
 6797SOL    HW121290   6.342   1.476   6.588 -0.1200  1.2759 -0.5678
 6797SOL    HW221291   6.237   1.437   6.706  0.2602 -0.7581 -0.8672
 6798SOL     OW21292   2.515   5.456   1.872  0.6947 -0.0309  0.0309
 6798SOL    HW121293   2.505   5.377   1.932  0.1689 -1.7376 -2.1665
 6798SOL    HW221294   2.464   5.533   1.910 -0.2742 -1.2614  1.3442
 6799SOL     OW21295   1.848   5.389   6.232  0.1790  0.1718  0.1983
 6799SOL    HW121296   1.788   5.359   6.158 -0.2074  0.5248  0.3648
 6799SOL    HW221297   1.829   5.336   6.314 -0.0368  0.4040  0.3016
 6800SOL     OW21298   3.787   1.468   3.722 -0.3373 -0.5894 -0.1726
 6800SOL    HW121299   3.707   1.526   3.738 -0.5994 -0.7296 -0.9454
 6800SOL    HW221300   3.834   1.498   3.639  1.4047  0.5744  1.1466
 6801SOL     OW21301   0.802   3.042   2.525 -0.1791  0.2198  0.5520
 6801SOL    HW121302   0.895   3.075   2.540 -0.2934  0.9218 -0.2361
 6801SOL    HW221303   0.744   3.117   2.494 -0.5099 -0.6294 -1.0118
 6802SOL     OW21304   1.407   2.526   2.081 -0.1343  0.3481  0.1658
 6802SOL    HW121305   1.417   2.541   1.983 -1.4897 -2.4538 -0.5064
 6802SOL    HW221306   1.474   2.457   2.111 -0.9997 -0.2525  0.7727
 6803SOL     OW21307   5.610   4.737   3.731 -0.3045  0.4432 -0.0692
 6803SOL    HW121308   5.663   4.661   3.692  2.6826  1.0718  2.3635
 6803SOL    HW221309   5.523   4.702   3.765  0.0950 -1.4550 -0.8362
 6804SOL     OW21310   3.936   6.186   2.922 -0.0208  0.2209  0.3207
 6804SOL    HW121311   4.036   6.197   2.916 -0.0235 -0.2901 -1.0322
 6804SOL    HW221312   3.897   6.264   2.970  1.1691 -0.3281  2.3032
 6805SOL     OW21313   2.326   3.470   6.272  0.3594 -0.6050 -0.4407
 6805SOL    HW121314   2.245   3.465   6.213  0.2082 -1.3506 -0.1768
 6805SOL    HW221315   2.340   3.382   6.318  1.3045 -0.4792 -0.4609
 6806SOL     OW21316   6.333   6.751   5.928 -0.0948  0.4973 -0.3483
 6806SOL    HW121317   6.269   6.827   5.936  0.2891  0.7622  0.3851
 6806SOL    HW221318   6.314   6.684   6.000 -0.1642  0.1092 -0.7301
 6807SOL     OW21319   5.843   4.859   6.208 -0.5179 -0.2064  0.6200
 6807SOL    HW121320   5.816   4.781   6.151 -0.9846 -0.5452  1.2925
 6807SOL    HW221321   5.913   4.912   6.160 -0.6544 -0.6742 -0.1212
 6808SOL     OW21322   3.980   5.232   6.451 -0.4574 -0.0671 -0.0613
 6808SOL    HW121323   3.947   5.140   6.474  0.7022 -0.5037 -0.0480
 6808SOL    HW221324   4.048   5.261   6.519  0.6617 -0.0506 -1.1492
 6809SOL     OW21325   3.388   2.931   0.374 -0.2172 -0.2718  0.3342
 6809SOL    HW121326   3.306   2.980   0.345  0.3478 -0.1211 -1.1170
 6809SOL    HW221327   3.469   2.974   0.334  0.4651 -1.1607  0.7055
 6810SOL     OW21328   6.864   1.906   1.476 -0.3927 -0.0321 -0.1734
 6810SOL    HW121329   6.880   1.905   1.378 -0.6614 -1.2770 -0.2177
 6810SOL    HW221330   6.892   1.995   1.513 -1.1816  0.8004 -1.5018
 6811SOL     OW21331   6.947   0.672   3.957 -0.9563 -0.5164 -0.4903
 6811SOL    HW121332   6.856   0.655   3.992 -0.3560  0.0981  1.5053
 6811SOL    HW221333   6.967   0.608   3.883 -1.6058 -3.2780  1.5384
 6812SOL     OW21334   2.474   0.077   5.762 -0.6501  0.1274  0.2135
 6812SOL    HW121335   2.454   0.057   5.857  2.1106 -1.0419  0.6492
 6812SOL    HW221336   2.442   0.001   5.704  2.3865 -1.9019  0.9341
 6813SOL     OW21337   5.661   1.739   5.870  0.1765  0.4039  0.0198
 6813SOL    HW121338   5.704   1.697   5.950 -0.2589 -0.8249 -0.3789
 6813SOL    HW221339   5.596   1.810   5.901 -0.2003 -0.2533  0.7711
 6814SOL     OW21340   4.565   1.056   1.253  0.1904  0.2630 -0.0645
 6814SOL    HW121341   4.635   1.127   1.255  1.1152 -0.5854  2.7360
 6814SOL    HW221342   4.485   1.086   1.305  0.0192 -0.2138 -0.0489
 6815SOL     OW21343   2.010   5.004   4.690  0.9112  0.2737  0.3944
 6815SOL    HW121344   1.954   5.083   4.664  0.7366 -0.5803 -2.1180
 6815SOL    HW221345   2.072   5.031   4.764 -0.9256  1.9822  1.4263
 6816SOL     OW21346   5.392   1.635   0.181  0.4198 -0.4365  0.3961
 6816SOL    HW121347   5.347   1.709   0.132  0.8585  0.7111  1.6694
 6816SOL    HW221348   5.427   1.668   0.268  3.3598 -1.3527 -0.2941
 6817SOL     OW21349   5.867   1.109   5.019 -0.0763 -0.0976 -0.1816
 6817SOL    HW121350   5.823   1.148   4.938 -1.0235 -0.8066 -0.0317
 6817SOL    HW221351   5.797   1.085   5.086  0.5703 -0.9911  0.1909
 6818SOL     OW21352   4.528   4.746   3.148 -0.0621  0.3193  0.3325
 6818SOL    HW121353   4.545   4.809   3.224  2.6685  0.3742 -0.2237
 6818SOL    HW221354   4.577   4.777   3.067 -0.0956 -1.5729 -0.4615
 6819SOL     OW21355   2.995   3.673   6.620 -0.4211  0.5781 -0.3574
 6819SOL    HW121356   3.080   3.655   6.570  0.1279  1.2050  0.3189
 6819SOL    HW221357   2.927   3.712   6.558  0.1669  1.1143 -0.6785
 6820SOL     OW21358   5.460   1.949   0.127  0.7109 -0.6472  0.3505
 6820SOL    HW121359   5.386   2.007   0.092  0.9015 -0.2367  0.6198
 6820SOL    HW221360   5.547   1.997   0.120  0.6529 -0.1912  2.1544
 6821SOL     OW21361   0.492   1.908   6.484 -0.5791  0.0439  0.2756
 6821SOL    HW121362   0.405   1.950   6.463 -0.8350 -0.3776  0.4706
 6821SOL    HW221363   0.477   1.815   6.518 -0.0591 -0.0250  0.3320
 6822SOL     OW21364   5.070   4.171   4.831 -1.0446 -1.0476  0.4915
 6822SOL    HW121365   5.029   4.261   4.842 -2.1106 -1.6908  2.2488
 6822SOL    HW221366   5.001   4.105   4.804  0.1735 -0.9899 -3.4291
 6823SOL     OW21367   3.504   2.123   3.402 -0.2457  0.1055  0.7249
 6823SOL    HW121368   3.506   2.126   3.501  0.8938 -0.3869  0.7256
 6823SOL    HW221369   3.596   2.137   3.365 -0.5864 -0.0873 -0.2498
 6824SOL     OW21370   6.985   2.306   5.260 -0.2684 -0.1177 -0.0083
 6824SOL    HW121371   6.939   2.284   5.346  0.7615  0.8161  0.8099
 6824SOL    HW221372   6.921   2.353   5.199 -0.8046 -0.1407  0.5275
 6825SOL     OW21373   6.209   2.457   1.242 -0.0780  0.0503  0.0367
 6825SOL    HW121374   6.177   2.437   1.149 -0.4795 -0.9837  0.3811
 6825SOL    HW221375   6.189   2.552   1.264 -0.2929  0.2157 -0.8113
 6826SOL     OW21376   2.519   6.023   1.210  0.2693 -0.2821 -0.4817
 6826SOL    HW121377   2.438   5.974   1.243 -0.2779 -0.1937 -1.6507
 6826SOL    HW221378   2.578   6.046   1.288 -0.9169 -0.1705  0.4168
 6827SOL     OW21379   4.020   5.721   5.979  0.0205 -0.0427  0.4641
 6827SOL    HW121380   4.002   5.806   5.930 -2.4906 -0.6732  0.1522
 6827SOL    HW221381   4.009   5.644   5.916 -0.8040 -0.7283  1.4102
 6828SOL     OW21382   6.036   3.871   1.774  0.5802  0.0704  0.2485
 6828SOL    HW121383   6.012   3.908   1.684  1.2586  1.1550  0.4993
 6828SOL    HW221384   6.135   3.857   1.778  0.2998 -2.5326 -0.0978
 6829SOL     OW21385   0.384   2.411   2.244 -0.6193  0.4670  0.1907
 6829SOL    HW121386   0.393   2.312   2.236 -1.2515  0.3181  1.1772
 6829SOL    HW221387   0.475   2.452   2.249 -0.3119 -0.3718  2.9286
 6830SOL     OW21388   5.893   3.694   2.414 -0.0971  1.2465 -0.1299
 6830SOL    HW121389   5.885   3.756   2.492  1.3395 -0.4603  1.4840
 6830SOL    HW221390   5.803   3.659   2.390 -0.5442  1.6689  0.8829
 6831SOL     OW21391   5.921   1.275   3.556  0.1855  0.2457 -0.2037
 6831SOL    HW121392   5.920   1.177   3.575 -2.2065  0.4027  0.8018
 6831SOL    HW221393   5.832   1.314   3.579  1.2136  2.7379 -0.1775
 6832SOL     OW21394   1.174   6.574   2.298 -0.4959 -0.2909 -0.0276
 6832SOL    HW121395   1.083   6.598   2.334 -0.2351  1.0905 -0.2399
 6832SOL    HW221396   1.163   6.518   2.216 -1.1010 -3.1578  1.8400
 6833SOL     OW21397   2.656   4.367   5.789  0.1919  0.2348  0.1006
 6833SOL    HW121398   2.697   4.403   5.872  3.0673  1.9439 -1.8822
 6833SOL    HW221399   2.601   4.439   5.745  0.7979  0.2251 -0.7088
 6834SOL     OW21400   1.474   5.906   2.279  0.0013 -0.4735 -0.3637
 6834SOL    HW121401   1.480   5.995   2.325 -0.3656  0.6532 -2.4065
 6834SOL    HW221402   1.412   5.847   2.330 -1.6314  1.2599 -0.2095
 6835SOL     OW21403   4.879   0.394   0.349 -0.1597 -0.4465 -0.1970
 6835SOL    HW121404   4.849   0.471   0.292 -0.8854 -0.6278 -0.0760
 6835SOL    HW221405   4.850   0.409   0.443  1.0467 -0.1449  0.1426
 6836SOL     OW21406   4.992   5.493   0.387  0.1693 -0.2593 -0.2134
 6836SOL    HW121407   5.074   5.495   0.330  1.6747  0.5940  1.8564
 6836SOL    HW221408   4.945   5.406   0.374  0.6570 -0.2607 -2.3894
 6837SOL     OW21409   2.379   4.982   1.191  0.2141  0.4964  0.0129
 6837SOL    HW121410   2.439   4.902   1.200  1.7832  1.4899 -1.0331
 6837SOL    HW221411   2.288   4.952   1.163  1.0470 -0.8906 -1.3812
 6838SOL     OW21412   3.851   5.034   4.342 -0.2262  0.4353  0.7504
 6838SOL    HW121413   3.872   5.069   4.251  1.8410 -2.1777  0.0989
 6838SOL    HW221414   3.897   5.091   4.411  1.3318  0.3209 -0.1365
 6839SOL     OW21415   1.271   6.634   4.783 -0.5796 -0.0360  0.4497
 6839SOL    HW121416   1.305   6.644   4.876  0.2620  1.5089  0.0168
 6839SOL    HW221417   1.346   6.607   4.722 -0.9390 -0.2435  0.0954
 6840SOL     OW21418   5.690   0.795   2.911  0.3029 -0.0823  0.2930
 6840SOL    HW121419   5.685   0.749   2.823  0.2025  0.9644 -0.2614
 6840SOL    HW221420   5.772   0.763   2.960 -0.1278 -1.3404  0.2317
 6841SOL     OW21421   6.523   4.253   3.406 -0.1039  0.8488 -0.2033
 6841SOL    HW121422   6.595   4.320   3.388  1.5388 -1.0791 -1.2454
 6841SOL    HW221423   6.538   4.172   3.349 -1.7512 -0.6125  1.3093
 6842SOL     OW21424   1.733   0.579   6.174 -0.0904 -0.0096  0.6767
 6842SOL    HW121425   1.822   0.604   6.138 -0.0715  0.5607  1.1082
 6842SOL    HW221426   1.690   0.658   6.218  0.0042 -0.7266  2.1504
 6843SOL     OW21427   3.602   2.749   6.494  0.3750  0.2505 -0.3109
 6843SOL    HW121428   3.547   2.726   6.414  3.5514 -0.5495 -2.4739
 6843SOL    HW221429   3.595   2.847   6.512 -0.4807  0.4244 -1.5002
 6844SOL     OW21430   4.681   0.445   5.454 -0.3045 -0.1452 -0.5276
 6844SOL    HW121431   4.689   0.463   5.552  2.4985 -1.4937 -0.4266
 6844SOL    HW221432   4.588   0.414   5.434 -0.9158  0.0681  1.6982
 6845SOL     OW21433   0.891   0.589   4.495  0.1630  0.5508 -0.8641
 6845SOL    HW121434   0.844   0.662   4.445 -2.0587 -0.4582 -0.3365
 6845SOL    HW221435   0.917   0.622   4.585 -0.0265  0.9637 -0.9589
 6846SOL     OW21436   0.575   0.332   2.511 -0.0514 -0.5838  1.0093
 6846SOL    HW121437   0.563   0.281   2.426 -1.0265 -1.2491  1.5299
 6846SOL    HW221438   0.553   0.274   2.589 -1.8234  0.7691  1.5954
 6847SOL     OW21439   4.525   2.841   1.009  0.1584 -0.0683 -0.4082
 6847SOL    HW121440   4.594   2.899   0.965 -0.9997  2.8375  1.3390
 6847SOL    HW221441   4.564   2.801   1.092  0.1557  0.5093 -0.1215
 6848SOL     OW21442   6.965   6.458   6.636  0.0810  0.6594 -0.4635
 6848SOL    HW121443   7.047   6.474   6.579 -0.2027 -0.3014 -1.1662
 6848SOL    HW221444   6.894   6.524   6.610  0.1333  0.5616 -0.8728
 6849SOL     OW21445   0.789   0.295   3.035  0.6668 -0.1176  0.2516
 6849SOL    HW121446   0.750   0.249   2.955 -1.2375  0.1036  0.9997
 6849SOL    HW221447   0.793   0.231   3.112  0.9579  0.1148  0.4329
 6850SOL     OW21448   2.678   4.835   5.089  0.7001  0.1696  0.9365
 6850SOL    HW121449   2.694   4.742   5.055 -0.9079  0.5074 -0.9260
 6850SOL    HW221450   2.702   4.840   5.186  2.2228 -1.7781  0.7261
 6851SOL     OW21451   6.823   4.719   4.008 -0.1676 -0.3926  0.6463
 6851SOL    HW121452   6.850   4.814   3.993 -0.9839 -0.1891  0.4473
 6851SOL    HW221453   6.806   4.675   3.920  0.3781 -0.7847  0.7270
 6852SOL     OW21454   1.370   5.773   6.640 -0.5166  0.1337  0.1015
 6852SOL    HW121455   1.350   5.708   6.567 -0.0935 -0.6015  0.6201
 6852SOL    HW221456   1.440   5.734   6.700  1.6375  2.0913 -0.9819
 6853SOL     OW21457   3.653   3.020   5.763 -0.2344  0.0621  0.4900
 6853SOL    HW121458   3.723   2.957   5.796  0.8819  0.9973  0.0042
 6853SOL    HW221459   3.683   3.114   5.778 -1.4275  0.4855  0.3274
 6854SOL     OW21460   2.499   4.404   1.283 -0.7856 -0.1476 -0.2783
 6854SOL    HW121461   2.578   4.388   1.224 -0.9363  0.7015 -0.7175
 6854SOL    HW221462   2.530   4.415   1.378 -0.4626 -0.6206 -0.3224
 6855SOL     OW21463   5.941   2.278   5.323  0.1728  0.7259  0.1175
 6855SOL    HW121464   5.939   2.205   5.254 -1.5873  1.6716 -0.9045
 6855SOL    HW221465   5.856   2.329   5.319  0.0450  0.8675  3.0145
 6856SOL     OW21466   3.554   0.418   0.380 -0.0748 -0.0652 -0.3481
 6856SOL    HW121467   3.576   0.495   0.320 -1.2880  0.7025  0.1678
 6856SOL    HW221468   3.463   0.384   0.360  0.1321 -0.8393 -0.0120
 6857SOL     OW21469   5.569   0.342   2.162 -0.2690  0.8728  0.0518
 6857SOL    HW121470   5.475   0.310   2.172  0.2464 -1.8297 -2.4664
 6857SOL    HW221471   5.632   0.271   2.195  0.9551  2.4314  1.2420
 6858SOL     OW21472   2.964   3.007   0.246 -0.1016  0.3784 -0.0583
 6858SOL    HW121473   2.911   2.965   0.172  0.9044  0.0819 -0.6381
 6858SOL    HW221474   2.925   2.981   0.334 -0.6489 -0.1951 -0.4595
 6859SOL     OW21475   0.475   2.302   3.257  0.2677  0.4270  0.0697
 6859SOL    HW121476   0.525   2.381   3.292 -0.4322  1.1580 -0.5385
 6859SOL    HW221477   0.539   2.226   3.243  1.2237  1.3309 -0.7025
 6860SOL     OW21478   6.655   0.284   2.416  0.1549 -0.3929 -0.2485
 6860SOL    HW121479   6.579   0.220   2.422 -0.5789  0.5239  0.6603
 6860SOL    HW221480   6.620   0.376   2.398  1.3158 -0.5598 -4.4515
 6861SOL     OW21481   0.667   4.485   5.389  0.1132 -0.3922  0.3567
 6861SOL    HW121482   0.717   4.547   5.328  1.7509 -0.3057  1.7062
 6861SOL    HW221483   0.621   4.538   5.460  0.2505 -0.6234  0.6186
 6862SOL     OW21484   1.321   2.365   6.125 -0.7130 -0.6174 -0.1174
 6862SOL    HW121485   1.382   2.436   6.161 -0.2409 -0.4421 -1.2171
 6862SOL    HW221486   1.278   2.398   6.040 -1.8888 -0.9678  0.3251
 6863SOL     OW21487   0.858   4.392   2.455  0.3732 -0.1175 -0.1605
 6863SOL    HW121488   0.790   4.464   2.468  1.0312  0.2449  1.4216
 6863SOL    HW221489   0.813   4.302   2.461 -0.0771  0.1308  0.2384
 6864SOL     OW21490   0.725   6.106   3.212 -0.2479 -0.9758  0.5589
 6864SOL    HW121491   0.719   6.058   3.124  1.4451  0.2286 -0.2682
 6864SOL    HW221492   0.701   6.043   3.286 -0.3691 -2.4180 -0.6623
 6865SOL     OW21493   3.474   4.880   2.450  0.3765 -0.2579  0.1357
 6865SOL    HW121494   3.528   4.943   2.394 -1.1732  1.7042  0.7223
 6865SOL    HW221495   3.411   4.829   2.392  0.0794  0.3894 -0.1155
 6866SOL     OW21496   2.136   6.685   6.303 -0.0992  0.1144 -0.2557
 6866SOL    HW121497   2.125   6.608   6.365 -1.1373  0.2456 -0.2542
 6866SOL    HW221498   2.167   6.765   6.355 -0.7367  0.1625  0.0665
 6867SOL     OW21499   5.277   6.254   2.313  0.1523  0.0637 -0.0158
 6867SOL    HW121500   5.377   6.258   2.313  0.1180  1.1266  0.1078
 6867SOL    HW221501   5.247   6.162   2.286  1.1525  0.0081 -0.9777
 6868SOL     OW21502   1.753   0.992   1.615 -0.6039  0.5769  0.5361
 6868SOL    HW121503   1.778   0.982   1.711  0.3397 -0.3953  0.2159
 6868SOL    HW221504   1.686   0.921   1.591 -0.3317  0.3873  0.3254
 6869SOL     OW21505   3.430   5.242   1.656 -0.3397 -0.0306 -0.5172
 6869SOL    HW121506   3.360   5.271   1.722 -0.0212 -0.5649  0.0651
 6869SOL    HW221507   3.510   5.302   1.663  0.3409 -1.0242  0.7251
 6870SOL     OW21508   4.138   3.560   3.354  0.5988  0.1250  0.6506
 6870SOL    HW121509   4.163   3.608   3.438 -1.7475  1.0326  0.8858
 6870SOL    HW221510   4.126   3.625   3.279  0.5740 -0.4533  0.1381
 6871SOL     OW21511   5.362   6.710   4.445 -0.3711 -0.0232  0.2334
 6871SOL    HW121512   5.417   6.793   4.448  0.6744 -0.6997  0.0286
 6871SOL    HW221513   5.265   6.735   4.446 -0.0776  1.2195 -0.5666
 6872SOL     OW21514   6.204   1.509   1.306  0.4341 -0.2909 -0.1089
 6872SOL    HW121515   6.218   1.518   1.207 -2.9530  1.4982 -0.5581
 6872SOL    HW221516   6.115   1.468   1.324  2.5291 -4.3157  2.3390
 6873SOL     OW21517   5.503   3.912   0.803  0.1303 -0.0180  0.4005
 6873SOL    HW121518   5.480   3.862   0.719  2.2734  0.3082 -0.4707
 6873SOL    HW221519   5.475   4.007   0.793  1.4642  0.3128 -0.5185
 6874SOL     OW21520   4.931   5.862   5.239  0.6893 -0.2449 -0.4187
 6874SOL    HW121521   4.839   5.828   5.222  0.7827 -0.1328 -1.1695
 6874SOL    HW221522   4.932   5.962   5.233  0.5091 -0.1128  1.3230
 6875SOL     OW21523   0.655   5.918   3.391  0.5012  0.1897  0.0111
 6875SOL    HW121524   0.713   5.948   3.467 -1.2150 -0.6607  1.7775
 6875SOL    HW221525   0.562   5.901   3.426 -0.0181 -1.5621 -2.0143
 6876SOL     OW21526   6.256   0.751   5.368  0.0994 -0.1234 -0.3649
 6876SOL    HW121527   6.241   0.760   5.466 -0.0727 -0.0638 -0.3965
 6876SOL    HW221528   6.245   0.840   5.324 -0.7626 -0.3204 -0.5651
 6877SOL     OW21529   6.363   1.350   5.023  0.1109  0.0364 -0.3642
 6877SOL    HW121530   6.280   1.317   4.977  0.3130  0.5674 -1.1311
 6877SOL    HW221531   6.373   1.448   5.006 -0.1325  0.3823  1.3397
 6878SOL     OW21532   0.243   1.834   0.446 -0.1891  0.1457 -0.3149
 6878SOL    HW121533   0.166   1.873   0.397 -0.6604  0.1936  0.4598
 6878SOL    HW221534   0.280   1.902   0.510 -0.3321 -0.3022  0.2512
 6879SOL     OW21535   1.314   1.643   5.475 -0.2229 -0.2382  0.6330
 6879SOL    HW121536   1.391   1.585   5.501 -0.5894 -0.0507  2.2647
 6879SOL    HW221537   1.277   1.688   5.557 -1.2803  0.6464 -0.2937
 6880SOL     OW21538   0.396   1.511   2.994 -0.0301 -0.0315 -0.0266
 6880SOL    HW121539   0.362   1.450   3.066  0.6375  0.4470  0.7134
 6880SOL    HW221540   0.320   1.541   2.937 -0.2717 -2.3532 -1.0712
 6881SOL     OW21541   0.312   4.567   4.810  0.2883 -0.1358  0.1260
 6881SOL    HW121542   0.345   4.660   4.795  2.6618 -1.1132 -1.1249
 6881SOL    HW221543   0.331   4.540   4.905  1.5780 -0.0863 -0.1117
 6882SOL     OW21544   5.878   4.246   1.282  0.4988  0.0006 -0.6509
 6882SOL    HW121545   5.908   4.252   1.378  0.7043 -0.1709 -0.7053
 6882SOL    HW221546   5.790   4.197   1.278 -0.5743  1.7976 -0.3325
 6883SOL     OW21547   2.789   3.304   6.016  0.0587  0.4126 -0.4677
 6883SOL    HW121548   2.751   3.345   5.933 -2.9287 -2.1254 -0.5317
 6883SOL    HW221549   2.751   3.350   6.096  0.0391  0.4965 -0.5255
 6884SOL     OW21550   5.619   2.273   0.402 -0.1690 -0.1802  0.0134
 6884SOL    HW121551   5.619   2.175   0.383  0.3045  0.1170 -1.6115
 6884SOL    HW221552   5.526   2.303   0.423 -0.5820 -0.7041 -1.0096
 6885SOL     OW21553   5.962   4.943   0.238  0.4958 -0.1093 -0.0116
 6885SOL    HW121554   6.016   5.005   0.294  0.1716  0.5798 -0.4409
 6885SOL    HW221555   5.922   4.994   0.161 -3.1560  0.1566  1.8213
 6886SOL     OW21556   5.515   1.302   5.714 -0.1758 -0.2806 -0.2286
 6886SOL    HW121557   5.527   1.219   5.770  0.4651  0.0261  0.1020
 6886SOL    HW221558   5.513   1.382   5.774  0.2819  0.0333 -0.6220
 6887SOL     OW21559   0.720   0.942   4.485  0.5613  0.4163 -0.0054
 6887SOL    HW121560   0.699   0.882   4.408 -1.2842  1.3796 -0.2980
 6887SOL    HW221561   0.649   0.933   4.556  2.4502 -0.7986  1.8656
 6888SOL     OW21562   0.971   1.019   2.306 -0.0391 -0.2004 -0.0559
 6888SOL    HW121563   0.972   1.093   2.240 -0.3603 -2.1184 -2.3422
 6888SOL    HW221564   0.882   1.017   2.353 -1.0970 -0.7614 -1.9950
 6889SOL     OW21565   1.446   6.462   5.487  0.2694  0.6061  0.3529
 6889SOL    HW121566   1.412   6.519   5.561  1.4937  0.5119  1.0174
 6889SOL    HW221567   1.530   6.416   5.516 -0.5739 -1.4130 -0.2092
 6890SOL     OW21568   1.915   5.685   0.084  0.3585  0.0440  0.1162
 6890SOL    HW121569   1.908   5.707  -0.014 -1.2312  0.1265  0.2264
 6890SOL    HW221570   1.898   5.587   0.096  0.2247  0.0955  0.3380
 6891SOL     OW21571   4.623   2.698   1.223 -0.2573 -0.6328 -0.0294
 6891SOL    HW121572   4.653   2.610   1.187 -0.3208 -1.8032  2.5376
 6891SOL    HW221573   4.695   2.738   1.279 -1.4748 -0.8844  1.8160
 6892SOL     OW21574   4.548   3.545   1.309 -0.6492 -0.1080  0.0392
 6892SOL    HW121575   4.475   3.511   1.370  0.0036 -0.5548  0.5891
 6892SOL    HW221576   4.636   3.514   1.343 -0.0816  1.4943  0.1026
 6893SOL     OW21577   4.475   6.169   6.316 -0.0165  0.0285  0.8407
 6893SOL    HW121578   4.531   6.118   6.381  1.1897 -1.6948 -1.3885
 6893SOL    HW221579   4.533   6.231   6.263 -0.3447 -0.9514 -0.7308
 6894SOL     OW21580   4.113   3.690   5.073 -0.4234  0.0120  0.7242
 6894SOL    HW121581   4.107   3.606   5.126  0.6493 -0.1767  0.5591
 6894SOL    HW221582   4.135   3.766   5.133 -0.6575  0.0528  0.7602
 6895SOL     OW21583   3.664   3.814   2.417  0.0342 -0.0750 -0.2010
 6895SOL    HW121584   3.566   3.817   2.437 -0.4623  1.6055 -2.5345
 6895SOL    HW221585   3.715   3.854   2.493 -1.2150  0.3677  0.4277
 6896SOL     OW21586   5.449   2.586   5.646  0.1445  0.1493  0.3589
 6896SOL    HW121587   5.425   2.638   5.564  0.4051 -0.6056 -0.2169
 6896SOL    HW221588   5.413   2.632   5.727 -0.8894  0.4568 -0.2559
 6897SOL     OW21589   0.650   2.520   4.045  0.7228 -0.0472 -0.1703
 6897SOL    HW121590   0.701   2.589   4.096 -0.1930 -0.5770  1.5097
 6897SOL    HW221591   0.705   2.490   3.967  1.7406  1.4992 -0.0927
 6898SOL     OW21592   5.326   4.795   4.268 -0.2202 -0.0011 -0.0701
 6898SOL    HW121593   5.376   4.878   4.293  0.2653 -1.0367  2.8374
 6898SOL    HW221594   5.374   4.748   4.194  1.5767  0.4616  0.7365
 6899SOL     OW21595   6.257   3.910   5.710  0.3681  0.7600 -0.4436
 6899SOL    HW121596   6.197   3.897   5.631  0.0246  1.0341 -0.2295
 6899SOL    HW221597   6.321   3.833   5.716 -0.6915 -0.1245 -0.0323
 6900SOL     OW21598   5.218   2.074   0.025  0.5021  0.1384  0.3117
 6900SOL    HW121599   5.183   2.077  -0.068 -1.0041 -0.2352  0.8382
 6900SOL    HW221600   5.176   2.147   0.079  0.9197 -0.0074  0.8497
 6901SOL     OW21601   0.682   5.335   0.801  0.2067  0.2386  0.0030
 6901SOL    HW121602   0.656   5.249   0.758  0.6091 -0.1853  0.6038
 6901SOL    HW221603   0.646   5.339   0.894  1.9483 -0.2284  0.7493
 6902SOL     OW21604   0.767   4.725   2.088  0.0264 -0.1794  0.4785
 6902SOL    HW121605   0.705   4.701   2.162  0.6905  1.6305  1.6945
 6902SOL    HW221606   0.856   4.750   2.126  0.4143  0.7362 -0.9340
 6903SOL     OW21607   1.991   0.145   5.412 -0.1434 -0.4406  0.4245
 6903SOL    HW121608   1.914   0.204   5.389 -0.2160 -1.1803 -1.3245
 6903SOL    HW221609   1.957   0.059   5.451 -0.1618 -0.5235  0.2221
 6904SOL     OW21610   4.867   3.988   5.723  0.0535  0.1275  0.2882
 6904SOL    HW121611   4.920   3.910   5.755 -2.1044 -1.8025 -0.5790
 6904SOL    HW221612   4.770   3.968   5.733 -0.5972  1.8876 -1.8797
 6905SOL     OW21613   3.362   6.871   2.169  0.0864  0.3784 -0.1081
 6905SOL    HW121614   3.273   6.906   2.199 -0.0147  0.2912 -0.3082
 6905SOL    HW221615   3.421   6.948   2.144  0.1589  0.4509  0.2763
 6906SOL     OW21616   4.161   4.431   1.067  0.0962  0.2530  0.3986
 6906SOL    HW121617   4.119   4.441   0.977 -1.4925 -1.8070  0.8257
 6906SOL    HW221618   4.100   4.469   1.137  1.2661  1.7413  0.6565
 6907SOL     OW21619   1.523   4.739   0.881 -0.7998 -0.3030  0.6927
 6907SOL    HW121620   1.597   4.721   0.946 -0.6262 -2.6185 -0.0511
 6907SOL    HW221621   1.556   4.799   0.808  0.1733 -0.7764  0.7295
 6908SOL     OW21622   4.416   3.202   6.705  0.4292  0.1663  0.0653
 6908SOL    HW121623   4.462   3.270   6.762  0.1002  0.7174 -0.3252
 6908SOL    HW221624   4.347   3.154   6.760  0.4954  0.3094  0.2761
 6909SOL     OW21625   1.488   0.963   4.891  0.2547  0.4497 -0.0259
 6909SOL    HW121626   1.554   0.914   4.834  1.0509  0.9049  0.4864
 6909SOL    HW221627   1.412   0.996   4.835 -0.0262 -0.8966 -0.4643
 6910SOL     OW21628   3.473   6.072   4.051  0.2663 -0.1633 -0.2641
 6910SOL    HW121629   3.461   6.030   3.961 -0.5808 -0.5072 -0.0000
 6910SOL    HW221630   3.571   6.083   4.069  0.4425  0.1965 -1.3497
 6911SOL     OW21631   6.438   6.506   2.318  0.2181  0.4131  0.2268
 6911SOL    HW121632   6.357   6.499   2.376  0.0257 -1.4976 -0.1930
 6911SOL    HW221633   6.490   6.421   2.324  0.4452  0.3459 -2.0127
 6912SOL     OW21634   5.741   2.586   4.437  0.4167 -0.0623  0.3034
 6912SOL    HW121635   5.710   2.509   4.494  0.1931 -0.4224 -0.2947
 6912SOL    HW221636   5.703   2.576   4.345  0.1357  0.9321  0.3037
 6913SOL     OW21637   4.430   5.516   4.104 -0.0104  0.2062 -0.2629
 6913SOL    HW121638   4.399   5.545   4.194  0.8249  0.1894  0.0376
 6913SOL    HW221639   4.519   5.559   4.084  0.6522 -1.1439 -0.3283
 6914SOL     OW21640   6.306   5.477   2.000 -0.3904  0.1767 -0.7363
 6914SOL    HW121641   6.257   5.561   2.023 -0.7897  0.0342 -1.0391
 6914SOL    HW221642   6.375   5.497   1.930 -1.2246  0.0670 -1.6182
 6915SOL     OW21643   4.141   6.332   3.384  0.0691  0.1418  0.4353
 6915SOL    HW121644   4.207   6.397   3.421 -0.5455  1.7329 -1.0779
 6915SOL    HW221645   4.071   6.382   3.333 -0.0080 -1.7581 -1.4806
 6916SOL     OW21646   5.079   0.501   4.824  0.0069  0.2855 -0.1190
 6916SOL    HW121647   5.035   0.470   4.909  2.5035 -1.7737  0.5228
 6916SOL    HW221648   5.148   0.435   4.796  3.3536  3.6473 -0.5725
 6917SOL     OW21649   0.682   0.958   0.601 -0.2696  0.5538  0.6317
 6917SOL    HW121650   0.595   0.909   0.592 -0.1730  0.3155  0.9658
 6917SOL    HW221651   0.736   0.916   0.674  0.2042  0.5863  0.3049
 6918SOL     OW21652   1.634   4.795   3.035  0.1331 -0.4293  0.3170
 6918SOL    HW121653   1.697   4.745   3.094  0.0751  1.6258  2.2402
 6918SOL    HW221654   1.593   4.732   2.970 -0.6877 -3.1233  3.1912
 6919SOL     OW21655   5.530   3.114   0.140 -0.4229  0.4073  0.1262
 6919SOL    HW121656   5.555   3.146   0.231  0.4133  0.2193 -0.0230
 6919SOL    HW221657   5.609   3.122   0.079 -0.9656  0.5184 -0.5827
 6920SOL     OW21658   6.500   0.252   1.729  0.0751  0.0538  0.4093
 6920SOL    HW121659   6.433   0.222   1.796 -2.5857  2.7186 -0.8184
 6920SOL    HW221660   6.505   0.185   1.655 -2.3094  0.3249 -0.0922
 6921SOL     OW21661   1.078   0.160   5.628 -0.4270 -0.3593  0.4083
 6921SOL    HW121662   1.111   0.254   5.628 -0.1709 -0.4460 -0.3288
 6921SOL    HW221663   1.155   0.097   5.619 -0.6620 -0.6161  0.1728
 6922SOL     OW21664   3.777   5.395   6.131  0.5319 -0.1830 -0.1360
 6922SOL    HW121665   3.868   5.425   6.160  0.7385 -0.7793 -0.1567
 6922SOL    HW221666   3.758   5.432   6.040  0.6566  0.1362 -0.0343
 6923SOL     OW21667   0.015   6.813   2.254  0.0976 -0.1300  0.1785
 6923SOL    HW121668   0.101   6.846   2.292 -1.1827  0.4508  2.8726
 6923SOL    HW221669  -0.057   6.820   2.324 -2.2619 -0.1499 -2.0794
 6924SOL     OW21670   6.539   4.910   3.709  0.0872  0.2393  0.2583
 6924SOL    HW121671   6.599   4.990   3.712  0.9655 -0.3734 -0.4027
 6924SOL    HW221672   6.454   4.930   3.758  0.6649  1.2556  0.8740
 6925SOL     OW21673   3.094   1.764   5.843 -0.3297  0.3194  0.3134
 6925SOL    HW121674   3.138   1.826   5.908  2.4263 -1.6871  0.5199
 6925SOL    HW221675   3.095   1.805   5.752 -0.4949  1.4324  0.7940
 6926SOL     OW21676   5.021   0.524   5.108 -0.1423  0.1994  0.6033
 6926SOL    HW121677   5.084   0.457   5.147 -0.9448 -0.0090  1.5615
 6926SOL    HW221678   4.930   0.510   5.146 -0.6159  0.9632 -0.2267
 6927SOL     OW21679   5.125   0.232   1.219  0.3214 -0.2784  0.0131
 6927SOL    HW121680   5.224   0.224   1.205  0.4958  0.1972  0.8505
 6927SOL    HW221681   5.103   0.203   1.313 -0.1950  0.5622  0.1573
 6928SOL     OW21682   5.349   2.083   4.083 -0.0509 -0.0881 -0.5050
 6928SOL    HW121683   5.397   2.098   3.997  1.6827  0.3538  0.4969
 6928SOL    HW221684   5.405   2.115   4.160 -1.0011 -1.6100  0.9034
 6929SOL     OW21685   0.918   6.949   2.032 -0.0641  0.4612  0.0623
 6929SOL    HW121686   0.981   7.003   1.977 -1.6628  1.3159 -0.9954
 6929SOL    HW221687   0.902   6.995   2.119  2.0721 -0.6428  1.1388
 6930SOL     OW21688   3.933   1.600   6.454 -0.1633  0.8490  0.3519
 6930SOL    HW121689   3.972   1.576   6.365  0.1478  0.9831  0.4513
 6930SOL    HW221690   3.862   1.533   6.479  1.2392 -0.4750  0.9905
 6931SOL     OW21691   6.431   5.876   5.094 -0.0086  0.3133 -0.0727
 6931SOL    HW121692   6.369   5.891   5.017 -1.5054  2.8575  1.4932
 6931SOL    HW221693   6.471   5.784   5.087 -2.5757 -0.7918 -2.1126
 6932SOL     OW21694   2.322   2.786   1.596  0.0339 -0.4762 -0.7008
 6932SOL    HW121695   2.374   2.734   1.663  0.3767  1.9978  1.1203
 6932SOL    HW221696   2.230   2.747   1.587  0.2422 -1.3504  0.6290
 6933SOL     OW21697   4.017   5.957   6.426 -0.7320 -0.2446  0.2656
 6933SOL    HW121698   4.085   5.951   6.498  0.3972  0.4540 -0.7058
 6933SOL    HW221699   4.028   5.880   6.362  0.2620  0.7332 -0.7948
 6934SOL     OW21700   2.890   1.823   3.474 -0.1100 -0.2272 -0.4044
 6934SOL    HW121701   2.852   1.778   3.394 -0.3146  0.0603 -0.4711
 6934SOL    HW221702   2.821   1.884   3.514  0.3540  0.4759 -0.6595
 6935SOL     OW21703   2.405   4.297   5.258  0.1167 -0.0899  0.1933
 6935SOL    HW121704   2.313   4.311   5.219  0.2802 -2.1491 -1.1076
 6935SOL    HW221705   2.433   4.202   5.242  2.4417  0.4688  0.6693
 6936SOL     OW21706   2.088   0.669   3.453 -0.0476 -0.0853  0.4516
 6936SOL    HW121707   2.072   0.766   3.472 -0.9611 -0.1962  0.3326
 6936SOL    HW221708   2.003   0.618   3.470  0.6676 -0.9967  1.3765
 6937SOL     OW21709   0.136   2.990   0.973 -0.1727 -0.0111  0.0498
 6937SOL    HW121710   0.226   2.947   0.970  0.0296  0.4340 -0.4854
 6937SOL    HW221711   0.065   2.921   0.985  0.1750 -0.4427 -0.3920
 6938SOL     OW21712   4.127   3.576   0.756  0.1877  0.7318  0.3279
 6938SOL    HW121713   4.188   3.590   0.679 -0.0870 -0.0293 -0.0382
 6938SOL    HW221714   4.121   3.660   0.811  3.7806  0.0848  1.9961
 6939SOL     OW21715   0.672   1.369   3.500 -0.1324 -0.3269  0.3977
 6939SOL    HW121716   0.728   1.423   3.563  0.2800 -1.3692  0.9367
 6939SOL    HW221717   0.689   1.401   3.406 -0.1360  0.6832  0.7322
 6940SOL     OW21718   4.108   0.037   0.431 -0.6152 -0.0179  0.1379
 6940SOL    HW121719   4.071   0.024   0.523 -2.2908  2.1884 -0.1450
 6940SOL    HW221720   4.073  -0.035   0.371 -3.0119  0.8967  0.3300
 6941SOL     OW21721   5.550   6.610   4.067  0.6323 -0.6051  0.5850
 6941SOL    HW121722   5.475   6.629   4.003  1.1899 -0.9213 -0.1735
 6941SOL    HW221723   5.596   6.526   4.040  1.0314 -0.6101  1.2687
 6942SOL     OW21724   4.044   0.368   0.047  0.3120 -0.0426 -0.0464
 6942SOL    HW121725   4.137   0.378   0.012  0.9324 -0.1058  1.5079
 6942SOL    HW221726   4.021   0.446   0.105 -0.2063 -0.5219  0.4149
 6943SOL     OW21727   4.554   2.653   6.984 -0.0180  0.6158 -1.0685
 6943SOL    HW121728   4.633   2.710   6.964 -1.0653  2.3162 -0.5619
 6943SOL    HW221729   4.484   2.668   6.914 -0.5379  0.4146 -0.5983
 6944SOL     OW21730   2.550   4.943   4.677  0.4438 -0.5796 -0.2598
 6944SOL    HW121731   2.508   5.033   4.660  0.2280 -0.6564 -0.1344
 6944SOL    HW221732   2.562   4.895   4.590  0.8889 -0.2822 -0.3632
 6945SOL     OW21733   2.115   2.135   0.062 -0.0762 -0.8768 -0.0585
 6945SOL    HW121734   2.040   2.144  -0.004  0.6468 -3.0741 -1.2575
 6945SOL    HW221735   2.097   2.058   0.123  0.8216 -0.9224  0.1633
 6946SOL     OW21736   5.704   0.844   3.202 -0.0817  0.2564  0.5712
 6946SOL    HW121737   5.696   0.887   3.112 -0.4256  0.0654  0.5075
 6946SOL    HW221738   5.800   0.823   3.220 -0.0732 -0.2124  0.0065
 6947SOL     OW21739   1.182   1.819   4.832  0.9072 -0.5647 -0.3725
 6947SOL    HW121740   1.150   1.745   4.772  1.1154 -1.6344  0.7862
 6947SOL    HW221741   1.180   1.788   4.927  0.7319  1.0402  0.1762
 6948SOL     OW21742   0.947   4.473   4.480 -0.2605  0.1608 -0.4588
 6948SOL    HW121743   0.948   4.439   4.386 -0.4348 -0.0425 -0.3877
 6948SOL    HW221744   0.946   4.396   4.544  1.1073  0.2814 -0.2681
 6949SOL     OW21745   2.133   3.757   1.909 -0.1007 -0.5488 -0.1421
 6949SOL    HW121746   2.090   3.711   1.831  0.9472 -1.9879  0.0875
 6949SOL    HW221747   2.178   3.689   1.967 -0.6879  0.5060  1.6321
 6950SOL     OW21748   1.958   6.109   1.873  0.0243  0.1583 -0.3156
 6950SOL    HW121749   2.034   6.110   1.808  0.5023 -0.0752  0.2293
 6950SOL    HW221750   1.898   6.187   1.855  0.0331 -0.0185 -1.1644
 6951SOL     OW21751   4.820   0.006   2.020 -0.1974 -0.2016  0.5979
 6951SOL    HW121752   4.900   0.025   2.077 -1.0932  1.4317  1.3692
 6951SOL    HW221753   4.848  -0.051   1.943  1.8608  0.8052  0.5114
 6952SOL     OW21754   2.789   5.614   2.380 -0.1542 -0.2012  0.5372
 6952SOL    HW121755   2.712   5.560   2.414 -0.3766  0.3437  0.9167
 6952SOL    HW221756   2.875   5.567   2.401 -0.3303 -0.2820  1.0911
 6953SOL     OW21757   1.805   5.838   6.039 -0.0064 -0.2819  0.5606
 6953SOL    HW121758   1.837   5.814   6.130 -1.8042 -0.4451  1.1794
 6953SOL    HW221759   1.749   5.764   6.002  2.6381 -1.3272 -1.7554
 6954SOL     OW21760   1.902   1.185   2.771 -0.5614 -0.0402  0.4276
 6954SOL    HW121761   1.853   1.110   2.728  0.6784 -0.3923 -0.4267
 6954SOL    HW221762   1.982   1.150   2.821 -0.0929  0.6690  0.2040
 6955SOL     OW21763   4.788   1.029   3.200  0.6688  0.1926 -0.7632
 6955SOL    HW121764   4.738   1.055   3.118  1.0694  0.7083 -0.8472
 6955SOL    HW221765   4.728   1.034   3.280  0.0114 -1.2162 -1.1380
 6956SOL     OW21766   0.665   3.823   1.343  0.6717  0.0334  0.7857
 6956SOL    HW121767   0.574   3.784   1.331  1.7183 -1.8227 -2.4059
 6956SOL    HW221768   0.729   3.751   1.368  1.9055  0.5060 -0.8565
 6957SOL     OW21769   2.110   2.363   1.605  0.5131  0.4504  0.2714
 6957SOL    HW121770   2.042   2.291   1.597  0.9108 -0.5268  4.1100
 6957SOL    HW221771   2.192   2.338   1.553 -0.1325 -0.8112 -0.1707
 6958SOL     OW21772   5.540   3.576   4.531  0.2838  0.3019 -0.2825
 6958SOL    HW121773   5.449   3.594   4.495 -0.0261  0.1066  0.3843
 6958SOL    HW221774   5.576   3.491   4.493 -0.2069 -0.1141  0.1709
 6959SOL     OW21775   0.764   5.191   5.858  0.0359 -0.0166 -0.6195
 6959SOL    HW121776   0.752   5.232   5.948  0.7043  0.0067 -0.5357
 6959SOL    HW221777   0.677   5.194   5.808 -0.1005  0.8658 -0.3494
 6960SOL     OW21778   6.716   5.678   3.596 -0.3683  0.5336  0.8530
 6960SOL    HW121779   6.657   5.750   3.631 -0.2344  2.0008 -1.6843
 6960SOL    HW221780   6.671   5.633   3.519  1.4101  1.1405 -0.6080
 6961SOL     OW21781   6.602   4.029   3.253  0.6954 -0.3126  0.2522
 6961SOL    HW121782   6.620   4.063   3.161  1.0166  0.3003  0.5400
 6961SOL    HW221783   6.638   3.936   3.261 -0.2318 -0.7636 -0.5489
 6962SOL     OW21784   5.724   3.767   5.891  0.6478  0.4654 -0.4345
 6962SOL    HW121785   5.667   3.830   5.838  1.6366  0.3482 -1.6637
 6962SOL    HW221786   5.683   3.676   5.891  1.0140  0.2858 -1.6609
 6963SOL     OW21787   1.122   2.603   6.239 -0.3772  0.9004  0.2498
 6963SOL    HW121788   1.177   2.620   6.321 -2.0612 -0.6013  1.7682
 6963SOL    HW221789   1.183   2.584   6.162  1.2462  0.6075  1.5359
 6964SOL     OW21790   7.020   5.200   6.808 -0.5381 -0.1223  0.7678
 6964SOL    HW121791   7.057   5.243   6.726 -1.7734  1.9233  1.2041
 6964SOL    HW221792   7.036   5.258   6.888 -1.2480 -1.0245  1.6071
 6965SOL     OW21793   4.730   2.513   5.029  0.0944  0.3775  0.3395
 6965SOL    HW121794   4.632   2.509   5.051  0.3373 -2.7644  1.3641
 6965SOL    HW221795   4.755   2.437   4.970  1.7832  1.7912 -0.9008
 6966SOL     OW21796   2.278   0.464   3.466  0.9699 -0.1149 -0.1685
 6966SOL    HW121797   2.225   0.549   3.473  2.7770  1.0092  0.7301
 6966SOL    HW221798   2.340   0.470   3.387  0.5565 -0.9519 -0.5670
 6967SOL     OW21799   6.626   4.606   0.294  0.0201  0.4926 -0.6322
 6967SOL    HW121800   6.531   4.578   0.282  0.3948 -1.1361 -0.0755
 6967SOL    HW221801   6.684   4.557   0.229  0.9455 -1.7003  1.6575
 6968SOL     OW21802   6.749   5.815   6.126  0.2456 -0.3214 -0.3206
 6968SOL    HW121803   6.699   5.777   6.048 -2.7010 -0.0799  1.3091
 6968SOL    HW221804   6.819   5.878   6.093  0.8288 -2.0970 -2.8132
 6969SOL     OW21805   6.910   3.785   0.269 -0.2090  0.5640  0.3460
 6969SOL    HW121806   6.999   3.785   0.225  0.1682  0.3228  1.0894
 6969SOL    HW221807   6.909   3.717   0.343 -1.4568 -0.4152 -0.5346
 6970SOL     OW21808   1.796   1.396   2.004  0.4185  0.0116 -0.5402
 6970SOL    HW121809   1.896   1.399   1.999  0.4337 -0.4625 -0.6249
 6970SOL    HW221810   1.765   1.435   2.091  0.7142 -0.4054 -0.2452
 6971SOL     OW21811   1.150   0.429   0.549 -0.7746  0.8902 -0.5038
 6971SOL    HW121812   1.070   0.476   0.587 -1.1640  0.1939 -0.4400
 6971SOL    HW221813   1.137   0.417   0.450 -2.3049 -2.0981 -0.0541
 6972SOL     OW21814   6.615   1.898   5.007  0.3173 -0.0291 -0.4035
 6972SOL    HW121815   6.710   1.925   5.021  1.2607 -2.2385 -1.8466
 6972SOL    HW221816   6.587   1.835   5.079 -1.5995  3.7595  2.4864
 6973SOL     OW21817   1.757   3.836   2.310 -0.5135  0.3591  0.0546
 6973SOL    HW121818   1.782   3.773   2.384 -0.9518 -0.7144 -0.6754
 6973SOL    HW221819   1.818   3.820   2.232 -1.4391 -0.0742 -0.5993
 6974SOL     OW21820   0.776   4.858   5.382 -0.5149 -0.7543 -0.3994
 6974SOL    HW121821   0.823   4.814   5.458  2.3358 -0.9969 -2.1918
 6974SOL    HW221822   0.773   4.957   5.398  1.3569 -0.6409 -0.5679
 6975SOL     OW21823   3.219   5.797   3.121  0.0608 -0.4229 -0.9150
 6975SOL    HW121824   3.182   5.877   3.074 -2.1375  0.0381  1.3902
 6975SOL    HW221825   3.168   5.716   3.094  0.6157 -0.6388 -1.3436
 6976SOL     OW21826   2.982   0.019   5.944  0.5396 -0.3587  0.6465
 6976SOL    HW121827   2.955   0.051   5.853 -1.7226 -0.5419  1.2147
 6976SOL    HW221828   2.960   0.088   6.012 -0.5729 -1.4050  1.3861
 6977SOL     OW21829   2.203   3.913   3.120  0.5210  0.4406  0.3317
 6977SOL    HW121830   2.168   3.892   3.211  0.6236  1.3083  0.5790
 6977SOL    HW221831   2.278   3.979   3.127  0.5061  0.5485 -0.3803
 6978SOL     OW21832   6.863   5.123   6.171 -0.1228  0.2519  0.3542
 6978SOL    HW121833   6.850   5.024   6.172  1.3866  0.0325  0.5740
 6978SOL    HW221834   6.945   5.146   6.120  0.5618  1.2457  1.8185
 6979SOL     OW21835   0.730   5.974   6.409 -0.2106  0.4649 -0.1184
 6979SOL    HW121836   0.730   5.888   6.459  0.1497  0.5541  0.0425
 6979SOL    HW221837   0.712   6.049   6.472 -2.1369  0.3843 -0.5103
 6980SOL     OW21838   4.948   0.750   4.951 -0.2566  0.2744  0.0593
 6980SOL    HW121839   4.852   0.727   4.965  0.0804 -0.7133  0.8702
 6980SOL    HW221840   5.006   0.686   5.001  0.8683  0.2532 -1.1883
 6981SOL     OW21841   2.577   6.257   0.503  0.4013 -0.4451  0.1785
 6981SOL    HW121842   2.623   6.218   0.583  0.6089 -1.1152 -0.2603
 6981SOL    HW221843   2.590   6.356   0.502  4.2032 -0.7797 -1.3661
 6982SOL     OW21844   1.634   0.075   0.842 -0.3323  0.3608  0.0666
 6982SOL    HW121845   1.600   0.164   0.871 -2.5203 -0.2393 -0.4535
 6982SOL    HW221846   1.564   0.028   0.788  0.8433 -1.5898  0.1154
 6983SOL     OW21847   1.174   5.271   1.903 -0.0878  0.2315 -0.0862
 6983SOL    HW121848   1.141   5.350   1.956 -0.7166  0.0979 -0.2780
 6983SOL    HW221849   1.153   5.187   1.952  1.4678  0.2092  0.6042
 6984SOL     OW21850   1.957   6.258   3.478 -0.0765 -0.0217  0.0160
 6984SOL    HW121851   1.966   6.347   3.434  1.7310  0.3089  0.9600
 6984SOL    HW221852   2.042   6.207   3.468 -0.0457 -0.4455  1.9476
 6985SOL     OW21853   6.979   4.409   1.857  0.0918 -0.2468  0.1111
 6985SOL    HW121854   6.934   4.451   1.778 -1.4410 -0.5572  0.7948
 6985SOL    HW221855   7.069   4.375   1.829  0.6239  1.8137 -0.9022
 6986SOL     OW21856   0.968   5.473   5.673 -0.6092  0.2474  0.6723
 6986SOL    HW121857   0.870   5.480   5.694 -0.3301  0.9357  1.8375
 6986SOL    HW221858   0.981   5.476   5.574 -2.0059 -3.0619  0.2246
 6987SOL     OW21859   1.217   5.600   2.201  0.0602 -0.2495 -0.2192
 6987SOL    HW121860   1.237   5.653   2.284  0.3376 -1.4567  0.5137
 6987SOL    HW221861   1.123   5.618   2.172 -0.9155 -1.6402  1.8254
 6988SOL     OW21862   0.887   4.754   4.348  0.1315  0.1946 -0.2399
 6988SOL    HW121863   0.901   4.657   4.368 -0.4633 -0.0229 -0.8304
 6988SOL    HW221864   0.811   4.788   4.404  0.9406  0.5651  0.6503
 6989SOL     OW21865   2.494   6.626   5.941  0.0420  0.0738  0.2406
 6989SOL    HW121866   2.571   6.687   5.961 -0.5091  1.5388 -1.8092
 6989SOL    HW221867   2.412   6.680   5.922 -0.6765 -1.3361 -0.8405
 6990SOL     OW21868   4.414   1.520   3.630 -0.0012 -0.3641  0.1589
 6990SOL    HW121869   4.467   1.603   3.645 -0.5901  0.0261  0.1421
 6990SOL    HW221870   4.335   1.520   3.691 -1.5296  0.4523 -1.6989
 6991SOL     OW21871   2.643   5.385   0.769  0.4106 -1.0299  0.3564
 6991SOL    HW121872   2.581   5.399   0.847  1.2566 -3.2991  1.5442
 6991SOL    HW221873   2.608   5.434   0.689 -1.7247 -0.4821  1.5393
 6992SOL     OW21874   6.897   5.996   5.990 -0.4253 -0.0941  0.5884
 6992SOL    HW121875   6.987   5.999   6.034  0.0028 -0.9966 -0.1756
 6992SOL    HW221876   6.903   6.037   5.899 -0.8886  0.1997  0.6867
 6993SOL     OW21877   6.961   6.102   4.292  0.2230  0.7261  0.4982
 6993SOL    HW121878   6.898   6.121   4.367  1.1602  0.7230  1.2934
 6993SOL    HW221879   6.940   6.012   4.253  0.3688  0.2907  1.4120
 6994SOL     OW21880   5.868   5.411   0.798 -0.2991  0.4991 -0.4147
 6994SOL    HW121881   5.944   5.351   0.773 -0.4030 -0.2019  0.8489
 6994SOL    HW221882   5.877   5.498   0.749  1.6171  0.6235  0.0363
 6995SOL     OW21883   5.777   3.275   1.170  0.4425  0.3473 -0.2343
 6995SOL    HW121884   5.766   3.358   1.115  1.1528  1.6683  1.5287
 6995SOL    HW221885   5.698   3.263   1.229  1.4343  1.2007  1.3134
 6996SOL     OW21886   2.483   1.908   6.616  0.0783 -0.2777  0.2919
 6996SOL    HW121887   2.539   1.838   6.570  0.3149 -0.6413  1.1042
 6996SOL    HW221888   2.511   1.914   6.712  0.2515  1.1512  0.1590
 6997SOL     OW21889   2.817   4.675   5.358 -0.0766  0.3035 -0.4212
 6997SOL    HW121890   2.736   4.616   5.361  0.9586 -1.1360 -0.1328
 6997SOL    HW221891   2.872   4.654   5.278 -0.7752  2.4188 -1.5347
 6998SOL     OW21892   3.728   4.870   6.013 -0.0679 -0.0559 -0.3055
 6998SOL    HW121893   3.667   4.905   5.942  1.8257  1.5682 -1.2012
 6998SOL    HW221894   3.770   4.946   6.062  0.1090 -1.1495  1.3195
 6999SOL     OW21895   4.873   1.910   1.425  0.4051  0.2655 -0.7036
 6999SOL    HW121896   4.879   2.005   1.396 -0.1473  0.2384 -0.8969
 6999SOL    HW221897   4.793   1.898   1.484  1.0170  0.1316  0.1282
 7000SOL     OW21898   0.996   6.204   5.738 -0.2655 -0.0810  0.3482
 7000SOL    HW121899   1.034   6.111   5.730  0.0867  0.1427 -0.7734
 7000SOL    HW221900   0.908   6.208   5.691  0.9822  0.8118 -2.0603
 7001SOL     OW21901   0.738   4.149   3.911  0.0535 -0.4298 -0.0832
 7001SOL    HW121902   0.677   4.149   3.832  2.1720  0.8677 -1.8321
 7001SOL    HW221903   0.687   4.175   3.993 -1.7849  0.2282 -1.3810
 7002SOL     OW21904   2.488   2.774   6.312  0.0316  0.3747 -0.0408
 7002SOL    HW121905   2.472   2.813   6.222  1.6466  1.5606  0.1364
 7002SOL    HW221906   2.583   2.742   6.318 -0.8930 -2.6642  0.1973
 7003SOL     OW21907   1.041   5.660   4.040 -0.2599 -0.3459 -0.1411
 7003SOL    HW121908   1.107   5.592   4.011  1.8118  2.3811 -2.4163
 7003SOL    HW221909   1.072   5.704   4.125 -0.9275 -1.2518  0.5998
 7004SOL     OW21910   6.552   5.256   6.627 -0.0574 -0.0904  0.1245
 7004SOL    HW121911   6.640   5.211   6.610  1.9461  3.5594 -0.2895
 7004SOL    HW221912   6.498   5.256   6.543  0.6571 -0.2243 -0.3483
 7005SOL     OW21913   2.304   6.125   5.190 -0.1459  0.1803  0.4738
 7005SOL    HW121914   2.237   6.197   5.206  1.4127  1.9697 -0.4876
 7005SOL    HW221915   2.395   6.167   5.178  0.6605 -1.8634 -1.1901
 7006SOL     OW21916   0.241   6.484   5.896 -0.1112 -0.5030  0.1325
 7006SOL    HW121917   0.251   6.547   5.972  1.7481 -0.5349 -0.0367
 7006SOL    HW221918   0.186   6.405   5.925 -0.3420 -0.0039  1.0959
 7007SOL     OW21919   6.184   2.272   4.777  0.1616 -0.1564  0.1149
 7007SOL    HW121920   6.228   2.195   4.732  1.9190 -0.1262  1.6506
 7007SOL    HW221921   6.118   2.314   4.715  1.0276 -1.2973 -1.6549
 7008SOL     OW21922   2.310   2.121   0.296 -0.2796  0.2858 -0.2108
 7008SOL    HW121923   2.221   2.164   0.303 -0.3796 -0.1352  1.9039
 7008SOL    HW221924   2.306   2.029   0.335  0.9433  0.0658 -0.5520
 7009SOL     OW21925   1.534   6.410   3.262  0.2610  0.2146 -0.0623
 7009SOL    HW121926   1.552   6.360   3.346  0.2271  0.1377 -0.0998
 7009SOL    HW221927   1.620   6.426   3.213  0.3136  0.5290  0.1383
 7010SOL     OW21928   1.199   1.335   3.297  0.0670  0.1358  0.3237
 7010SOL    HW121929   1.170   1.249   3.339  0.3087 -0.1374 -0.0596
 7010SOL    HW221930   1.180   1.411   3.359  1.6856 -0.3912  1.5285
 7011SOL     OW21931   2.304   4.935   0.021  0.4365  0.0572  0.0609
 7011SOL    HW121932   2.401   4.910   0.033  0.6337  0.5436 -0.4508
 7011SOL    HW221933   2.296   4.999  -0.056 -0.5186 -1.4234 -1.1115
 7012SOL     OW21934   5.243   4.544   3.035  0.0796  0.1914  0.0441
 7012SOL    HW121935   5.267   4.486   2.956  0.5084  1.4444 -0.7846
 7012SOL    HW221936   5.155   4.515   3.072 -0.8524  0.4831 -1.8277
 7013SOL     OW21937   2.053   1.346   5.240 -0.2139  0.4370  0.1712
 7013SOL    HW121938   2.078   1.418   5.304  1.1076 -0.6628  0.9516
 7013SOL    HW221939   2.133   1.322   5.184 -0.5633 -0.5675  0.0794
 7014SOL     OW21940   6.220   3.144   5.015  0.6883  0.1585  0.1628
 7014SOL    HW121941   6.309   3.185   4.994  0.4978 -0.4236 -2.0499
 7014SOL    HW221942   6.224   3.046   4.996 -0.4021  0.1104  0.1275
 7015SOL     OW21943   4.722   6.936   3.433 -0.5809  0.8937 -0.2531
 7015SOL    HW121944   4.645   6.999   3.434 -1.9006 -0.4587 -3.4106
 7015SOL    HW221945   4.690   6.843   3.420  1.5097 -0.0460  0.7395
 7016SOL     OW21946   3.351   5.921   3.766 -0.0196 -0.2750 -0.1928
 7016SOL    HW121947   3.295   5.893   3.844 -2.0026  1.2881 -0.9786
 7016SOL    HW221948   3.295   5.926   3.684  1.2415  1.4297 -1.0188
 7017SOL     OW21949   4.594   0.614   2.092  0.0444  0.3533 -0.3379
 7017SOL    HW121950   4.611   0.534   2.149 -2.0735  0.0618 -0.0617
 7017SOL    HW221951   4.532   0.676   2.140  0.5101  1.4831 -1.1605
 7018SOL     OW21952   5.113   1.617   2.840 -0.4382  0.3554 -0.0890
 7018SOL    HW121953   5.078   1.710   2.854 -0.6969  0.3162 -0.4768
 7018SOL    HW221954   5.099   1.590   2.745 -2.8202 -1.0602  0.5776
 7019SOL     OW21955   5.384   3.378   1.880 -0.5992 -0.8807  0.3108
 7019SOL    HW121956   5.383   3.336   1.971  0.5445  1.4751  1.5169
 7019SOL    HW221957   5.386   3.478   1.890  2.0621 -0.5495 -2.2601
 7020SOL     OW21958   6.693   3.880   0.999  0.3476 -0.0335  0.1124
 7020SOL    HW121959   6.737   3.889   0.909 -0.7598  1.3199 -0.3249
 7020SOL    HW221960   6.762   3.891   1.071  1.0595  0.0507 -0.5698
 7021SOL     OW21961   2.507   1.775   4.023  0.3152 -0.0025  0.8843
 7021SOL    HW121962   2.475   1.869   4.012 -0.8709 -0.4389  0.3988
 7021SOL    HW221963   2.601   1.767   3.991  0.2922  0.9332  0.5623
 7022SOL     OW21964   6.764   0.057   1.420 -0.1004  0.7421  0.2363
 7022SOL    HW121965   6.763  -0.011   1.493  0.3381  0.5532  0.0645
 7022SOL    HW221966   6.683   0.116   1.429 -0.7441 -0.0998  0.1022
 7023SOL     OW21967   5.127   3.091   1.236 -0.2490 -0.4301 -0.7678
 7023SOL    HW121968   5.202   3.030   1.261 -1.1475 -0.7160  1.4513
 7023SOL    HW221969   5.061   3.041   1.180 -0.0010 -0.9125 -0.6330
 7024SOL     OW21970   6.073   3.758   6.245  0.1700 -0.2666  0.4582
 7024SOL    HW121971   6.118   3.831   6.297  1.3552 -0.7449  0.1525
 7024SOL    HW221972   6.043   3.686   6.307  0.8308 -0.4504  0.5726
 7025SOL     OW21973   6.987   5.494   5.237  0.3058  0.1201  0.0728
 7025SOL    HW121974   6.960   5.398   5.231  1.3783 -0.3655  2.1321
 7025SOL    HW221975   6.908   5.549   5.265 -0.1138 -0.2694 -0.3197
 7026SOL     OW21976   1.429   3.481   4.553 -0.0467  0.0299 -0.5434
 7026SOL    HW121977   1.402   3.414   4.622  3.2077 -1.2181 -0.3357
 7026SOL    HW221978   1.419   3.573   4.591 -1.5474 -0.4596  0.3123
 7027SOL     OW21979   5.419   2.095   4.898 -0.5834  0.7564 -0.1800
 7027SOL    HW121980   5.471   2.179   4.883 -0.6440  1.1486  1.5778
 7027SOL    HW221981   5.321   2.118   4.904 -0.7181  0.3838 -0.8957
 7028SOL     OW21982   6.115   1.706   3.274  0.0291 -0.1632 -0.3603
 7028SOL    HW121983   6.092   1.609   3.283 -0.2826 -0.2564 -1.8848
 7028SOL    HW221984   6.214   1.717   3.271  0.0527 -0.5601 -1.2710
 7029SOL     OW21985   2.366   2.326   3.304 -0.7015 -0.2978  0.1056
 7029SOL    HW121986   2.415   2.391   3.362 -1.0287 -0.1996  0.2704
 7029SOL    HW221987   2.270   2.323   3.331 -0.7869 -0.4897 -0.2200
 7030SOL     OW21988   5.576   2.058   2.651 -0.3419  0.0723  0.3248
 7030SOL    HW121989   5.614   1.999   2.722  0.4753  1.4560  1.0819
 7030SOL    HW221990   5.525   2.133   2.694  0.3405  1.0523 -0.5129
 7031SOL     OW21991   6.327   1.967   0.624 -0.1892  0.1170  0.0584
 7031SOL    HW121992   6.399   1.898   0.622 -0.4279 -0.1195 -0.6721
 7031SOL    HW221993   6.253   1.939   0.563  0.3676  1.7369 -1.4162
 7032SOL     OW21994   2.002   4.591   3.811  0.2246 -0.5797 -0.1628
 7032SOL    HW121995   1.991   4.493   3.796  0.3452 -0.5211 -0.6222
 7032SOL    HW221996   2.061   4.630   3.741  1.1223 -0.3837  0.6787
 7033SOL     OW21997   6.282   3.209   2.126 -0.4780  0.7455 -0.1880
 7033SOL    HW121998   6.318   3.225   2.218 -0.4582  2.1435 -0.4119
 7033SOL    HW221999   6.331   3.133   2.083 -0.6198 -0.0461  1.0171
 7034SOL     OW22000   4.731   2.832   3.783 -0.4439  0.3633  0.3612
 7034SOL    HW122001   4.707   2.796   3.873 -0.2613  1.1625  0.7287
 7034SOL    HW222002   4.767   2.924   3.792  0.9220 -0.0776 -0.3884
 7035SOL     OW22003   1.397   6.800   1.630 -0.1349  0.5104  0.0704
 7035SOL    HW122004   1.458   6.833   1.702 -0.0863  1.0982 -0.2247
 7035SOL    HW222005   1.371   6.877   1.571 -3.8124  1.0526  2.0628
 7036SOL     OW22006   0.088   6.274   5.951 -0.8465 -0.7835 -0.8303
 7036SOL    HW122007   0.021   6.246   5.882 -3.2494  0.9017  0.6762
 7036SOL    HW222008   0.088   6.209   6.027 -0.9873 -0.6279 -0.6968
 7037SOL     OW22009   4.832   0.956   4.621 -0.1148 -0.1383 -0.2987
 7037SOL    HW122010   4.852   1.038   4.567  1.5977 -0.0310  0.4029
 7037SOL    HW222011   4.918   0.915   4.651 -0.9815 -0.7395  1.5151
 7038SOL     OW22012   5.411   6.056   5.967  0.4904  0.0884 -0.4514
 7038SOL    HW122013   5.370   6.073   5.878  2.3113  1.3101 -1.1047
 7038SOL    HW222014   5.493   6.000   5.957 -0.2063 -1.2325  0.6923
 7039SOL     OW22015   4.449   4.864   4.372  0.4883 -0.0964 -0.2425
 7039SOL    HW122016   4.414   4.773   4.398  0.7544 -0.5155 -1.3031
 7039SOL    HW222017   4.464   4.866   4.274  1.0624  0.9141 -0.1354
 7040SOL     OW22018   3.318   4.004   6.002 -0.1536  0.8163 -0.1121
 7040SOL    HW122019   3.404   3.961   6.028 -0.0736  1.0336 -0.0133
 7040SOL    HW222020   3.255   4.002   6.080 -0.4575  0.1149 -0.3713
 7041SOL     OW22021   5.055   1.566   2.551 -0.3476  0.0593 -0.8129
 7041SOL    HW122022   5.127   1.567   2.482  0.9683  0.6337  0.5349
 7041SOL    HW222023   4.968   1.543   2.507  0.2606  1.3326 -2.8300
 7042SOL     OW22024   6.081   4.665   0.389  0.3298  0.0026 -0.3041
 7042SOL    HW122025   6.150   4.738   0.394  0.9740 -0.3408 -2.6587
 7042SOL    HW222026   6.128   4.576   0.390 -0.1876 -0.2731 -0.4457
 7043SOL     OW22027   4.290   5.099   3.812  0.2817  0.2205 -0.4356
 7043SOL    HW122028   4.354   5.034   3.770 -2.4883 -0.9033 -3.3158
 7043SOL    HW222029   4.247   5.057   3.892  1.1809 -0.0117 -0.0598
 7044SOL     OW22030   0.933   3.376   5.862  0.1968  0.4378 -0.5555
 7044SOL    HW122031   0.835   3.389   5.844  0.1005  0.1607 -0.2342
 7044SOL    HW222032   0.954   3.279   5.866  0.0861  0.4671  1.4680
 7045SOL     OW22033   6.989   4.408   3.016 -0.3899  0.2721  0.0096
 7045SOL    HW122034   6.893   4.432   2.997 -1.4738 -3.0334  0.5152
 7045SOL    HW222035   7.018   4.450   3.101 -1.5023  1.1195 -0.0048
 7046SOL     OW22036   2.151   3.541   1.474 -0.2050  0.4284  0.1672
 7046SOL    HW122037   2.241   3.567   1.510  0.5479  0.1441 -1.4466
 7046SOL    HW222038   2.160   3.514   1.378 -1.6435 -1.7579  0.5866
 7047SOL     OW22039   0.682   1.334   5.552  0.8050 -0.3583 -0.3219
 7047SOL    HW122040   0.587   1.325   5.525  0.1232  0.4796  1.6059
 7047SOL    HW222041   0.738   1.361   5.474 -1.1034  2.5050 -0.8321
 7048SOL     OW22042   1.340   5.377   6.634 -0.1290 -0.4776 -0.2122
 7048SOL    HW122043   1.299   5.287   6.649 -3.3600  1.0673  1.2068
 7048SOL    HW222044   1.356   5.421   6.722  0.8701  0.6076 -0.9035
 7049SOL     OW22045   1.478   3.859   2.198 -0.1727 -0.2592  0.3559
 7049SOL    HW122046   1.465   3.958   2.190 -0.1402 -0.3301 -0.8076
 7049SOL    HW222047   1.575   3.837   2.188 -0.2816 -0.4668 -0.3500
 7050SOL     OW22048   4.259   0.753   3.145  0.2242 -0.1613 -0.0835
 7050SOL    HW122049   4.330   0.748   3.075  1.4647 -1.0008  1.1854
 7050SOL    HW222050   4.188   0.817   3.116  0.4071 -0.8895 -2.3413
 7051SOL     OW22051   3.191   4.832   2.922  0.0537 -0.4506 -0.0514
 7051SOL    HW122052   3.273   4.822   2.979 -0.0905  1.7683  0.6429
 7051SOL    HW222053   3.110   4.828   2.980 -0.0383  3.5857  0.3347
 7052SOL     OW22054   3.269   0.736   6.344 -0.5688  0.2364 -0.5029
 7052SOL    HW122055   3.230   0.652   6.306 -1.3001  1.8474 -3.6243
 7052SOL    HW222056   3.357   0.716   6.387 -0.5525 -2.0587 -1.4901
 7053SOL     OW22057   4.955   1.491   6.292 -0.1058 -0.2243  0.6202
 7053SOL    HW122058   4.987   1.534   6.207  0.0082  0.4992  1.0243
 7053SOL    HW222059   5.032   1.445   6.336  0.1477  0.5767  1.0288
 7054SOL     OW22060   2.157   3.323   0.326  0.4865  0.0554  0.2311
 7054SOL    HW122061   2.099   3.246   0.351  0.2787  0.0942 -0.1293
 7054SOL    HW222062   2.172   3.324   0.227 -0.9131  1.4444 -0.0054
 7055SOL     OW22063   0.094   3.645   1.071  0.2713 -0.1299 -0.2863
 7055SOL    HW122064   0.116   3.565   1.014 -0.0452 -1.5438  1.4811
 7055SOL    HW222065   0.002   3.636   1.108  0.1322  1.1987 -0.2560
 7056SOL     OW22066   5.332   2.824   3.018 -0.3346 -0.0930  0.2800
 7056SOL    HW122067   5.411   2.862   3.067 -0.7468 -0.9277  1.6656
 7056SOL    HW222068   5.251   2.878   3.040 -0.8795 -1.5324  2.0782
 7057SOL     OW22069   1.328   3.280   4.135 -0.0268  0.1758  0.3510
 7057SOL    HW122070   1.312   3.315   4.227 -0.8101  0.0461  0.2748
 7057SOL    HW222071   1.286   3.341   4.068 -1.0285 -0.6546  0.1943
 7058SOL     OW22072   5.705   1.194   2.168 -0.1378 -0.0474 -0.2716
 7058SOL    HW122073   5.686   1.193   2.070 -0.6872  1.0491 -0.1994
 7058SOL    HW222074   5.680   1.105   2.208  0.4259 -0.6204 -1.1715
 7059SOL     OW22075   0.100   6.993   3.282  0.1695 -0.3759  0.3421
 7059SOL    HW122076   0.050   6.970   3.366 -2.6014 -0.9258 -1.3080
 7059SOL    HW222077   0.116   7.092   3.278 -0.9516 -0.1571  0.9035
 7060SOL     OW22078   1.302   2.984   4.829  0.2337 -0.0637 -0.2129
 7060SOL    HW122079   1.382   3.041   4.850 -0.2394  0.2150  0.8853
 7060SOL    HW222080   1.291   2.915   4.900 -0.3956 -0.2144 -0.4508
 7061SOL     OW22081   0.375   0.558   6.948  0.0011 -0.7526  0.3478
 7061SOL    HW122082   0.428   0.497   6.889 -1.0227 -0.3488 -1.0532
 7061SOL    HW222083   0.286   0.575   6.906  0.1160  1.4181  0.8429
 7062SOL     OW22084   3.699   6.235   1.341 -0.0764 -0.1161 -0.2958
 7062SOL    HW122085   3.784   6.235   1.288 -0.6714 -0.3701 -1.2724
 7062SOL    HW222086   3.698   6.315   1.400  0.2258  0.6608 -1.3023
 7063SOL     OW22087   4.749   1.899   3.986  0.2004  0.1750 -0.5344
 7063SOL    HW122088   4.794   1.874   4.072 -0.4657 -1.9399 -0.7513
 7063SOL    HW222089   4.726   1.816   3.935 -0.1481  1.3599 -2.3972
 7064SOL     OW22090   2.799   5.720   1.656 -0.0846  0.1741 -0.1171
 7064SOL    HW122091   2.832   5.637   1.609  0.9674  0.9118 -0.7163
 7064SOL    HW222092   2.847   5.729   1.744  1.4696  1.3037 -1.0357
 7065SOL     OW22093   0.612   4.683   0.906  0.1829  0.2966 -0.1520
 7065SOL    HW122094   0.526   4.678   0.855 -0.2238  0.8006  0.4734
 7065SOL    HW222095   0.629   4.594   0.949 -0.1170  0.2383 -0.1455
 7066SOL     OW22096   1.505   3.030   3.643  0.2134  0.0911  0.1454
 7066SOL    HW122097   1.601   3.002   3.641  0.2916  0.3158 -2.6201
 7066SOL    HW222098   1.456   2.975   3.711  2.0159 -0.9387  0.6827
 7067SOL     OW22099   3.677   3.471   3.673  0.0927  0.1959  0.2270
 7067SOL    HW122100   3.688   3.372   3.682 -1.7740 -0.3598 -2.3443
 7067SOL    HW222101   3.733   3.503   3.596  0.4976  1.1351  0.8874
 7068SOL     OW22102   1.116   1.092   1.282 -0.0118 -0.8423 -0.2439
 7068SOL    HW122103   1.148   1.056   1.194 -1.3359 -1.1585 -0.6203
 7068SOL    HW222104   1.100   1.190   1.274  3.9896  0.1282  0.8926
 7069SOL     OW22105   2.271   4.801   3.973 -0.8737  0.0169 -0.2527
 7069SOL    HW122106   2.267   4.741   4.053  0.9526  0.7386  0.4528
 7069SOL    HW222107   2.277   4.746   3.890 -1.5546 -0.7502  0.1967
 7070SOL     OW22108   3.720   1.503   2.292  0.2602  1.0220 -0.3605
 7070SOL    HW122109   3.757   1.416   2.324  2.1648  0.4130 -3.8097
 7070SOL    HW222110   3.620   1.501   2.298  0.1829 -1.8570 -1.3482
 7071SOL     OW22111   2.150   3.058   5.128  0.2593  0.5040 -0.7753
 7071SOL    HW122112   2.116   2.989   5.064  0.5026  0.3208 -0.7070
 7071SOL    HW222113   2.250   3.055   5.130  0.2234 -0.2575  0.4634
 7072SOL     OW22114   3.521   6.775   1.575 -0.1844 -0.0476 -0.1813
 7072SOL    HW122115   3.564   6.786   1.486 -0.1499 -3.5387 -0.7360
 7072SOL    HW222116   3.533   6.681   1.607 -3.1799  0.1217  1.9107
 7073SOL     OW22117   0.277   2.119   1.015  0.1691 -0.5337  0.5388
 7073SOL    HW122118   0.207   2.103   0.945  1.5652 -1.0236 -0.8077
 7073SOL    HW222119   0.244   2.085   1.103 -1.0044 -1.4449 -0.2132
 7074SOL     OW22120   0.365   5.466   3.939  0.2142 -0.3768 -0.6720
 7074SOL    HW122121   0.361   5.502   3.846  0.5139  0.0265 -0.5332
 7074SOL    HW222122   0.400   5.536   4.001 -0.2042 -0.5666 -0.2115
 7075SOL     OW22123   3.270   3.887   1.731 -0.0911  0.1794 -0.5172
 7075SOL    HW122124   3.320   3.967   1.763  0.8000 -0.7023  0.3664
 7075SOL    HW222125   3.246   3.898   1.635 -0.3036  1.6495 -0.3115
 7076SOL     OW22126   0.682   4.442   4.271  0.5823 -0.5174 -0.0364
 7076SOL    HW122127   0.648   4.427   4.364 -0.3311 -3.0111 -0.6717
 7076SOL    HW222128   0.776   4.408   4.263  0.9791  0.4984  0.1579
 7077SOL     OW22129   0.958   4.385   3.333  0.0737 -0.2643  0.1231
 7077SOL    HW122130   0.885   4.357   3.272  0.5671 -0.0267 -0.5859
 7077SOL    HW222131   0.938   4.475   3.371 -1.4455 -1.4118  2.2904
 7078SOL     OW22132   5.203   3.406   4.319 -0.1857 -0.2017  0.0172
 7078SOL    HW122133   5.233   3.442   4.231  0.5488 -0.2582  0.2397
 7078SOL    HW222134   5.240   3.313   4.332 -3.8906 -2.1252 -1.5785
 7079SOL     OW22135   3.344   2.645   0.712 -0.1307 -0.9127  0.5594
 7079SOL    HW122136   3.398   2.594   0.779  0.1525 -1.7861 -0.3057
 7079SOL    HW222137   3.364   2.743   0.720 -1.3591 -0.7734  2.8827
 7080SOL     OW22138   2.090   6.844   5.203  0.8935  0.4589 -1.0434
 7080SOL    HW122139   1.995   6.872   5.220  0.3569 -2.2705  1.3964
 7080SOL    HW222140   2.143   6.922   5.172 -1.7898  2.4735 -0.9103
 7081SOL     OW22141   1.546   0.344   1.559  0.1207 -0.2570 -0.1012
 7081SOL    HW122142   1.618   0.279   1.533  0.5737  0.5846 -0.9836
 7081SOL    HW222143   1.478   0.349   1.487 -0.4001 -0.4163  0.3686
 7082SOL     OW22144   6.027   2.263   0.119  0.1711 -0.6049 -0.5039
 7082SOL    HW122145   6.015   2.319   0.201 -1.1812  0.1022 -1.1621
 7082SOL    HW222146   6.068   2.318   0.047 -0.5839 -0.6241 -0.9563
 7083SOL     OW22147   6.224   1.695   4.642  0.2464 -0.2626  0.2640
 7083SOL    HW122148   6.227   1.606   4.596 -1.0232  0.1544 -0.6963
 7083SOL    HW222149   6.281   1.692   4.724 -0.9183 -2.4363  1.0886
 7084SOL     OW22150   4.836   2.165   4.009  0.7132  0.7814 -0.0688
 7084SOL    HW122151   4.777   2.086   3.990 -1.1661  1.3634  2.8269
 7084SOL    HW222152   4.926   2.149   3.968  0.4369 -2.9055  0.3890
 7085SOL     OW22153   3.514   3.469   2.641 -0.2939  0.2765  0.1194
 7085SOL    HW122154   3.467   3.495   2.725  0.7277 -3.1114  1.9245
 7085SOL    HW222155   3.454   3.484   2.563 -2.6328  0.3357  1.8301
 7086SOL     OW22156   6.845   6.719   5.500 -0.4012  0.3279 -0.1003
 7086SOL    HW122157   6.834   6.669   5.586 -0.4686 -0.8519 -0.7784
 7086SOL    HW222158   6.757   6.723   5.453  0.1404 -1.2980 -1.3169
 7087SOL     OW22159   2.965   1.636   4.106  0.0220  0.0835  0.3629
 7087SOL    HW122160   2.888   1.655   4.045  0.6644  1.2052 -0.1430
 7087SOL    HW222161   3.047   1.680   4.069  0.3350  1.1977  2.2743
 7088SOL     OW22162   2.724   6.854   0.843  0.5705 -0.0125 -0.5430
 7088SOL    HW122163   2.789   6.852   0.919  1.4034 -0.9619 -1.2598
 7088SOL    HW222164   2.733   6.940   0.794  2.6681 -0.8755 -1.7775
 7089SOL     OW22165   2.372   0.305   5.348  0.4880 -0.1706  0.0518
 7089SOL    HW122166   2.289   0.280   5.298  0.1558 -1.8244  1.3190
 7089SOL    HW222167   2.437   0.348   5.285 -0.8885  0.1722 -1.2003
 7090SOL     OW22168   6.016   2.159   0.628 -0.0349  0.1195  0.0833
 7090SOL    HW122169   6.070   2.220   0.570  0.2261 -0.8381 -0.7037
 7090SOL    HW222170   5.926   2.200   0.645 -0.0882  0.4516 -0.9357
 7091SOL     OW22171   1.875   3.914   1.658  0.1027 -0.3106 -0.1074
 7091SOL    HW122172   1.780   3.889   1.676  0.0669 -0.1370 -0.0554
 7091SOL    HW222173   1.935   3.837   1.680  0.2466  0.4538  2.4656
 7092SOL     OW22174   0.428   5.113   6.361  0.3670 -0.3606  0.1290
 7092SOL    HW122175   0.480   5.129   6.445 -1.3214 -0.7681  1.3060
 7092SOL    HW222176   0.424   5.198   6.308 -0.6693  0.6537  1.7322
 7093SOL     OW22177   3.410   1.885   4.242  0.5026 -0.0736 -0.4464
 7093SOL    HW122178   3.361   1.895   4.329 -0.1824 -1.8417 -0.5822
 7093SOL    HW222179   3.420   1.974   4.199 -0.5370  0.6310  0.6937
 7094SOL     OW22180   1.051   5.152   3.882 -0.0393 -0.4327  0.0239
 7094SOL    HW122181   0.999   5.214   3.824  0.0090  0.0181  0.4539
 7094SOL    HW222182   1.011   5.060   3.877  0.5371 -0.6334 -1.4592
 7095SOL     OW22183   2.058   5.276   4.391 -0.0099  0.2376  0.3213
 7095SOL    HW122184   2.120   5.199   4.375 -1.3702 -0.7546 -0.3651
 7095SOL    HW222185   1.991   5.251   4.461 -0.2264  0.9440  0.3714
 7096SOL     OW22186   2.655   1.872   4.561 -0.0358  0.2155 -0.0811
 7096SOL    HW122187   2.746   1.897   4.595  0.0752  0.3647 -0.4781
 7096SOL    HW222188   2.630   1.781   4.595 -0.6532  1.0382  1.7957
 7097SOL     OW22189   1.460   5.440   0.461  0.0053 -0.1296 -0.1296
 7097SOL    HW122190   1.417   5.352   0.480  1.8756 -0.6497  2.1503
 7097SOL    HW222191   1.480   5.487   0.547  2.0242  1.0240 -1.1508
 7098SOL     OW22192   4.635   2.072   2.645  0.0779  0.2650 -0.0803
 7098SOL    HW122193   4.635   1.999   2.713 -0.7204 -2.0068 -2.3390
 7098SOL    HW222194   4.728   2.082   2.608 -0.3802 -2.3842 -2.3392
 7099SOL     OW22195   2.931   5.521   4.986  0.2810 -0.0038  0.6146
 7099SOL    HW122196   2.944   5.615   5.016 -1.3477  0.4080  0.1687
 7099SOL    HW222197   2.851   5.482   5.033  0.1943 -0.7334 -0.1104
 7100SOL     OW22198   0.503   4.746   2.189  0.2501 -0.2627  0.0660
 7100SOL    HW122199   0.447   4.674   2.148  0.8331  0.1475 -1.4878
 7100SOL    HW222200   0.453   4.833   2.186  0.8009  0.0304 -0.9945
 7101SOL     OW22201   6.543   0.277   0.357  0.2447  0.1144 -0.0850
 7101SOL    HW122202   6.585   0.190   0.333  0.6303  0.5298 -0.9803
 7101SOL    HW222203   6.607   0.332   0.411  0.3465  0.2022 -0.2932
 7102SOL     OW22204   3.589   4.972   5.563  0.3872  0.4465 -0.6755
 7102SOL    HW122205   3.546   4.915   5.493  0.0448  1.4645 -1.3023
 7102SOL    HW222206   3.670   5.016   5.525  0.9350  0.0172 -0.0463
 7103SOL     OW22207   2.341   6.328   4.089  0.1995 -0.1465 -0.0039
 7103SOL    HW122208   2.250   6.292   4.113 -0.4448  1.0049 -0.6310
 7103SOL    HW222209   2.359   6.311   3.992  0.5845 -0.2130  0.0772
 7104SOL     OW22210   1.438   1.075   2.461  0.0499  0.5730 -0.0974
 7104SOL    HW122211   1.507   1.006   2.439  1.6225  1.5777  1.4766
 7104SOL    HW222212   1.347   1.032   2.462  0.7001 -0.9290 -1.4780
 7105SOL     OW22213   4.039   0.631   3.202 -0.1071 -0.3618  0.3776
 7105SOL    HW122214   4.134   0.659   3.188  0.1050 -0.4952  1.4425
 7105SOL    HW222215   4.014   0.563   3.133  0.1408  0.6473 -0.7290
 7106SOL     OW22216   0.254   2.821   4.301  0.2153  0.8643  0.2924
 7106SOL    HW122217   0.318   2.768   4.245  0.7724  0.5311  1.2232
 7106SOL    HW222218   0.295   2.910   4.323  0.1814  0.8170  0.5437
 7107SOL     OW22219   2.779   1.376   0.570  0.1471 -0.3117  0.2873
 7107SOL    HW122220   2.841   1.297   0.570  0.4073 -0.1877  2.5991
 7107SOL    HW222221   2.734   1.383   0.482  1.3155 -2.0976 -0.5092
 7108SOL     OW22222   1.287   3.393   0.797 -0.1018 -0.7953  0.5445
 7108SOL    HW122223   1.351   3.460   0.833  0.6532 -1.3595  0.2636
 7108SOL    HW222224   1.207   3.440   0.760 -0.5676 -0.1505  2.2513
 7109SOL     OW22225   6.531   3.445   2.666 -0.4341  0.0028  0.5087
 7109SOL    HW122226   6.557   3.532   2.624  0.2734 -0.9769 -1.1893
 7109SOL    HW222227   6.610   3.385   2.671 -1.1159 -0.9040  0.7628
 7110SOL     OW22228   5.941   6.484   2.629 -0.6018 -0.0968 -0.5522
 7110SOL    HW122229   5.964   6.505   2.724 -1.2720 -0.1677 -0.3740
 7110SOL    HW222230   5.937   6.569   2.576 -1.8591  0.1169 -0.1512
 7111SOL     OW22231   0.104   6.987   2.522  0.7260  0.1323 -0.5035
 7111SOL    HW122232   0.202   7.007   2.517  0.4326  1.3144 -2.2498
 7111SOL    HW222233   0.052   7.072   2.516 -0.4311 -0.4225  1.0349
 7112SOL     OW22234   3.342   3.179   3.151 -0.0060  0.0312 -0.7934
 7112SOL    HW122235   3.259   3.175   3.096  0.0346  2.2458 -1.1101
 7112SOL    HW222236   3.332   3.249   3.222  1.2058 -0.4225 -0.1403
 7113SOL     OW22237   0.224   4.205   5.612 -0.0565  0.1113  0.2180
 7113SOL    HW122238   0.181   4.175   5.527 -0.8737 -1.3807  1.1178
 7113SOL    HW222239   0.301   4.144   5.634 -0.8754 -0.5619  1.3582
 7114SOL     OW22240   6.420   5.851   6.387  1.2990 -0.0742  0.0328
 7114SOL    HW122241   6.361   5.853   6.467  1.6427  0.4061  0.2738
 7114SOL    HW222242   6.392   5.776   6.327 -1.1176  1.5689 -1.0446
 7115SOL     OW22243   5.931   5.279   2.442 -0.2311 -0.0440 -0.6251
 7115SOL    HW122244   5.968   5.264   2.350  1.3166  1.9238 -0.3999
 7115SOL    HW222245   5.971   5.363   2.480 -0.2022 -1.2292  2.1734
 7116SOL     OW22246   4.798   4.080   2.993 -0.3506  0.2086 -0.1160
 7116SOL    HW122247   4.804   4.128   3.081  0.8937  0.7818 -0.4819
 7116SOL    HW222248   4.828   3.985   3.005  1.8454  0.8201 -0.2639
 7117SOL     OW22249   0.490   4.799   0.319 -0.3199 -0.3397  0.1480
 7117SOL    HW122250   0.526   4.881   0.275 -1.0471  0.6538  1.3295
 7117SOL    HW222251   0.449   4.740   0.250  0.1027  0.3476 -0.7150
 7118SOL     OW22252   2.194   1.763   4.947  0.1350 -0.5296  0.0525
 7118SOL    HW122253   2.256   1.824   4.997 -0.2902  0.2201 -0.3087
 7118SOL    HW222254   2.242   1.724   4.868 -0.7430  2.9815 -2.4973
 7119SOL     OW22255   0.972   2.385   6.304  0.0551  0.8150 -0.1500
 7119SOL    HW122256   1.035   2.458   6.277  0.2530  1.3570  1.6458
 7119SOL    HW222257   1.013   2.330   6.376 -0.9099  0.1927 -0.0539
 7120SOL     OW22258   2.428   0.706   3.747 -0.6104  0.2388  0.4132
 7120SOL    HW122259   2.477   0.792   3.734 -0.7749  0.3997  0.8669
 7120SOL    HW222260   2.330   0.720   3.733 -0.2966 -0.9299 -5.0471
 7121SOL     OW22261   1.295   6.819   2.374  0.0112  0.2352 -0.1646
 7121SOL    HW122262   1.256   6.727   2.383  1.5893 -0.4653 -0.1617
 7121SOL    HW222263   1.223   6.883   2.347 -1.3942 -0.7418  1.0801
 7122SOL     OW22264   1.642   0.942   5.611 -0.2914 -0.0235  0.0472
 7122SOL    HW122265   1.644   1.008   5.535  2.3329  0.5456  0.5028
 7122SOL    HW222266   1.711   0.872   5.595 -0.3807 -0.4510  1.4607
 7123SOL     OW22267   0.686   4.157   6.192 -0.0638 -0.3300  0.4169
 7123SOL    HW122268   0.636   4.204   6.264 -0.5109  3.0191 -1.8415
 7123SOL    HW222269   0.783   4.180   6.198 -0.2525  0.8785 -0.5618
 7124SOL     OW22270   4.985   0.954   2.987 -0.3494 -0.3294 -0.7202
 7124SOL    HW122271   5.074   0.919   3.018 -0.6680 -0.0383  0.5901
 7124SOL    HW222272   4.926   0.967   3.066 -1.3571  0.0694 -1.5251
 7125SOL     OW22273   3.392   6.283   5.101 -0.5461  0.4130  0.1470
 7125SOL    HW122274   3.393   6.241   5.011 -2.7294 -0.4632  0.4787
 7125SOL    HW222275   3.485   6.283   5.139 -0.0099 -1.5470 -1.0395
 7126SOL     OW22276   6.181   2.415   0.957  0.0009  0.7856  0.5685
 7126SOL    HW122277   6.277   2.387   0.960 -0.7595 -2.4652 -0.9267
 7126SOL    HW222278   6.165   2.471   0.876  0.2110 -0.9379 -0.7247
 7127SOL     OW22279   2.474   5.788   6.242 -0.0329 -0.1559 -0.5928
 7127SOL    HW122280   2.476   5.888   6.245 -0.1228 -0.1749  0.3066
 7127SOL    HW222281   2.508   5.752   6.329 -0.3535 -0.9076 -0.7781
 7128SOL     OW22282   5.336   0.581   3.557 -0.1799  0.4868 -0.8656
 7128SOL    HW122283   5.412   0.646   3.559 -0.8719  1.4526 -2.7740
 7128SOL    HW222284   5.353   0.512   3.486 -0.1425 -0.5613  0.1331
 7129SOL     OW22285   1.507   2.755   1.624 -0.1285  0.8358  0.0639
 7129SOL    HW122286   1.502   2.850   1.655 -0.9655  0.3566  1.5162
 7129SOL    HW222287   1.579   2.746   1.556  2.5043  1.8390  2.5124
 7130SOL     OW22288   2.041   1.091   1.106 -0.1053  0.4615 -0.0508
 7130SOL    HW122289   2.099   1.131   1.035  0.6609  0.5024  0.5883
 7130SOL    HW222290   2.081   1.005   1.137  0.0038  0.8380  0.8941
 7131SOL     OW22291   6.477   3.898   6.676 -0.0555  0.4672  0.4123
 7131SOL    HW122292   6.487   3.972   6.609  2.1055  0.8909  1.1271
 7131SOL    HW222293   6.552   3.832   6.664 -2.6300 -2.4786 -1.1135
 7132SOL     OW22294   5.092   6.179   6.010  0.1243 -0.5674  0.0978
 7132SOL    HW122295   5.090   6.083   5.983 -1.4452 -0.6764  0.4629
 7132SOL    HW222296   5.172   6.224   5.971  0.5265 -1.8676 -0.6185
 7133SOL     OW22297   4.118   5.542   4.054 -0.0891  0.1497  0.0702
 7133SOL    HW122298   4.116   5.626   4.108  0.4444  1.8843 -2.4097
 7133SOL    HW222299   4.055   5.552   3.976  0.3934 -1.5551 -0.5761
 7134SOL     OW22300   2.046   4.447   0.908  0.3364  0.4553 -0.0226
 7134SOL    HW122301   1.985   4.371   0.890 -0.8316  1.1466  0.8774
 7134SOL    HW222302   2.103   4.426   0.988 -0.1190  0.5926  0.3423
 7135SOL     OW22303   0.805   0.112   3.262  0.7129 -0.0862  0.5367
 7135SOL    HW122304   0.748   0.148   3.335 -0.0336 -0.6126  0.2268
 7135SOL    HW222305   0.879   0.057   3.301  0.6809  0.1346  0.9141
 7136SOL     OW22306   0.155   5.456   0.683  0.4021 -0.1806 -0.2025
 7136SOL    HW122307   0.228   5.390   0.666  2.0236  1.7411 -1.0948
 7136SOL    HW222308   0.191   5.549   0.677 -1.7585  0.8416  1.1706
 7137SOL     OW22309   1.126   4.069   0.431  0.0796 -0.8669 -0.2600
 7137SOL    HW122310   1.035   4.091   0.466  0.5439 -1.7966  1.6497
 7137SOL    HW222311   1.178   4.154   0.416 -0.8287 -0.3691 -0.6411
 7138SOL     OW22312   6.578   6.100   3.861  0.4684 -0.1881  0.3103
 7138SOL    HW122313   6.498   6.157   3.846 -0.2893 -0.4949  2.7572
 7138SOL    HW222314   6.592   6.040   3.781 -1.2495  0.4164 -0.4877
 7139SOL     OW22315   4.289   5.281   1.093  0.4735  0.4638 -0.2352
 7139SOL    HW122316   4.240   5.292   1.006 -1.9756 -0.9021  0.8640
 7139SOL    HW222317   4.346   5.199   1.089 -0.9340 -0.5478 -0.0377
 7140SOL     OW22318   3.122   3.181   6.621 -0.1571 -0.1494  0.1317
 7140SOL    HW122319   3.221   3.192   6.628 -0.1862 -0.1188  0.4799
 7140SOL    HW222320   3.099   3.152   6.528  0.2380 -0.8103  0.2314
 7141SOL     OW22321   6.108   1.968   1.276 -0.0151 -0.2181 -0.4969
 7141SOL    HW122322   6.122   1.885   1.221  1.3783  0.9970 -2.0652
 7141SOL    HW222323   6.196   2.010   1.295 -0.6907  0.7942  0.5028
 7142SOL     OW22324   0.544   2.744   6.057 -0.2701  0.4785  0.0010
 7142SOL    HW122325   0.515   2.648   6.054  0.7217  0.0236  2.3692
 7142SOL    HW222326   0.593   2.761   6.143 -0.3651  3.1055 -0.3838
 7143SOL     OW22327   4.595   0.310   6.635  0.2416  0.4145  0.3049
 7143SOL    HW122328   4.662   0.367   6.682  1.2842 -0.4255 -0.1216
 7143SOL    HW222329   4.544   0.256   6.702  1.5665 -0.6146  0.5193
 7144SOL     OW22330   6.277   0.153   1.880 -0.0576 -0.5188 -0.1954
 7144SOL    HW122331   6.244   0.106   1.962 -0.7280 -1.4105 -0.9490
 7144SOL    HW222332   6.232   0.114   1.799 -1.8730  2.4613 -0.7687
 7145SOL     OW22333   5.575   6.020   0.618  0.3360 -0.4087 -0.2959
 7145SOL    HW122334   5.538   6.106   0.652  0.2719  0.5307 -2.5374
 7145SOL    HW222335   5.504   5.950   0.620  0.0246 -0.0736  0.4227
 7146SOL     OW22336   1.907   6.394   1.517  0.0577 -0.3198 -0.5812
 7146SOL    HW122337   2.004   6.415   1.508  0.1388 -0.2427  0.3222
 7146SOL    HW222338   1.854   6.457   1.461  0.4850  0.1624 -0.4543
 7147SOL     OW22339   6.604   5.793   1.940  0.4273 -0.2494 -0.5515
 7147SOL    HW122340   6.630   5.863   1.873 -0.8042 -0.6888 -1.5232
 7147SOL    HW222341   6.566   5.714   1.893  0.3739 -0.9488  0.6289
 7148SOL     OW22342   3.693   0.739   4.479  0.4553  0.1074 -0.5685
 7148SOL    HW122343   3.706   0.733   4.578  2.6696  1.0264 -0.7263
 7148SOL    HW222344   3.617   0.801   4.459 -1.2554 -1.5477  0.5304
 7149SOL     OW22345   5.778   2.068   4.223 -0.1220 -0.4287  0.1429
 7149SOL    HW122346   5.687   2.036   4.250 -0.5767  1.3593  0.9098
 7149SOL    HW222347   5.846   1.998   4.244 -1.2301 -1.5231  0.2029
 7150SOL     OW22348   3.535   1.184   1.544 -0.3298  0.1778 -0.2232
 7150SOL    HW122349   3.599   1.191   1.621 -0.7977  0.8405  0.1190
 7150SOL    HW222350   3.444   1.215   1.573 -0.1543  2.0792 -1.4658
 7151SOL     OW22351   6.335   4.020   6.892 -0.4213  0.7140  0.8269
 7151SOL    HW122352   6.287   3.950   6.945 -0.2325  0.4001  0.5854
 7151SOL    HW222353   6.403   3.977   6.833 -0.2161  1.1120  0.7670
 7152SOL     OW22354   4.695   6.516   2.230  0.4917 -0.5533  0.3613
 7152SOL    HW122355   4.710   6.506   2.328 -0.4794 -0.0981  0.5695
 7152SOL    HW222356   4.652   6.434   2.194  5.3387 -2.9875 -0.7266
 7153SOL     OW22357   0.322   5.579   3.681  0.6628  0.4373  0.3187
 7153SOL    HW122358   0.225   5.598   3.699  0.4574  0.0714 -0.3409
 7153SOL    HW222359   0.343   5.604   3.586  1.1106  0.1210  0.3328
 7154SOL     OW22360   6.966   2.997   5.025  0.2403 -0.1775 -0.2220
 7154SOL    HW122361   6.874   3.035   5.015  0.3017  0.2715  0.7847
 7154SOL    HW222362   6.972   2.910   4.977 -1.0536 -0.7476  0.6112
 7155SOL     OW22363   3.569   5.597   2.417  0.0776 -0.0056 -0.5154
 7155SOL    HW122364   3.630   5.653   2.473  1.1575 -0.8702 -0.8014
 7155SOL    HW222365   3.589   5.501   2.431 -1.9640 -0.3664  0.1900
 7156SOL     OW22366   4.113   1.057   6.541 -0.5222 -0.2531  0.1590
 7156SOL    HW122367   4.108   1.121   6.617 -0.8178  0.3402 -0.3483
 7156SOL    HW222368   4.208   1.039   6.517 -0.3994 -1.1711  1.2608
 7157SOL     OW22369   2.604   0.059   0.328  0.6850 -0.0164  0.2344
 7157SOL    HW122370   2.686   0.057   0.385  0.2647 -0.6811  0.8370
 7157SOL    HW222371   2.528   0.016   0.378  0.1221  0.0570 -0.5431
 7158SOL     OW22372   4.113   0.768   4.567 -0.2549 -0.9433 -0.1291
 7158SOL    HW122373   4.069   0.683   4.537 -1.5137 -0.4041  0.1335
 7158SOL    HW222374   4.044   0.840   4.574  0.4410 -0.4093  1.5910
 7159SOL     OW22375   4.808   4.578   1.464 -0.1690 -0.0322  0.2078
 7159SOL    HW122376   4.829   4.655   1.403 -0.3173 -0.3687 -0.2766
 7159SOL    HW222377   4.780   4.499   1.409  2.0997 -1.1401  0.4987
 7160SOL     OW22378   4.791   6.575   0.060  0.3487 -0.2548  0.0323
 7160SOL    HW122379   4.813   6.673   0.059 -0.4472 -0.0163  1.7932
 7160SOL    HW222380   4.713   6.559   0.120 -0.5766 -1.7998 -1.5089
 7161SOL     OW22381   2.909   2.952   0.493  0.4910  0.1162 -0.0578
 7161SOL    HW122382   2.844   3.027   0.504  0.9284  0.3183  1.4038
 7161SOL    HW222383   2.913   2.899   0.578  0.3359 -1.4543 -0.9954
 7162SOL     OW22384   5.091   4.845   2.484  0.5211 -0.3027  0.3111
 7162SOL    HW122385   5.104   4.944   2.492  1.7428 -0.5131  1.4437
 7162SOL    HW222386   5.097   4.818   2.388 -0.7169  0.8120 -0.1012
 7163SOL     OW22387   0.997   1.920   0.337  0.2277 -0.1836  0.2316
 7163SOL    HW122388   1.073   1.883   0.284  0.8602  1.8696 -0.4013
 7163SOL    HW222389   0.923   1.947   0.276  0.0477  0.1512  0.5923
 7164SOL     OW22390   0.257   5.236   0.614 -0.6602  0.5957  0.3052
 7164SOL    HW122391   0.246   5.170   0.689 -1.2500  2.8694  2.3677
 7164SOL    HW222392   0.262   5.187   0.527  0.3708 -2.2223  1.7962
 7165SOL     OW22393   3.688   6.169   1.699 -0.2272  0.8855 -0.3527
 7165SOL    HW122394   3.732   6.079   1.693  0.5802  1.3677 -3.1863
 7165SOL    HW222395   3.735   6.224   1.768 -0.3908 -0.6418  1.0434
 7166SOL     OW22396   5.880   6.975   3.696  0.3543  0.6355  0.1497
 7166SOL    HW122397   5.829   6.922   3.763  0.1368  1.7351  0.8890
 7166SOL    HW222398   5.843   6.958   3.604 -0.2898  0.2080  0.4814
 7167SOL     OW22399   5.813   2.322   6.069  0.1659  0.1663  0.6466
 7167SOL    HW122400   5.881   2.355   6.135 -0.2996  2.3545  0.1045
 7167SOL    HW222401   5.798   2.391   5.998 -3.2086  0.1428  1.1698
 7168SOL     OW22402   2.167   5.096   5.518 -0.2222 -0.0492 -0.2600
 7168SOL    HW122403   2.099   5.022   5.519 -0.2462 -0.0398 -0.7105
 7168SOL    HW222404   2.127   5.178   5.558  0.2123 -0.6083  1.4106
 7169SOL     OW22405   4.922   5.043   1.353 -0.9053  0.6569  0.5514
 7169SOL    HW122406   4.995   5.041   1.421 -0.7142  2.0931  0.4156
 7169SOL    HW222407   4.898   4.950   1.327  2.6888  0.1009 -1.3597
 7170SOL     OW22408   3.051   2.242   6.598  0.2501 -0.0755  0.0898
 7170SOL    HW122409   2.962   2.277   6.628  0.7084 -0.3428  1.8622
 7170SOL    HW222410   3.077   2.286   6.512 -2.7092 -1.7927 -1.8937
 7171SOL     OW22411   1.051   6.240   6.125  0.5091  0.2917 -0.1549
 7171SOL    HW122412   1.141   6.216   6.163  0.5392 -0.5205 -0.7289
 7171SOL    HW222413   0.983   6.174   6.156  0.3348  0.2334 -0.6532
 7172SOL     OW22414   2.063   1.662   5.233  0.0797  0.3440 -0.3486
 7172SOL    HW122415   1.994   1.597   5.201  1.8572 -0.7369 -2.2347
 7172SOL    HW222416   2.079   1.730   5.162  0.6716  0.8279  0.2368
 7173SOL     OW22417   0.101   2.887   6.726  0.3750  0.0143  0.2779
 7173SOL    HW122418   0.036   2.950   6.770  1.6231  0.6889  1.2301
 7173SOL    HW222419   0.126   2.921   6.636  0.6562  0.6420  0.5859
 7174SOL     OW22420   3.641   6.728   4.339 -0.3250 -0.5221  0.0809
 7174SOL    HW122421   3.645   6.647   4.281 -0.4978  1.4068 -2.8245
 7174SOL    HW222422   3.551   6.733   4.383 -0.2893 -1.8854  0.3494
 7175SOL     OW22423   1.609   3.641   6.300 -0.1748 -0.0132  0.2028
 7175SOL    HW122424   1.594   3.702   6.378 -0.1335 -0.4411  0.5493
 7175SOL    HW222425   1.692   3.587   6.316 -0.7348 -0.8445  0.3419
 7176SOL     OW22426   1.816   1.549   0.442  0.1368 -0.1980  0.0404
 7176SOL    HW122427   1.797   1.510   0.532  0.8154  1.3849  0.9004
 7176SOL    HW222428   1.830   1.647   0.450  1.0424 -0.1436 -1.6907
 7177SOL     OW22429   7.007   4.690   4.232  0.1892  0.1380  0.0607
 7177SOL    HW122430   7.085   4.680   4.170  0.5582  1.0613  0.3487
 7177SOL    HW222431   6.923   4.665   4.185  0.7459 -1.8128  0.0378
 7178SOL     OW22432   2.688   2.582   5.601  0.3450  0.5899  0.0938
 7178SOL    HW122433   2.727   2.502   5.646 -1.3424  0.5756  1.6275
 7178SOL    HW222434   2.742   2.603   5.519 -0.3237 -3.3608 -1.5915
 7179SOL     OW22435   6.065   2.869   2.036 -0.6127 -0.3687  0.1663
 7179SOL    HW122436   6.009   2.935   1.985 -0.0757  0.8229  1.0707
 7179SOL    HW222437   6.049   2.881   2.134  1.9450  0.7186  0.5283
 7180SOL     OW22438   1.458   4.397   2.332  0.3759  0.1334 -0.3524
 7180SOL    HW122439   1.437   4.336   2.408 -0.1012 -0.3874 -0.8939
 7180SOL    HW222440   1.405   4.371   2.252  0.3130  1.1405 -0.6558
 7181SOL     OW22441   3.445   5.689   2.634 -0.3672  0.5355  0.2596
 7181SOL    HW122442   3.435   5.645   2.545 -0.1049  1.7813 -0.4048
 7181SOL    HW222443   3.461   5.787   2.622 -0.2033  0.7116  1.6773
 7182SOL     OW22444   5.664   4.480   0.781  0.3246  0.4105 -0.6005
 7182SOL    HW122445   5.578   4.506   0.826  0.9025  0.4881  0.5136
 7182SOL    HW222446   5.668   4.381   0.773  0.0064  0.4216 -0.9170
 7183SOL     OW22447   3.670   1.923   0.682  0.0535 -0.1572  0.6086
 7183SOL    HW122448   3.714   2.013   0.681 -0.5242  0.1728  1.8762
 7183SOL    HW222449   3.579   1.932   0.723 -0.3137 -1.2003  0.0469
 7184SOL     OW22450   1.326   3.965   3.551 -0.1935 -0.1621 -0.0756
 7184SOL    HW122451   1.255   4.003   3.610 -1.2906 -2.4353  0.1950
 7184SOL    HW222452   1.411   4.017   3.562 -1.3189  1.5659  0.8840
 7185SOL     OW22453   6.055   3.224   6.793 -0.1713  0.2990 -0.0283
 7185SOL    HW122454   6.056   3.258   6.887  1.7112  0.6916 -0.1579
 7185SOL    HW222455   6.119   3.147   6.785  0.8280  1.2220 -1.2948
 7186SOL     OW22456   1.250   4.567   5.504 -0.7055 -0.3663 -0.6857
 7186SOL    HW122457   1.232   4.548   5.600 -1.3567 -0.8889 -0.9008
 7186SOL    HW222458   1.333   4.518   5.475  0.0222  0.5345 -0.1658
 7187SOL     OW22459   2.623   4.136   1.379  0.2830 -0.4424  0.3569
 7187SOL    HW122460   2.710   4.090   1.363  0.7646 -0.0365  1.6645
 7187SOL    HW222461   2.633   4.234   1.361  0.6457 -0.0924  2.2796
 7188SOL     OW22462   1.175   3.514   2.021 -0.3024 -0.4150  0.1736
 7188SOL    HW122463   1.255   3.531   2.079  1.2914 -3.5031 -0.9104
 7188SOL    HW222464   1.095   3.498   2.079  0.4033  0.2470  1.3698
 7189SOL     OW22465   0.422   0.565   6.238 -0.1489  0.3145  0.1948
 7189SOL    HW122466   0.360   0.529   6.308 -3.1042  1.7351 -1.5578
 7189SOL    HW222467   0.424   0.503   6.160  0.0882  0.6559 -0.0717
 7190SOL     OW22468   1.137   3.890   4.599  0.7524 -1.3099 -0.0471
 7190SOL    HW122469   1.172   3.905   4.691 -3.4608  1.5208  1.3587
 7190SOL    HW222470   1.101   3.797   4.592  0.9342 -1.4839  1.2026
 7191SOL     OW22471   1.228   5.937   4.988  0.7734  0.0366  0.3910
 7191SOL    HW122472   1.223   5.961   5.085 -2.3857 -1.5700  0.7612
 7191SOL    HW222473   1.317   5.895   4.969  1.2165 -0.2342  2.7555
 7192SOL     OW22474   5.897   4.179   4.729 -0.0328 -0.6494 -0.0118
 7192SOL    HW122475   5.817   4.229   4.698 -0.1920 -1.4326 -0.9460
 7192SOL    HW222476   5.964   4.242   4.769 -0.4653  0.2150 -0.6297
 7193SOL     OW22477   3.829   6.767   2.259  0.0645  0.2600  0.1701
 7193SOL    HW122478   3.846   6.673   2.291  1.3374  0.5495  0.3627
 7193SOL    HW222479   3.819   6.766   2.160  0.5493 -0.0181  0.1186
 7194SOL     OW22480   0.675   5.584   4.411 -0.1712 -0.5781  0.0211
 7194SOL    HW122481   0.712   5.505   4.460 -0.5816 -0.8859 -0.1581
 7194SOL    HW222482   0.630   5.646   4.476  0.8683 -0.0693  0.2778
 7195SOL     OW22483   3.665   4.502   1.371  0.0097  0.2551 -0.2336
 7195SOL    HW122484   3.579   4.550   1.356 -1.5321 -1.4936  2.3166
 7195SOL    HW222485   3.710   4.539   1.453  0.2752 -0.6675  0.0501
 7196SOL     OW22486   6.538   1.096   1.340 -0.7934  0.1480 -0.5595
 7196SOL    HW122487   6.620   1.101   1.282  0.7063 -0.5641  1.4015
 7196SOL    HW222488   6.540   1.171   1.406 -1.4457 -0.2120 -0.1270
 7197SOL     OW22489   0.139   1.240   1.765 -0.5167  0.1509 -0.5424
 7197SOL    HW122490   0.058   1.248   1.706  0.3000  0.1491 -1.7050
 7197SOL    HW222491   0.124   1.168   1.833 -1.0402 -0.6894 -1.5194
 7198SOL     OW22492   0.481   3.082   5.336  0.0297 -0.1310 -0.2144
 7198SOL    HW122493   0.460   3.091   5.433  2.3619  0.2766  0.2947
 7198SOL    HW222494   0.434   3.002   5.299 -0.7781 -0.3716  1.2623
 7199SOL     OW22495   5.645   6.545   3.370  0.2483  0.1303  0.4006
 7199SOL    HW122496   5.720   6.601   3.334 -0.2953  1.1844  0.8377
 7199SOL    HW222497   5.654   6.452   3.337  1.1704  0.4779 -0.3922
 7200SOL     OW22498   6.108   2.048   3.531 -0.1089  0.2276  0.0532
 7200SOL    HW122499   6.135   2.068   3.436 -0.9194  0.9499 -0.0424
 7200SOL    HW222500   6.169   1.979   3.569  1.0999  0.9356 -0.5370
 7201SOL     OW22501   4.493   5.767   2.214 -0.2679 -0.3629  0.5302
 7201SOL    HW122502   4.447   5.854   2.199  0.9945  0.4295  1.0597
 7201SOL    HW222503   4.501   5.750   2.312  1.7884  0.2581  0.5272
 7202SOL     OW22504   4.634   2.634   2.798 -0.2868 -0.1343  0.1120
 7202SOL    HW122505   4.604   2.603   2.708 -0.7621 -1.6420  0.7746
 7202SOL    HW222506   4.567   2.698   2.835 -1.0389 -0.9475  0.1765
 7203SOL     OW22507   3.392   2.931   3.050 -0.7174  0.4773 -0.3482
 7203SOL    HW122508   3.418   3.025   3.070 -1.8751  0.4547  1.4261
 7203SOL    HW222509   3.352   2.889   3.131  0.1813 -1.7182 -0.9630
 7204SOL     OW22510   2.250   2.859   6.686  0.0073 -0.2119  0.3403
 7204SOL    HW122511   2.283   2.785   6.628  1.3996 -0.0128  0.8348
 7204SOL    HW222512   2.327   2.898   6.737 -0.7719  1.3017  0.4001
 7205SOL     OW22513   0.196   4.117   3.416 -0.2935 -0.3874 -0.3145
 7205SOL    HW122514   0.203   4.074   3.326  0.8852 -0.7775 -0.0621
 7205SOL    HW222515   0.267   4.187   3.425 -0.2662 -0.5011  0.3836
 7206SOL     OW22516   4.692   3.195   1.243 -0.3664 -0.1141 -0.4333
 7206SOL    HW122517   4.620   3.149   1.295  0.5303 -0.1213  0.8420
 7206SOL    HW222518   4.660   3.212   1.150 -2.1469  0.2051  0.1930
 7207SOL     OW22519   1.094   2.562   3.132  0.3949  0.2963  0.1950
 7207SOL    HW122520   1.182   2.589   3.092  0.5856 -1.3257 -0.5333
 7207SOL    HW222521   1.109   2.524   3.223  0.5325 -0.6019 -0.1988
 7208SOL     OW22522   0.572   5.371   1.054  0.4544 -0.4709  0.0479
 7208SOL    HW122523   0.494   5.311   1.071  1.1587 -1.2212  0.7294
 7208SOL    HW222524   0.566   5.451   1.113  1.0445 -1.3455  1.3478
 7209SOL     OW22525   4.678   4.361   1.355 -0.1883 -0.2373 -0.2329
 7209SOL    HW122526   4.580   4.353   1.338  0.0579 -1.2232 -1.3045
 7209SOL    HW222527   4.723   4.275   1.329  0.7020 -0.5685  2.1625
 7210SOL     OW22528   0.166   5.256   2.714 -0.5350  0.2624  0.8932
 7210SOL    HW122529   0.220   5.326   2.762 -0.9557  0.1848  1.4906
 7210SOL    HW222530   0.085   5.234   2.768 -0.9495  0.0704  0.2032
 7211SOL     OW22531   3.090   3.157   3.035  0.0987  0.2607  0.0995
 7211SOL    HW122532   3.030   3.236   3.040 -0.8620 -0.4433 -0.0453
 7211SOL    HW222533   3.077   3.110   2.948  2.2538  1.1614 -0.7652
 7212SOL     OW22534   1.609   1.640   4.094 -1.0532  0.0545  0.3273
 7212SOL    HW122535   1.608   1.564   4.030  0.3946  0.9232 -0.7837
 7212SOL    HW222536   1.520   1.687   4.091 -1.0426  0.0349 -1.0213
 7213SOL     OW22537   6.406   0.026   1.604  0.1943 -0.0932  0.0518
 7213SOL    HW122538   6.342  -0.042   1.639 -0.6360  1.2443  1.2696
 7213SOL    HW222539   6.360   0.084   1.537  1.0400 -1.0167 -1.3634
 7214SOL     OW22540   6.793   6.238   1.768  0.2578 -0.0319  0.1795
 7214SOL    HW122541   6.885   6.214   1.800  0.0439  1.3788  2.0325
 7214SOL    HW222542   6.775   6.334   1.787 -2.2448 -0.6814  1.5671
 7215SOL     OW22543   2.217   4.407   1.231  0.0751 -0.1186  0.2585
 7215SOL    HW122544   2.314   4.391   1.217  0.1586  0.3311  0.3198
 7215SOL    HW222545   2.193   4.498   1.199 -0.5795 -0.6922 -0.9492
 7216SOL     OW22546   2.274   5.495   3.609  0.3830 -0.6702  0.3206
 7216SOL    HW122547   2.285   5.566   3.678  0.4627  1.6692 -1.9508
 7216SOL    HW222548   2.358   5.485   3.556 -0.3138 -0.8811 -0.7953
 7217SOL     OW22549   6.025   0.098   6.333 -0.1947 -0.5984  0.1637
 7217SOL    HW122550   5.973   0.063   6.411  0.9023 -1.7985  0.3856
 7217SOL    HW222551   6.056   0.022   6.276 -0.7309  0.2386 -1.3161
 7218SOL     OW22552   3.609   3.214   3.961  0.0991 -0.4215  0.4889
 7218SOL    HW122553   3.530   3.209   4.021  1.1886 -0.5666  1.9777
 7218SOL    HW222554   3.580   3.235   3.867 -1.6466 -0.2449  1.0500
 7219SOL     OW22555   6.666   4.730   1.952 -0.3133  0.7346 -0.6923
 7219SOL    HW122556   6.640   4.760   2.044 -0.5452 -1.2349 -0.0680
 7219SOL    HW222557   6.766   4.734   1.943 -0.1851 -0.2891  0.1266
 7220SOL     OW22558   5.365   1.832   2.246  0.7311 -0.7548 -0.2347
 7220SOL    HW122559   5.360   1.826   2.346 -0.3543 -0.6423 -0.2780
 7220SOL    HW222560   5.368   1.739   2.208  0.3987 -0.8046 -0.1378
 7221SOL     OW22561   5.299   1.147   1.478  0.2068 -0.4059 -0.0385
 7221SOL    HW122562   5.293   1.147   1.578 -0.0373  0.1808 -0.0511
 7221SOL    HW222563   5.339   1.233   1.447  0.3306 -0.6104 -0.4430
 7222SOL     OW22564   0.525   5.093   1.886 -0.0361  0.6297  0.4789
 7222SOL    HW122565   0.525   5.072   1.984  1.3900  2.1789  0.8520
 7222SOL    HW222566   0.593   5.035   1.841 -1.4681 -0.8780  0.1754
 7223SOL     OW22567   6.083   5.256   3.368  0.1300 -0.2405 -0.2066
 7223SOL    HW122568   6.140   5.176   3.380 -0.6626 -0.5061  2.3842
 7223SOL    HW222569   6.064   5.270   3.270  0.2699 -3.1890 -0.7261
 7224SOL     OW22570   1.232   4.044   2.343 -0.0695 -0.0672  0.6638
 7224SOL    HW122571   1.132   4.043   2.331 -0.3402 -0.2344  2.6337
 7224SOL    HW222572   1.276   4.034   2.254 -1.8175 -2.3179 -0.0264
 7225SOL     OW22573   3.405   3.793   2.483  0.1607 -0.5492 -0.2736
 7225SOL    HW122574   3.380   3.839   2.568 -1.3092 -0.9516 -0.4571
 7225SOL    HW222575   3.391   3.695   2.494 -0.1985 -0.5853 -1.0238
 7226SOL     OW22576   5.581   6.830   6.112  0.4156  0.2232  0.0897
 7226SOL    HW122577   5.628   6.792   6.191 -2.3504 -1.6889  0.9999
 7226SOL    HW222578   5.530   6.911   6.139  1.3472  0.9779 -0.3562
 7227SOL     OW22579   6.356   0.353   2.333 -0.3576  0.0575 -0.1855
 7227SOL    HW122580   6.282   0.338   2.267 -0.4137 -0.1961 -0.0677
 7227SOL    HW222581   6.329   0.423   2.399  0.0826  1.0335 -1.0112
 7228SOL     OW22582   1.420   4.161   3.259  0.3614  0.1819  0.2307
 7228SOL    HW122583   1.374   4.188   3.343  0.8662  1.2257  0.1785
 7228SOL    HW222584   1.398   4.225   3.186  0.9526  0.0163 -0.1007
 7229SOL     OW22585   5.756   6.776   1.015 -0.2196  0.0063  0.2728
 7229SOL    HW122586   5.787   6.724   0.935 -0.8105 -0.4314  0.3257
 7229SOL    HW222587   5.656   6.776   1.019 -0.2617  1.7835 -0.1356
 7230SOL     OW22588   3.887   5.005   5.757  0.1206 -0.1801 -0.3391
 7230SOL    HW122589   3.806   5.022   5.701 -1.3089 -1.4775  1.2057
 7230SOL    HW222590   3.956   4.956   5.704  0.5295  2.1770 -2.0991
 7231SOL     OW22591   4.848   6.624   3.255  0.1364  0.8018  0.2828
 7231SOL    HW122592   4.879   6.529   3.249 -1.2660  0.2656  1.1905
 7231SOL    HW222593   4.910   6.677   3.312  0.8814  0.4275 -0.1694
 7232SOL     OW22594   6.919   3.618   2.300 -0.1905  0.0741 -0.0457
 7232SOL    HW122595   6.895   3.713   2.280 -1.5005  0.8462  4.1623
 7232SOL    HW222596   7.007   3.614   2.348 -0.5643 -0.6781  0.6124
 7233SOL     OW22597   1.020   5.034   0.938 -0.1110 -0.0983 -0.4547
 7233SOL    HW122598   0.940   4.988   0.977 -2.7934  2.9126 -1.8653
 7233SOL    HW222599   1.056   4.980   0.862 -3.6124  0.2183 -2.5894
 7234SOL     OW22600   3.740   6.228   4.907 -0.8204 -0.1607 -0.4410
 7234SOL    HW122601   3.668   6.180   4.857 -0.0084 -0.7525 -1.0687
 7234SOL    HW222602   3.828   6.184   4.889 -0.3343  0.3784  0.5377
 7235SOL     OW22603   1.127   6.721   1.540  0.4187 -0.3490 -0.4499
 7235SOL    HW122604   1.207   6.734   1.599 -0.8252 -0.1420  1.2616
 7235SOL    HW222605   1.045   6.712   1.596 -0.9137  0.3869 -2.1907
 7236SOL     OW22606   4.064   4.983   5.445  0.0802  0.0002  0.0291
 7236SOL    HW122607   4.049   4.884   5.449  1.1786 -0.1528  1.3339
 7236SOL    HW222608   4.132   5.004   5.375  0.2855 -0.2435  0.1532
 7237SOL     OW22609   5.918   1.365   3.307 -0.5625  0.0528 -0.4437
 7237SOL    HW122610   5.829   1.410   3.296  0.4135  1.8671 -1.3091
 7237SOL    HW222611   5.928   1.336   3.402 -1.8822  0.2285 -0.2264
 7238SOL     OW22612   1.527   3.313   3.653  0.0587 -0.1051 -0.2968
 7238SOL    HW122613   1.509   3.215   3.645 -0.4868 -0.3774  2.9034
 7238SOL    HW222614   1.488   3.360   3.574 -1.6961 -2.2522 -0.8313
 7239SOL     OW22615   0.134   3.130   3.449 -0.6623 -0.2221  0.6459
 7239SOL    HW122616   0.164   3.093   3.537 -1.5201  0.5809  1.2982
 7239SOL    HW222617   0.177   3.079   3.375  3.6005  1.7827  1.4452
 7240SOL     OW22618   6.251   6.467   2.493 -0.1247 -0.4416  1.0379
 7240SOL    HW122619   6.271   6.372   2.514 -1.4832 -0.8849  0.4706
 7240SOL    HW222620   6.194   6.506   2.566 -1.4090 -0.7576  0.2535
 7241SOL     OW22621   5.286   3.760   3.092 -0.2597 -0.5262  0.5509
 7241SOL    HW122622   5.346   3.763   3.012 -1.1573 -0.8215 -0.1534
 7241SOL    HW222623   5.217   3.832   3.085 -1.2865 -1.5112  0.2808
 7242SOL     OW22624   1.022   1.586   0.136  0.1930  0.0208 -0.1787
 7242SOL    HW122625   1.082   1.655   0.176  2.6846 -1.3188 -1.3950
 7242SOL    HW222626   0.966   1.628   0.065  0.1722  1.1665  0.4859
 7243SOL     OW22627   1.075   2.182   4.268 -0.8014 -0.5619 -0.0500
 7243SOL    HW122628   1.023   2.246   4.325 -1.9818 -1.3023 -0.2625
 7243SOL    HW222629   1.113   2.110   4.325  2.4930  1.4507  0.5699
 7244SOL     OW22630   1.793   5.918   5.192 -0.0108 -0.1506 -0.3829
 7244SOL    HW122631   1.711   5.970   5.167 -1.1222 -0.8738  1.5336
 7244SOL    HW222632   1.863   5.979   5.228 -0.2168  0.3245 -0.7822
 7245SOL     OW22633   5.909   4.273   1.571  0.3057 -0.2018 -0.0916
 7245SOL    HW122634   5.963   4.356   1.585  0.3518  0.3680 -3.0502
 7245SOL    HW222635   5.948   4.198   1.625  1.8837  1.0474  0.5790
 7246SOL     OW22636   4.997   2.381   2.948 -0.4040 -0.8657 -0.4030
 7246SOL    HW122637   5.057   2.353   3.023 -1.4551 -0.3379  0.6681
 7246SOL    HW222638   5.036   2.461   2.903 -1.7910  1.5073  2.3514
 7247SOL     OW22639   5.249   2.248   3.456  0.0236  0.3633  0.3632
 7247SOL    HW122640   5.188   2.239   3.378 -0.6057  1.9778  0.6314
 7247SOL    HW222641   5.231   2.335   3.503  2.7445  1.0725  0.2617
 7248SOL     OW22642   0.768   1.225   4.765 -0.6686 -0.4215  0.2834
 7248SOL    HW122643   0.843   1.280   4.800  0.4940 -0.9315 -1.2690
 7248SOL    HW222644   0.800   1.132   4.747 -1.5297 -0.5279 -0.8198
 7249SOL     OW22645   6.498   1.411   3.370 -0.6591 -0.2824 -0.4564
 7249SOL    HW122646   6.552   1.447   3.446 -1.0982  2.0107 -1.1513
 7249SOL    HW222647   6.493   1.311   3.376  1.5534 -0.3566  0.9920
 7250SOL     OW22648   5.258   0.093   4.560  0.3229  0.1583 -0.2145
 7250SOL    HW122649   5.200   0.161   4.515  0.4550 -0.0081 -0.6426
 7250SOL    HW222650   5.208   0.053   4.637 -0.0788  0.1246 -0.4887
 7251SOL     OW22651   4.167   0.339   6.631 -0.7031 -0.0064 -0.4275
 7251SOL    HW122652   4.141   0.359   6.726 -1.7917  0.2718 -0.7744
 7251SOL    HW222653   4.085   0.321   6.577 -0.1035  0.0119 -1.3654
 7252SOL     OW22654   4.540   2.502   0.893 -0.3728  0.3121  1.0558
 7252SOL    HW122655   4.486   2.571   0.941 -0.1327  0.9701  0.3942
 7252SOL    HW222656   4.561   2.534   0.801 -1.4105 -1.2146  0.2375
 7253SOL     OW22657   0.086   4.883   3.089 -0.6270  0.0752 -0.1854
 7253SOL    HW122658   0.111   4.793   3.122 -1.9104 -0.7313 -1.3063
 7253SOL    HW222659   0.146   4.952   3.130  0.1158 -1.2291  0.9864
 7254SOL     OW22660   3.922   1.554   4.073 -0.5488 -0.3280 -0.5299
 7254SOL    HW122661   3.908   1.577   3.977 -1.3885 -1.6869 -0.7676
 7254SOL    HW222662   4.020   1.540   4.090 -0.3951 -0.0674 -1.1810
 7255SOL     OW22663   2.117   3.025   3.602  0.2090 -0.1209 -0.0005
 7255SOL    HW122664   2.164   2.965   3.538 -1.9590 -2.9234  0.8375
 7255SOL    HW222665   2.053   3.084   3.553  1.2319  0.4336 -0.6984
 7256SOL     OW22666   3.750   0.022   5.295  0.5513  0.2363  0.8452
 7256SOL    HW122667   3.782   0.017   5.389 -0.8082  0.0654  1.3085
 7256SOL    HW222668   3.662   0.067   5.291  0.3723 -0.1650 -0.2967
 7257SOL     OW22669   0.753   2.197   4.235  0.1205 -0.3594  0.2779
 7257SOL    HW122670   0.736   2.153   4.323 -2.2992  0.9662  0.5409
 7257SOL    HW222671   0.838   2.161   4.197  0.7937 -1.6116  2.7181
 7258SOL     OW22672   3.229   6.683   6.503  0.1340  0.3322  0.1825
 7258SOL    HW122673   3.195   6.630   6.425  2.0157  0.0701 -0.5320
 7258SOL    HW222674   3.254   6.775   6.472  2.4078 -0.2710  0.0326
 7259SOL     OW22675   3.156   4.702   5.509 -0.1722  0.1315 -0.3999
 7259SOL    HW122676   3.156   4.619   5.566  0.8462  0.5992  0.3110
 7259SOL    HW222677   3.126   4.679   5.416  0.3061 -1.0764 -0.2691
 7260SOL     OW22678   6.840   5.250   0.770 -0.1497  0.4839  0.5569
 7260SOL    HW122679   6.864   5.338   0.811  1.5453  0.4591 -0.2930
 7260SOL    HW222680   6.854   5.177   0.838  1.5277  0.5617  0.3375
 7261SOL     OW22681   2.705   5.458   0.405  0.2522  0.4224  0.7886
 7261SOL    HW122682   2.690   5.457   0.306  1.5641 -0.2782  0.5806
 7261SOL    HW222683   2.617   5.468   0.452 -0.8882 -2.8533 -0.3759
 7262SOL     OW22684   4.370   5.394   5.391  0.7930  0.0603 -0.6435
 7262SOL    HW122685   4.388   5.493   5.386 -1.0306  0.5642  1.2093
 7262SOL    HW222686   4.408   5.358   5.475  0.4522 -0.5758 -0.7579
 7263SOL     OW22687   4.280   1.766   2.212 -0.0168 -0.4349 -0.4650
 7263SOL    HW122688   4.368   1.796   2.175  1.1052  0.4038  2.6027
 7263SOL    HW222689   4.206   1.815   2.166  1.3690  1.7238 -0.5090
 7264SOL     OW22690   0.653   1.796   3.699 -0.0831  0.3262 -0.2322
 7264SOL    HW122691   0.646   1.806   3.600  1.3781  1.7689 -0.2390
 7264SOL    HW222692   0.673   1.885   3.740  3.9722 -0.8547  0.8456
 7265SOL     OW22693   4.072   2.241   6.397  0.3543 -0.2007  0.1165
 7265SOL    HW122694   4.094   2.267   6.303  0.2881  1.2523  0.4839
 7265SOL    HW222695   3.981   2.275   6.421 -0.2422 -1.8105  0.2570
 7266SOL     OW22696   0.598   5.178   6.567  0.3572  0.0222  0.2055
 7266SOL    HW122697   0.641   5.243   6.504 -1.9626 -0.0219 -1.5465
 7266SOL    HW222698   0.656   5.097   6.576  1.6721  0.8832 -0.2670
 7267SOL     OW22699   6.306   1.844   6.181 -0.8528 -0.1766  0.0062
 7267SOL    HW122700   6.217   1.849   6.137  0.1485  0.8145 -2.0715
 7267SOL    HW222701   6.377   1.872   6.116  1.0611 -1.5425  1.3819
 7268SOL     OW22702   2.835   0.553   1.100 -0.0953 -0.5730 -0.3254
 7268SOL    HW122703   2.743   0.524   1.123 -0.7786  2.4865  1.2913
 7268SOL    HW222704   2.831   0.628   1.034  1.4077 -1.9016 -2.0250
 7269SOL     OW22705   0.882   3.870   3.971 -0.3871  0.2157  0.2630
 7269SOL    HW122706   0.931   3.956   3.986 -1.0987  0.6997 -0.1200
 7269SOL    HW222707   0.947   3.796   3.958  0.2927  0.3262  2.5046
 7270SOL     OW22708   1.038   6.042   1.252 -0.1349 -0.7977 -0.3438
 7270SOL    HW122709   1.055   5.947   1.227 -2.6771 -1.5261  0.4396
 7270SOL    HW222710   1.094   6.065   1.332 -0.1768 -1.9234  0.0248
 7271SOL     OW22711   0.100   3.803   5.219 -0.1754  0.0145  0.5005
 7271SOL    HW122712   0.177   3.838   5.272  0.0005  0.2472  0.1045
 7271SOL    HW222713   0.135   3.747   5.143 -0.4001  0.0017  0.4063
 7272SOL     OW22714   3.515   0.701   3.622  0.0666  0.1234 -0.4524
 7272SOL    HW122715   3.569   0.624   3.656 -0.2454  0.4333  0.7905
 7272SOL    HW222716   3.566   0.748   3.550  0.1571 -1.3710 -1.4028
 7273SOL     OW22717   3.287   1.177   4.447  0.1889 -0.6896  0.4316
 7273SOL    HW122718   3.363   1.219   4.497  0.1785 -0.9837  0.6980
 7273SOL    HW222719   3.200   1.202   4.491  0.1402 -0.5159  0.2434
 7274SOL     OW22720   2.299   2.876   3.463  0.1458  0.5737 -0.2919
 7274SOL    HW122721   2.320   2.835   3.374 -0.1039  1.6126 -0.8373
 7274SOL    HW222722   2.380   2.869   3.522  0.2634 -0.2664 -0.5331
 7275SOL     OW22723   0.692   1.599   2.979  0.2957 -0.5169  0.5481
 7275SOL    HW122724   0.598   1.605   2.943  0.2186 -0.6847  0.7171
 7275SOL    HW222725   0.743   1.531   2.927  0.8855  0.8784 -0.7536
 7276SOL     OW22726   2.896   5.928   3.160 -0.6005  0.1943 -0.5813
 7276SOL    HW122727   2.974   5.906   3.101  1.4057  2.8353  0.8319
 7276SOL    HW222728   2.855   6.014   3.128 -0.8795  0.4852  0.5321
 7277SOL     OW22729   2.707   5.512   5.856  0.0308  0.0044 -0.4322
 7277SOL    HW122730   2.717   5.498   5.955 -1.0188 -0.2778 -0.3579
 7277SOL    HW222731   2.665   5.431   5.815  2.4457 -0.8308 -1.4894
 7278SOL     OW22732   3.295   3.834   2.771  0.1529  0.0815  0.2366
 7278SOL    HW122733   3.303   3.841   2.870  0.9665 -0.0677  0.1877
 7278SOL    HW222734   3.213   3.781   2.748  0.5574 -0.8618  0.8627
 7279SOL     OW22735   4.244   2.274   3.115  0.8410  0.0863 -0.0345
 7279SOL    HW122736   4.275   2.337   3.186 -0.2096  0.3503  0.2011
 7279SOL    HW222737   4.146   2.260   3.124  0.9512 -1.0372 -0.5293
 7280SOL     OW22738   6.545   3.454   6.724 -0.5946  0.2257 -0.3670
 7280SOL    HW122739   6.522   3.467   6.627 -0.5216 -1.3035 -0.6090
 7280SOL    HW222740   6.482   3.388   6.765 -0.0829  0.2041  0.4068
 7281SOL     OW22741   4.341   4.463   5.794  0.0258 -0.2122 -0.5693
 7281SOL    HW122742   4.383   4.460   5.703  0.4891 -1.6970 -0.3294
 7281SOL    HW222743   4.277   4.540   5.798  1.0848  0.7865 -1.6586
 7282SOL     OW22744   1.607   1.555   0.734 -0.1575 -0.1145 -0.1084
 7282SOL    HW122745   1.530   1.540   0.797 -1.1323 -0.4016 -1.3320
 7282SOL    HW222746   1.638   1.467   0.698  0.2316  0.0678 -0.2162
 7283SOL     OW22747   5.874   4.247   3.644  0.1733 -0.0840  0.9843
 7283SOL    HW122748   5.927   4.318   3.598 -1.7236  0.5398 -0.3612
 7283SOL    HW222749   5.895   4.249   3.742  1.9040  0.7287  0.6415
 7284SOL     OW22750   5.024   3.301   3.404  0.2752 -0.6710  0.9295
 7284SOL    HW122751   4.972   3.262   3.480 -1.3983  0.9073  0.6561
 7284SOL    HW222752   5.019   3.401   3.408 -0.6422 -0.5306 -1.7436
 7285SOL     OW22753   3.552   0.267   2.763  0.0600  0.1414  0.5679
 7285SOL    HW122754   3.602   0.312   2.689  0.7825 -0.9472  0.3740
 7285SOL    HW222755   3.541   0.330   2.840 -1.8490  1.7508 -0.9131
 7286SOL     OW22756   7.017   5.524   3.523  0.3469  0.3967  0.4239
 7286SOL    HW122757   7.015   5.470   3.439 -0.9433  1.3414 -0.1901
 7286SOL    HW222758   6.988   5.618   3.503  0.0046  0.6401  1.9313
 7287SOL     OW22759   2.530   0.468   1.239  0.0341  0.3703 -0.4785
 7287SOL    HW122760   2.453   0.439   1.295  0.2154 -1.2895 -1.0195
 7287SOL    HW222761   2.574   0.548   1.280 -0.2499 -0.3829  1.3692
 7288SOL     OW22762   4.745   5.586   3.490 -0.1073 -0.4709  0.6681
 7288SOL    HW122763   4.779   5.648   3.561  0.3426 -2.5924  2.4318
 7288SOL    HW222764   4.819   5.525   3.461 -1.0061 -1.5015  0.4705
 7289SOL     OW22765   3.987   0.048   4.605  0.0653 -0.0972  1.2560
 7289SOL    HW122766   4.013   0.128   4.552  0.2291 -0.1972  1.1853
 7289SOL    HW222767   3.937  -0.016   4.546  1.5612 -0.8969  0.8257
 7290SOL     OW22768   3.538   1.284   4.583 -0.4632 -0.2479  0.5438
 7290SOL    HW122769   3.545   1.383   4.579 -1.0617 -0.1236  2.0216
 7290SOL    HW222770   3.608   1.243   4.525  2.2368  1.0138  2.7359
 7291SOL     OW22771   3.617   4.152   3.780 -0.3971 -0.5375  0.5940
 7291SOL    HW122772   3.677   4.114   3.709  0.0108  2.8844 -1.1100
 7291SOL    HW222773   3.672   4.172   3.861  0.5379  1.1696 -0.4078
 7292SOL     OW22774   4.659   2.087   5.377  0.0665 -0.1934  0.3979
 7292SOL    HW122775   4.671   2.186   5.366 -1.3217  0.1868  1.8653
 7292SOL    HW222776   4.683   2.061   5.471  1.3597 -1.4421 -0.2431
 7293SOL     OW22777   1.732   5.426   2.297  0.2536 -0.0277  0.2650
 7293SOL    HW122778   1.648   5.442   2.349  1.0288  0.5678  1.3865
 7293SOL    HW222779   1.732   5.332   2.261 -0.8576 -0.0447  0.2947
 7294SOL     OW22780   3.243   5.579   0.472 -0.6551 -0.1729 -0.2224
 7294SOL    HW122781   3.286   5.669   0.467  0.6664 -0.6165  1.8783
 7294SOL    HW222782   3.152   5.588   0.513 -0.6704  0.2239 -0.3363
 7295SOL     OW22783   4.350   6.415   0.839 -0.1390  0.5384 -0.0597
 7295SOL    HW122784   4.444   6.409   0.806 -0.0853 -0.0195  0.1935
 7295SOL    HW222785   4.338   6.502   0.887 -0.4283  1.7254 -2.1487
 7296SOL     OW22786   4.551   6.084   1.625 -0.2963  0.2251 -0.2786
 7296SOL    HW122787   4.503   6.049   1.545 -2.3544  0.5559  0.7300
 7296SOL    HW222788   4.627   6.143   1.596 -0.7633  0.0392 -1.9661
 7297SOL     OW22789   5.863   0.144   6.784  0.2722 -0.6213  0.0518
 7297SOL    HW122790   5.801   0.190   6.848  1.9514  0.4134  0.9837
 7297SOL    HW222791   5.918   0.077   6.833  0.2829 -1.1607 -0.6782
 7298SOL     OW22792   5.011   3.694   5.354 -0.5097  0.5320  0.2800
 7298SOL    HW122793   5.037   3.655   5.442  1.7960 -0.5473 -0.7746
 7298SOL    HW222794   5.067   3.775   5.336  1.2525 -0.9508 -1.3976
 7299SOL     OW22795   2.691   1.444   6.349 -0.4179 -0.3088  0.8405
 7299SOL    HW122796   2.775   1.451   6.296 -1.1631  0.2993 -0.3209
 7299SOL    HW222797   2.664   1.348   6.356  0.0929 -0.4588  0.7627
 7300SOL     OW22798   5.710   3.321   4.676  0.1743 -0.0231 -0.4700
 7300SOL    HW122799   5.793   3.285   4.634  0.0252 -1.2437  0.2081
 7300SOL    HW222800   5.720   3.419   4.694 -0.1264  0.8169 -4.2041
 7301SOL     OW22801   1.391   6.822   6.963  0.0193 -0.0157 -0.3242
 7301SOL    HW122802   1.355   6.876   7.039  1.0109  0.5641 -0.2649
 7301SOL    HW222803   1.324   6.822   6.889 -0.1360  1.0211 -0.2006
 7302SOL     OW22804   3.088   1.311   2.562  0.1473 -0.3092 -0.3284
 7302SOL    HW122805   3.179   1.346   2.542  0.5579 -0.8196  0.5850
 7302SOL    HW222806   3.023   1.346   2.495  0.7982  1.0180 -0.2897
 7303SOL     OW22807   2.893   0.452   2.899  0.8068 -0.5020  0.2973
 7303SOL    HW122808   2.862   0.547   2.913  0.1834 -0.6855  0.1802
 7303SOL    HW222809   2.930   0.417   2.985 -1.2459 -0.9750  1.0330
 7304SOL     OW22810   5.124   6.459   6.623  0.3241  0.5154  0.3951
 7304SOL    HW122811   5.140   6.399   6.701 -0.2647  0.0232  0.1422
 7304SOL    HW222812   5.121   6.554   6.655  2.9765  0.6146  0.5586
 7305SOL     OW22813   2.384   3.459   0.299  0.0665  0.8815 -0.1331
 7305SOL    HW122814   2.301   3.404   0.308 -0.3936  1.5658 -0.0489
 7305SOL    HW222815   2.448   3.436   0.372 -0.8128  1.6152  0.9017
 7306SOL     OW22816   4.807   2.938   4.346  0.4119 -0.0080 -0.2413
 7306SOL    HW122817   4.830   2.932   4.443 -1.6664 -0.0355  0.3001
 7306SOL    HW222818   4.888   2.917   4.291  1.0380 -2.6180  1.4834
 7307SOL     OW22819   1.146   3.515   6.852 -0.0788 -0.5183 -0.2072
 7307SOL    HW122820   1.061   3.476   6.887 -1.3793  2.4215  0.1899
 7307SOL    HW222821   1.215   3.517   6.924 -0.9301  0.4722  0.6014
 7308SOL     OW22822   5.884   1.589   1.764 -0.3156  0.4376 -0.8055
 7308SOL    HW122823   5.814   1.583   1.835  0.3466 -1.7133 -0.2509
 7308SOL    HW222824   5.840   1.610   1.676 -1.2172  2.4317  0.0611
 7309SOL     OW22825   0.242   2.543   1.274 -0.5763 -0.1045  0.0160
 7309SOL    HW122826   0.324   2.517   1.223 -1.3658  0.9149 -1.8815
 7309SOL    HW222827   0.236   2.643   1.277 -0.8144 -0.1414  1.7686
 7310SOL     OW22828   3.834   2.570   5.793 -0.8846  0.5840 -0.1898
 7310SOL    HW122829   3.834   2.492   5.855 -2.7642 -0.0691 -0.9383
 7310SOL    HW222830   3.894   2.550   5.715 -0.9224  0.1258 -0.1068
 7311SOL     OW22831   2.384   2.511   5.553  0.2366  0.1957 -0.4008
 7311SOL    HW122832   2.442   2.548   5.626  2.1993  0.7155 -2.1229
 7311SOL    HW222833   2.422   2.424   5.521 -0.4221  0.1245 -1.0086
 7312SOL     OW22834   4.826   1.575   2.121  0.6411 -0.1787  0.1979
 7312SOL    HW122835   4.800   1.489   2.076 -0.5033  0.7859 -1.0932
 7312SOL    HW222836   4.743   1.625   2.145  1.2403  1.6086 -1.2063
 7313SOL     OW22837   0.054   0.937   2.778  0.4107 -0.0470 -0.5869
 7313SOL    HW122838   0.054   1.009   2.708  1.0106 -1.0261 -1.6413
 7313SOL    HW222839   0.002   0.967   2.857 -0.8998  0.8329 -1.7317
 7314SOL     OW22840   6.366   0.713   0.585 -0.0145 -0.0408 -0.8066
 7314SOL    HW122841   6.466   0.720   0.589  0.1618 -2.2091  2.4094
 7314SOL    HW222842   6.326   0.805   0.581  2.0205  0.8615 -2.5689
 7315SOL     OW22843   6.653   4.194   2.542  0.2999  0.2533  0.1475
 7315SOL    HW122844   6.590   4.149   2.479 -0.0744  1.2345 -0.2055
 7315SOL    HW222845   6.703   4.266   2.494  0.2105  0.8278  0.8887
 7316SOL     OW22846   4.420   2.376   7.014 -0.2357 -0.5658  0.2120
 7316SOL    HW122847   4.322   2.363   7.002 -0.1406 -0.3260 -0.9653
 7316SOL    HW222848   4.444   2.472   6.996 -0.2863  0.3864  4.2500
 7317SOL     OW22849   1.974   4.695   2.903  0.3077 -0.3403 -0.3900
 7317SOL    HW122850   1.965   4.661   2.809 -1.2736 -1.2150  0.0403
 7317SOL    HW222851   1.942   4.790   2.906 -0.1056 -0.4640 -0.6600
 7318SOL     OW22852   6.951   6.575   2.397  0.6323  0.2561  0.3708
 7318SOL    HW122853   7.019   6.503   2.382  0.4283  0.6177 -3.1103
 7318SOL    HW222854   6.974   6.655   2.342 -0.6213  1.8734  2.0617
 7319SOL     OW22855   0.091   4.040   4.796 -0.3334  0.3296  0.3466
 7319SOL    HW122856   0.025   3.976   4.756 -0.0090  0.4484 -0.3941
 7319SOL    HW222857   0.072   4.133   4.764  1.2860  0.1249 -1.3861
 7320SOL     OW22858   1.122   0.222   2.130 -0.2865 -0.9968  0.4846
 7320SOL    HW122859   1.094   0.187   2.041  1.6804  0.0478 -0.6297
 7320SOL    HW222860   1.060   0.295   2.158  0.3408  0.2527 -1.1865
 7321SOL     OW22861   2.473   2.522   4.399  0.4350  0.0788 -0.3012
 7321SOL    HW122862   2.389   2.481   4.435  0.3149  0.1662 -0.4813
 7321SOL    HW222863   2.455   2.565   4.311  1.4910 -3.5946 -2.5439
 7322SOL     OW22864   1.725   2.916   0.752 -0.1342 -0.4618 -0.2285
 7322SOL    HW122865   1.816   2.917   0.711 -1.3897 -0.2545 -3.3055
 7322SOL    HW222866   1.711   2.999   0.805  2.2832 -1.6592  2.5778
 7323SOL     OW22867   0.509   1.480   1.125 -0.7085  0.0947 -0.0700
 7323SOL    HW122868   0.442   1.508   1.194 -0.2712 -0.3379  0.5395
 7323SOL    HW222869   0.478   1.397   1.080  0.3720 -1.3332  1.6875
 7324SOL     OW22870   6.310   0.141   4.232  0.0087 -0.2262 -0.2376
 7324SOL    HW122871   6.397   0.092   4.221 -0.1495 -1.0332  1.7264
 7324SOL    HW222872   6.235   0.080   4.204 -0.1993 -1.2588  2.3518
 7325SOL     OW22873   6.241   5.591   5.118  0.4418  0.1378  0.4996
 7325SOL    HW122874   6.197   5.501   5.118 -0.8268  0.7347  1.1128
 7325SOL    HW222875   6.194   5.652   5.182  0.0480  1.8211 -1.2841
 7326SOL     OW22876   2.599   0.452   6.589 -0.3291 -0.3382 -0.5168
 7326SOL    HW122877   2.643   0.538   6.616 -0.0344 -0.5034 -0.4758
 7326SOL    HW222878   2.649   0.375   6.628  0.1698 -0.5826 -1.6035
 7327SOL     OW22879   4.059   0.726   2.391 -0.3978 -0.5391 -0.1559
 7327SOL    HW122880   4.125   0.658   2.361  0.6170  1.0871 -1.8497
 7327SOL    HW222881   4.107   0.811   2.413 -1.3858 -0.8085  3.7610
 7328SOL     OW22882   4.033   1.437   4.869  0.2243 -0.0521 -0.1801
 7328SOL    HW122883   3.950   1.463   4.919  0.3608 -2.3758  1.4517
 7328SOL    HW222884   4.099   1.399   4.934  1.5436 -0.6177 -1.8016
 7329SOL     OW22885   6.587   3.971   3.915  0.1061  0.5764 -0.4538
 7329SOL    HW122886   6.588   3.990   4.013 -2.2640 -2.4033  0.2853
 7329SOL    HW222887   6.590   3.873   3.899 -0.2570  0.9344 -3.3772
 7330SOL     OW22888   0.587   2.332   0.162  0.3788  0.0232 -0.1171
 7330SOL    HW122889   0.638   2.301   0.241  2.9476 -1.4820 -2.2062
 7330SOL    HW222890   0.616   2.424   0.137  0.4589  0.0256 -0.0122
 7331SOL     OW22891   5.556   2.584   5.992 -0.4051  0.1372  0.4666
 7331SOL    HW122892   5.594   2.552   6.079  1.4070  0.0566 -0.2946
 7331SOL    HW222893   5.490   2.657   6.008  0.2850  0.4739  1.8832
 7332SOL     OW22894   4.614   0.420   2.872 -0.3741 -0.1344 -0.0609
 7332SOL    HW122895   4.710   0.445   2.872 -0.0151 -1.3161 -1.9560
 7332SOL    HW222896   4.560   0.495   2.834 -0.4085  1.0324  2.1567
 7333SOL     OW22897   0.468   4.090   5.699 -0.1723  0.4830 -0.1758
 7333SOL    HW122898   0.533   4.031   5.652 -0.9820 -0.3503 -0.2790
 7333SOL    HW222899   0.514   4.135   5.776  0.7256  0.5598 -0.7372
 7334SOL     OW22900   5.211   5.141   3.982  0.3635 -0.1741  0.0472
 7334SOL    HW122901   5.257   5.143   4.071 -0.4063 -1.5982  0.5029
 7334SOL    HW222902   5.271   5.098   3.915  0.8791  0.7493 -0.1037
 7335SOL     OW22903   2.461   5.487   6.835 -0.3137  0.4500 -0.3112
 7335SOL    HW122904   2.527   5.516   6.905  0.3639  0.0367 -0.7642
 7335SOL    HW222905   2.369   5.518   6.861 -0.2163 -0.4135  1.1838
 7336SOL     OW22906   2.798   2.030   4.171 -0.1924 -0.2787 -0.1834
 7336SOL    HW122907   2.843   2.117   4.189 -0.4933 -0.3842  1.1807
 7336SOL    HW222908   2.713   2.046   4.121  0.5371  0.0563 -1.3385
 7337SOL     OW22909   4.512   0.659   0.279 -0.4465 -0.1300 -0.1824
 7337SOL    HW122910   4.526   0.656   0.378  0.3746 -0.0307 -0.2906
 7337SOL    HW222911   4.559   0.739   0.241  0.7623 -1.1333 -0.8748
 7338SOL     OW22912   6.924   5.783   1.969 -0.0044 -0.1986 -0.5211
 7338SOL    HW122913   6.884   5.837   2.042  0.2184 -1.0431  0.2470
 7338SOL    HW222914   6.941   5.841   1.889 -1.3527  0.4795 -0.3316
 7339SOL     OW22915   1.381   5.995   0.817  0.0035 -0.3482 -0.0439
 7339SOL    HW122916   1.433   5.911   0.803 -0.6994 -0.6599 -0.8403
 7339SOL    HW222917   1.286   5.972   0.839 -0.1609  0.2396 -0.1311
 7340SOL     OW22918   2.527   2.014   6.127 -0.0219  0.4938  0.3736
 7340SOL    HW122919   2.580   1.930   6.117 -0.4543  0.4157 -1.8530
 7340SOL    HW222920   2.509   2.031   6.223  0.7762 -1.5147  0.9280
 7341SOL     OW22921   0.172   3.238   5.091  0.1289 -0.0230  0.3047
 7341SOL    HW122922   0.073   3.243   5.092  0.1283  1.8273 -1.6206
 7341SOL    HW222923   0.206   3.262   4.999  2.3734  0.0001  1.0697
 7342SOL     OW22924   1.685   5.884   4.230  0.2655  0.1257 -0.0108
 7342SOL    HW122925   1.692   5.899   4.329 -0.8356 -0.5757  0.1968
 7342SOL    HW222926   1.748   5.811   4.204  0.6442  0.3897  0.1412
 7343SOL     OW22927   3.367   4.489   5.376 -0.5811 -0.2324  0.5742
 7343SOL    HW122928   3.443   4.424   5.389  0.0677  0.7243  1.9241
 7343SOL    HW222929   3.399   4.581   5.400 -2.0706  0.2446  0.7989
 7344SOL     OW22930   1.791   5.343   1.455 -0.2091  0.2340  0.3856
 7344SOL    HW122931   1.866   5.385   1.506  1.4750 -3.3307  1.2075
 7344SOL    HW222932   1.713   5.330   1.516  0.6867 -1.2198  1.3037
 7345SOL     OW22933   6.633   0.656   4.299 -0.3755 -0.4595 -0.1471
 7345SOL    HW122934   6.574   0.675   4.378 -0.8414 -0.2740 -0.5402
 7345SOL    HW222935   6.613   0.564   4.264 -0.3586 -0.4348 -0.2207
 7346SOL     OW22936   3.863   0.803   7.004  0.0309  0.7035  0.5076
 7346SOL    HW122937   3.884   0.832   6.910 -0.1845 -0.0495  0.2227
 7346SOL    HW222938   3.767   0.777   7.010  0.0817  0.6063  0.9048
 7347SOL     OW22939   5.316   4.105   5.424 -0.5391 -0.1790 -0.1468
 7347SOL    HW122940   5.364   4.165   5.360  1.2843  0.4143  1.6640
 7347SOL    HW222941   5.342   4.010   5.405 -0.3780 -0.0562 -0.5682
 7348SOL     OW22942   5.117   5.507   2.168 -0.6009 -0.0939 -0.8459
 7348SOL    HW122943   5.101   5.541   2.076  0.4055  0.3051 -0.8824
 7348SOL    HW222944   5.121   5.407   2.166 -1.3443 -0.1239 -1.1008
 7349SOL     OW22945   5.511   0.751   2.021  0.2412  0.5017  0.2100
 7349SOL    HW122946   5.569   0.678   1.984 -0.0146  1.3617 -2.0827
 7349SOL    HW222947   5.426   0.711   2.055  0.6232 -0.3969  0.1496
 7350SOL     OW22948   1.263   2.678   6.458 -0.4208 -0.3160 -0.0785
 7350SOL    HW122949   1.362   2.667   6.467  0.1601  2.6975 -1.5784
 7350SOL    HW222950   1.233   2.758   6.512 -1.4180  0.8587 -2.2430
 7351SOL     OW22951   3.757   0.039   3.065 -0.0906  0.1258  0.3415
 7351SOL    HW122952   3.751  -0.054   3.099  0.1792 -0.3487 -0.8370
 7351SOL    HW222953   3.803   0.097   3.132  0.8145 -0.8613  0.5960
 7352SOL     OW22954   6.649   1.339   6.697 -0.5597  0.3501 -0.3907
 7352SOL    HW122955   6.606   1.267   6.751 -0.1766 -0.2514 -0.8799
 7352SOL    HW222956   6.586   1.369   6.626 -1.1487  1.2919  0.4853
 7353SOL     OW22957   5.418   4.477   0.924 -0.1412  0.6416 -0.0270
 7353SOL    HW122958   5.347   4.539   0.889  0.2156  1.8440  1.2648
 7353SOL    HW222959   5.398   4.454   1.019 -0.6677 -1.9125 -0.6922
 7354SOL     OW22960   1.599   4.538   3.551  0.7333  0.2194  0.0579
 7354SOL    HW122961   1.636   4.497   3.634 -0.1998 -0.3463  0.2099
 7354SOL    HW222962   1.580   4.634   3.566 -2.2259 -0.4924  1.5085
 7355SOL     OW22963   5.008   6.391   5.101 -0.5693  0.4938  0.1849
 7355SOL    HW122964   4.976   6.455   5.172 -1.3091 -1.2116  1.4822
 7355SOL    HW222965   4.936   6.324   5.084  0.8925 -1.1623  0.3354
 7356SOL     OW22966   2.631   2.113   1.089  0.0895 -0.5973 -0.3262
 7356SOL    HW122967   2.714   2.161   1.118  1.5038 -2.3519 -1.2342
 7356SOL    HW222968   2.560   2.180   1.067  0.7041  0.9174  1.9195
 7357SOL     OW22969   1.148   5.132   1.672  0.2425 -0.5262 -0.2669
 7357SOL    HW122970   1.146   5.187   1.755  0.3039  2.1040 -1.8659
 7357SOL    HW222971   1.214   5.058   1.682  2.4100  1.4448  1.0435
 7358SOL     OW22972   4.010   5.726   7.002 -0.7103  0.5196  0.3022
 7358SOL    HW122973   4.065   5.800   6.962  0.0682 -0.7569 -1.0823
 7358SOL    HW222974   3.923   5.719   6.952 -0.2956 -0.2226 -0.3326
 7359SOL     OW22975   4.461   1.667   2.971 -0.2349 -0.0233  0.6854
 7359SOL    HW122976   4.457   1.766   2.980 -0.6663 -0.0208  0.5260
 7359SOL    HW222977   4.556   1.637   2.960 -0.1736  0.4527 -0.1611
 7360SOL     OW22978   0.462   5.212   4.018 -0.4100 -0.3870 -0.3600
 7360SOL    HW122979   0.444   5.300   3.975 -1.9175 -0.3285  0.3403
 7360SOL    HW222980   0.493   5.226   4.112  0.4322 -0.5873 -0.5971
 7361SOL     OW22981   3.913   5.928   4.665 -0.5752 -0.1036 -0.3858
 7361SOL    HW122982   3.920   5.977   4.752 -1.0010  0.0679 -0.4498
 7361SOL    HW222983   3.947   5.986   4.592  0.3628 -0.4690 -0.2617
 7362SOL     OW22984   4.424   6.291   6.848  0.6977 -0.3147  0.3047
 7362SOL    HW122985   4.503   6.237   6.819  1.1709  1.2526 -1.4679
 7362SOL    HW222986   4.455   6.376   6.890  0.0315  0.9088 -1.5450
 7363SOL     OW22987   4.394   5.534   0.653 -0.0376 -0.6847  0.0207
 7363SOL    HW122988   4.382   5.534   0.554 -3.3673 -1.3615  0.2767
 7363SOL    HW222989   4.337   5.606   0.693 -0.6230 -1.9260  1.5196
 7364SOL     OW22990   2.763   1.044   0.627  0.3259 -0.1073  0.6120
 7364SOL    HW122991   2.812   1.085   0.703  0.5064 -1.3403  1.1801
 7364SOL    HW222992   2.815   1.058   0.542  0.2149  1.0945  0.7196
 7365SOL     OW22993   5.117   0.626   2.965 -0.3835  0.0067  0.4913
 7365SOL    HW122994   5.203   0.673   2.987  1.5484 -0.8003 -4.0447
 7365SOL    HW222995   5.137   0.533   2.935 -2.8681 -0.2602 -0.5488
 7366SOL     OW22996   0.820   1.400   0.252 -0.2126  0.1292 -0.2283
 7366SOL    HW122997   0.828   1.414   0.351 -0.1559 -0.9914 -0.0631
 7366SOL    HW222998   0.885   1.459   0.205 -1.4748  2.0387  0.2752
 7367SOL     OW22999   1.376   3.811   6.987  0.2059  0.4524 -0.0581
 7367SOL    HW123000   1.323   3.793   7.069 -1.5405  2.3018 -0.7149
 7367SOL    HW223001   1.386   3.726   6.934 -0.3532 -0.3265  1.0629
 7368SOL     OW23002   3.604   4.166   4.416  0.2615 -0.0359 -0.3392
 7368SOL    HW123003   3.584   4.175   4.319  1.6877  1.1406 -0.5434
 7368SOL    HW223004   3.645   4.076   4.434  3.8590  1.2135 -1.5781
 7369SOL     OW23005   1.675   4.463   3.299 -0.2442  0.2558  0.2266
 7369SOL    HW123006   1.660   4.366   3.282  2.2906 -0.2580  0.4425
 7369SOL    HW223007   1.647   4.486   3.392 -2.0090  0.0494 -0.2312
 7370SOL     OW23008   6.645   4.223   5.995 -0.0494 -0.7419 -0.2273
 7370SOL    HW123009   6.683   4.307   5.956 -0.2686 -0.7775 -0.5232
 7370SOL    HW223010   6.545   4.230   5.997 -0.0837 -1.1138 -0.5251
 7371SOL     OW23011   3.400   6.169   6.530 -0.0760  0.1547  0.0727
 7371SOL    HW123012   3.366   6.169   6.435 -0.7660  1.2209  0.3035
 7371SOL    HW223013   3.409   6.074   6.561  0.5205 -0.2282 -1.1740
 7372SOL     OW23014   3.645   4.704   6.696 -0.5123 -0.6150 -0.4008
 7372SOL    HW123015   3.584   4.740   6.625  1.6086 -0.2901 -2.1615
 7372SOL    HW223016   3.649   4.769   6.772  0.1216  0.9373 -1.7157
 7373SOL     OW23017   3.811   2.075   4.543 -0.0533  0.2392 -0.0618
 7373SOL    HW123018   3.823   1.977   4.560 -2.4808  0.1009  1.4185
 7373SOL    HW223019   3.888   2.125   4.583  0.8170 -0.9908 -0.1160
 7374SOL     OW23020   2.174   1.697   1.233 -0.4124 -0.1717  0.3223
 7374SOL    HW123021   2.134   1.636   1.164 -0.8374  0.1721  0.2545
 7374SOL    HW223022   2.124   1.784   1.233 -0.3980 -0.1561  1.0450
 7375SOL     OW23023   2.130   3.771   4.931 -0.8985  0.0913 -0.0143
 7375SOL    HW123024   2.207   3.833   4.944 -1.4746  1.0263 -0.9104
 7375SOL    HW223025   2.077   3.766   5.016 -0.1076 -0.2280  0.4750
 7376SOL     OW23026   2.443   0.812   2.654  0.4464  0.2587  0.3787
 7376SOL    HW123027   2.362   0.836   2.707 -1.0310 -1.8187 -0.8140
 7376SOL    HW223028   2.445   0.714   2.637  2.3062  0.4776 -1.0960
 7377SOL     OW23029   6.925   0.485   4.645  0.0799 -0.6394  0.2868
 7377SOL    HW123030   6.933   0.558   4.577  1.5781 -1.1503 -0.1327
 7377SOL    HW223031   6.839   0.436   4.632 -1.0808  1.1958  0.7581
 7378SOL     OW23032   2.314   3.208   6.365 -0.3582  0.0638  0.4487
 7378SOL    HW123033   2.374   3.149   6.419 -0.9619  0.8616  2.0421
 7378SOL    HW223034   2.353   3.219   6.273  1.0009 -0.8513  0.8735
 7379SOL     OW23035   2.463   6.963   3.068 -0.2058  0.1959  0.1474
 7379SOL    HW123036   2.484   6.962   3.166  0.2315 -1.2208  0.0595
 7379SOL    HW223037   2.363   6.961   3.056 -0.3618  2.4037  0.5324
 7380SOL     OW23038   4.940   5.949   6.962  0.8179  0.6594 -0.2197
 7380SOL    HW123039   4.994   5.887   6.905 -0.2476 -0.6507  0.1594
 7380SOL    HW223040   4.953   6.043   6.930  0.3733 -0.0116 -2.5308
 7381SOL     OW23041   5.852   2.538   2.805  0.2281  0.4884  0.0787
 7381SOL    HW123042   5.868   2.615   2.867  0.0816  0.2155  0.4588
 7381SOL    HW223043   5.754   2.531   2.785  0.0913 -0.3296  1.0020
 7382SOL     OW23044   1.973   4.292   1.280  1.0956  0.3216  0.3300
 7382SOL    HW123045   2.053   4.348   1.259  1.8754 -0.9620 -0.2784
 7382SOL    HW223046   1.969   4.215   1.216 -0.9054  0.6036  0.0470
 7383SOL     OW23047   3.670   6.187   3.514 -0.1858 -0.2493 -0.3321
 7383SOL    HW123048   3.706   6.104   3.556  0.3399 -0.1094 -0.5040
 7383SOL    HW223049   3.745   6.251   3.497 -0.6502  0.4715  0.2732
 7384SOL     OW23050   4.455   2.294   2.758 -0.2233 -0.3051 -0.7431
 7384SOL    HW123051   4.510   2.220   2.720  1.1226  0.4988 -0.4327
 7384SOL    HW223052   4.446   2.367   2.691  0.4137  0.2251 -0.2744
 7385SOL     OW23053   4.323   4.270   6.468 -0.2014  0.4851  0.0970
 7385SOL    HW123054   4.249   4.227   6.520  0.0602 -0.0377  0.0432
 7385SOL    HW223055   4.398   4.294   6.530  0.5406 -1.0520 -0.1472
 7386SOL     OW23056   6.597   1.703   5.840 -0.0981 -0.1642 -0.0419
 7386SOL    HW123057   6.522   1.645   5.809 -1.5630  0.2123  2.5048
 7386SOL    HW223058   6.670   1.646   5.877  0.3868 -0.4843 -1.4255
 7387SOL     OW23059   3.737   1.194   3.010 -0.1680 -0.1005  0.5066
 7387SOL    HW123060   3.673   1.269   2.990  0.4790  0.8098  1.6689
 7387SOL    HW223061   3.781   1.211   3.098  2.1504 -0.3534 -0.5229
 7388SOL     OW23062   6.049   3.948   2.846 -0.1486 -0.2575 -0.1267
 7388SOL    HW123063   5.991   4.017   2.803 -1.1110 -1.0019 -0.0710
 7388SOL    HW223064   6.000   3.907   2.924  1.1437  0.3143  1.0300
 7389SOL     OW23065   2.645   4.922   6.021 -0.0067 -0.3323 -0.4566
 7389SOL    HW123066   2.618   4.912   5.925  0.8344 -0.3627 -0.6960
 7389SOL    HW223067   2.584   4.867   6.078 -0.4459 -0.3995 -0.9814
 7390SOL     OW23068   2.857   0.919   1.158  0.5406  0.4118  0.3585
 7390SOL    HW123069   2.770   0.933   1.111 -0.4687 -0.9624  1.6981
 7390SOL    HW223070   2.913   0.854   1.106 -0.2070 -0.4352  0.5733
 7391SOL     OW23071   3.852   6.248   5.598  0.0067 -0.1939 -0.3438
 7391SOL    HW123072   3.862   6.256   5.697  0.9540  1.2267 -0.5245
 7391SOL    HW223073   3.924   6.301   5.553 -1.9316  1.3957 -1.7805
 7392SOL     OW23074   0.162   4.932   0.257 -0.5163 -0.0360 -0.2232
 7392SOL    HW123075   0.063   4.937   0.272 -0.4238  1.7365 -0.0696
 7392SOL    HW223076   0.180   4.879   0.173 -1.7507  1.7188 -1.6802
 7393SOL     OW23077   6.732   1.092   2.657  0.0790  0.2630  0.1355
 7393SOL    HW123078   6.682   1.009   2.632  0.7373 -0.3330  0.7497
 7393SOL    HW223079   6.810   1.104   2.596  0.4019  0.0243  0.4951
 7394SOL     OW23080   5.037   1.832   4.499 -0.0169  0.1928 -0.3690
 7394SOL    HW123081   5.100   1.863   4.571 -1.8814 -1.0963  1.9781
 7394SOL    HW223082   5.059   1.879   4.414  3.4029  0.5695  0.5397
 7395SOL     OW23083   6.588   5.625   6.650 -0.0622  0.3069 -0.2262
 7395SOL    HW123084   6.518   5.555   6.666  0.8194 -0.3495  0.9870
 7395SOL    HW223085   6.548   5.716   6.664 -0.5628 -0.0734  0.9607
 7396SOL     OW23086   2.110   3.741   2.400  0.1325 -0.7184  0.3378
 7396SOL    HW123087   2.097   3.674   2.327  0.4835 -0.1725 -0.2361
 7396SOL    HW223088   2.081   3.831   2.367 -0.0346 -0.5299  0.9935
 7397SOL     OW23089   1.230   2.955   5.997  0.2588  0.6800 -0.6552
 7397SOL    HW123090   1.189   2.993   6.080 -1.0911  0.8294 -1.3671
 7397SOL    HW223091   1.325   2.931   6.015 -0.3180 -0.3793  1.2727
 7398SOL     OW23092   5.163   4.775   0.368  0.1155 -0.2060  0.1745
 7398SOL    HW123093   5.194   4.708   0.300  0.8332  1.3739 -1.1342
 7398SOL    HW223094   5.095   4.733   0.428 -0.7404 -1.6096 -1.6763
 7399SOL     OW23095   2.844   3.017   1.305  0.5484 -0.0579  0.1479
 7399SOL    HW123096   2.888   3.033   1.393 -0.5331  1.3675  0.4674
 7399SOL    HW223097   2.906   3.044   1.231  1.1984 -0.5961  0.4936
 7400SOL     OW23098   0.968   3.301   1.609  0.2834 -0.3584 -0.4356
 7400SOL    HW123099   0.876   3.328   1.638 -0.0139 -1.0893 -0.6736
 7400SOL    HW223100   1.035   3.338   1.674  0.0335  2.0185 -1.4341
 7401SOL     OW23101   6.190   3.587   6.438  0.2479  0.1066  0.2453
 7401SOL    HW123102   6.201   3.651   6.362  0.5442 -0.7189 -0.4212
 7401SOL    HW223103   6.204   3.635   6.525 -0.7677  1.2173 -0.1735
 7402SOL     OW23104   1.411   1.721   0.566  0.6539  0.0035 -0.0748
 7402SOL    HW123105   1.418   1.817   0.591 -0.8351 -0.6769  3.6182
 7402SOL    HW223106   1.454   1.664   0.636 -0.0772 -2.0944 -1.2060
 7403SOL     OW23107   3.296   4.585   5.832  0.5630 -0.2299  0.2292
 7403SOL    HW123108   3.378   4.595   5.777 -0.2233  0.8857 -0.8144
 7403SOL    HW223109   3.232   4.522   5.786 -0.5886  1.6152 -0.8283
 7404SOL     OW23110   1.764   1.187   4.161  0.1055 -0.4980 -0.0387
 7404SOL    HW123111   1.779   1.123   4.086 -0.5572  0.3812 -0.9491
 7404SOL    HW223112   1.759   1.137   4.247  2.1146 -1.4018 -0.3941
 7405SOL     OW23113   0.375   1.700   1.041  0.7475  0.2580  0.2131
 7405SOL    HW123114   0.405   1.605   1.040  0.5492  0.1804 -1.3116
 7405SOL    HW223115   0.446   1.759   1.003  0.9682  0.7748  1.3698
 7406SOL     OW23116   5.617   0.510   1.946 -0.2674  0.1718  0.0223
 7406SOL    HW123117   5.617   0.452   2.027 -0.8419  0.2576  0.0894
 7406SOL    HW223118   5.685   0.476   1.880 -1.0347 -0.9601 -0.2118
 7407SOL     OW23119   0.225   2.667   6.412  0.6177 -0.5876 -0.6021
 7407SOL    HW123120   0.153   2.604   6.382 -0.4326 -0.1119  0.8226
 7407SOL    HW223121   0.302   2.614   6.448 -0.1502 -1.1148  0.3474
 7408SOL     OW23122   2.879   4.245   5.632  0.2794 -0.4846  0.1489
 7408SOL    HW123123   2.877   4.256   5.533  1.2660 -2.9104 -0.1968
 7408SOL    HW223124   2.806   4.301   5.673 -3.4297 -3.0166 -2.3466
 7409SOL     OW23125   0.243   2.451   0.936 -0.1932 -0.3804  0.4234
 7409SOL    HW123126   0.323   2.393   0.951  0.0294 -0.2204 -0.1247
 7409SOL    HW223127   0.187   2.453   1.019  0.2254 -0.7154  0.7164
 7410SOL     OW23128   5.258   5.459   3.519 -0.1302 -0.1442  0.4195
 7410SOL    HW123129   5.297   5.394   3.455 -1.5036  0.0803 -0.7149
 7410SOL    HW223130   5.235   5.413   3.604  0.2932 -0.8027  0.1821
 7411SOL     OW23131   1.760   4.050   2.522 -0.2688 -0.1437  0.2375
 7411SOL    HW123132   1.769   3.961   2.478  1.7147 -0.4406  1.1477
 7411SOL    HW223133   1.829   4.113   2.485 -1.3206  0.8873 -0.0387
 7412SOL     OW23134   1.370   0.741   1.780 -0.1910  0.4005 -0.0271
 7412SOL    HW123135   1.305   0.804   1.824 -0.9333 -0.2092 -0.2231
 7412SOL    HW223136   1.414   0.685   1.849 -1.3000 -0.5058 -0.0233
 7413SOL     OW23137   1.987   2.277   2.422 -0.3722  0.6209 -0.3462
 7413SOL    HW123138   1.908   2.232   2.381 -0.1582  0.6998 -0.8520
 7413SOL    HW223139   2.071   2.228   2.397 -0.2379  0.6523  0.0222
 7414SOL     OW23140   0.695   0.479   5.920 -0.0566  0.6392 -0.4299
 7414SOL    HW123141   0.794   0.471   5.934 -0.0979  2.0300  0.9616
 7414SOL    HW223142   0.670   0.576   5.913 -1.6705  0.5369  2.4346
 7415SOL     OW23143   4.737   2.537   6.195  0.2479  0.0206  0.3445
 7415SOL    HW123144   4.689   2.452   6.174 -0.3199  0.1382  1.1001
 7415SOL    HW223145   4.828   2.517   6.230  1.4179 -0.1659 -2.5948
 7416SOL     OW23146   1.515   3.122   2.171 -0.2927  0.0471 -0.5472
 7416SOL    HW123147   1.604   3.115   2.216  0.0129  2.2214 -0.7107
 7416SOL    HW223148   1.451   3.168   2.231 -0.5186  0.9726 -1.4772
 7417SOL     OW23149   5.370   3.722   1.321 -0.0583  0.0216 -0.2937
 7417SOL    HW123150   5.427   3.643   1.298  0.7953  0.0017  1.7085
 7417SOL    HW223151   5.274   3.693   1.325  0.3343 -1.2533  1.4780
 7418SOL     OW23152   4.271   3.244   0.564  0.0513 -0.3474  0.8206
 7418SOL    HW123153   4.206   3.168   0.567  1.5420 -1.6532  1.1678
 7418SOL    HW223154   4.290   3.276   0.656 -0.6367  0.5281  0.6691
 7419SOL     OW23155   0.861   6.390   6.759 -0.0630 -0.3370  0.4651
 7419SOL    HW123156   0.841   6.438   6.845 -1.4235  1.8936 -0.9943
 7419SOL    HW223157   0.951   6.418   6.726 -1.4683  2.7244 -1.1820
 7420SOL     OW23158   3.464   3.949   0.420  0.1030 -0.5120 -0.1527
 7420SOL    HW123159   3.477   3.992   0.331 -0.3809 -0.7564 -0.3412
 7420SOL    HW223160   3.370   3.963   0.450  0.5770  0.6502  0.8901
 7421SOL     OW23161   3.741   0.386   0.821  0.3469 -0.0933  0.1346
 7421SOL    HW123162   3.668   0.401   0.754 -0.2079 -1.6187  0.3517
 7421SOL    HW223163   3.802   0.314   0.788  1.3212  0.6354  0.3130
 7422SOL     OW23164   3.081   2.165   1.887  0.3536 -0.1378  0.1159
 7422SOL    HW123165   3.133   2.101   1.943  0.7650  0.3914  0.3516
 7422SOL    HW223166   3.023   2.221   1.945  0.2009 -0.1104 -0.0622
 7423SOL     OW23167   5.938   4.305   5.847 -0.2804 -0.1717  0.1859
 7423SOL    HW123168   5.969   4.345   5.933  2.0665 -0.8573 -0.2634
 7423SOL    HW223169   5.949   4.205   5.852  1.8581 -0.0760 -1.5813
 7424SOL     OW23170   2.496   5.692   4.123 -0.0254 -0.6686 -0.3003
 7424SOL    HW123171   2.507   5.593   4.125  0.6637 -0.5871  1.1087
 7424SOL    HW223172   2.399   5.716   4.127 -0.1322 -1.2840  1.7281
 7425SOL     OW23173   2.086   2.747   6.320 -0.5577  0.4286  0.4933
 7425SOL    HW123174   2.134   2.814   6.263 -2.1248  0.6692 -0.6128
 7425SOL    HW223175   2.057   2.790   6.405 -0.2935  0.7458  0.4256
 7426SOL     OW23176   5.920   0.589   5.156  0.2793  0.0488  0.0490
 7426SOL    HW123177   6.007   0.634   5.135  0.9983 -1.7562 -1.1054
 7426SOL    HW223178   5.936   0.491   5.172 -1.4021 -0.1148  0.9936
 7427SOL     OW23179   2.242   0.880   1.935 -0.6894  0.3780 -0.0604
 7427SOL    HW123180   2.198   0.966   1.907 -0.5136  1.3085  2.3083
 7427SOL    HW223181   2.230   0.867   2.033 -0.0692 -1.9787 -0.2401
 7428SOL     OW23182   3.592   6.893   2.704  0.2540 -0.0407 -0.1493
 7428SOL    HW123183   3.591   6.965   2.773 -1.4602  0.8694 -1.0513
 7428SOL    HW223184   3.655   6.917   2.631 -0.6628  0.8180 -0.6799
 7429SOL     OW23185   5.257   4.351   1.445  0.5126 -1.0025  0.2379
 7429SOL    HW123186   5.195   4.428   1.426  0.8309  0.5980  4.6631
 7429SOL    HW223187   5.345   4.369   1.401  0.3582  0.8615  0.5865
 7430SOL     OW23188   3.216   1.905   2.862 -0.0362 -0.0537 -0.3157
 7430SOL    HW123189   3.250   1.859   2.780  0.4049 -0.6251  0.1755
 7430SOL    HW223190   3.262   1.867   2.943  0.4437  1.3496  0.0962
 7431SOL     OW23191   6.199   1.105   4.736  0.1659  0.4075  0.2946
 7431SOL    HW123192   6.247   1.115   4.823  0.0120  0.1135  0.4177
 7431SOL    HW223193   6.243   1.033   4.682  0.3687  0.7134  0.0556
 7432SOL     OW23194   4.628   6.123   2.292  0.2932 -0.5869 -0.2873
 7432SOL    HW123195   4.711   6.124   2.348  0.1661 -1.7506 -0.0580
 7432SOL    HW223196   4.548   6.126   2.352  0.1424  1.3249 -0.5290
 7433SOL     OW23197   3.715   3.465   6.497  0.0789  0.4159  0.1521
 7433SOL    HW123198   3.783   3.399   6.467  0.2330  0.0451  1.2680
 7433SOL    HW223199   3.761   3.548   6.529  0.0028  0.3048  0.5657
 7434SOL     OW23200   1.231   5.737   5.292 -0.1036 -0.9226  0.2335
 7434SOL    HW123201   1.251   5.834   5.299  0.7066 -1.0620 -0.0500
 7434SOL    HW223202   1.134   5.724   5.275  0.1152 -0.0602 -1.9766
 7435SOL     OW23203   3.412   1.128   6.469 -0.8423  0.4423  0.0958
 7435SOL    HW123204   3.398   1.227   6.471 -1.9976  0.3376 -1.2483
 7435SOL    HW223205   3.439   1.101   6.377 -0.7442 -0.5251  0.4053
 7436SOL     OW23206   2.949   4.072   6.811 -0.0443  0.6686  0.0115
 7436SOL    HW123207   2.972   4.078   6.713  0.9289 -0.3835  0.1415
 7436SOL    HW223208   2.907   3.983   6.829  1.1234  0.2468  0.7726
 7437SOL     OW23209   3.216   4.616   6.895 -0.6039 -0.3620  0.1344
 7437SOL    HW123210   3.162   4.648   6.972 -0.9583 -0.0175 -0.2549
 7437SOL    HW223211   3.245   4.522   6.911 -1.2874 -0.5347  0.3559
 7438SOL     OW23212   4.502   3.905   0.293  0.0476 -0.0021  0.4021
 7438SOL    HW123213   4.444   3.975   0.334  0.7379  0.4683  0.5902
 7438SOL    HW223214   4.573   3.948   0.238  0.0912 -0.5800 -0.0006
 7439SOL     OW23215   4.212   6.122   4.625 -0.3570  0.0959  0.1857
 7439SOL    HW123216   4.193   6.219   4.644 -0.2918  0.0589  0.4541
 7439SOL    HW223217   4.134   6.081   4.577 -0.3401  0.3078 -0.0220
 7440SOL     OW23218   6.671   0.367   5.146 -0.7688 -0.1593 -0.1302
 7440SOL    HW123219   6.587   0.321   5.120 -0.4489 -0.1931 -1.1718
 7440SOL    HW223220   6.665   0.464   5.122 -0.9196  0.0698  0.7976
 7441SOL     OW23221   0.677   3.864   3.788  0.0135  0.1831 -0.1215
 7441SOL    HW123222   0.740   3.887   3.862 -0.2892 -0.6852  0.4113
 7441SOL    HW223223   0.623   3.945   3.765  1.2831  0.9382 -0.5706
 7442SOL     OW23224   5.313   5.690   3.695 -0.2036 -0.0734  0.5244
 7442SOL    HW123225   5.295   5.619   3.627  0.7977 -0.6933  0.8812
 7442SOL    HW223226   5.299   5.780   3.653 -1.1561 -0.4717 -0.0297
 7443SOL     OW23227   2.263   6.203   5.495 -0.0314 -0.2576  0.1574
 7443SOL    HW123228   2.325   6.162   5.561  0.2364  1.5065  1.0731
 7443SOL    HW223229   2.178   6.229   5.540  0.0917  0.8185 -0.1984
 7444SOL     OW23230   6.738   2.676   6.909  0.7253  0.5748  0.5454
 7444SOL    HW123231   6.702   2.603   6.966 -1.4260  2.0884  1.2528
 7444SOL    HW223232   6.788   2.636   6.832 -0.6755 -1.6479  0.6839
 7445SOL     OW23233   6.988   0.069   4.224  0.4085 -0.1992  0.5912
 7445SOL    HW123234   7.052   0.082   4.300  0.4785  0.3969  0.4398
 7445SOL    HW223235   6.910   0.130   4.236 -0.3991 -1.2939  1.0467
 7446SOL     OW23236   4.166   4.457   1.728 -0.3183  0.6220  0.3739
 7446SOL    HW123237   4.127   4.381   1.676  0.3861 -0.0747  0.8295
 7446SOL    HW223238   4.257   4.478   1.692 -0.1006  0.5758  0.8863
 7447SOL     OW23239   6.293   3.476   4.446 -0.0081  0.0285 -0.0607
 7447SOL    HW123240   6.328   3.435   4.530  0.7079 -0.2380 -0.4763
 7447SOL    HW223241   6.323   3.422   4.367  0.8845  1.2786 -0.6168
 7448SOL     OW23242   5.107   4.126   0.893  0.0583  0.1633  0.4812
 7448SOL    HW123243   5.171   4.054   0.923 -0.7127 -1.2757 -1.1871
 7448SOL    HW223244   5.132   4.213   0.937  0.8802 -1.1329  2.7514
 7449SOL     OW23245   6.016   3.539   0.023  0.2002 -0.5323  0.0144
 7449SOL    HW123246   5.999   3.601   0.099  1.1824  0.8583 -0.8699
 7449SOL    HW223247   6.084   3.471   0.050  0.8125  0.1729  0.2821
 7450SOL     OW23248   2.204   5.638   6.907  0.2454  0.3744  0.2067
 7450SOL    HW123249   2.263   5.716   6.927  1.2919 -1.0420  3.3662
 7450SOL    HW223250   2.136   5.664   6.838  1.8375  3.3683 -0.3941
 7451SOL     OW23251   3.356   4.362   6.392  0.1769  0.6458  0.0521
 7451SOL    HW123252   3.336   4.457   6.366  0.8490  0.4702 -1.2154
 7451SOL    HW223253   3.359   4.355   6.491 -0.0843  1.9127  0.1757
 7452SOL     OW23254   6.612   6.871   0.783 -0.6232 -0.6374  0.0436
 7452SOL    HW123255   6.606   6.898   0.879 -0.8578  0.1371 -0.1875
 7452SOL    HW223256   6.544   6.921   0.729 -0.5908 -1.1707 -0.5068
 7453SOL     OW23257   6.223   2.841   0.970 -0.6858 -0.1806 -0.9064
 7453SOL    HW123258   6.141   2.784   0.982  0.2542 -1.4421 -0.2166
 7453SOL    HW223259   6.287   2.824   1.045 -0.4898  2.0657 -0.4956
 7454SOL     OW23260   5.637   3.399   4.336  0.2181 -0.4098 -0.1160
 7454SOL    HW123261   5.722   3.355   4.307  0.4718 -0.3000  0.4423
 7454SOL    HW223262   5.560   3.337   4.320  0.3327 -0.3162 -1.0930
 7455SOL     OW23263   3.056   4.520   6.238 -0.2562 -0.2472  0.1536
 7455SOL    HW123264   2.998   4.586   6.191  0.7734  1.0951  0.7095
 7455SOL    HW223265   3.139   4.565   6.270  1.7827 -2.3551 -1.7480
 7456SOL     OW23266   6.137   1.812   3.876  0.1225 -0.0299 -0.2478
 7456SOL    HW123267   6.109   1.767   3.791  2.2257  0.2837 -1.1865
 7456SOL    HW223268   6.174   1.743   3.939 -0.5503 -0.1380  0.0346
 7457SOL     OW23269   3.010   3.141   4.961 -0.5138 -0.4579  0.4121
 7457SOL    HW123270   2.929   3.141   4.902 -0.2177 -0.2701  0.0027
 7457SOL    HW223271   2.983   3.117   5.054 -1.1450  0.2497  0.4234
 7458SOL     OW23272   5.917   1.296   2.874  0.2823  0.1051 -0.3573
 7458SOL    HW123273   5.884   1.388   2.893  1.7750  0.5743  0.1057
 7458SOL    HW223274   5.898   1.237   2.953  0.8571  0.4743  0.0710
 7459SOL     OW23275   4.171   0.444   0.972  0.3317 -0.0107 -0.6499
 7459SOL    HW123276   4.150   0.352   0.939 -0.9945  0.7245 -1.9707
 7459SOL    HW223277   4.267   0.465   0.952  0.4307 -0.8211 -1.0435
 7460SOL     OW23278   2.102   6.737   3.088 -0.1802 -0.3994  0.3356
 7460SOL    HW123279   2.076   6.658   3.143  1.2064 -0.6959  0.6144
 7460SOL    HW223280   2.132   6.706   2.997 -1.3913 -0.0132 -0.2150
 7461SOL     OW23281   4.388   0.286   5.791  0.2249  0.0466  0.0945
 7461SOL    HW123282   4.384   0.275   5.692  1.3998  0.3280  0.0027
 7461SOL    HW223283   4.299   0.319   5.825 -0.3579 -0.5950 -0.7816
 7462SOL     OW23284   5.247   5.904   6.556 -0.3119  0.3898  0.1365
 7462SOL    HW123285   5.329   5.937   6.601 -0.8069  0.4413  1.0161
 7462SOL    HW223286   5.269   5.877   6.462  0.7337  0.2506  0.4119
 7463SOL     OW23287   4.673   2.059   5.654 -0.0792  0.3878 -0.1461
 7463SOL    HW123288   4.589   2.100   5.690 -0.0319  0.5515 -0.2220
 7463SOL    HW223289   4.688   1.970   5.698 -1.8107 -0.9871 -2.1502
 7464SOL     OW23290   5.140   4.586   4.663  0.0263 -0.0955  0.2939
 7464SOL    HW123291   5.160   4.551   4.754  0.6050 -1.7344 -0.4331
 7464SOL    HW223292   5.043   4.571   4.642 -0.6873  2.3668  1.4753
 7465SOL     OW23293   2.498   2.625   1.733 -0.5546 -0.2609 -0.0219
 7465SOL    HW123294   2.526   2.550   1.792 -0.9218  0.4680  1.1069
 7465SOL    HW223295   2.571   2.694   1.730 -1.3893  0.7556  1.4213
 7466SOL     OW23296   6.392   6.566   4.179  0.1740 -0.0498 -0.0584
 7466SOL    HW123297   6.309   6.614   4.150  0.8450  1.4834  0.4876
 7466SOL    HW223298   6.407   6.488   4.118 -2.2086 -1.0043  0.4336
 7467SOL     OW23299   0.933   5.194   5.176 -1.1079 -0.1714  0.7868
 7467SOL    HW123300   0.873   5.114   5.170 -0.5996 -0.4847 -0.4166
 7467SOL    HW223301   0.878   5.276   5.190 -1.6602 -0.6802  1.7296
 7468SOL     OW23302   1.116   3.196   0.084 -0.1799 -0.3316  0.0041
 7468SOL    HW123303   1.097   3.104   0.050  0.4983  0.4511 -2.8136
 7468SOL    HW223304   1.213   3.218   0.070 -0.5100  1.0995 -0.2233
 7469SOL     OW23305   0.024   6.484   4.564 -0.7717  0.4984  0.0691
 7469SOL    HW123306  -0.036   6.456   4.639 -0.3482 -0.9449 -0.1034
 7469SOL    HW223307  -0.032   6.517   4.488 -1.4511 -1.5753 -0.3930
 7470SOL     OW23308   6.529   4.708   0.951  0.0603 -0.2041 -0.3611
 7470SOL    HW123309   6.567   4.799   0.941 -0.0678 -0.2112 -0.9123
 7470SOL    HW223310   6.447   4.712   1.008  0.3942 -0.0675  0.1162
 7471SOL     OW23311   6.067   1.495   0.763  0.0561 -0.2077  0.2333
 7471SOL    HW123312   6.078   1.471   0.860 -1.2103 -1.0389  0.1811
 7471SOL    HW223313   6.128   1.572   0.742 -1.4295  1.6701  2.3145
 7472SOL     OW23314   6.628   2.338   5.110 -0.3053  0.7693 -0.0862
 7472SOL    HW123315   6.629   2.376   5.018 -2.0370 -0.2342 -0.5779
 7472SOL    HW223316   6.687   2.257   5.114 -1.8461 -0.4647 -0.9742
 7473SOL     OW23317   5.782   0.637   4.397 -0.9088  0.8022  0.4858
 7473SOL    HW123318   5.698   0.585   4.381 -1.9051  2.2259  0.8828
 7473SOL    HW223319   5.761   0.735   4.398  1.1742  1.4021 -2.0686
 7474SOL     OW23320   3.113   3.389   4.771 -0.5581 -0.6118 -0.0084
 7474SOL    HW123321   3.052   3.460   4.736 -2.0585 -1.6991  0.3025
 7474SOL    HW223322   3.076   3.299   4.749  0.1721 -1.3123  1.4740
 7475SOL     OW23323   1.349   2.679   0.721  0.3056 -0.3345 -0.1000
 7475SOL    HW123324   1.295   2.676   0.805 -0.0117 -2.7975 -0.2973
 7475SOL    HW223325   1.377   2.586   0.696  0.5113  0.3154 -2.6561
 7476SOL     OW23326   2.000   0.537   5.239 -0.1131 -0.4142 -0.0393
 7476SOL    HW123327   1.931   0.597   5.200 -0.3186  0.6711  1.8586
 7476SOL    HW223328   2.091   0.565   5.208 -0.3187 -0.0156 -0.2742
 7477SOL     OW23329   1.867   3.711   2.937 -0.1351  0.2803 -0.0337
 7477SOL    HW123330   1.966   3.701   2.950  0.1651  1.1632 -1.4500
 7477SOL    HW223331   1.841   3.806   2.953 -0.6640  0.1688 -0.2206
 7478SOL     OW23332   5.119   3.843   4.330 -0.1456 -0.2322  0.2583
 7478SOL    HW123333   5.064   3.909   4.382  1.7967  1.0972  0.7493
 7478SOL    HW223334   5.140   3.764   4.388  0.4231  0.3642  0.8799
 7479SOL     OW23335   1.479   1.311   3.358  0.5032 -0.6078 -0.4516
 7479SOL    HW123336   1.391   1.292   3.314 -0.6138  1.7088  0.6235
 7479SOL    HW223337   1.519   1.393   3.317  0.8426 -0.0843  0.8991
 7480SOL     OW23338   3.954   4.711   0.005  0.0829 -0.4594  1.0563
 7480SOL    HW123339   4.024   4.775  -0.029 -0.9654  1.1269  1.7428
 7480SOL    HW223340   3.957   4.709   0.105 -2.2737  1.4331  1.2546
 7481SOL     OW23341   0.028   4.707   4.487  0.1249 -0.6252  0.3551
 7481SOL    HW123342   0.104   4.764   4.514 -1.1538  0.8479  0.9863
 7481SOL    HW223343   0.014   4.713   4.388  0.1500 -0.0186  0.3878
 7482SOL     OW23344   2.810   0.702   2.899 -0.0357 -0.7359  0.0884
 7482SOL    HW123345   2.813   0.681   2.997  3.2006 -0.2663  0.1784
 7482SOL    HW223346   2.754   0.783   2.884  1.0490  0.3946  1.8414
 7483SOL     OW23347   3.051   2.493   5.355  0.1340 -0.0914  0.5281
 7483SOL    HW123348   3.084   2.433   5.282 -0.7549 -0.6462  0.5646
 7483SOL    HW223349   2.977   2.551   5.321 -0.5506 -0.6236  1.0607
 7484SOL     OW23350   4.324   5.642   3.151  0.4621  0.0581  0.2949
 7484SOL    HW123351   4.329   5.620   3.053  4.0287 -0.1437  0.3777
 7484SOL    HW223352   4.289   5.563   3.201  1.7455 -1.1072 -0.5569
 7485SOL     OW23353   2.509   1.497   0.723  0.2579  0.3042  0.0426
 7485SOL    HW123354   2.569   1.424   0.691 -0.8244 -0.9984  0.8767
 7485SOL    HW223355   2.421   1.490   0.676  0.1965  1.2045  0.0066
 7486SOL     OW23356   3.192   0.172   6.042 -0.0254  0.0153  0.2974
 7486SOL    HW123357   3.167   0.086   5.998  1.3730 -0.3648  0.1848
 7486SOL    HW223358   3.110   0.220   6.072 -0.8433 -1.1866  0.0359
 7487SOL     OW23359   4.750   4.249   0.071  0.1206  0.2980  0.1172
 7487SOL    HW123360   4.684   4.176   0.055 -0.1789  0.3260  1.1470
 7487SOL    HW223361   4.765   4.299  -0.013 -2.5342  1.4288  0.2159
 7488SOL     OW23362   4.016   5.102   0.197  0.2474  0.1973  0.1030
 7488SOL    HW123363   4.099   5.133   0.151  1.1504 -0.5557  1.1672
 7488SOL    HW223364   3.953   5.063   0.130  1.2650 -0.3152 -0.5810
 7489SOL     OW23365   1.079   1.199   5.884 -0.4501  0.2090  0.6180
 7489SOL    HW123366   1.078   1.105   5.851 -0.0801 -0.4549  2.3860
 7489SOL    HW223367   0.990   1.242   5.866 -0.8801 -0.7265  0.4581
 7490SOL     OW23368   1.592   5.034   4.164 -0.0825  0.0646  0.3176
 7490SOL    HW123369   1.669   5.096   4.149 -0.9739  1.0533 -0.3884
 7490SOL    HW223370   1.592   4.963   4.093  1.1498 -0.9903  1.3428
 7491SOL     OW23371   1.534   4.646   1.182 -0.1481  0.0640 -0.0015
 7491SOL    HW123372   1.578   4.621   1.268 -1.1125 -1.1746  0.1561
 7491SOL    HW223373   1.435   4.653   1.196 -0.3908 -0.8060 -1.1477
 7492SOL     OW23374   1.265   5.431   5.214  0.2114  0.0639  0.3067
 7492SOL    HW123375   1.323   5.353   5.235  2.7741  1.7109 -0.1559
 7492SOL    HW223376   1.318   5.515   5.224 -3.1596  2.0863  3.5991
 7493SOL     OW23377   4.672   5.050   3.575 -0.1714  0.1424  0.1452
 7493SOL    HW123378   4.610   5.012   3.643 -1.2040 -0.1486 -0.9181
 7493SOL    HW223379   4.695   5.145   3.599 -0.7196  0.1231  0.7606
 7494SOL     OW23380   5.230   0.417   0.156  0.3004 -0.3579  0.1096
 7494SOL    HW123381   5.225   0.516   0.142 -1.3046 -0.4741 -0.2975
 7494SOL    HW223382   5.214   0.395   0.252 -0.7254 -0.2970 -0.0410
 7495SOL     OW23383   2.543   6.343   0.000  0.3171  0.0663 -0.0166
 7495SOL    HW123384   2.449   6.316   0.024  0.1001  0.5208 -0.3521
 7495SOL    HW223385   2.582   6.395   0.076 -0.1089  0.8611 -0.3296
 7496SOL     OW23386   5.387   6.309   0.363 -0.0790 -0.5263 -0.1515
 7496SOL    HW123387   5.365   6.373   0.289  1.1211  0.0180 -0.0683
 7496SOL    HW223388   5.341   6.338   0.446  1.1804  0.8307  0.1251
 7497SOL     OW23389   6.544   4.800   6.350  0.0002 -0.2675 -0.1996
 7497SOL    HW123390   6.484   4.770   6.425  0.1016 -1.3901 -0.5464
 7497SOL    HW223391   6.625   4.845   6.388 -0.6947  0.5964  0.2965
 7498SOL     OW23392   2.927   0.497   6.320 -0.2045  0.3226 -0.1587
 7498SOL    HW123393   3.001   0.516   6.255  0.7016 -0.2425  0.6622
 7498SOL    HW223394   2.941   0.407   6.360 -1.0037  0.4700  0.4770
 7499SOL     OW23395   0.261   5.371   3.409 -0.3609 -0.3576 -0.6218
 7499SOL    HW123396   0.275   5.272   3.421 -2.2707 -0.5887  0.0401
 7499SOL    HW223397   0.163   5.391   3.409  0.0017  1.6186 -0.2434
 7500SOL     OW23398   4.607   1.827   0.484 -0.1023 -0.7791 -0.4778
 7500SOL    HW123399   4.567   1.767   0.554 -1.6448  2.2877  1.5410
 7500SOL    HW223400   4.699   1.797   0.463  0.3341 -2.1023  2.6907
 7501SOL     OW23401   4.401   2.941   0.084 -0.4943  0.4565  0.6395
 7501SOL    HW123402   4.400   2.901   0.176 -0.5526 -0.9807  0.0294
 7501SOL    HW223403   4.335   2.894   0.026  1.5869 -0.6399 -0.9627
 7502SOL     OW23404   3.932   0.637   0.344 -0.0206  0.4742 -0.2384
 7502SOL    HW123405   3.983   0.696   0.407  1.2049 -0.1234 -0.6304
 7502SOL    HW223406   3.980   0.634   0.256  1.1804 -2.7385  0.4043
 7503SOL     OW23407   4.209   1.754   0.433 -0.0298 -0.1917  0.4304
 7503SOL    HW123408   4.245   1.665   0.461 -1.5085 -0.9543  0.0353
 7503SOL    HW223409   4.111   1.745   0.414 -0.4496  1.7714  1.4631
 7504SOL     OW23410   0.286   3.430   4.079  0.0732 -0.3115 -0.1259
 7504SOL    HW123411   0.222   3.353   4.071  0.0111 -0.1772 -1.0931
 7504SOL    HW223412   0.360   3.419   4.013 -0.4353  0.9125 -0.9376
 7505SOL     OW23413   3.921   1.194   1.086  0.2202 -0.2273  0.1659
 7505SOL    HW123414   3.846   1.231   1.141 -0.1278  0.5885 -0.8347
 7505SOL    HW223415   3.939   1.255   1.008  2.0608 -0.3012  0.4923
 7506SOL     OW23416   6.524   5.469   5.993 -0.1220  0.0267  0.0304
 7506SOL    HW123417   6.564   5.550   5.951 -1.3394  0.7287  0.1865
 7506SOL    HW223418   6.463   5.496   6.067  0.9265 -1.1304  1.3684
 7507SOL     OW23419   1.401   4.180   2.521 -0.5826  0.4542 -0.0953
 7507SOL    HW123420   1.335   4.117   2.479  0.2069 -0.0978 -0.5247
 7507SOL    HW223421   1.401   4.166   2.621 -1.3612  0.7003 -0.0573
 7508SOL     OW23422   5.337   6.933   6.695 -0.0174 -0.1419  0.4114
 7508SOL    HW123423   5.411   7.000   6.701 -0.2279  0.4675 -2.4291
 7508SOL    HW223424   5.269   6.964   6.628  0.5030 -3.6999 -2.0384
 7509SOL     OW23425   3.563   1.037   3.529 -0.7079  0.2516 -0.1219
 7509SOL    HW123426   3.620   1.116   3.553 -0.2542  0.2706 -1.2002
 7509SOL    HW223427   3.470   1.067   3.511 -0.3815  0.6512 -1.1992
 7510SOL     OW23428   3.166   3.525   5.002 -0.8003 -0.1789 -0.2961
 7510SOL    HW123429   3.114   3.490   5.080  0.2194 -0.4889  0.2640
 7510SOL    HW223430   3.124   3.492   4.917 -1.0739 -1.0586  0.1632
 7511SOL     OW23431   0.739   6.690   5.882  0.2202  0.1028  0.1457
 7511SOL    HW123432   0.660   6.741   5.915  0.1281 -0.9214  1.6364
 7511SOL    HW223433   0.709   6.599   5.853  0.7469 -0.0221 -0.0047
 7512SOL     OW23434   4.327   6.784   6.119  0.4108 -0.2126 -0.2168
 7512SOL    HW123435   4.270   6.864   6.137 -0.2702 -0.4246 -1.3101
 7512SOL    HW223436   4.418   6.799   6.157  0.7441  1.6813 -1.6102
 7513SOL     OW23437   5.941   4.675   5.569  0.5726  0.3677 -0.2734
 7513SOL    HW123438   5.868   4.650   5.633  1.2622 -1.6340 -0.2121
 7513SOL    HW223439   5.900   4.716   5.487 -0.5984 -0.4205 -0.1060
 7514SOL     OW23440   1.578   2.371   4.216  0.4314  0.1821 -0.3987
 7514SOL    HW123441   1.529   2.335   4.136  1.0032 -0.2813 -0.5519
 7514SOL    HW223442   1.593   2.296   4.282 -1.4373  0.8757  0.8899
 7515SOL     OW23443   1.397   6.943   2.600  0.2471 -0.5892  0.6617
 7515SOL    HW123444   1.351   7.030   2.620  0.4077 -0.0761 -1.0374
 7515SOL    HW223445   1.362   6.906   2.514  0.2276 -2.1958  1.3441
 7516SOL     OW23446   2.395   5.668   4.711 -0.6100  0.0555 -0.3635
 7516SOL    HW123447   2.409   5.672   4.612  1.5297 -0.4691 -0.1244
 7516SOL    HW223448   2.367   5.576   4.737 -0.6069  0.0396 -0.4158
 7517SOL     OW23449   5.916   6.219   2.516 -0.0679 -0.4369 -0.0625
 7517SOL    HW123450   5.925   6.307   2.562  0.5626 -0.4535 -0.1394
 7517SOL    HW223451   5.850   6.162   2.565  0.8023 -0.5658  1.0013
 7518SOL     OW23452   6.678   1.030   6.662  0.4025  0.4455 -0.1444
 7518SOL    HW123453   6.739   0.951   6.674 -0.3132 -0.3903 -1.6242
 7518SOL    HW223454   6.627   1.045   6.746  2.5509  1.1367  1.1208
 7519SOL     OW23455   0.776   6.789   4.887 -0.0819 -0.0161 -0.0589
 7519SOL    HW123456   0.873   6.793   4.908 -0.2688 -0.7982  1.0461
 7519SOL    HW223457   0.723   6.792   4.972 -0.9917 -0.6134 -0.5831
 7520SOL     OW23458   4.839   3.807   3.073 -0.4198  0.4857 -0.4235
 7520SOL    HW123459   4.859   3.719   3.116  0.3850  0.4030 -0.9486
 7520SOL    HW223460   4.789   3.792   2.988 -0.5131  0.5553 -0.3817
 7521SOL     OW23461   4.980   2.214   5.235 -0.3042 -0.3671  0.0022
 7521SOL    HW123462   4.945   2.284   5.297 -0.6325 -0.6163  0.1005
 7521SOL    HW223463   4.998   2.254   5.146  1.0556  0.2079  0.5105
 7522SOL     OW23464   0.620   3.752   4.803  0.1260  0.1594 -0.0068
 7522SOL    HW123465   0.522   3.770   4.813 -0.2862 -1.5232 -0.6559
 7522SOL    HW223466   0.669   3.790   4.881 -0.8827  1.9685 -0.1918
 7523SOL     OW23467   5.343   5.042   3.776 -0.1699 -0.0288  0.4542
 7523SOL    HW123468   5.423   5.097   3.749  0.2579  0.0125  1.7221
 7523SOL    HW223469   5.329   4.969   3.710 -0.0090  0.8776 -0.6083
 7524SOL     OW23470   6.835   1.269   2.247 -0.5593  0.4360  0.3206
 7524SOL    HW123471   6.786   1.310   2.171 -1.4504 -0.9242  0.1128
 7524SOL    HW223472   6.800   1.305   2.333 -0.8223  0.6445  0.1270
 7525SOL     OW23473   4.885   6.624   3.839  0.5616  0.4112 -0.1036
 7525SOL    HW123474   4.866   6.601   3.743 -2.3583  0.2902  0.4178
 7525SOL    HW223475   4.906   6.722   3.846  1.1985  0.3411 -0.9065
 7526SOL     OW23476   0.391   6.154   2.329 -0.8435 -0.2218  0.0201
 7526SOL    HW123477   0.331   6.086   2.287 -0.6456 -0.3644 -0.0303
 7526SOL    HW223478   0.468   6.172   2.269  0.4560 -1.8114  1.1106
 7527SOL     OW23479   3.085   3.047   3.292  0.0994  0.4472 -0.4847
 7527SOL    HW123480   3.098   3.091   3.203 -0.3205 -0.1109 -0.8368
 7527SOL    HW223481   3.157   2.979   3.307  0.6135  1.0809 -0.0468
 7528SOL     OW23482   6.670   1.770   2.207 -0.2410  0.5736 -0.6128
 7528SOL    HW123483   6.690   1.827   2.128  2.8271 -1.2148 -1.3134
 7528SOL    HW223484   6.611   1.694   2.179  0.3363  0.2846 -1.0683
 7529SOL     OW23485   0.546   3.399   0.719 -0.0330 -0.3610 -0.6848
 7529SOL    HW123486   0.643   3.418   0.738 -0.6773  2.7504  0.0891
 7529SOL    HW223487   0.505   3.479   0.675 -2.7546 -0.7299  0.9569
 7530SOL     OW23488   6.982   6.841   5.290 -0.0097 -0.1665  0.2849
 7530SOL    HW123489   6.978   6.809   5.384 -0.5762  0.3123  0.4286
 7530SOL    HW223490   6.965   6.940   5.287  0.0360 -0.1718 -0.3128
 7531SOL     OW23491   6.120   6.702   2.217 -0.0101 -0.1761 -0.2964
 7531SOL    HW123492   6.207   6.693   2.169  0.7474 -0.2260  1.0181
 7531SOL    HW223493   6.119   6.789   2.267 -0.3662 -0.5460  0.3458
 7532SOL     OW23494   6.662   3.475   4.683 -0.1988 -0.1480  0.6330
 7532SOL    HW123495   6.664   3.548   4.614  0.2137 -1.0335 -0.3273
 7532SOL    HW223496   6.640   3.388   4.638 -2.5458 -0.3513  2.0305
 7533SOL     OW23497   1.353   4.712   4.400 -0.3526 -0.0591  0.5077
 7533SOL    HW123498   1.438   4.763   4.412 -0.7338  0.5874  0.5221
 7533SOL    HW223499   1.332   4.662   4.483 -0.9183  1.2235  1.1590
 7534SOL     OW23500   4.529   5.478   1.942  0.1697  0.6392 -0.2582
 7534SOL    HW123501   4.506   5.571   1.971 -1.3351  0.4512 -0.7369
 7534SOL    HW223502   4.484   5.412   2.003  2.2122  0.1897  0.8282
 7535SOL     OW23503   0.138   2.629   5.627 -0.7669  0.0662 -0.3945
 7535SOL    HW123504   0.159   2.574   5.546 -3.4159 -0.0810 -1.0749
 7535SOL    HW223505   0.134   2.725   5.601 -2.4703 -0.0503 -0.7231
 7536SOL     OW23506   3.412   1.603   0.425  0.3033  0.0453 -0.5594
 7536SOL    HW123507   3.398   1.700   0.410 -0.3639 -0.2727 -2.2256
 7536SOL    HW223508   3.510   1.581   0.416  0.6971  0.7744  1.4554
 7537SOL     OW23509   5.843   6.133   0.812 -0.0931 -0.4615 -0.1580
 7537SOL    HW123510   5.862   6.062   0.745  2.2623  0.3606 -0.4288
 7537SOL    HW223511   5.768   6.103   0.872 -0.1009 -2.5425 -1.1249
 7538SOL     OW23512   3.217   4.139   5.045  0.9585 -0.3186  0.2333
 7538SOL    HW123513   3.139   4.099   4.997  1.2250 -0.1995 -0.3063
 7538SOL    HW223514   3.299   4.131   4.988  1.3434 -0.4495  0.7983
 7539SOL     OW23515   5.940   0.537   6.142 -0.0210 -0.0538  0.2104
 7539SOL    HW123516   6.016   0.478   6.167  0.0243  0.1037  0.4465
 7539SOL    HW223517   5.903   0.509   6.053  1.9157  1.3945 -1.1444
 7540SOL     OW23518   1.661   5.744   5.667 -0.0361 -0.7618 -0.2831
 7540SOL    HW123519   1.570   5.787   5.673  0.6942  0.7857  0.5700
 7540SOL    HW223520   1.705   5.772   5.582 -0.7417 -2.3799 -1.2118
 7541SOL     OW23521   6.173   3.860   1.044  0.3860 -0.5664 -0.2311
 7541SOL    HW123522   6.109   3.908   1.104  1.8743  0.8504  0.2841
 7541SOL    HW223523   6.226   3.793   1.097  0.6979 -0.3439 -0.2624
 7542SOL     OW23524   0.136   1.757   6.386 -0.9715 -0.6344 -0.6852
 7542SOL    HW123525   0.193   1.719   6.313 -0.1437 -3.2677  1.1553
 7542SOL    HW223526   0.048   1.710   6.388  0.0791 -2.7791  1.6518
 7543SOL     OW23527   5.361   1.512   5.599 -0.0027  0.1370  0.1887
 7543SOL    HW123528   5.418   1.591   5.621 -0.2737  0.5784 -0.6629
 7543SOL    HW223529   5.415   1.428   5.610  0.7142  0.5291 -0.2765
 7544SOL     OW23530   2.783   4.410   0.911  0.1905 -0.4247 -0.0907
 7544SOL    HW123531   2.741   4.323   0.885 -1.1730 -0.0524  0.7522
 7544SOL    HW223532   2.714   4.483   0.904  0.7454  0.2442  1.1779
 7545SOL     OW23533   4.296   2.659   5.771  0.8266  0.1325 -0.1369
 7545SOL    HW123534   4.231   2.687   5.700  0.0340 -0.3564  0.3797
 7545SOL    HW223535   4.311   2.733   5.835  1.0215  0.3459 -0.4233
 7546SOL     OW23536   2.839   2.287   0.729  0.1020 -0.5751 -0.3296
 7546SOL    HW123537   2.932   2.306   0.759 -0.7396  0.1388  2.0578
 7546SOL    HW223538   2.807   2.361   0.670  0.7023 -0.3305 -0.3499
 7547SOL     OW23539   2.619   1.325   3.635  0.4114  0.0035 -0.3057
 7547SOL    HW123540   2.710   1.314   3.676 -0.2471  0.7609  1.4688
 7547SOL    HW223541   2.624   1.392   3.561  1.3365 -0.1601 -0.4061
 7548SOL     OW23542   5.864   3.368   5.031  0.2574  0.1064 -0.2725
 7548SOL    HW123543   5.809   3.324   5.103 -0.3481  1.2145 -0.0396
 7548SOL    HW223544   5.853   3.318   4.945 -1.3876  0.4946 -0.3080
 7549SOL     OW23545   3.715   3.333   2.965 -0.1497  0.0777  0.1088
 7549SOL    HW123546   3.764   3.419   2.954  0.3862 -0.2460 -0.0945
 7549SOL    HW223547   3.780   3.259   2.979 -0.5964 -0.3218  0.1232
 7550SOL     OW23548   3.551   1.544   2.029  0.0147  0.0779  0.1491
 7550SOL    HW123549   3.640   1.501   2.043  0.5223  0.5833 -1.3142
 7550SOL    HW223550   3.490   1.480   1.981  0.1242  0.2704 -0.2572
 7551SOL     OW23551   5.757   1.224   6.548  0.3127  0.7305 -1.1511
 7551SOL    HW123552   5.802   1.138   6.523 -1.0133 -0.4782  0.4045
 7551SOL    HW223553   5.757   1.234   6.647 -0.2119  2.1863 -1.2749
 7552SOL     OW23554   4.678   5.653   4.056  0.0802  0.8385  0.1913
 7552SOL    HW123555   4.728   5.737   4.078  2.8545 -0.5966 -0.3030
 7552SOL    HW223556   4.645   5.658   3.962  0.5108  1.2362  0.0542
 7553SOL     OW23557   0.815   0.388   6.953  0.2724  0.5289 -0.0953
 7553SOL    HW123558   0.821   0.344   7.042 -0.1916 -0.3342 -0.4791
 7553SOL    HW223559   0.907   0.413   6.921  0.7892 -1.8792 -0.6949
 7554SOL     OW23560   1.687   5.538   1.311  0.3665  0.3985  0.3735
 7554SOL    HW123561   1.679   5.513   1.214  1.8632 -0.5215  0.4416
 7554SOL    HW223562   1.720   5.458   1.362 -0.6185  0.8102  1.6893
 7555SOL     OW23563   2.881   1.254   3.681  0.2401 -0.2406 -0.1823
 7555SOL    HW123564   2.917   1.344   3.706  3.0428 -1.8608  2.2258
 7555SOL    HW223565   2.893   1.191   3.758 -2.1817 -2.5929 -1.5617
 7556SOL     OW23566   0.607   1.101   6.810  0.1259  0.5035  0.2313
 7556SOL    HW123567   0.636   1.137   6.721  1.0935  0.1335  0.3869
 7556SOL    HW223568   0.589   1.003   6.802 -0.5072  0.6125  0.2794
 7557SOL     OW23569   6.663   6.416   6.989 -0.3371 -0.0592 -0.0702
 7557SOL    HW123570   6.692   6.499   7.037  0.6299 -1.0220  1.0453
 7557SOL    HW223571   6.660   6.435   6.890  3.3054  0.4074 -0.2365
 7558SOL     OW23572   2.771   0.078   4.816  0.3052 -0.1508 -0.0060
 7558SOL    HW123573   2.855   0.058   4.767  1.2863  2.0553  0.6358
 7558SOL    HW223574   2.787   0.071   4.914 -0.0933  0.7800  0.1358
 7559SOL     OW23575   1.093   6.726   3.894  0.2524 -0.0185  0.3882
 7559SOL    HW123576   1.125   6.648   3.948 -0.2841 -0.7776 -0.3677
 7559SOL    HW223577   1.159   6.744   3.820 -0.5536 -0.9965 -0.6065
 7560SOL     OW23578   1.633   6.784   0.974  0.3354 -0.1996 -0.4701
 7560SOL    HW123579   1.647   6.685   0.968 -1.2770 -0.5349  0.6382
 7560SOL    HW223580   1.720   6.831   0.959  1.4510 -1.8455  0.4879
 7561SOL     OW23581   4.790   6.949   5.281  0.0691  0.3368 -0.6151
 7561SOL    HW123582   4.807   7.026   5.221 -1.3414  0.2988 -1.1076
 7561SOL    HW223583   4.868   6.935   5.342  0.6076  1.7245 -0.9713
 7562SOL     OW23584   1.309   1.181   0.757  0.4486  0.3330 -0.0386
 7562SOL    HW123585   1.310   1.244   0.679  1.9598 -0.5360 -0.7913
 7562SOL    HW223586   1.219   1.182   0.800 -0.4509  0.8337 -1.8117
 7563SOL     OW23587   6.471   2.377   4.560 -0.2234 -0.0667 -0.3186
 7563SOL    HW123588   6.471   2.372   4.460  0.8550 -2.0680 -0.2641
 7563SOL    HW223589   6.504   2.467   4.588  0.2581  0.2473 -1.7658
 7564SOL     OW23590   4.115   1.008   3.077 -0.2391  0.0765 -0.0129
 7564SOL    HW123591   4.156   1.098   3.066  0.4411 -0.4319 -2.1987
 7564SOL    HW223592   4.061   0.986   2.995 -0.3305 -1.5257  0.4469
 7565SOL     OW23593   4.413   0.444   3.457  0.6411 -0.6993  0.3952
 7565SOL    HW123594   4.438   0.375   3.389 -0.9959 -0.2022 -0.7547
 7565SOL    HW223595   4.428   0.535   3.420 -1.4694 -0.3975  0.1426
 7566SOL     OW23596   1.326   1.060   0.424 -0.1237 -0.1998  0.5882
 7566SOL    HW123597   1.330   0.992   0.497 -0.0166 -2.3672 -1.2973
 7566SOL    HW223598   1.398   1.041   0.357  0.1093  2.0179  0.1194
 7567SOL     OW23599   6.910   2.672   6.475 -0.1692 -0.1841 -0.4472
 7567SOL    HW123600   6.896   2.610   6.398 -0.0407 -1.4101  0.4869
 7567SOL    HW223601   6.905   2.621   6.561  1.4401  0.8104  0.3034
 7568SOL     OW23602   3.376   6.875   5.461 -0.4137 -0.4016  0.4488
 7568SOL    HW123603   3.410   6.961   5.500 -0.0556 -0.5775  0.5351
 7568SOL    HW223604   3.380   6.804   5.531  0.8737 -0.8872 -0.0737
 7569SOL     OW23605   6.175   4.503   1.195  0.0329  0.2506  0.4128
 7569SOL    HW123606   6.124   4.552   1.265  0.7394  1.2915  0.2315
 7569SOL    HW223607   6.117   4.487   1.116  0.1456  2.0354 -0.0681
 7570SOL     OW23608   2.684   6.462   0.189 -0.1175  0.5971 -0.5507
 7570SOL    HW123609   2.666   6.490   0.284  0.7001  3.3485 -1.0956
 7570SOL    HW223610   2.777   6.425   0.183  0.3340  1.6546 -0.4410
 7571SOL     OW23611   0.656   1.673   0.614 -0.3565  0.5575  0.3742
 7571SOL    HW123612   0.701   1.751   0.570  0.2165  0.6358  1.0764
 7571SOL    HW223613   0.725   1.616   0.660 -0.8694  0.1489  0.6485
 7572SOL     OW23614   6.788   3.601   3.700 -0.0747 -0.2340  0.1874
 7572SOL    HW123615   6.794   3.503   3.685 -1.9970 -0.0562 -2.4917
 7572SOL    HW223616   6.750   3.619   3.790  0.0153 -1.9452  0.5979
 7573SOL     OW23617   0.111   4.566   2.840 -0.1742  0.1064 -0.2947
 7573SOL    HW123618   0.091   4.509   2.919  3.8304  0.7307  1.4199
 7573SOL    HW223619   0.107   4.511   2.757 -1.4938 -1.3234  0.6662
 7574SOL     OW23620   1.429   3.788   1.934 -0.2292  0.1764  0.1742
 7574SOL    HW123621   1.484   3.706   1.917 -1.2579 -0.7332  1.0518
 7574SOL    HW223622   1.418   3.801   2.033 -0.1397  1.3579  0.0475
 7575SOL     OW23623   2.185   4.353   2.875 -0.7311  0.0026  0.1581
 7575SOL    HW123624   2.127   4.338   2.794  0.4041 -0.2071 -0.6429
 7575SOL    HW223625   2.178   4.448   2.904 -2.1094 -0.2087  0.5931
 7576SOL     OW23626   5.267   3.360   5.906  0.0865 -0.0809  0.2457
 7576SOL    HW123627   5.347   3.314   5.944 -0.0897 -0.9180 -0.3659
 7576SOL    HW223628   5.208   3.293   5.859 -0.7331  0.5916  0.2780
 7577SOL     OW23629   5.289   4.091   5.013 -0.3022  0.6553 -0.1040
 7577SOL    HW123630   5.301   4.176   5.063 -1.1301  0.3240  0.6941
 7577SOL    HW223631   5.229   4.107   4.934 -0.2806  0.8520 -0.0810
 7578SOL     OW23632   0.402   5.100   1.603  0.3994  0.7647 -0.0784
 7578SOL    HW123633   0.420   5.048   1.687  1.5128  0.3083 -0.5804
 7578SOL    HW223634   0.420   5.197   1.620  2.1491  0.5015 -0.1639
 7579SOL     OW23635   6.066   6.049   2.367 -0.2133 -0.7407  0.0572
 7579SOL    HW123636   6.013   6.023   2.287  0.1910 -0.6051 -0.2595
 7579SOL    HW223637   6.011   6.109   2.426 -0.1047  0.1534 -0.7237
 7580SOL     OW23638   3.922   5.774   1.417  0.1437  0.1623  0.0699
 7580SOL    HW123639   3.924   5.817   1.507 -2.2208  0.4968  0.0291
 7580SOL    HW223640   3.850   5.815   1.362  0.8652 -0.7434 -1.6409
 7581SOL     OW23641   1.063   5.741   1.692  0.5729  0.3286  0.0322
 7581SOL    HW123642   1.130   5.702   1.756  0.2272  0.6249  0.5875
 7581SOL    HW223643   1.003   5.804   1.741 -1.9023 -1.9543  0.2134
 7582SOL     OW23644   0.751   0.090   5.110 -0.4174  0.0956 -0.2181
 7582SOL    HW123645   0.667   0.066   5.160 -0.2093  0.8039  0.4757
 7582SOL    HW223646   0.746   0.050   5.018 -1.1014 -0.6578  0.1235
 7583SOL     OW23647   6.715   4.495   5.830 -0.4283 -0.0560 -0.0470
 7583SOL    HW123648   6.815   4.499   5.833 -0.3201 -1.9522  0.8232
 7583SOL    HW223649   6.687   4.445   5.748 -0.6624  0.4849 -0.2945
 7584SOL     OW23650   0.736   4.212   1.403  0.9576 -0.1265 -0.1232
 7584SOL    HW123651   0.724   4.172   1.494  1.2074 -0.8679 -0.4101
 7584SOL    HW223652   0.688   4.299   1.399  1.0253 -0.0355  0.7515
 7585SOL     OW23653   5.870   3.626   1.272  0.4566 -0.4119  0.9547
 7585SOL    HW123654   5.871   3.639   1.173 -0.9894 -0.5098  0.9047
 7585SOL    HW223655   5.868   3.715   1.318  1.8496 -0.3500  0.9376
 7586SOL     OW23656   3.395   1.834   0.281 -0.5062 -0.4343 -0.4444
 7586SOL    HW123657   3.387   1.933   0.291 -0.3838 -0.4972  0.2888
 7586SOL    HW223658   3.480   1.812   0.232  0.4705 -0.2512  1.0934
 7587SOL     OW23659   6.932   1.215   4.819  0.5292  0.0310 -0.6899
 7587SOL    HW123660   7.021   1.230   4.862  0.5971 -2.3232  0.1376
 7587SOL    HW223661   6.923   1.119   4.793 -1.8431  0.1796 -0.6260
 7588SOL     OW23662   4.390   1.280   6.671  0.0314  0.1983  0.8646
 7588SOL    HW123663   4.342   1.366   6.652  0.8429  0.5048  0.1015
 7588SOL    HW223664   4.409   1.233   6.585 -0.3074 -0.7008  1.2724
 7589SOL     OW23665   0.541   0.958   1.952  0.0527 -0.2273 -0.1597
 7589SOL    HW123666   0.564   0.992   1.861 -0.1919 -0.4858 -0.3194
 7589SOL    HW223667   0.481   0.878   1.944 -2.1754  1.2968  0.2440
 7590SOL     OW23668   6.910   5.228   5.245 -0.6393 -0.0478  0.2412
 7590SOL    HW123669   6.838   5.180   5.295 -0.7224 -2.8201 -2.2584
 7590SOL    HW223670   6.878   5.251   5.154  0.7713  1.1419  0.0090
 7591SOL     OW23671   4.291   4.717   4.125 -0.3286  0.0121 -0.2853
 7591SOL    HW123672   4.293   4.678   4.218  1.0092 -2.2904 -1.1989
 7591SOL    HW223673   4.335   4.806   4.126  0.7497 -0.5010  1.1020
 7592SOL     OW23674   3.963   5.021   2.376  0.3878 -0.1305 -0.4433
 7592SOL    HW123675   3.912   4.996   2.459  1.4834 -0.4144  0.1661
 7592SOL    HW223676   3.955   4.949   2.308  1.7214 -1.1810  0.4680
 7593SOL     OW23677   3.513   4.101   4.143  0.4385 -0.1933  0.1486
 7593SOL    HW123678   3.488   4.131   4.051  2.5573 -1.6886 -0.9983
 7593SOL    HW223679   3.471   4.012   4.161  0.6165 -0.2423  0.3236
 7594SOL     OW23680   1.334   6.122   5.593  0.3059  0.0354  0.3856
 7594SOL    HW123681   1.351   6.167   5.680  0.3246  3.2778 -1.1695
 7594SOL    HW223682   1.420   6.112   5.543  0.0701 -0.2423  0.0247
 7595SOL     OW23683   4.495   6.244   0.421  0.0980 -0.1627 -0.8379
 7595SOL    HW123684   4.441   6.238   0.505  1.4536 -0.6878  0.0300
 7595SOL    HW223685   4.561   6.169   0.419  1.0900  0.7031 -1.6421
 7596SOL     OW23686   2.832   2.297   3.978  0.4732  0.1497 -0.4654
 7596SOL    HW123687   2.897   2.293   4.054 -0.4708 -2.7569  0.3364
 7596SOL    HW223688   2.741   2.318   4.012  0.3111  0.4250 -1.0446
 7597SOL     OW23689   2.245   5.737   2.819  0.5856  0.0130 -0.4295
 7597SOL    HW123690   2.298   5.695   2.745  1.3712 -1.1121  0.7236
 7597SOL    HW223691   2.223   5.831   2.794 -1.0944 -0.9588 -3.0377
 7598SOL     OW23692   6.810   6.586   5.754  0.3448  0.7381 -0.2912
 7598SOL    HW123693   6.853   6.653   5.815 -0.2235 -1.3833  2.6314
 7598SOL    HW223694   6.713   6.577   5.777  0.5234 -1.4785 -0.1958
 7599SOL     OW23695   2.548   1.468   4.232 -0.1850 -0.1602  0.1381
 7599SOL    HW123696   2.456   1.436   4.206 -0.2847 -0.0157  0.3094
 7599SOL    HW223697   2.540   1.557   4.276 -0.0087 -0.3595  0.5786
 7600SOL     OW23698   2.236   0.288   6.361 -0.3627  0.4019  0.1463
 7600SOL    HW123699   2.154   0.345   6.356  0.2718  1.4911  1.4532
 7600SOL    HW223700   2.312   0.341   6.398  0.1606 -1.3529  1.8129
 7601SOL     OW23701   1.028   5.337   2.748  0.3881  0.2535  0.0597
 7601SOL    HW123702   0.981   5.413   2.794  0.8093 -0.6423  2.0678
 7601SOL    HW223703   0.960   5.272   2.713  0.0053 -0.7685  2.4840
 7602SOL     OW23704   1.689   2.473   1.604  0.5407 -0.2369  0.2622
 7602SOL    HW123705   1.633   2.479   1.687  1.1673 -0.6717  0.7236
 7602SOL    HW223706   1.771   2.528   1.615  0.0788  0.6656 -0.5429
 7603SOL     OW23707   4.293   0.108   2.455 -0.2187 -0.0918 -0.6027
 7603SOL    HW123708   4.243   0.022   2.446  0.6401 -0.5063 -1.6288
 7603SOL    HW223709   4.317   0.123   2.551 -0.1314 -1.1370 -0.4537
 7604SOL     OW23710   0.753   0.620   5.615 -0.2482 -0.2092  0.0926
 7604SOL    HW123711   0.670   0.587   5.571 -0.7507 -0.9094  1.4874
 7604SOL    HW223712   0.729   0.679   5.692  0.5606 -0.0600  0.2440
 7605SOL     OW23713   6.412   0.704   2.696  0.1383  0.0154  0.4611
 7605SOL    HW123714   6.349   0.629   2.674  0.9893 -0.5620 -0.1074
 7605SOL    HW223715   6.447   0.743   2.611 -0.3156  1.0915  0.7563
 7606SOL     OW23716   4.964   4.322   0.423 -0.5617  0.2196 -0.8071
 7606SOL    HW123717   5.050   4.321   0.473 -0.5129  1.0953 -0.8512
 7606SOL    HW223718   4.925   4.230   0.419 -0.1055 -0.0104  0.0359
 7607SOL     OW23719   5.962   1.942   2.656 -0.1561  0.2991 -0.3238
 7607SOL    HW123720   6.000   1.855   2.622 -0.2074  0.5595 -1.0772
 7607SOL    HW223721   5.936   1.999   2.578  0.9629  1.4732  0.1282
 7608SOL     OW23722   5.213   5.827   2.961  0.1929 -0.0003 -0.1562
 7608SOL    HW123723   5.275   5.866   2.893  1.3649 -0.8094  0.4215
 7608SOL    HW223724   5.155   5.757   2.918  0.6648 -0.2422 -0.4039
 7609SOL     OW23725   1.437   1.673   6.962  0.0574  0.0565 -0.3430
 7609SOL    HW123726   1.355   1.708   6.917 -1.1170 -1.0615  0.8117
 7609SOL    HW223727   1.410   1.605   7.031  1.7649  1.4512  1.8326
 7610SOL     OW23728   6.199   2.376   6.937 -0.0463  0.0647 -0.0622
 7610SOL    HW123729   6.241   2.467   6.931  2.1641 -0.4454  4.0158
 7610SOL    HW223730   6.267   2.306   6.915 -0.4624 -0.6534  0.8484
 7611SOL     OW23731   2.666   4.159   0.833 -0.1270 -0.2444 -0.1021
 7611SOL    HW123732   2.626   4.074   0.867 -0.2605 -0.1642 -0.0570
 7611SOL    HW223733   2.596   4.213   0.787 -0.2282  0.2092  0.5800
 7612SOL     OW23734   3.980   4.343   5.690 -0.2280 -0.1489  0.0348
 7612SOL    HW123735   4.056   4.285   5.660  0.6651  1.2937 -0.5849
 7612SOL    HW223736   3.954   4.406   5.616  0.3555  1.7967  1.4015
 7613SOL     OW23737   1.525   4.531   5.461  0.5172 -0.1916 -0.2328
 7613SOL    HW123738   1.590   4.470   5.507  0.1439 -1.5976 -1.5256
 7613SOL    HW223739   1.525   4.514   5.363 -0.6733  0.8847 -0.4573
 7614SOL     OW23740   3.848   2.595   6.171 -0.1591  0.4440 -0.2068
 7614SOL    HW123741   3.939   2.632   6.153 -0.1341 -0.4768 -2.3207
 7614SOL    HW223742   3.817   2.544   6.091 -2.5693  0.7780  0.4405
 7615SOL     OW23743   5.853   1.131   0.052  0.2257 -0.5194  0.1758
 7615SOL    HW123744   5.807   1.207   0.098  0.9296 -0.1709  0.3168
 7615SOL    HW223745   5.874   1.060   0.120  0.7845 -0.2408  0.2964
 7616SOL     OW23746   3.604   5.745   5.239 -0.0337 -0.2450  0.7201
 7616SOL    HW123747   3.588   5.844   5.245 -0.7813 -0.3287  0.2543
 7616SOL    HW223748   3.701   5.726   5.257  0.1682  0.5940  0.5797
 7617SOL     OW23749   2.664   3.646   6.439  0.1241 -0.3668  0.0370
 7617SOL    HW123750   2.565   3.647   6.424  0.2055 -1.2686 -0.7218
 7617SOL    HW223751   2.696   3.738   6.463 -1.1356 -0.4244  2.0903
 7618SOL     OW23752   0.173   0.723   3.336  0.3049  0.4952 -0.1332
 7618SOL    HW123753   0.091   0.668   3.351  0.8810 -0.5475 -0.7453
 7618SOL    HW223754   0.188   0.782   3.416 -1.0498  0.7365 -0.0281
 7619SOL     OW23755   4.920   6.632   1.280 -0.1202 -0.0298  0.4895
 7619SOL    HW123756   4.824   6.657   1.298 -0.2928 -2.3032  3.5653
 7619SOL    HW223757   4.979   6.710   1.300 -1.2477  1.1090 -0.5129
 7620SOL     OW23758   6.770   5.475   1.294  0.2844 -0.5219 -0.7628
 7620SOL    HW123759   6.867   5.455   1.288  0.8689  1.6770  0.4128
 7620SOL    HW223760   6.741   5.474   1.390  0.0659  2.4762 -0.7065
 7621SOL     OW23761   4.952   5.271   4.982  0.3979 -0.0014 -0.2288
 7621SOL    HW123762   4.910   5.223   4.905 -1.4870  1.5333 -0.2348
 7621SOL    HW223763   5.031   5.220   5.014  0.2968 -1.4867 -2.1689
 7622SOL     OW23764   5.812   3.978   4.357  0.3121  0.2425  0.3361
 7622SOL    HW123765   5.822   3.879   4.348 -0.6506  0.1788 -0.1408
 7622SOL    HW223766   5.884   4.014   4.417  1.2210 -0.6150 -0.2223
 7623SOL     OW23767   4.691   4.722   4.455 -0.4486  0.0441  0.1431
 7623SOL    HW123768   4.643   4.633   4.457  0.7292 -0.5984  0.9098
 7623SOL    HW223769   4.626   4.793   4.429 -1.9558 -0.7238  1.5587
 7624SOL     OW23770   0.026   5.669   5.999  0.2942  0.1899 -0.7870
 7624SOL    HW123771   0.062   5.582   6.034 -0.8869  0.1190  0.3258
 7624SOL    HW223772  -0.048   5.651   5.934  0.2420  0.3539 -0.7737
 7625SOL     OW23773   1.125   2.916   0.072  0.0748  0.5978 -0.4783
 7625SOL    HW123774   1.089   2.826   0.049 -0.2096  1.1895 -2.6135
 7625SOL    HW223775   1.215   2.907   0.114 -0.1486 -0.6823 -0.2453
 7626SOL     OW23776   4.403   3.568   5.914  0.3633  0.2718 -0.3410
 7626SOL    HW123777   4.337   3.627   5.959 -0.8819 -0.7290 -0.8092
 7626SOL    HW223778   4.492   3.614   5.910  0.2694  0.7781  2.2020
 7627SOL     OW23779   6.650   3.286   4.475  0.0949 -0.1519 -0.4349
 7627SOL    HW123780   6.581   3.222   4.441  0.5017 -0.7230 -0.2026
 7627SOL    HW223781   6.664   3.359   4.408  0.2182 -0.7615 -1.0828
 7628SOL     OW23782   2.037   6.271   5.616 -0.1857  0.2412 -0.2165
 7628SOL    HW123783   1.971   6.279   5.542 -2.9439 -1.6558  1.8662
 7628SOL    HW223784   2.003   6.209   5.686  3.5864 -0.3834  1.3478
 7629SOL     OW23785   5.599   2.819   6.514 -0.2926 -0.1096  0.3181
 7629SOL    HW123786   5.545   2.859   6.440  0.2820 -0.2788 -0.2038
 7629SOL    HW223787   5.541   2.760   6.570 -0.8616  0.4726  0.3510
 7630SOL     OW23788   2.446   0.262   4.952  0.0127  0.1856 -0.0668
 7630SOL    HW123789   2.479   0.308   5.034  1.2204 -1.6903  0.5535
 7630SOL    HW223790   2.521   0.216   4.906 -0.8076  0.4385 -1.7540
 7631SOL     OW23791   1.945   6.509   5.050  0.2915  0.1475 -0.0429
 7631SOL    HW123792   1.947   6.594   5.103 -1.4297  0.8111 -0.9701
 7631SOL    HW223793   2.008   6.516   4.973  0.8574  0.1949  0.4180
 7632SOL     OW23794   1.515   1.138   5.090 -0.2303 -0.2066  0.3359
 7632SOL    HW123795   1.452   1.125   5.167  0.8946  0.7150  1.4615
 7632SOL    HW223796   1.499   1.067   5.022 -2.3636 -0.0880  0.6418
 7633SOL     OW23797   4.970   5.458   3.386 -0.4237 -0.7404 -0.1123
 7633SOL    HW123798   5.055   5.487   3.430 -0.4253 -0.3983 -0.3259
 7633SOL    HW223799   4.984   5.370   3.341 -0.2720 -0.8359  0.1198
 7634SOL     OW23800   0.938   1.671   3.912 -0.9002 -0.1992 -0.7317
 7634SOL    HW123801   0.871   1.642   3.981 -0.8303  1.7070  0.2102
 7634SOL    HW223802   0.961   1.767   3.927  1.1244 -0.4648 -1.8118
 7635SOL     OW23803   0.385   3.575   6.646  0.7228 -0.2125 -0.1547
 7635SOL    HW123804   0.364   3.668   6.674 -2.0252 -0.9463  0.5112
 7635SOL    HW223805   0.364   3.563   6.549  0.8564 -0.2230 -0.1838
 7636SOL     OW23806   0.107   4.480   1.105 -0.3957  0.5089  0.0210
 7636SOL    HW123807   0.047   4.560   1.103 -0.2607  0.6223  0.4120
 7636SOL    HW223808   0.053   4.399   1.129 -0.5320  0.4823 -0.3738
 7637SOL     OW23809   1.080   5.486   2.478 -0.4010 -0.0976 -0.1854
 7637SOL    HW123810   1.173   5.509   2.504  0.0166 -1.7029 -0.1325
 7637SOL    HW223811   1.029   5.457   2.560 -0.7583  0.1923 -0.3045
 7638SOL     OW23812   4.934   2.012   6.548  0.1974  0.3501  0.0417
 7638SOL    HW123813   4.910   2.103   6.514 -1.3900 -0.4141 -0.9884
 7638SOL    HW223814   4.991   1.965   6.480 -1.7104 -0.6080 -0.9627
 7639SOL     OW23815   0.401   2.389   5.298 -0.3719  0.6123 -0.0932
 7639SOL    HW123816   0.463   2.421   5.369  1.5035 -2.0383 -0.3714
 7639SOL    HW223817   0.428   2.428   5.210 -0.6532  1.3309  0.1279
 7640SOL     OW23818   2.100   4.121   7.001  0.3484  0.4058  0.2334
 7640SOL    HW123819   2.056   4.092   6.916  0.7303  1.9373 -0.5191
 7640SOL    HW223820   2.038   4.106   7.078 -0.4536  0.0754 -0.4712
 7641SOL     OW23821   2.164   0.574   2.977 -0.0091 -0.2197 -0.0276
 7641SOL    HW123822   2.227   0.568   3.055  0.5724  0.9772 -0.3931
 7641SOL    HW223823   2.133   0.668   2.967 -1.1963 -0.6351 -0.3933
 7642SOL     OW23824   0.160   1.795   5.926 -0.0160 -0.1701 -0.1082
 7642SOL    HW123825   0.193   1.788   6.020 -1.7194  0.1649  0.5599
 7642SOL    HW223826   0.197   1.720   5.871  1.0302 -0.3424  0.8103
 7643SOL     OW23827   2.975   5.306   0.064  0.5242 -0.0596 -0.0879
 7643SOL    HW123828   3.010   5.332   0.154  1.6163  0.0014 -0.5148
 7643SOL    HW223829   2.957   5.208   0.061  1.3010 -0.2091 -0.0577
 7644SOL     OW23830   2.787   2.265   4.708 -0.4362  0.3971 -0.2644
 7644SOL    HW123831   2.781   2.207   4.627  1.6015  0.0068 -0.1800
 7644SOL    HW223832   2.732   2.347   4.694 -1.4629 -0.4181 -1.3367
 7645SOL     OW23833   6.501   2.106   3.417  0.8630  0.4941 -0.1315
 7645SOL    HW123834   6.559   2.025   3.411  1.9817  1.3031 -0.4919
 7645SOL    HW223835   6.421   2.093   3.358  0.9076 -0.4386 -0.0074
 7646SOL     OW23836   5.277   3.762   0.415 -0.1663  0.0224  0.0046
 7646SOL    HW123837   5.365   3.795   0.381 -0.7220  2.5880  0.8092
 7646SOL    HW223838   5.213   3.839   0.421 -2.9658 -1.9354 -1.9183
 7647SOL     OW23839   1.102   5.070   3.484  0.3057  0.4576 -0.1687
 7647SOL    HW123840   1.140   5.110   3.567  0.4344  0.8469 -0.4158
 7647SOL    HW223841   1.145   5.111   3.404  0.0024  0.2605 -0.4351
 7648SOL     OW23842   6.160   0.963   3.575 -0.2927  0.4354 -0.4653
 7648SOL    HW123843   6.087   1.014   3.620 -0.4939 -0.1221 -0.1578
 7648SOL    HW223844   6.140   0.866   3.579  1.7248  0.0064  1.9798
 7649SOL     OW23845   2.961   6.831   2.747 -0.0816  0.6697 -0.7469
 7649SOL    HW123846   3.032   6.803   2.811 -1.4489 -0.6618  0.2836
 7649SOL    HW223847   2.908   6.906   2.787 -1.0657 -0.2975 -0.1403
 7650SOL     OW23848   3.662   1.627   2.732  0.6777  0.4555 -0.0902
 7650SOL    HW123849   3.740   1.654   2.677  0.3212  1.7339 -0.0014
 7650SOL    HW223850   3.579   1.669   2.696  0.1238 -0.3173  0.2320
 7651SOL     OW23851   4.298   5.305   6.398  0.4208  0.3190  0.5716
 7651SOL    HW123852   4.323   5.261   6.484 -0.3174  2.0327  1.7257
 7651SOL    HW223853   4.205   5.340   6.405 -0.4596 -1.3590 -1.7311
 7652SOL     OW23854   1.497   5.126   5.089 -0.6999 -0.2702  0.2641
 7652SOL    HW123855   1.433   5.049   5.084 -0.5604 -0.4491  1.0584
 7652SOL    HW223856   1.490   5.169   5.179  1.6804 -1.5174  1.1327
 7653SOL     OW23857   5.152   2.668   5.487  0.0081 -0.1234 -0.0708
 7653SOL    HW123858   5.178   2.759   5.518 -1.5339  0.5975 -0.7812
 7653SOL    HW223859   5.142   2.607   5.566  1.2670  0.2350  0.3933
 7654SOL     OW23860   1.702   5.338   5.768  0.4226 -0.6217  0.4519
 7654SOL    HW123861   1.753   5.267   5.817  2.0367  0.4076  0.3650
 7654SOL    HW223862   1.755   5.423   5.770 -0.8089  0.2009 -0.6493
 7655SOL     OW23863   5.289   1.002   4.606 -0.2582 -0.2298  0.2360
 7655SOL    HW123864   5.239   1.079   4.566 -0.5620 -0.0982  0.8612
 7655SOL    HW223865   5.241   0.971   4.688  0.5840 -0.2269  0.7354
 7656SOL     OW23866   5.267   1.512   5.331 -0.3535 -0.3291 -0.7976
 7656SOL    HW123867   5.279   1.611   5.326  0.3255 -0.3399  0.2924
 7656SOL    HW223868   5.267   1.483   5.427  1.3181 -1.5944 -1.1395
 7657SOL     OW23869   1.777   0.046   3.814  0.1277 -0.2450 -0.2137
 7657SOL    HW123870   1.722   0.085   3.888  2.6876  0.9102  1.1950
 7657SOL    HW223871   1.779  -0.053   3.822 -0.2882 -0.1857  0.7628
 7658SOL     OW23872   5.317   5.615   5.164 -0.1224  0.1471 -0.1121
 7658SOL    HW123873   5.256   5.673   5.218 -0.3831 -0.2895  0.0733
 7658SOL    HW223874   5.326   5.652   5.072 -0.4078  0.3954 -0.0416
 7659SOL     OW23875   3.775   1.655   1.420  0.0294 -0.7980 -0.2595
 7659SOL    HW123876   3.837   1.643   1.343  0.0784  1.1915 -0.5833
 7659SOL    HW223877   3.716   1.734   1.403  0.3402 -0.0211  1.9266
 7660SOL     OW23878   2.961   1.895   2.626 -0.0017  0.4310  0.3891
 7660SOL    HW123879   2.998   1.927   2.714  2.0107 -0.2707 -0.1492
 7660SOL    HW223880   3.013   1.816   2.595 -0.9765  0.3818 -1.2303
 7661SOL     OW23881   0.895   3.486   3.782 -0.0631  0.2814  0.3563
 7661SOL    HW123882   0.945   3.524   3.860  0.0630 -0.4477  0.6417
 7661SOL    HW223883   0.804   3.458   3.812 -1.0220  2.4518 -0.3633
 7662SOL     OW23884   1.033   4.705   2.746 -0.1460  0.0075  0.1631
 7662SOL    HW123885   1.067   4.723   2.654  0.9146 -2.0494  0.0964
 7662SOL    HW223886   1.089   4.756   2.812 -0.4090  0.8731 -0.2716
 7663SOL     OW23887   5.429   3.547   4.206 -0.1944 -0.3486 -0.3592
 7663SOL    HW123888   5.434   3.644   4.232  1.3125 -0.0727 -1.5590
 7663SOL    HW223889   5.511   3.500   4.236  0.1144 -0.7311 -1.7155
 7664SOL     OW23890   0.989   1.124   3.645 -0.4881  0.6826 -0.1628
 7664SOL    HW123891   0.897   1.144   3.611  1.1957  4.5417 -3.2456
 7664SOL    HW223892   1.038   1.068   3.578 -0.4834 -1.4134  1.4901
 7665SOL     OW23893   5.938   0.407   3.753 -0.2819  0.6456 -0.3318
 7665SOL    HW123894   5.907   0.501   3.735 -3.9685 -0.5088 -0.9823
 7665SOL    HW223895   5.980   0.369   3.671  1.6684  1.7953  0.0765
 7666SOL     OW23896   4.310   3.501   6.336  0.3007 -0.3747 -0.2843
 7666SOL    HW123897   4.274   3.421   6.288  1.6534 -0.9390 -0.4202
 7666SOL    HW223898   4.345   3.567   6.270  0.3961 -0.2800 -0.1399
 7667SOL     OW23899   0.771   2.995   0.491  0.4961 -0.4572 -0.0500
 7667SOL    HW123900   0.740   2.901   0.510 -1.3821  0.0560 -0.3913
 7667SOL    HW223901   0.869   3.002   0.510  0.5815 -2.3619  0.4331
 7668SOL     OW23902   3.875   2.732   6.799 -0.0547  0.3817  0.0218
 7668SOL    HW123903   3.962   2.703   6.838  0.2492  1.4296  0.1559
 7668SOL    HW223904   3.884   2.737   6.699 -0.1319 -0.0462 -0.0085
 7669SOL     OW23905   5.156   3.137   0.752 -0.3931  0.3463  0.0462
 7669SOL    HW123906   5.200   3.202   0.814 -1.3211 -0.1720  1.3019
 7669SOL    HW223907   5.226   3.094   0.694  0.7282 -0.0802  1.6256
 7670SOL     OW23908   5.119   6.872   5.203  0.3890 -0.0151 -0.3293
 7670SOL    HW123909   5.054   6.913   5.139 -1.0698 -1.1891  0.3250
 7670SOL    HW223910   5.115   6.921   5.290 -0.8109 -1.0222  0.2134
 7671SOL     OW23911   3.294   2.138   3.188  0.0254 -0.5897 -0.3876
 7671SOL    HW123912   3.343   2.163   3.271 -1.0365 -0.8665  0.3426
 7671SOL    HW223913   3.360   2.124   3.113  1.0483 -0.9293  0.5477
 7672SOL     OW23914   1.097   3.825   1.896  0.1318 -0.7298 -0.3069
 7672SOL    HW123915   1.118   3.886   1.819 -1.4777 -2.5828 -2.3617
 7672SOL    HW223916   1.061   3.738   1.861 -2.2373 -1.0879  2.5857
 7673SOL     OW23917   6.282   1.312   1.938 -0.4999  0.2933  0.1522
 7673SOL    HW123918   6.322   1.366   1.863 -1.0755 -0.5933 -0.8252
 7673SOL    HW223919   6.349   1.302   2.011  0.8903 -0.6735 -1.1873
 7674SOL     OW23920   2.937   6.141   5.211 -0.5265  0.1624  0.2503
 7674SOL    HW123921   2.962   6.065   5.271  0.5675 -0.8881 -1.4371
 7674SOL    HW223922   2.930   6.225   5.265  0.4762 -0.7091  1.8253
 7675SOL     OW23923   5.092   6.695   4.503 -0.2826 -0.4855 -0.0225
 7675SOL    HW123924   5.044   6.779   4.528 -1.4111 -1.7931  2.6413
 7675SOL    HW223925   5.045   6.616   4.542  1.1688 -2.3449 -1.7591
 7676SOL     OW23926   6.238   3.242   3.763 -0.1456 -0.0104 -0.1234
 7676SOL    HW123927   6.155   3.197   3.730 -0.3958 -0.0264  0.5079
 7676SOL    HW223928   6.254   3.326   3.712  0.4901 -0.9408 -1.5324
 7677SOL     OW23929   6.363   4.995   6.301  0.1114 -0.2837  0.4494
 7677SOL    HW123930   6.290   4.956   6.357  0.7362  1.9471  3.0078
 7677SOL    HW223931   6.442   4.933   6.302 -0.3195 -0.8336  1.0420
 7678SOL     OW23932   4.394   0.825   3.600  0.4771 -0.0694 -0.0813
 7678SOL    HW123933   4.394   0.775   3.513  0.8451  0.1261 -0.1976
 7678SOL    HW223934   4.386   0.760   3.676 -1.8000 -0.1176 -0.2994
 7679SOL     OW23935   4.031   1.793   4.304 -0.0229  0.3465 -0.4344
 7679SOL    HW123936   4.076   1.844   4.378  3.6374 -1.1540 -1.4034
 7679SOL    HW223937   3.962   1.733   4.343 -0.4521  1.8988  1.3565
 7680SOL     OW23938   6.263   4.579   1.648 -0.2486 -0.1825  0.2537
 7680SOL    HW123939   6.238   4.552   1.741 -1.2145  0.0577  0.0762
 7680SOL    HW223940   6.362   4.573   1.637  0.2451  2.5823  2.2004
 7681SOL     OW23941   6.095   0.736   0.006  0.9418  0.0267  0.4960
 7681SOL    HW123942   6.163   0.808   0.018  1.3412 -0.0886 -0.9384
 7681SOL    HW223943   6.122   0.676  -0.069 -1.7860  1.2658 -1.6567
 7682SOL     OW23944   2.803   4.773   0.659  0.0356 -0.2075  0.3585
 7682SOL    HW123945   2.867   4.816   0.596 -0.9704  0.6880 -0.0820
 7682SOL    HW223946   2.840   4.775   0.752  0.6695  0.2400  0.1004
 7683SOL     OW23947   4.825   4.490   5.791 -0.4862  0.1489  0.1085
 7683SOL    HW123948   4.743   4.496   5.848 -1.0852 -2.3408 -0.3646
 7683SOL    HW223949   4.797   4.481   5.695  0.3906  0.6756 -0.1997
 7684SOL     OW23950   2.624   2.147   5.931 -0.0837 -0.2667  0.6527
 7684SOL    HW123951   2.555   2.159   5.860  1.5816 -0.4643 -1.0769
 7684SOL    HW223952   2.591   2.080   5.998 -0.6510 -2.1766 -1.4120
 7685SOL     OW23953   0.711   0.761   0.940  0.4372  0.3095 -0.3017
 7685SOL    HW123954   0.770   0.815   0.879  1.8683  1.4793  1.9793
 7685SOL    HW223955   0.763   0.734   1.021 -1.6057 -0.4803  0.8107
 7686SOL     OW23956   1.793   3.505   4.999 -0.1880 -1.0109  0.3268
 7686SOL    HW123957   1.876   3.527   4.948  0.5780 -1.3092  1.4205
 7686SOL    HW223958   1.753   3.421   4.964 -0.6409 -0.3062 -0.9112
 7687SOL     OW23959   3.432   5.854   5.680 -0.4223 -0.1686 -0.0843
 7687SOL    HW123960   3.392   5.768   5.711 -0.7024 -0.3190 -0.8430
 7687SOL    HW223961   3.408   5.927   5.745 -1.1386 -0.4437 -0.0261
 7688SOL     OW23962   3.234   1.417   3.985 -0.1669  0.1632  0.2317
 7688SOL    HW123963   3.145   1.373   3.980 -0.5890  0.7578  1.9811
 7688SOL    HW223964   3.224   1.511   4.019  1.1748  0.0497  1.0132
 7689SOL     OW23965   6.191   4.823   6.422  0.1573  0.3217 -0.3896
 7689SOL    HW123966   6.186   4.784   6.330  1.3530 -0.3057 -0.2046
 7689SOL    HW223967   6.222   4.753   6.486 -0.8030  0.7107  0.5291
 7690SOL     OW23968   5.784   0.775   4.717 -0.4062  0.3041 -0.0670
 7690SOL    HW123969   5.827   0.795   4.629 -1.9007 -1.3496 -1.2305
 7690SOL    HW223970   5.691   0.811   4.717  0.0501  1.5997  1.4517
 7691SOL     OW23971   6.173   6.371   1.059 -0.5542 -0.2460 -0.1469
 7691SOL    HW123972   6.149   6.439   0.989 -1.9813  0.2156  0.7435
 7691SOL    HW223973   6.209   6.417   1.140  3.4365 -0.9100 -1.3507
 7692SOL     OW23974   0.930   3.809   6.079 -0.3126  0.5130 -0.2665
 7692SOL    HW123975   1.022   3.792   6.114 -1.2663 -0.1263  2.1366
 7692SOL    HW223976   0.893   3.725   6.038  0.5872  1.1117 -2.4732
 7693SOL     OW23977   4.717   5.096   3.172 -0.2845  0.1871 -0.1647
 7693SOL    HW123978   4.750   5.011   3.214 -1.4228  0.0518  0.4931
 7693SOL    HW223979   4.717   5.086   3.072 -1.5388 -1.0527 -0.0765
 7694SOL     OW23980   1.612   0.652   2.320 -0.2037 -0.3686  0.1694
 7694SOL    HW123981   1.666   0.591   2.376 -0.9974 -1.9704 -0.7462
 7694SOL    HW223982   1.545   0.600   2.268  0.0272  1.1084 -1.7478
 7695SOL     OW23983   5.683   4.858   3.001 -0.3215 -0.3523  0.7704
 7695SOL    HW123984   5.670   4.930   3.069  0.5353  0.2267  0.3364
 7695SOL    HW223985   5.675   4.768   3.045  0.6369  0.0151  1.7175
 7696SOL     OW23986   5.935   6.113   6.683  0.0296  0.6891  0.5776
 7696SOL    HW123987   5.942   6.074   6.592 -0.1296  0.6476  0.5833
 7696SOL    HW223988   5.846   6.157   6.694  0.0376  0.6706  0.7206
 7697SOL     OW23989   6.107   2.915   6.075 -0.5917 -0.4466 -0.6328
 7697SOL    HW123990   6.053   2.934   6.157 -0.1218 -0.1946 -0.3786
 7697SOL    HW223991   6.187   2.975   6.073  0.5086 -1.8534 -0.2212
 7698SOL     OW23992   5.164   6.705   2.943  0.2483  0.1106  0.2607
 7698SOL    HW123993   5.088   6.770   2.951 -0.5563 -0.6426 -1.0187
 7698SOL    HW223994   5.243   6.741   2.994 -1.3061  0.3137  2.6755
 7699SOL     OW23995   1.568   6.601   0.228  0.2556  0.2066  0.1739
 7699SOL    HW123996   1.624   6.682   0.209  0.9747 -0.2332  0.4043
 7699SOL    HW223997   1.525   6.611   0.318 -0.3619  0.7136 -0.1609
 7700SOL     OW23998   4.467   4.883   3.390 -0.0487  0.2144  0.4593
 7700SOL    HW123999   4.429   4.968   3.352  1.4440  0.1709 -1.2198
 7700SOL    HW224000   4.508   4.902   3.479  1.0989  1.4731 -0.3106
 7701SOL     OW24001   2.314   4.719   2.186 -0.3421  0.8981 -0.0467
 7701SOL    HW124002   2.323   4.806   2.234 -1.0493  0.9818 -0.0572
 7701SOL    HW224003   2.402   4.671   2.187 -0.0466  1.4406  0.2859
 7702SOL     OW24004   6.195   3.988   3.644 -0.1178  0.5512  0.3097
 7702SOL    HW124005   6.217   3.895   3.673  2.0127  0.7443 -0.5421
 7702SOL    HW224006   6.105   3.988   3.599  0.1791 -1.2280 -0.3640
 7703SOL     OW24007   1.622   3.780   1.687 -0.1538  0.3212 -0.7384
 7703SOL    HW124008   1.666   3.712   1.746 -0.9896  1.3877  1.2100
 7703SOL    HW224009   1.522   3.772   1.698 -0.3003  0.9585 -1.5555
 7704SOL     OW24010   4.708   1.819   6.602  0.3523  0.2246 -0.5008
 7704SOL    HW124011   4.742   1.728   6.628 -0.7054 -0.3727 -1.1299
 7704SOL    HW224012   4.785   1.880   6.587  1.1014 -0.6991 -0.5293
 7705SOL     OW24013   6.334   0.865   0.128  0.2101 -0.1488 -0.1032
 7705SOL    HW124014   6.279   0.908   0.056 -0.2791  1.5195  1.2006
 7705SOL    HW224015   6.287   0.875   0.216  1.1168 -1.5392  0.5761
 7706SOL     OW24016   1.736   0.155   3.563  0.8626  0.0089 -0.4490
 7706SOL    HW124017   1.748   0.115   3.654  0.5722 -0.9668 -0.8266
 7706SOL    HW224018   1.787   0.241   3.557 -0.1685  0.7662  1.0513
 7707SOL     OW24019   4.523   5.862   3.631 -0.2649  0.6346  0.4801
 7707SOL    HW124020   4.439   5.915   3.620  0.2149  1.1555 -0.8614
 7707SOL    HW224021   4.560   5.839   3.541  1.8492  1.7366  0.9983
 7708SOL     OW24022   3.530   6.670   6.850  0.0793 -0.1360 -0.2192
 7708SOL    HW124023   3.598   6.717   6.907 -0.1135 -1.3554  1.0544
 7708SOL    HW224024   3.485   6.598   6.903 -0.8631 -0.6229 -1.6139
 7709SOL     OW24025   6.506   5.990   3.029  0.0006  0.2102 -0.0505
 7709SOL    HW124026   6.603   6.008   3.012  0.6051 -1.9851  0.7303
 7709SOL    HW224027   6.476   6.041   3.109  0.9231 -0.1717  0.5581
 7710SOL     OW24028   1.607   4.822   3.720 -0.1105 -0.4160  0.6482
 7710SOL    HW124029   1.695   4.790   3.755 -0.7394 -2.4492  0.4948
 7710SOL    HW224030   1.618   4.859   3.628  0.4961 -1.1163  0.4388
 7711SOL     OW24031   4.008   6.436   4.285 -0.7578 -0.1663 -0.5480
 7711SOL    HW124032   4.079   6.366   4.283 -0.5418 -0.0090  0.7218
 7711SOL    HW224033   3.951   6.424   4.366 -0.3120  1.4959  0.0577
 7712SOL     OW24034   5.598   2.218   6.437  0.2881 -1.0657 -0.0855
 7712SOL    HW124035   5.646   2.304   6.423 -1.4092  0.1368  1.1740
 7712SOL    HW224036   5.504   2.226   6.404  0.1665 -2.5223 -0.1733
 7713SOL     OW24037   1.759   2.835   5.919  0.0412 -0.5399  0.0461
 7713SOL    HW124038   1.826   2.868   5.853 -0.4325 -1.5105 -0.9375
 7713SOL    HW224039   1.768   2.736   5.930 -0.1058 -0.4396  1.1994
 7714SOL     OW24040   3.283   0.782   5.963  0.0926  0.2945 -0.2097
 7714SOL    HW124041   3.318   0.709   6.023  1.3184  1.6961  0.8817
 7714SOL    HW224042   3.271   0.865   6.017 -2.1160  0.7020 -1.2446
 7715SOL     OW24043   6.801   6.185   5.179 -0.3842  0.0987 -0.1191
 7715SOL    HW124044   6.733   6.112   5.176 -0.4399  0.1827 -2.4778
 7715SOL    HW224045   6.754   6.274   5.180 -0.3630  0.1634 -2.0356
 7716SOL     OW24046   6.392   1.591   0.204 -0.1386  0.2322  0.2886
 7716SOL    HW124047   6.405   1.683   0.167  0.9281  1.3109  3.1124
 7716SOL    HW224048   6.297   1.581   0.235 -0.1688  0.5068  0.2924
 7717SOL     OW24049   6.666   1.071   5.948  0.0903 -0.0501  0.0743
 7717SOL    HW124050   6.578   1.067   5.995  0.7675  2.0183  1.6795
 7717SOL    HW224051   6.665   1.145   5.881  1.0030  0.9177  1.0915
 7718SOL     OW24052   6.403   6.725   1.766  0.1247  0.2895  0.1850
 7718SOL    HW124053   6.337   6.708   1.839 -1.1205 -1.9598 -1.3284
 7718SOL    HW224054   6.483   6.667   1.780 -0.5330 -0.8725 -0.6683
 7719SOL     OW24055   1.491   0.772   3.621  0.4295  0.2623 -0.2471
 7719SOL    HW124056   1.531   0.861   3.643  1.4786  0.1254 -1.4875
 7719SOL    HW224057   1.394   0.772   3.645  0.6415  1.3937  0.6927
 7720SOL     OW24058   0.556   6.477   2.441 -0.1216  0.1718 -0.0651
 7720SOL    HW124059   0.521   6.566   2.412  0.4340  0.1952 -0.7036
 7720SOL    HW224060   0.529   6.459   2.535  0.6137  1.4830  0.4265
 7721SOL     OW24061   1.345   0.843   1.371  0.0392  0.2101  0.0772
 7721SOL    HW124062   1.252   0.807   1.362 -0.7357  1.9996  0.4819
 7721SOL    HW224063   1.410   0.767   1.375 -1.4547 -1.1034  0.4480
 7722SOL     OW24064   2.044   0.769   2.398 -0.3415 -0.0741 -0.0826
 7722SOL    HW124065   2.102   0.839   2.357  0.6867  1.6398  3.8112
 7722SOL    HW224066   2.089   0.680   2.394  1.1372  0.6482  0.0750
 7723SOL     OW24067   6.077   4.137   3.223 -0.1969 -0.4029  0.5967
 7723SOL    HW124068   6.146   4.120   3.294 -0.4254 -0.8125  0.7226
 7723SOL    HW224069   6.002   4.072   3.233 -0.4023 -0.2307  0.1997
 7724SOL     OW24070   0.180   2.620   6.753 -0.1255  0.4103 -0.2711
 7724SOL    HW124071   0.131   2.698   6.714  0.0404  1.0342  0.7395
 7724SOL    HW224072   0.279   2.634   6.743 -0.0661 -1.4760 -3.5435
 7725SOL     OW24073   3.534   3.595   5.585 -0.1858  1.0189 -0.1976
 7725SOL    HW124074   3.531   3.605   5.486  0.8742  0.5584 -0.2924
 7725SOL    HW224075   3.441   3.599   5.623 -0.6015  1.0820 -1.2128
 7726SOL     OW24076   1.130   3.402   4.548 -0.1239 -0.4275 -0.2171
 7726SOL    HW124077   1.187   3.420   4.468  0.1050 -2.5525 -0.5895
 7726SOL    HW224078   1.185   3.361   4.620 -0.0564  2.5362  1.5830
 7727SOL     OW24079   3.975   0.934   6.344  0.3045 -0.0405 -0.3337
 7727SOL    HW124080   3.982   0.999   6.269  0.9345  0.9703  0.5576
 7727SOL    HW224081   4.026   0.970   6.423  4.1084 -3.3121 -0.9574
 7728SOL     OW24082   0.354   0.143   0.666 -0.5605 -0.0221 -0.7009
 7728SOL    HW124083   0.280   0.092   0.709 -0.8614  0.6501 -0.4126
 7728SOL    HW224084   0.438   0.131   0.718 -1.0348  1.1961  0.3896
 7729SOL     OW24085   3.897   0.556   2.197  0.2116  0.5145  0.2621
 7729SOL    HW124086   3.806   0.587   2.169  0.2305  0.0582 -0.3334
 7729SOL    HW224087   3.925   0.605   2.280  0.6225  2.7434 -1.1026
 7730SOL     OW24088   1.121   3.460   0.213 -0.1616 -0.1186 -0.5310
 7730SOL    HW124089   1.169   3.481   0.297  1.0701 -1.6525 -0.8120
 7730SOL    HW224090   1.036   3.411   0.234 -0.1980  0.0938 -0.1768
 7731SOL     OW24091   1.493   2.540   1.798 -0.0085  0.2555  0.4725
 7731SOL    HW124092   1.480   2.619   1.738 -1.3443 -0.2305  0.0910
 7731SOL    HW224093   1.441   2.462   1.762  1.4389 -0.8713  0.7347
 7732SOL     OW24094   1.937   2.029   2.996  0.4311  0.2286  0.1196
 7732SOL    HW124095   1.899   2.001   2.908  1.6361  0.8152 -0.6082
 7732SOL    HW224096   2.021   2.082   2.981  0.5539  0.4944  1.6145
 7733SOL     OW24097   2.348   5.861   6.653  0.3481  0.3441 -0.5148
 7733SOL    HW124098   2.359   5.955   6.619 -0.9438  0.9323  0.6047
 7733SOL    HW224099   2.435   5.812   6.643  0.9651  1.5586 -1.3967
 7734SOL     OW24100   4.329   6.114   3.586  0.0830  0.3549 -0.3446
 7734SOL    HW124101   4.330   6.161   3.674 -0.2187  3.1623 -1.7550
 7734SOL    HW224102   4.406   6.145   3.531  0.7566 -1.9893 -0.8463
 7735SOL     OW24103   2.817   0.817   1.522 -0.0528 -0.0388  0.0064
 7735SOL    HW124104   2.824   0.916   1.512  2.7228 -0.0575  0.9493
 7735SOL    HW224105   2.804   0.793   1.618  0.2694 -0.6288 -0.0901
 7736SOL     OW24106   2.000   0.682   4.415  0.3905 -0.1786 -0.0606
 7736SOL    HW124107   1.948   0.647   4.337 -0.7437  1.2146  0.0180
 7736SOL    HW224108   1.943   0.746   4.466  1.7099  0.2474  0.9231
 7737SOL     OW24109   1.513   4.773   5.597  0.4298  0.4479  0.5870
 7737SOL    HW124110   1.555   4.828   5.525  0.1550  0.3661  0.3627
 7737SOL    HW224111   1.496   4.680   5.563  2.5914 -0.3696  1.5204
 7738SOL     OW24112   6.020   2.547   5.774  0.0928  0.3095  0.1229
 7738SOL    HW124113   5.940   2.490   5.793 -1.0449  1.5246 -0.8860
 7738SOL    HW224114   6.037   2.607   5.852 -0.6139  0.7746 -0.0783
 7739SOL     OW24115   5.142   5.032   5.617 -0.1518  0.3136 -0.0409
 7739SOL    HW124116   5.106   5.102   5.555  0.0874 -1.1764 -1.9762
 7739SOL    HW224117   5.117   4.941   5.583  1.7726 -0.6428  0.9149
 7740SOL     OW24118   0.429   1.173   5.985 -0.1307  0.3752  0.0664
 7740SOL    HW124119   0.464   1.251   5.934  0.1136  0.4973  0.4197
 7740SOL    HW224120   0.352   1.132   5.935  0.1414  0.4557 -0.4245
 7741SOL     OW24121   3.690   5.583   0.299  0.7048 -0.2594 -0.1344
 7741SOL    HW124122   3.726   5.540   0.381  1.9633  0.0321 -0.5104
 7741SOL    HW224123   3.675   5.514   0.228  0.3415 -0.4085  0.0891
 7742SOL     OW24124   5.011   6.980   2.499 -0.0481  0.2066 -0.3366
 7742SOL    HW124125   4.944   7.045   2.536  0.9947  0.5424  1.0225
 7742SOL    HW224126   4.963   6.909   2.447 -1.5555  0.0294  1.1970
 7743SOL     OW24127   1.288   0.118   4.393 -0.6583  0.0358 -0.2801
 7743SOL    HW124128   1.304   0.145   4.488 -0.9000  0.6018 -0.3943
 7743SOL    HW224129   1.326   0.188   4.332 -0.6621 -0.2375 -0.5936
 7744SOL     OW24130   1.479   4.660   4.157 -0.2581 -0.7647 -0.3037
 7744SOL    HW124131   1.515   4.609   4.235  1.9344 -0.1687 -0.8350
 7744SOL    HW224132   1.435   4.744   4.189  0.6070 -0.5308  0.3241
 7745SOL     OW24133   2.956   1.797   6.601 -0.1354 -0.0793 -0.2556
 7745SOL    HW124134   3.007   1.854   6.536  0.1919 -0.4964 -0.3667
 7745SOL    HW224135   2.863   1.783   6.566 -0.1626  0.2313 -0.3156
 7746SOL     OW24136   5.834   3.172   6.465  0.3916  0.0645  0.6562
 7746SOL    HW124137   5.755   3.111   6.463 -0.7910  1.5454 -1.6469
 7746SOL    HW224138   5.829   3.231   6.546 -0.7176 -0.0317  0.6744
 7747SOL     OW24139   2.765   4.702   3.053 -0.0699  0.2367  0.1995
 7747SOL    HW124140   2.726   4.786   3.091 -1.8116 -0.9342  1.1340
 7747SOL    HW224141   2.858   4.690   3.086  0.1781  1.7618  0.0911
 7748SOL     OW24142   0.938   6.249   4.322 -0.1355  0.8418 -0.1806
 7748SOL    HW124143   0.915   6.289   4.410  1.1228  1.6289 -0.1942
 7748SOL    HW224144   0.894   6.301   4.249 -0.1796  0.9266 -0.0932
 7749SOL     OW24145   2.394   1.865   0.638 -0.1450 -0.4490  0.6152
 7749SOL    HW124146   2.350   1.783   0.675  0.8281 -1.2635 -0.0031
 7749SOL    HW224147   2.472   1.839   0.581 -1.6844  0.7414 -2.2262
 7750SOL     OW24148   1.577   2.001   3.542  0.0099  0.5966 -0.6596
 7750SOL    HW124149   1.484   1.966   3.532 -0.6775  1.8950  0.8499
 7750SOL    HW224150   1.580   2.096   3.511  0.2703  1.2783  1.3311
 7751SOL     OW24151   6.987   5.434   0.879 -0.4848  0.1988  0.1784
 7751SOL    HW124152   7.054   5.433   0.804 -1.1334  0.0841 -0.4164
 7751SOL    HW224153   6.970   5.528   0.907 -1.7084  0.4190 -1.1886
 7752SOL     OW24154   0.965   2.567   3.491 -0.2796  0.1128  0.0926
 7752SOL    HW124155   0.948   2.665   3.495 -0.9611 -0.0423  1.2050
 7752SOL    HW224156   0.883   2.517   3.518  0.2160 -0.7601  0.0256
 7753SOL     OW24157   5.940   6.659   4.991 -0.4779  0.1516  0.2957
 7753SOL    HW124158   5.971   6.647   5.085 -0.1457 -0.7376  0.0894
 7753SOL    HW224159   5.859   6.602   4.975 -2.5054  2.7050  0.9211
 7754SOL     OW24160   5.974   5.886   4.662  0.0775 -0.6882  0.0009
 7754SOL    HW124161   5.896   5.831   4.632  0.1981 -1.0023  0.2460
 7754SOL    HW224162   5.983   5.878   4.762  0.7570 -1.1099 -0.0877
 7755SOL     OW24163   1.819   5.162   0.403  0.2922 -0.1898  0.4223
 7755SOL    HW124164   1.787   5.257   0.406 -0.0532 -0.3175  0.8937
 7755SOL    HW224165   1.850   5.134   0.494  0.1842 -0.6010  0.3358
 7756SOL     OW24166   3.611   5.720   0.884  0.6130 -0.2524 -0.1624
 7756SOL    HW124167   3.629   5.676   0.972  0.2962  0.6828  0.3809
 7756SOL    HW224168   3.612   5.651   0.812 -3.1566 -1.7918  1.0083
 7757SOL     OW24169   0.454   6.862   6.535 -0.0186  0.0034  0.0115
 7757SOL    HW124170   0.364   6.893   6.504 -0.3021 -0.3321  0.5068
 7757SOL    HW224171   0.508   6.941   6.565 -0.2565  0.1688  0.0025
 7758SOL     OW24172   4.835   3.130   3.254  0.6307  0.1820  0.2914
 7758SOL    HW124173   4.866   3.113   3.347  2.9233 -0.9268 -0.5982
 7758SOL    HW224174   4.785   3.050   3.220  1.0759 -0.0138  0.0895
 7759SOL     OW24175   1.475   1.488   0.440  0.5811 -0.5979 -0.3096
 7759SOL    HW124176   1.550   1.505   0.377  2.1155  1.4646  1.9007
 7759SOL    HW224177   1.413   1.566   0.440  0.3423 -0.7779  0.3498
 7760SOL     OW24178   2.103   3.090   2.591  0.0195 -0.4460  0.5228
 7760SOL    HW124179   2.101   3.080   2.690  0.7175 -0.1353  0.5770
 7760SOL    HW224180   2.148   3.176   2.568 -1.5047  0.2344 -0.0282
 7761SOL     OW24181   4.999   6.530   1.543 -0.2406  0.2609 -0.3679
 7761SOL    HW124182   4.954   6.548   1.455  0.7928  0.6876 -0.8237
 7761SOL    HW224183   5.098   6.527   1.530 -0.0300  0.9010  0.8740
 7762SOL     OW24184   2.280   1.771   3.685  0.5923  0.1876 -0.3260
 7762SOL    HW124185   2.210   1.701   3.699 -0.0250  0.5015 -1.6904
 7762SOL    HW224186   2.345   1.739   3.617  3.4470 -1.2557  2.7962
 7763SOL     OW24187   0.473   5.035   0.876 -0.1158 -0.4757  0.2816
 7763SOL    HW124188   0.545   5.036   0.806 -0.5122 -0.1253 -0.1259
 7763SOL    HW224189   0.515   5.031   0.966  0.4667  0.9159  0.1032
 7764SOL     OW24190   3.930   1.554   5.388 -0.1749 -0.1488  0.2742
 7764SOL    HW124191   3.861   1.563   5.460 -0.6262 -2.2066  0.1740
 7764SOL    HW224192   4.012   1.604   5.413 -0.4481 -0.5301  2.0776
 7765SOL     OW24193   0.927   1.117   3.109 -0.0482 -0.2459 -0.1594
 7765SOL    HW124194   0.986   1.041   3.137 -0.9841 -0.9050  0.0822
 7765SOL    HW224195   0.861   1.137   3.182 -0.4608  0.1261 -0.6233
 7766SOL     OW24196   6.472   4.875   3.410  0.2057  0.8253  0.7383
 7766SOL    HW124197   6.506   4.888   3.503  1.0409 -1.0581  0.7242
 7766SOL    HW224198   6.421   4.790   3.404  0.8625  0.5075 -0.7166
 7767SOL     OW24199   1.686   1.324   0.026  0.4635  0.0881 -0.9092
 7767SOL    HW124200   1.700   1.394   0.096 -1.7374 -0.6913  0.4305
 7767SOL    HW224201   1.697   1.233   0.067 -3.3028 -0.4650 -0.7824
 7768SOL     OW24202   5.879   5.933   0.627  0.1488  0.3449  0.8234
 7768SOL    HW124203   5.905   5.898   0.537  0.7275 -1.4675  1.6397
 7768SOL    HW224204   5.780   5.945   0.631 -0.0927 -1.1898  0.4372
 7769SOL     OW24205   2.942   6.684   1.999 -0.5012  0.4632  0.2760
 7769SOL    HW124206   2.871   6.627   1.957 -1.2039 -0.0846  2.1012
 7769SOL    HW224207   2.998   6.629   2.061 -0.5128  1.5154  1.2728
 7770SOL     OW24208   6.937   2.856   3.172  0.0641  0.3279  0.8217
 7770SOL    HW124209   6.900   2.858   3.079  1.0921  1.1321  0.4063
 7770SOL    HW224210   6.921   2.945   3.215  1.1538  0.5616  0.7660
 7771SOL     OW24211   5.124   4.373   3.696 -0.1279 -0.2072 -0.8042
 7771SOL    HW124212   5.217   4.342   3.718 -0.0214  0.2827 -0.5375
 7771SOL    HW224213   5.099   4.343   3.604  0.8812  0.9505 -1.4911
 7772SOL     OW24214   3.681   6.608   2.013  0.7036  0.2700 -0.1169
 7772SOL    HW124215   3.684   6.704   1.985  2.5337  0.3105  0.1218
 7772SOL    HW224216   3.773   6.575   2.029  0.1463 -1.7397 -0.7968
 7773SOL     OW24217   0.607   2.152   6.959  0.0697 -0.6272 -0.2711
 7773SOL    HW124218   0.561   2.210   7.025  0.2840  2.1208 -2.3715
 7773SOL    HW224219   0.598   2.056   6.987 -1.5505  0.2379  2.5815
 7774SOL     OW24220   0.108   4.566   0.513 -0.1322 -0.4910 -0.0117
 7774SOL    HW124221   0.106   4.544   0.416  2.0723 -4.3236  0.6088
 7774SOL    HW224222   0.167   4.646   0.528 -0.6188  0.2415 -1.7528
 7775SOL     OW24223   0.248   1.543   2.241 -0.5857 -0.0636  0.3463
 7775SOL    HW124224   0.267   1.447   2.221  1.6060  0.6619 -1.5181
 7775SOL    HW224225   0.152   1.563   2.221 -0.4402 -1.2904 -1.8981
 7776SOL     OW24226   2.451   2.165   0.535 -0.2612 -0.6798  0.1044
 7776SOL    HW124227   2.426   2.154   0.438  1.9878 -1.8504 -0.4115
 7776SOL    HW224228   2.416   2.087   0.587 -0.4538 -0.6505  0.0217
 7777SOL     OW24229   5.603   2.671   4.802 -0.0507 -0.6399 -0.0440
 7777SOL    HW124230   5.627   2.586   4.754  3.0345 -1.7420  3.0114
 7777SOL    HW224231   5.670   2.742   4.780 -0.5001 -0.1303  0.1997
 7778SOL     OW24232   3.209   6.708   6.947  0.6510 -0.2204  0.1836
 7778SOL    HW124233   3.123   6.701   6.998  1.5401  0.1705  1.8277
 7778SOL    HW224234   3.274   6.761   7.001  1.6358  0.2671 -1.4430
 7779SOL     OW24235   6.006   3.559   4.436 -0.1835 -0.1403 -0.3767
 7779SOL    HW124236   6.096   3.559   4.393 -0.6667 -1.7973 -1.4953
 7779SOL    HW224237   6.014   3.535   4.532  0.4887 -1.8087 -0.8034
 7780SOL     OW24238   6.378   6.662   1.195  0.5936  0.5507  0.3046
 7780SOL    HW124239   6.312   6.617   1.256  0.8298  1.8910  1.6059
 7780SOL    HW224240   6.421   6.593   1.138 -2.1185 -0.3664 -0.8317
 7781SOL     OW24241   4.678   5.679   0.809 -0.2475  0.1253 -0.1644
 7781SOL    HW124242   4.610   5.683   0.882  0.3872  0.2557  0.4362
 7781SOL    HW224243   4.644   5.623   0.734 -1.2946  0.7432 -0.1716
 7782SOL     OW24244   3.790   5.781   3.464  0.4145 -0.3772  0.5176
 7782SOL    HW124245   3.888   5.796   3.472  0.2916  0.1433  1.1043
 7782SOL    HW224246   3.744   5.816   3.546 -0.2835 -0.3934  0.1405
 7783SOL     OW24247   6.417   4.195   5.562  0.4648 -0.4184  0.0772
 7783SOL    HW124248   6.324   4.213   5.596  0.5379 -1.0022  0.6073
 7783SOL    HW224249   6.443   4.102   5.585  1.4699 -0.0270  0.5932
 7784SOL     OW24250   6.397   2.860   3.602 -0.2622  0.1921 -0.1901
 7784SOL    HW124251   6.415   2.861   3.700 -3.1150  0.7502  0.4191
 7784SOL    HW224252   6.424   2.948   3.562 -0.6865  0.6213  0.4564
 7785SOL     OW24253   0.110   0.624   6.932 -0.2873  0.2012  0.0892
 7785SOL    HW124254   0.031   0.684   6.947 -2.0616 -1.9617 -0.1473
 7785SOL    HW224255   0.081   0.542   6.882  2.5668  0.2928 -1.9170
 7786SOL     OW24256   2.672   1.550   3.456  0.2800  0.5516 -0.4326
 7786SOL    HW124257   2.715   1.588   3.374  0.9661  0.9973  0.1177
 7786SOL    HW224258   2.583   1.594   3.471  0.5287  1.0800 -0.4776
 7787SOL     OW24259   5.350   0.575   6.916 -0.0466  0.1559  0.0285
 7787SOL    HW124260   5.440   0.579   6.873 -0.1863  2.7075 -0.2151
 7787SOL    HW224261   5.352   0.626   7.002 -0.8386 -1.2965  0.9404
 7788SOL     OW24262   6.349   6.335   1.951  0.2479  0.0748  0.2372
 7788SOL    HW124263   6.307   6.371   2.034 -0.7697  1.0893 -0.6976
 7788SOL    HW224264   6.446   6.316   1.969 -0.6741 -3.2444  2.7217
 7789SOL     OW24265   0.265   1.350   0.504  0.1148  0.0195 -0.0574
 7789SOL    HW124266   0.318   1.308   0.430  0.3601  2.6762 -1.5565
 7789SOL    HW224267   0.304   1.440   0.525  0.0983 -0.6824  3.4688
 7790SOL     OW24268   5.601   0.509   6.759  0.6165  0.0948  0.6141
 7790SOL    HW124269   5.631   0.578   6.693  0.2880 -1.1180 -0.8381
 7790SOL    HW224270   5.544   0.441   6.713  0.5755 -0.9190  2.1058
 7791SOL     OW24271   1.550   6.686   2.675  0.1647 -0.6094 -0.7951
 7791SOL    HW124272   1.486   6.750   2.717 -0.8116 -1.7636 -0.4543
 7791SOL    HW224273   1.499   6.613   2.629  1.2369 -1.3229 -0.8963
 7792SOL     OW24274   4.722   3.594   0.959  0.0562  0.6160 -0.1729
 7792SOL    HW124275   4.773   3.530   1.017 -0.2341  0.3691 -0.1860
 7792SOL    HW224276   4.762   3.686   0.967  1.3796  0.1659 -1.2680
 7793SOL     OW24277   6.750   1.995   5.450  0.6685 -0.2734  0.0551
 7793SOL    HW124278   6.762   1.954   5.540  0.6084  0.0411  0.2103
 7793SOL    HW224279   6.699   1.933   5.390 -1.7946  0.6272  1.1008
 7794SOL     OW24280   2.429   5.164   2.843  0.0096  0.0741  0.4691
 7794SOL    HW124281   2.506   5.100   2.840  1.4698  1.7831 -1.8068
 7794SOL    HW224282   2.457   5.249   2.887 -0.8944  0.3421  0.5512
 7795SOL     OW24283   0.712   6.475   2.911 -0.0698 -0.6788  0.2735
 7795SOL    HW124284   0.733   6.571   2.893 -1.4487 -0.3632  0.2858
 7795SOL    HW224285   0.755   6.448   2.998 -1.0523  0.4175  1.1402
 7796SOL     OW24286   3.231   0.972   1.345 -0.3901 -1.0205  0.0646
 7796SOL    HW124287   3.271   0.936   1.429 -0.8012 -0.7153  0.3967
 7796SOL    HW224288   3.303   0.991   1.278  0.0481 -0.1476  0.7709
 7797SOL     OW24289   1.741   0.847   4.827  0.0365  0.1983 -0.0227
 7797SOL    HW124290   1.758   0.943   4.850 -3.9865  0.6411  1.9310
 7797SOL    HW224291   1.807   0.789   4.875 -0.0470  1.8242  2.2263
 7798SOL     OW24292   1.663   5.463   3.740  0.8000 -0.4101 -0.4105
 7798SOL    HW124293   1.602   5.393   3.702  0.6460 -0.3129 -0.3440
 7798SOL    HW224294   1.621   5.553   3.729  0.1092 -0.4943  1.1935
 7799SOL     OW24295   2.040   0.466   6.336  0.5915  0.2542  0.7974
 7799SOL    HW124296   2.030   0.529   6.259 -0.7311 -0.4264  0.3758
 7799SOL    HW224297   1.951   0.426   6.358  1.3859 -1.4591  1.0511
 7800SOL     OW24298   4.867   2.750   0.764  0.2927 -0.2473 -0.4585
 7800SOL    HW124299   4.935   2.705   0.822  0.1032 -0.2463 -0.2361
 7800SOL    HW224300   4.910   2.828   0.717  0.2516  0.2226  0.2733
 7801SOL     OW24301   1.179   1.915   6.090 -0.6727 -0.2879  0.2080
 7801SOL    HW124302   1.182   1.887   5.994 -2.6547 -2.0344  0.5836
 7801SOL    HW224303   1.255   1.978   6.109  1.3245 -1.8876 -1.8577
 7802SOL     OW24304   3.804   2.257   1.421 -0.6407 -0.2686  0.1431
 7802SOL    HW124305   3.807   2.357   1.409 -0.3216 -0.2995 -0.0811
 7802SOL    HW224306   3.724   2.232   1.474 -0.8063  0.0976  0.0731
 7803SOL     OW24307   5.383   0.421   2.503  0.3172 -0.2054  0.2984
 7803SOL    HW124308   5.388   0.489   2.429  0.8476  0.0769  0.5853
 7803SOL    HW224309   5.411   0.464   2.589 -1.8646 -0.0892  1.0013
 7804SOL     OW24310   5.113   5.674   6.262 -0.2118 -0.1385  0.2221
 7804SOL    HW124311   5.162   5.626   6.189  0.2329  2.0505 -0.9980
 7804SOL    HW224312   5.056   5.745   6.222  1.9359  2.8500  2.0576
 7805SOL     OW24313   0.544   5.501   5.410  0.2083 -0.2553  0.5613
 7805SOL    HW124314   0.596   5.585   5.422 -0.0764  0.1168 -0.7393
 7805SOL    HW224315   0.460   5.520   5.361 -0.2939 -1.1646  1.0319
 7806SOL     OW24316   3.115   1.057   0.976  0.0652 -0.4288 -0.5170
 7806SOL    HW124317   3.122   1.140   1.032 -2.2012 -1.0388  0.7848
 7806SOL    HW224318   3.175   0.986   1.013  0.5647  0.0048 -0.4827
 7807SOL     OW24319   5.387   1.849   6.188 -0.0527  0.8361  0.1755
 7807SOL    HW124320   5.405   1.946   6.204  0.0654  0.7038  0.8574
 7807SOL    HW224321   5.462   1.795   6.225 -0.3500  0.4539  0.2234
 7808SOL     OW24322   3.150   4.643   0.531  0.0118 -0.3422  0.3558
 7808SOL    HW124323   3.117   4.588   0.608  1.3229 -2.3215 -0.4128
 7808SOL    HW224324   3.241   4.611   0.504 -0.6957 -0.2031 -2.4817
 7809SOL     OW24325   6.003   0.772   6.690 -0.3329  0.5475  0.3175
 7809SOL    HW124326   6.101   0.765   6.709 -0.5075 -0.5647  0.8892
 7809SOL    HW224327   5.953   0.790   6.775 -0.6136  1.2384  0.0095
 7810SOL     OW24328   2.942   6.608   0.839  0.1356  0.3198 -0.2569
 7810SOL    HW124329   2.914   6.634   0.931  0.8488  0.4946 -0.0868
 7810SOL    HW224330   2.866   6.560   0.794  0.2778 -1.1345  0.9616
 7811SOL     OW24331   0.044   4.152   0.348  0.1424  0.6896 -0.0618
 7811SOL    HW124332   0.091   4.135   0.262  0.9190  0.9053  0.3085
 7811SOL    HW224333   0.001   4.068   0.380 -0.1462  0.6087 -0.6516
 7812SOL     OW24334   4.181   4.799   1.585  0.0013  0.1441  0.5865
 7812SOL    HW124335   4.159   4.896   1.596 -1.1701  0.1099 -1.1092
 7812SOL    HW224336   4.122   4.744   1.644 -0.3774  0.3838  0.4311
 7813SOL     OW24337   4.009   6.064   1.922  0.8443  0.1582  0.0677
 7813SOL    HW124338   4.103   6.052   1.890 -0.1470 -2.3968 -2.3275
 7813SOL    HW224339   3.961   5.977   1.916 -1.5426  1.2218  1.9253
 7814SOL     OW24340   1.717   3.162   6.592  0.1813 -0.3400  0.2539
 7814SOL    HW124341   1.663   3.246   6.599 -0.9080 -0.8006 -1.7590
 7814SOL    HW224342   1.690   3.112   6.510  1.0877 -2.4790  1.1866
 7815SOL     OW24343   4.524   1.717   6.140 -0.3155 -0.7557  0.0375
 7815SOL    HW124344   4.570   1.641   6.185 -2.5875 -3.0526 -1.2894
 7815SOL    HW224345   4.471   1.769   6.207  0.9420 -0.5219  0.8859
 7816SOL     OW24346   0.733   6.389   1.670 -0.3678 -0.1708 -0.1000
 7816SOL    HW124347   0.656   6.409   1.609 -0.5525 -0.6684 -0.0332
 7816SOL    HW224348   0.726   6.445   1.752 -0.3756  0.1576 -0.3208
 7817SOL     OW24349   5.033   3.763   4.936 -0.0709  0.1951  0.0047
 7817SOL    HW124350   5.064   3.793   5.027 -0.4855  1.8308 -0.3633
 7817SOL    HW224351   4.987   3.674   4.944  1.5373 -0.6012  1.0863
 7818SOL     OW24352   4.001   4.962   0.461 -0.2517 -0.2425 -0.2118
 7818SOL    HW124353   4.023   4.977   0.558  1.4726 -0.7126 -0.4961
 7818SOL    HW224354   3.987   5.051   0.417  2.0227  0.2116 -0.1589
 7819SOL     OW24355   2.288   0.859   2.267  0.0681  0.4358 -0.1130
 7819SOL    HW124356   2.335   0.904   2.343 -1.9005 -0.9445  2.0917
 7819SOL    HW224357   2.315   0.763   2.264 -2.9239 -0.6220  1.7684
 7820SOL     OW24358   6.799   5.840   2.983  0.1108  0.3416 -0.1109
 7820SOL    HW124359   6.864   5.787   3.038 -0.4387 -0.0776  0.1482
 7820SOL    HW224360   6.838   5.930   2.963  0.9780 -0.0915 -0.4013
 7821SOL     OW24361   3.623   3.871   4.360 -0.0363  0.3249 -0.2182
 7821SOL    HW124362   3.594   3.877   4.456  0.1091  3.3813 -0.2672
 7821SOL    HW224363   3.544   3.854   4.302 -0.5926  1.2254  0.2509
 7822SOL     OW24364   5.953   2.413   5.001  0.6545 -0.4484 -0.2249
 7822SOL    HW124365   6.029   2.352   5.023  1.4291 -0.1713 -1.9396
 7822SOL    HW224366   5.902   2.376   4.923  0.3139  0.4119 -0.4262
 7823SOL     OW24367   2.143   6.416   2.765 -0.6464 -0.4786 -0.3018
 7823SOL    HW124368   2.207   6.492   2.764 -0.2479 -0.8111 -1.1457
 7823SOL    HW224369   2.146   6.368   2.677 -1.5179 -0.9473 -0.0922
 7824SOL     OW24370   4.881   3.202   2.194 -0.3772 -0.2278 -0.5821
 7824SOL    HW124371   4.821   3.277   2.167  0.0661 -0.5535 -2.7074
 7824SOL    HW224372   4.855   3.119   2.144  0.6376 -0.8586 -0.1013
 7825SOL     OW24373   5.604   4.373   6.160 -0.0147 -0.0981  0.1445
 7825SOL    HW124374   5.555   4.450   6.119 -1.1113  0.5873  2.5875
 7825SOL    HW224375   5.698   4.401   6.181  0.0172  0.1031 -0.2525
 7826SOL     OW24376   2.710   2.899   0.810  0.3540  0.1209 -0.2681
 7826SOL    HW124377   2.661   2.812   0.799  0.0995  0.1501  0.5352
 7826SOL    HW224378   2.805   2.887   0.783  0.7592 -0.9016  1.4588
 7827SOL     OW24379   3.527   4.586   5.672  0.7475  0.3280 -1.0671
 7827SOL    HW124380   3.619   4.596   5.709 -0.0127 -0.4374  1.1975
 7827SOL    HW224381   3.514   4.492   5.641  0.3052  0.0299 -0.0288
 7828SOL     OW24382   1.589   2.633   0.360  0.3704 -0.3534  0.0995
 7828SOL    HW124383   1.606   2.695   0.436  1.4408 -0.5044 -0.0036
 7828SOL    HW224384   1.645   2.659   0.282 -0.3936 -0.4660 -0.4963
 7829SOL     OW24385   6.033   1.637   2.196  0.3002 -0.0133  0.6076
 7829SOL    HW124386   6.024   1.548   2.151  0.8336 -0.8692  2.1456
 7829SOL    HW224387   6.014   1.709   2.129 -2.6598 -1.2885 -0.0660
 7830SOL     OW24388   5.518   4.718   5.805 -0.2034  0.4042 -0.6369
 7830SOL    HW124389   5.616   4.697   5.810 -0.4537 -1.0127 -1.1833
 7830SOL    HW224390   5.473   4.686   5.889 -0.2615  0.7532 -0.5316
 7831SOL     OW24391   3.822   6.554   0.284 -0.1448  0.6279  0.0812
 7831SOL    HW124392   3.916   6.557   0.250 -0.3089 -0.1543 -0.4564
 7831SOL    HW224393   3.823   6.533   0.382  0.2088 -0.1938 -0.0933
 7832SOL     OW24394   3.711   1.213   4.379  0.2434 -0.5153  0.2350
 7832SOL    HW124395   3.665   1.284   4.325 -0.3075 -0.0585  1.2612
 7832SOL    HW224396   3.804   1.200   4.346  0.0906  0.1294 -0.4701
 7833SOL     OW24397   2.257   4.691   4.683 -0.0112 -0.1614  0.3514
 7833SOL    HW124398   2.269   4.769   4.745 -0.3739  1.3872 -1.4439
 7833SOL    HW224399   2.326   4.621   4.705  0.5340  0.7691  1.8073
 7834SOL     OW24400   6.559   4.909   6.640 -0.2568  0.1756  0.1232
 7834SOL    HW124401   6.607   4.836   6.689 -0.4121 -1.1637 -1.5984
 7834SOL    HW224402   6.475   4.934   6.689  0.3088 -0.0688  1.2501
 7835SOL     OW24403   0.508   2.014   6.163  0.2467  0.2196 -0.3027
 7835SOL    HW124404   0.409   2.024   6.175  0.3152  0.4586  0.0932
 7835SOL    HW224405   0.554   2.046   6.245  0.5591 -2.4136  0.6357
 7836SOL     OW24406   3.058   3.126   4.630  0.1110 -0.3636  0.0538
 7836SOL    HW124407   3.079   3.090   4.721  0.5095  0.3190  0.2340
 7836SOL    HW224408   3.142   3.131   4.576 -0.1338 -0.8352 -0.3876
 7837SOL     OW24409   2.771   0.415   3.679  0.1245  0.1959  0.0785
 7837SOL    HW124410   2.781   0.436   3.582  0.6864  0.3591  0.1732
 7837SOL    HW224411   2.712   0.483   3.722 -0.1870  0.0821 -0.1581
 7838SOL     OW24412   5.214   5.484   2.994 -0.3203 -0.2318  0.4768
 7838SOL    HW124413   5.273   5.537   3.055 -0.8524  1.4134 -0.3818
 7838SOL    HW224414   5.146   5.544   2.953 -1.0062 -1.6165 -0.4872
 7839SOL     OW24415   6.710   1.542   5.012  0.1458  0.3643 -0.0538
 7839SOL    HW124416   6.643   1.580   4.949 -1.0692 -2.1414 -0.4011
 7839SOL    HW224417   6.687   1.447   5.033  2.0540  0.2588  2.0482
 7840SOL     OW24418   3.467   4.876   3.345  0.5258  0.1938 -0.9483
 7840SOL    HW124419   3.564   4.903   3.346  0.5814  0.0079 -1.1867
 7840SOL    HW224420   3.436   4.872   3.250  0.1584  0.7027 -0.8524
 7841SOL     OW24421   3.531   2.967   1.681 -0.3613  0.6535  0.2101
 7841SOL    HW124422   3.563   3.009   1.767  0.3446 -0.6565  0.6093
 7841SOL    HW224423   3.448   3.013   1.651 -0.2115  1.6219  1.2046
 7842SOL     OW24424   3.423   3.578   5.052  0.1692  0.3636  0.0166
 7842SOL    HW124425   3.326   3.567   5.030 -0.0737 -1.2952  1.6388
 7842SOL    HW224426   3.433   3.590   5.150  1.4165  4.0797 -0.4225
 7843SOL     OW24427   3.937   6.825   6.068 -0.2205  0.0609  0.2748
 7843SOL    HW124428   4.035   6.846   6.063  0.3775 -2.0152  1.7629
 7843SOL    HW224429   3.892   6.892   6.127  0.9202 -0.6502  2.0230
 7844SOL     OW24430   6.044   3.597   3.128  0.0735  0.0716 -0.1866
 7844SOL    HW124431   6.137   3.563   3.115  0.7165  1.6722 -0.0420
 7844SOL    HW224432   5.996   3.540   3.194  0.8165 -0.9837 -0.5230
 7845SOL     OW24433   2.033   0.050   1.004  0.0176 -0.3993 -0.0258
 7845SOL    HW124434   1.976  -0.002   0.941  1.9177 -0.2368 -1.9692
 7845SOL    HW224435   2.100  -0.011   1.047 -1.7811 -0.7006  2.6706
 7846SOL     OW24436   6.471   3.633   6.274 -0.6556 -0.9250 -0.3268
 7846SOL    HW124437   6.448   3.543   6.311 -0.6010 -0.8477 -0.1069
 7846SOL    HW224438   6.474   3.627   6.174  1.0996 -1.5914 -0.2634
 7847SOL     OW24439   4.992   0.099   1.699  0.0446  0.5811  0.4432
 7847SOL    HW124440   4.971   0.020   1.757 -0.8632  0.8959  0.5661
 7847SOL    HW224441   5.004   0.179   1.757  3.8301  0.0708  0.6095
 7848SOL     OW24442   3.363   3.758   3.294  0.0728  0.2166 -0.9717
 7848SOL    HW124443   3.299   3.834   3.297 -1.4068 -0.9678 -1.2125
 7848SOL    HW224444   3.390   3.733   3.387  0.5919  1.0412 -0.8965
 7849SOL     OW24445   2.212   5.596   2.529 -0.5726  0.6269 -0.2177
 7849SOL    HW124446   2.261   5.521   2.572 -0.4417  0.4009 -0.7539
 7849SOL    HW224447   2.161   5.562   2.449 -0.6596  1.0717 -0.3570
 7850SOL     OW24448   5.025   0.709   2.661  0.5163  0.1923  0.5089
 7850SOL    HW124449   4.971   0.628   2.639 -1.3093  1.6041 -0.5241
 7850SOL    HW224450   5.074   0.694   2.747  1.7615 -2.6578 -0.5887
 7851SOL     OW24451   4.796   4.105   5.042 -0.0550  0.0170  0.0274
 7851SOL    HW124452   4.725   4.173   5.058 -1.4586 -1.0100 -1.4499
 7851SOL    HW224453   4.885   4.149   5.039 -0.8217  1.6296  0.0722
 7852SOL     OW24454   1.088   3.764   6.374 -0.1413 -0.3190 -0.0630
 7852SOL    HW124455   0.992   3.762   6.403  0.1163 -3.4319  0.9391
 7852SOL    HW224456   1.147   3.773   6.455  0.4319 -1.5280 -0.3165
 7853SOL     OW24457   5.244   2.808   1.812 -0.5040  0.1034 -0.7408
 7853SOL    HW124458   5.170   2.869   1.840 -0.3345 -0.9230  2.2044
 7853SOL    HW224459   5.297   2.852   1.739 -2.7615  1.6953 -1.5550
 7854SOL     OW24460   4.805   4.809   3.168 -0.0511  0.1212  0.5349
 7854SOL    HW124461   4.902   4.818   3.145  0.3309 -2.7052  0.6643
 7854SOL    HW224462   4.750   4.809   3.084  0.4676 -1.7334  0.1568
 7855SOL     OW24463   2.354   0.425   1.008  0.3395  0.8333 -0.5229
 7855SOL    HW124464   2.297   0.492   1.056 -0.1355 -0.2047  0.3927
 7855SOL    HW224465   2.434   0.403   1.063 -0.2574 -0.4342 -0.1206
 7856SOL     OW24466   6.633   0.337   0.040  0.3841 -0.0308  0.2031
 7856SOL    HW124467   6.644   0.261  -0.024  2.0027  0.8167 -0.5814
 7856SOL    HW224468   6.609   0.302   0.131 -0.8967 -1.3193 -0.5876
 7857SOL     OW24469   2.137   3.340   1.703  0.3943  0.1155  0.4034
 7857SOL    HW124470   2.225   3.367   1.741  1.1531 -1.2159 -0.3403
 7857SOL    HW224471   2.132   3.369   1.607  0.6736 -1.1019 -0.0050
 7858SOL     OW24472   2.305   0.595   3.196  0.2861  0.5687  0.7104
 7858SOL    HW124473   2.381   0.654   3.168 -0.3141  0.4463 -1.2725
 7858SOL    HW224474   2.248   0.643   3.262  0.2064  1.9555 -0.3355
 7859SOL     OW24475   5.376   1.705   6.563  0.0760  0.0505  0.1864
 7859SOL    HW124476   5.443   1.645   6.520  0.0850  0.4867 -0.4120
 7859SOL    HW224477   5.391   1.799   6.533 -0.8204  0.1489  0.0334
 7860SOL     OW24478   4.045   0.230   3.752  0.1543  0.0323  0.0890
 7860SOL    HW124479   3.980   0.297   3.714  0.4330 -1.1611 -2.7902
 7860SOL    HW224480   4.130   0.277   3.775 -0.0120  0.8752 -0.8873
 7861SOL     OW24481   3.416   1.588   4.956 -0.4689 -0.2885 -0.5894
 7861SOL    HW124482   3.476   1.509   4.966 -0.9742 -0.5694  0.4857
 7861SOL    HW224483   3.321   1.557   4.954 -0.6197  0.1871 -1.7296
 7862SOL     OW24484   6.998   1.965   5.011 -0.5499  0.0154 -0.3634
 7862SOL    HW124485   7.048   1.936   5.092  0.2240 -0.3074 -0.9453
 7862SOL    HW224486   7.062   1.993   4.940 -1.1930 -0.1475 -1.0262
 7863SOL     OW24487   6.809   0.961   4.289  0.4712 -0.3380 -0.4294
 7863SOL    HW124488   6.718   0.943   4.251 -0.0947 -0.3895  0.8555
 7863SOL    HW224489   6.799   1.010   4.376  1.7581  1.2018 -1.0961
 7864SOL     OW24490   5.262   4.309   6.777  0.2887 -0.8222 -0.3239
 7864SOL    HW124491   5.196   4.357   6.834 -1.8574 -2.8186 -0.9741
 7864SOL    HW224492   5.337   4.275   6.834  0.2555  0.6121  0.6050
 7865SOL     OW24493   1.525   4.032   6.942 -0.4694  0.1835  0.0893
 7865SOL    HW124494   1.461   3.957   6.954 -1.5134  1.2748  1.8205
 7865SOL    HW224495   1.607   4.015   6.998 -1.2121  0.8302  1.4198
 7866SOL     OW24496   2.708   5.975   5.841 -0.3227 -0.1793 -0.3940
 7866SOL    HW124497   2.664   6.006   5.925  0.6141 -0.6677  0.2956
 7866SOL    HW224498   2.700   6.046   5.771 -0.9762  0.2957  0.1459
 7867SOL     OW24499   3.544   3.344   5.703 -0.3803  0.1574  0.1296
 7867SOL    HW124500   3.586   3.367   5.792  0.7420 -0.2455 -0.2753
 7867SOL    HW224501   3.525   3.428   5.653  2.0597  0.3327 -0.6072
 7868SOL     OW24502   4.118   0.826   4.158  0.0242 -0.0535 -0.0085
 7868SOL    HW124503   4.063   0.836   4.241 -0.6259 -3.0553  0.0315
 7868SOL    HW224504   4.208   0.790   4.182  0.3132  0.3302 -0.5053
 7869SOL     OW24505   5.276   2.629   1.172 -0.1829  0.0136  0.1462
 7869SOL    HW124506   5.230   2.624   1.084 -1.4944 -1.0211  0.8539
 7869SOL    HW224507   5.330   2.546   1.186 -0.6539 -0.2205  0.6494
 7870SOL     OW24508   6.376   0.124   1.323 -0.6978  0.1145  0.4467
 7870SOL    HW124509   6.299   0.127   1.259 -1.8080 -0.2310  1.7120
 7870SOL    HW224510   6.401   0.029   1.340  0.1408  0.2327 -0.0978
 7871SOL     OW24511   1.507   5.875   4.954 -0.2770  0.3944  0.0569
 7871SOL    HW124512   1.573   5.939   4.993 -0.2132  0.4278 -0.1037
 7871SOL    HW224513   1.501   5.890   4.855 -1.6292  1.3985  0.2670
 7872SOL     OW24514   6.237   3.683   1.362 -0.2413  0.1858  0.2542
 7872SOL    HW124515   6.150   3.676   1.410 -0.6519  1.1397 -0.3288
 7872SOL    HW224516   6.254   3.779   1.337  1.8040  0.3283  1.9104
 7873SOL     OW24517   4.799   2.217   2.879 -0.1429  0.5206  0.4988
 7873SOL    HW124518   4.875   2.259   2.929  3.4388 -3.4943 -1.0496
 7873SOL    HW224519   4.805   2.242   2.782 -1.2402  0.5879  0.4288
 7874SOL     OW24520   0.663   4.983   0.199  0.1863  0.0980 -0.1091
 7874SOL    HW124521   0.727   4.911   0.173 -0.5506 -0.1206 -1.4060
 7874SOL    HW224522   0.669   5.058   0.133 -0.5592  0.2769  0.0232
 7875SOL     OW24523   3.237   4.920   7.002 -0.2663 -0.5988 -0.2882
 7875SOL    HW124524   3.219   4.868   7.085 -0.8260  0.1648  0.0852
 7875SOL    HW224525   3.336   4.927   6.988 -0.1691 -0.7417  0.3085
 7876SOL     OW24526   4.110   5.449   5.241 -0.0871  0.4510  0.6795
 7876SOL    HW124527   4.201   5.414   5.220 -0.6608 -0.7369  0.0878
 7876SOL    HW224528   4.056   5.378   5.286 -1.2819  0.5218 -0.5526
 7877SOL     OW24529   4.363   0.860   4.464  0.4616  0.6126 -0.1010
 7877SOL    HW124530   4.286   0.837   4.523  0.1645  0.2251 -0.6392
 7877SOL    HW224531   4.446   0.869   4.520  0.0835  0.7688  0.4417
 7878SOL     OW24532   4.105   2.515   5.984 -0.0491  0.5377 -0.0761
 7878SOL    HW124533   4.074   2.601   6.023  0.7108  1.5222 -1.5557
 7878SOL    HW224534   4.177   2.532   5.917 -2.0320 -0.9070 -2.7841
 7879SOL     OW24535   2.716   4.295   0.123  0.7443  0.0047  0.0569
 7879SOL    HW124536   2.619   4.270   0.121  0.9566 -0.8102 -0.6585
 7879SOL    HW224537   2.737   4.340   0.210 -1.2176  4.1127 -1.2993
 7880SOL     OW24538   1.559   5.740   6.821  0.0957 -0.4321  0.2817
 7880SOL    HW124539   1.654   5.707   6.816  1.0224  1.9099  0.8073
 7880SOL    HW224540   1.559   5.834   6.854 -2.4626 -0.3772  0.3049
 7881SOL     OW24541   3.828   1.459   1.582 -0.3528  0.5805 -0.0273
 7881SOL    HW124542   3.790   1.537   1.534 -1.2214  0.3487  0.2606
 7881SOL    HW224543   3.838   1.382   1.519  1.6293  1.2502 -0.6020
 7882SOL     OW24544   2.981   0.297   2.680 -0.2082 -0.0635  0.0719
 7882SOL    HW124545   2.929   0.348   2.749  0.1917  1.2361 -0.5593
 7882SOL    HW224546   3.041   0.360   2.630 -0.0027 -1.0968 -1.0262
 7883SOL     OW24547   4.481   5.589   6.553  0.0483  0.6178  0.4666
 7883SOL    HW124548   4.470   5.493   6.580 -1.1287  0.8049  0.6944
 7883SOL    HW224549   4.411   5.613   6.486  1.3004  0.9019 -0.7985
 7884SOL     OW24550   5.430   4.835   1.935 -0.4320  0.5176 -0.6466
 7884SOL    HW124551   5.452   4.744   1.969  0.6529  0.9680 -0.0657
 7884SOL    HW224552   5.415   4.897   2.012  0.1955  1.1304 -1.0014
 7885SOL     OW24553   4.954   1.277   2.856  0.5673 -0.6046 -0.3445
 7885SOL    HW124554   4.989   1.205   2.916 -0.1471 -0.3097  0.4496
 7885SOL    HW224555   4.999   1.364   2.879  0.6473 -0.5822 -0.5791
 7886SOL     OW24556   3.072   3.572   7.011  0.0617 -0.1899  0.3203
 7886SOL    HW124557   3.020   3.527   7.084  0.1316 -1.1023 -0.1881
 7886SOL    HW224558   3.092   3.507   6.938 -1.8279  1.1698 -1.5442
 7887SOL     OW24559   2.949   4.696   7.016 -0.4529 -0.0013  0.1188
 7887SOL    HW124560   2.873   4.754   6.989 -1.5324 -1.7701 -0.7933
 7887SOL    HW224561   2.928   4.600   6.994  2.0650 -0.5385 -0.2343
 7888SOL     OW24562   2.064   1.903   0.231  0.0299  0.2609 -0.3400
 7888SOL    HW124563   2.091   1.841   0.158  0.4703 -0.3695  0.3395
 7888SOL    HW224564   2.132   1.900   0.304 -1.4266 -0.7249  1.0396
 7889SOL     OW24565   6.612   4.657   5.234 -0.0771  0.1767  0.2057
 7889SOL    HW124566   6.614   4.667   5.334  1.7349  0.8872  0.1323
 7889SOL    HW224567   6.545   4.721   5.196 -0.7041 -0.0184  0.9476
 7890SOL     OW24568   2.408   1.035   2.462 -0.0069  0.6443  0.4357
 7890SOL    HW124569   2.486   1.096   2.476 -0.3761  1.1579  0.2673
 7890SOL    HW224570   2.426   0.947   2.507  0.3804  0.9930  0.9691
 7891SOL     OW24571   2.078   0.276   2.439 -0.5957 -0.2619 -0.2419
 7891SOL    HW124572   2.142   0.205   2.469 -0.6710 -0.4566 -0.5450
 7891SOL    HW224573   2.022   0.305   2.517 -1.9197 -1.9335 -0.5138
 7892SOL     OW24574   6.712   1.155   3.924  0.2094  0.0947 -0.5658
 7892SOL    HW124575   6.721   1.222   3.851 -0.2307  0.9464  0.1518
 7892SOL    HW224576   6.769   1.181   4.002 -0.4901  0.0161 -0.0135
 7893SOL     OW24577   6.219   4.253   2.261  0.0055 -0.0581  0.4103
 7893SOL    HW124578   6.267   4.327   2.309 -0.6329 -0.0855  1.0981
 7893SOL    HW224579   6.123   4.252   2.288 -0.3834 -0.0611 -0.8963
 7894SOL     OW24580   0.739   2.690   2.796 -0.1830  0.0488 -0.1208
 7894SOL    HW124581   0.716   2.787   2.800 -1.8301 -0.3647  1.0470
 7894SOL    HW224582   0.839   2.680   2.797  0.0638  1.7552 -1.7589
 7895SOL     OW24583   6.702   2.242   1.826  0.1961 -0.6401  0.2166
 7895SOL    HW124584   6.682   2.283   1.915 -1.2797 -0.3772 -0.2144
 7895SOL    HW224585   6.796   2.207   1.826  0.6988  0.6249  1.3810
 7896SOL     OW24586   1.653   5.330   6.869  0.0559 -0.4622 -0.2438
 7896SOL    HW124587   1.695   5.412   6.830  3.0787 -0.6577  2.2152
 7896SOL    HW224588   1.681   5.250   6.815  1.8499 -0.4311  0.5771
 7897SOL     OW24589   1.252   6.687   4.181  1.1489 -0.3563 -0.4874
 7897SOL    HW124590   1.348   6.667   4.203  1.8456  2.5870 -0.4368
 7897SOL    HW224591   1.224   6.770   4.228 -1.1948 -0.6805 -1.2103
 7898SOL     OW24592   3.722   2.793   1.646  0.0255 -0.7352  0.0391
 7898SOL    HW124593   3.654   2.854   1.605  0.5102 -1.1038 -1.3696
 7898SOL    HW224594   3.677   2.733   1.712 -0.3959  1.3645  1.7760
 7899SOL     OW24595   3.717   3.301   0.821  0.4757  0.6121 -0.2705
 7899SOL    HW124596   3.789   3.266   0.881  0.4205  1.2831  0.2073
 7899SOL    HW224597   3.681   3.386   0.859 -0.5098  0.3372 -0.5506
 7900SOL     OW24598   5.728   3.427   0.960 -0.2709  0.3195 -0.1249
 7900SOL    HW124599   5.667   3.504   0.944 -1.4141 -0.2010  1.5244
 7900SOL    HW224600   5.700   3.349   0.904  1.9443  1.5144 -3.1701
 7901SOL     OW24601   5.776   0.605   3.363 -0.0596  0.2228 -0.4156
 7901SOL    HW124602   5.693   0.659   3.349 -0.0699  0.2751 -0.1550
 7901SOL    HW224603   5.856   0.662   3.343 -0.0385  0.6055  0.6658
 7902SOL     OW24604   3.307   4.138   1.590  0.3552 -0.0084  0.9439
 7902SOL    HW124605   3.219   4.162   1.549  1.3101 -0.0737 -1.3034
 7902SOL    HW224606   3.342   4.215   1.643  0.8558  1.6972 -1.6678
 7903SOL     OW24607   4.697   4.055   1.771  0.0875  0.4032  0.8309
 7903SOL    HW124608   4.648   3.968   1.763  0.4520  0.2127  0.6329
 7903SOL    HW224609   4.634   4.126   1.802 -0.6306  0.4471 -0.6497
 7904SOL     OW24610   3.686   6.587   1.152  0.6051 -0.2043  0.0387
 7904SOL    HW124611   3.703   6.528   1.231  0.0702 -0.0479  0.2740
 7904SOL    HW224612   3.750   6.564   1.079  0.9791 -0.4769  0.4511
 7905SOL     OW24613   3.570   4.137   5.075  0.4744  0.2728  0.2375
 7905SOL    HW124614   3.513   4.191   5.138  1.2844 -0.5386  1.7289
 7905SOL    HW224615   3.657   4.117   5.120  0.6504 -1.2513 -0.7585
 7906SOL     OW24616   2.239   1.871   2.480 -0.3013  0.2707  0.7521
 7906SOL    HW124617   2.209   1.797   2.420 -0.6948  2.1335 -1.5018
 7906SOL    HW224618   2.226   1.844   2.576 -1.6477 -2.0338 -0.0001
 7907SOL     OW24619   6.182   6.969   5.937 -0.8687 -0.3846  0.0006
 7907SOL    HW124620   6.194   7.061   5.974 -0.7384 -0.6739  0.6831
 7907SOL    HW224621   6.168   6.975   5.838 -0.3762  0.3296 -0.0323
 7908SOL     OW24622   0.042   5.381   3.066  0.0749  1.0928 -0.4145
 7908SOL    HW124623  -0.046   5.374   3.020 -0.5354 -0.9310  0.9111
 7908SOL    HW224624   0.113   5.408   3.001 -0.7688 -1.4048 -2.4999
 7909SOL     OW24625   4.374   6.558   2.779 -0.6220 -0.2441  0.0948
 7909SOL    HW124626   4.406   6.490   2.844  0.7747  0.7670  0.4986
 7909SOL    HW224627   4.442   6.631   2.769 -1.2517  0.1581 -1.7259
 7910SOL     OW24628   5.251   5.741   4.121 -0.3504  0.0708  0.1921
 7910SOL    HW124629   5.180   5.797   4.164 -2.8107 -1.6153 -1.4032
 7910SOL    HW224630   5.269   5.776   4.029  0.4052  0.0529  0.3230
 7911SOL     OW24631   4.088   6.537   0.215  0.3050 -0.3532 -0.4516
 7911SOL    HW124632   4.111   6.460   0.274  2.7546  0.0132 -0.8398
 7911SOL    HW224633   4.124   6.521   0.123  2.3588  1.8955 -0.1331
 7912SOL     OW24634   3.882   0.596   3.435 -0.0995 -0.0236  0.5036
 7912SOL    HW124635   3.812   0.606   3.365  0.5754 -0.4753 -0.2540
 7912SOL    HW224636   3.972   0.615   3.395  0.3338 -0.6699  1.1509
 7913SOL     OW24637   4.339   2.501   6.283  0.5969 -0.1864 -0.1432
 7913SOL    HW124638   4.312   2.408   6.255  1.5825 -0.1043 -1.4506
 7913SOL    HW224639   4.264   2.543   6.334 -0.6323 -1.0075 -1.1925
 7914SOL     OW24640   0.306   3.609   5.747  0.0384  0.0720 -0.3381
 7914SOL    HW124641   0.391   3.586   5.794  1.6193  1.4990 -2.2954
 7914SOL    HW224642   0.254   3.526   5.727  0.3237 -0.7158  1.9662
 7915SOL     OW24643   4.826   6.938   4.096 -0.5700 -0.9574  0.3120
 7915SOL    HW124644   4.783   6.848   4.107  0.4738 -1.7771 -1.8935
 7915SOL    HW224645   4.918   6.936   4.134  0.2252 -1.5029 -1.5418
 7916SOL     OW24646   5.225   0.391   2.861  0.4631 -0.4193 -0.5422
 7916SOL    HW124647   5.283   0.373   2.782 -0.0361  0.7817 -1.2130
 7916SOL    HW224648   5.157   0.318   2.871  0.0093 -0.1779 -1.7192
 7917SOL     OW24649   1.758   1.330   2.958  0.2524 -0.3215 -0.3845
 7917SOL    HW124650   1.815   1.302   2.881  0.9502 -0.7219  0.2683
 7917SOL    HW224651   1.730   1.425   2.946  2.2561  0.3625 -0.0149
 7918SOL     OW24652   5.812   2.409   3.960 -0.6099  0.2396  0.6801
 7918SOL    HW124653   5.822   2.310   3.950  0.7533  0.4798 -0.7283
 7918SOL    HW224654   5.866   2.440   4.038  0.2639  0.0571  0.1596
 7919SOL     OW24655   1.012   4.854   1.466 -0.4974  0.0104 -0.5140
 7919SOL    HW124656   0.994   4.827   1.371  0.1584  2.1285 -1.3045
 7919SOL    HW224657   1.077   4.930   1.467 -0.8230  0.3230  1.6373
 7920SOL     OW24658   4.797   4.753   2.273 -0.8094  0.0390  0.2128
 7920SOL    HW124659   4.879   4.795   2.234 -1.0945 -0.5807 -1.1183
 7920SOL    HW224660   4.730   4.823   2.295 -1.2480  0.3459 -1.8944
 7921SOL     OW24661   2.778   1.137   1.589  0.2817 -0.3102  0.1439
 7921SOL    HW124662   2.828   1.140   1.502 -0.5761 -1.4444 -0.4229
 7921SOL    HW224663   2.680   1.133   1.570  0.0878 -0.6658  1.1718
 7922SOL     OW24664   5.244   6.409   2.554 -0.0485  0.5581  0.1908
 7922SOL    HW124665   5.146   6.417   2.537 -0.2895  1.6550  1.9201
 7922SOL    HW224666   5.287   6.361   2.477 -1.8468  0.4749 -0.8151
 7923SOL     OW24667   1.828   5.216   2.972  0.4164  0.6452 -0.1230
 7923SOL    HW124668   1.782   5.301   2.999  0.2358  0.0888  1.4535
 7923SOL    HW224669   1.910   5.238   2.919  0.0258  1.7772 -0.2793
 7924SOL     OW24670   5.540   3.635   3.471  0.4975  0.2181 -0.0803
 7924SOL    HW124671   5.635   3.641   3.502  0.1804  1.5036  0.7429
 7924SOL    HW224672   5.484   3.594   3.544  0.2521  0.4288 -0.1484
 7925SOL     OW24673   2.905   2.287   6.302 -0.0803  0.1503  0.2894
 7925SOL    HW124674   3.000   2.319   6.297 -0.1623  0.3234 -0.3533
 7925SOL    HW224675   2.855   2.321   6.222  0.4227 -3.5632 -1.8522
 7926SOL     OW24676   5.864   2.368   3.034  0.6385  0.2234 -0.6350
 7926SOL    HW124677   5.874   2.436   3.107  1.4064 -1.2806  0.7188
 7926SOL    HW224678   5.865   2.414   2.946  1.0441  1.9781  0.2341
 7927SOL     OW24679   3.089   4.967   5.430 -0.0076 -0.1061  0.1223
 7927SOL    HW124680   3.139   4.880   5.433 -1.1310 -0.8469 -1.2104
 7927SOL    HW224681   2.991   4.949   5.441 -0.1164  1.2350  1.9279
 7928SOL     OW24682   5.773   2.593   1.330 -0.1450 -0.2273  0.2456
 7928SOL    HW124683   5.690   2.638   1.298  0.9280  0.1873 -2.2075
 7928SOL    HW224684   5.820   2.651   1.396 -0.2127  0.9898 -0.7529
 7929SOL     OW24685   1.145   3.424   6.496 -0.4882 -0.2764 -0.1410
 7929SOL    HW124686   1.069   3.378   6.542 -1.0953  0.5179 -0.3223
 7929SOL    HW224687   1.133   3.523   6.503  1.0424 -0.1194  0.6436
 7930SOL     OW24688   6.378   3.894   2.025  0.5281 -0.0224  0.2927
 7930SOL    HW124689   6.301   3.949   2.057  1.0435  0.1067  1.3551
 7930SOL    HW224690   6.451   3.897   2.093  1.5142 -0.0626 -0.7431
 7931SOL     OW24691   4.603   3.762   1.708 -0.1460  0.2948 -0.1669
 7931SOL    HW124692   4.503   3.769   1.699 -0.0903  0.6270 -0.5994
 7931SOL    HW224693   4.632   3.670   1.685 -0.2928  0.3751 -0.6833
 7932SOL     OW24694   6.562   5.246   0.691  0.0488  0.4514  0.5881
 7932SOL    HW124695   6.641   5.284   0.740  0.3521  0.2045  0.2923
 7932SOL    HW224696   6.563   5.147   0.698  0.1468  0.4070  0.0135
 7933SOL     OW24697   0.184   5.039   6.469  0.0070  0.1049 -0.3761
 7933SOL    HW124698   0.160   4.942   6.473 -0.8118  0.2288 -1.7298
 7933SOL    HW224699   0.267   5.051   6.414  0.0034  0.2031 -0.3611
 7934SOL     OW24700   4.516   4.495   0.678  0.0469  0.4638 -0.4278
 7934SOL    HW124701   4.613   4.471   0.677 -0.3428 -1.4636  1.2248
 7934SOL    HW224702   4.479   4.492   0.586  1.1217 -0.7269 -0.8403
 7935SOL     OW24703   4.610   1.982   2.382  0.4019  0.4348 -0.1361
 7935SOL    HW124704   4.578   2.001   2.475 -0.8116 -0.9255 -0.2483
 7935SOL    HW224705   4.692   1.925   2.385  0.2153  0.1785  0.1037
 7936SOL     OW24706   1.876   5.224   1.921  0.1569 -0.6507 -0.2553
 7936SOL    HW124707   1.843   5.244   2.013  1.9325 -1.3428  0.5826
 7936SOL    HW224708   1.883   5.125   1.909 -0.4400 -0.5829 -1.3073
 7937SOL     OW24709   3.219   0.885   0.285 -0.3634  0.6244  0.3734
 7937SOL    HW124710   3.254   0.816   0.222  0.8010  0.9731  0.6008
 7937SOL    HW224711   3.280   0.891   0.364 -1.7351  0.2717  1.4938
 7938SOL     OW24712   6.947   0.472   1.358 -0.3350 -0.1838 -0.2412
 7938SOL    HW124713   6.955   0.570   1.377 -0.3597 -0.5439  1.8201
 7938SOL    HW224714   6.854   0.442   1.380 -0.4427 -0.6102 -1.2423
 7939SOL     OW24715   1.763   1.501   1.741 -0.2272  0.5169  0.3674
 7939SOL    HW124716   1.775   1.478   1.837  0.6788  0.9287  0.3631
 7939SOL    HW224717   1.762   1.417   1.686 -1.8424  0.2105  0.8309
 7940SOL     OW24718   1.914   4.661   6.665  0.1186  0.4659 -0.5758
 7940SOL    HW124719   1.863   4.650   6.579  0.4919  1.8599 -1.0142
 7940SOL    HW224720   1.864   4.619   6.740 -0.2624 -0.6995 -1.4545
 7941SOL     OW24721   3.693   4.935   4.084  0.5895  0.2686  0.0710
 7941SOL    HW124722   3.654   4.895   4.166  1.5573 -0.5154  0.1628
 7941SOL    HW224723   3.620   4.951   4.017 -0.1054  0.3008  0.8262
 7942SOL     OW24724   6.110   3.515   1.174 -0.6961 -0.3063 -0.5259
 7942SOL    HW124725   6.174   3.557   1.237 -1.2267 -0.4989  0.1526
 7942SOL    HW224726   6.022   3.563   1.179 -0.2474  0.8166 -2.4127
 7943SOL     OW24727   4.504   4.879   6.405 -0.3895  0.2041  0.5079
 7943SOL    HW124728   4.553   4.826   6.336  1.1100 -0.1444  1.7943
 7943SOL    HW224729   4.406   4.878   6.384  0.0725  0.8302 -2.0913
 7944SOL     OW24730   2.228   0.912   2.779  0.3781 -0.7733  0.6517
 7944SOL    HW124731   2.220   0.928   2.877 -2.0604  2.5020  0.1118
 7944SOL    HW224732   2.152   0.854   2.748  0.1827 -0.4508  0.5152
 7945SOL     OW24733   1.858   6.501   4.175 -0.3528  0.2599 -0.3796
 7945SOL    HW124734   1.801   6.425   4.142  0.5096 -0.2606 -0.6942
 7945SOL    HW224735   1.869   6.569   4.103 -0.8094  0.5139 -0.2197
 7946SOL     OW24736   4.656   4.719   1.060  0.1183  0.0625  0.1308
 7946SOL    HW124737   4.564   4.681   1.072  0.2913 -0.1427  0.8670
 7946SOL    HW224738   4.649   4.811   1.023 -0.2674 -1.1524 -3.1547
 7947SOL     OW24739   3.549   2.033   2.172  0.5052 -0.1333 -0.4747
 7947SOL    HW124740   3.570   2.071   2.262 -2.1359 -0.3072  0.2958
 7947SOL    HW224741   3.566   2.102   2.102  0.2044  0.8833  0.4319
 7948SOL     OW24742   3.660   0.216   5.654 -0.0914 -0.0816  0.1595
 7948SOL    HW124743   3.613   0.247   5.737  0.4612 -0.3918  0.6011
 7948SOL    HW224744   3.730   0.283   5.628  0.2355 -0.3347  0.3752
 7949SOL     OW24745   6.921   5.859   4.146  0.5597 -0.0251  0.4836
 7949SOL    HW124746   6.999   5.830   4.090  1.3937  2.8336  0.0241
 7949SOL    HW224747   6.853   5.786   4.148  2.1026 -1.6202 -1.2303
 7950SOL     OW24748   5.877   7.004   6.549 -0.5205  0.7121  0.2362
 7950SOL    HW124749   5.807   6.940   6.580 -0.5208  0.1729 -0.7996
 7950SOL    HW224750   5.911   7.057   6.626  0.5641 -1.5940  1.4526
 7951SOL     OW24751   5.485   2.919   4.426 -0.1612  0.4254 -0.0443
 7951SOL    HW124752   5.457   2.893   4.519  0.1023 -0.6210 -0.2410
 7951SOL    HW224753   5.440   2.860   4.360 -0.3524  1.1768 -0.5926
 7952SOL     OW24754   5.027   2.466   3.955 -0.1093 -0.8374 -0.2352
 7952SOL    HW124755   4.936   2.446   3.990 -0.7064  0.9313 -0.7054
 7952SOL    HW224756   5.047   2.405   3.878 -1.9226  0.3648 -1.7322
 7953SOL     OW24757   0.488   3.996   3.451 -0.0996  0.3035 -0.4077
 7953SOL    HW124758   0.559   3.974   3.383  1.3989  1.5916  0.6687
 7953SOL    HW224759   0.517   4.075   3.504 -0.9843 -0.9622  2.0938
 7954SOL     OW24760   6.687   5.597   4.051 -0.8579  0.0536 -0.2831
 7954SOL    HW124761   6.672   5.696   4.056 -0.3294  0.1918 -1.1629
 7954SOL    HW224762   6.749   5.577   3.975  1.0642 -0.7539  1.4204
 7955SOL     OW24763   1.037   1.184   1.818  0.2267 -0.3351  0.6162
 7955SOL    HW124764   1.080   1.104   1.861 -0.2221 -1.1509 -0.4168
 7955SOL    HW224765   0.940   1.187   1.844 -0.1221 -1.0128 -0.5613
 7956SOL     OW24766   1.069   4.145   5.214  0.1154  0.3610  0.2351
 7956SOL    HW124767   1.049   4.048   5.199  0.2659  0.2080  0.9782
 7956SOL    HW224768   1.167   4.161   5.202  0.0184  0.5199 -0.3719
 7957SOL     OW24769   0.211   0.084   3.991  0.5285 -0.0954 -0.4623
 7957SOL    HW124770   0.280   0.123   4.052 -0.1221  1.4092 -0.6312
 7957SOL    HW224771   0.120   0.119   4.016  0.2822  0.9265 -2.5045
 7958SOL     OW24772   2.307   0.362   1.417  0.1049  0.1478  0.1214
 7958SOL    HW124773   2.364   0.335   1.495  0.3060  0.8682  0.2299
 7958SOL    HW224774   2.320   0.297   1.342 -0.6843 -1.0054  0.9495
 7959SOL     OW24775   2.146   5.444   4.919  0.6762 -0.1040  0.2921
 7959SOL    HW124776   2.121   5.479   4.829 -0.4656 -0.1720  0.5679
 7959SOL    HW224777   2.069   5.457   4.982  0.6262 -2.0722  0.6959
 7960SOL     OW24778   4.239   5.749   0.736  0.1909 -0.1558 -0.1934
 7960SOL    HW124779   4.150   5.773   0.697  0.6910  0.9884 -0.7013
 7960SOL    HW224780   4.248   5.790   0.826  0.3461  0.0709 -0.3087
 7961SOL     OW24781   3.042   4.874   3.151  0.0579  0.0032  0.3677
 7961SOL    HW124782   3.010   4.831   3.235 -0.1442  0.3867  0.4895
 7961SOL    HW224783   3.110   4.944   3.173  0.1103  0.0062  0.2017
 7962SOL     OW24784   1.816   4.964   2.695 -0.0427 -0.6208 -0.0871
 7962SOL    HW124785   1.901   4.931   2.654  1.5008  1.3662  1.2767
 7962SOL    HW224786   1.820   4.952   2.794  0.2032  2.4451  0.3879
 7963SOL     OW24787   6.329   1.857   1.542 -0.2375  0.1709 -0.0661
 7963SOL    HW124788   6.260   1.866   1.614  0.7262 -0.1187  0.9279
 7963SOL    HW224789   6.308   1.919   1.467 -2.6462 -1.2618 -0.6875
 7964SOL     OW24790   2.138   6.847   1.744 -0.1082  0.2663 -0.1960
 7964SOL    HW124791   2.183   6.758   1.747 -0.2282  0.2077 -0.1633
 7964SOL    HW224792   2.143   6.890   1.834  1.1090  0.8617 -0.5242
 7965SOL     OW24793   3.546   0.383   4.228 -0.4091 -0.2618  0.2060
 7965SOL    HW124794   3.496   0.302   4.196  1.0333 -0.6735 -1.1255
 7965SOL    HW224795   3.493   0.465   4.208 -1.6114 -0.8083  0.9991
 7966SOL     OW24796   5.008   5.481   1.658 -0.1172  0.6806 -0.5096
 7966SOL    HW124797   4.945   5.524   1.723  1.5841  1.2609  0.8309
 7966SOL    HW224798   5.034   5.391   1.693  0.9231  1.0562 -0.2960
 7967SOL     OW24799   3.744   5.502   2.113  0.1512 -0.2521 -0.1311
 7967SOL    HW124800   3.707   5.412   2.133 -0.6766  0.0444 -0.2782
 7967SOL    HW224801   3.684   5.572   2.151  0.3489  0.2495 -0.7135
 7968SOL     OW24802   2.637   0.292   1.061  0.1971  0.8462 -0.0165
 7968SOL    HW124803   2.690   0.208   1.074 -0.4385 -0.0148 -2.5072
 7968SOL    HW224804   2.573   0.302   1.138  1.3804 -0.0573  1.1397
 7969SOL     OW24805   4.663   6.467   1.747  0.3957 -0.3960  0.5457
 7969SOL    HW124806   4.617   6.534   1.688  1.1519 -0.4628 -0.1467
 7969SOL    HW224807   4.599   6.433   1.816 -0.3048  0.2257  0.2143
 7970SOL     OW24808   2.764   3.163   0.549 -0.0442  0.1731 -0.2834
 7970SOL    HW124809   2.677   3.173   0.598 -0.0488 -2.1000  0.2889
 7970SOL    HW224810   2.822   3.243   0.566 -1.5363  1.1647  0.3107
 7971SOL     OW24811   5.143   1.513   0.846  0.1152 -0.4195 -0.9272
 7971SOL    HW124812   5.055   1.553   0.873  1.1293  0.8927  0.5787
 7971SOL    HW224813   5.155   1.425   0.892 -1.2306 -1.5893 -2.6787
 7972SOL     OW24814   1.888   5.847   1.542  0.0932 -0.1864  0.0084
 7972SOL    HW124815   1.902   5.945   1.531  1.3912 -0.1565  1.5749
 7972SOL    HW224816   1.812   5.817   1.484  1.0751  1.3206 -2.1843
 7973SOL     OW24817   5.381   5.344   1.902  0.3394 -0.3212  0.0455
 7973SOL    HW124818   5.393   5.268   1.840  0.7096 -1.8026  1.8373
 7973SOL    HW224819   5.294   5.389   1.884 -0.0584 -1.3985 -0.7979
 7974SOL     OW24820   5.383   2.801   4.677 -0.4596  0.4770  0.2409
 7974SOL    HW124821   5.439   2.719   4.687 -0.9825 -0.0011 -0.5252
 7974SOL    HW224822   5.347   2.828   4.766  0.8100  0.6798  0.7091
 7975SOL     OW24823   4.942   2.875   6.951 -0.4798  0.4058 -0.2910
 7975SOL    HW124824   4.844   2.883   6.932 -0.1822  1.9732 -1.3633
 7975SOL    HW224825   4.979   2.966   6.972  0.8799 -0.0534 -0.6274
 7976SOL     OW24826   4.320   0.271   5.110 -0.4425  0.1175 -0.4742
 7976SOL    HW124827   4.307   0.323   5.025  0.6835  0.1606 -0.6297
 7976SOL    HW224828   4.370   0.187   5.090 -1.2088 -0.4652 -0.0266
 7977SOL     OW24829   2.081   6.444   3.856  0.0589  0.3525  0.3984
 7977SOL    HW124830   2.117   6.515   3.916 -0.8757  2.5233 -1.4483
 7977SOL    HW224831   1.981   6.446   3.859  0.0013  0.1601 -0.7687
 7978SOL     OW24832   1.912   0.195   6.989  0.3541 -0.9281 -0.2820
 7978SOL    HW124833   1.897   0.294   6.984  0.0697 -0.7434  2.5472
 7978SOL    HW224834   1.985   0.170   6.926  0.7500  1.1707 -0.7503
 7979SOL     OW24835   1.295   3.607   5.199 -0.3020  0.0716  0.0406
 7979SOL    HW124836   1.374   3.584   5.255 -0.2640  0.2399  0.0562
 7979SOL    HW224837   1.236   3.672   5.248 -1.4522 -1.5098  0.8421
 7980SOL     OW24838   2.723   5.654   1.176  0.2778  0.2826 -0.3576
 7980SOL    HW124839   2.712   5.705   1.090 -2.3438  0.3178 -0.0533
 7980SOL    HW224840   2.710   5.717   1.253  0.8550 -0.1111  0.0668
 7981SOL     OW24841   4.515   3.643   0.354  0.1465 -0.1438 -0.0173
 7981SOL    HW124842   4.566   3.627   0.438  0.4595 -0.7808 -0.3188
 7981SOL    HW224843   4.507   3.741   0.338  1.7144 -0.0238 -0.2136
 7982SOL     OW24844   0.253   4.166   0.533 -0.2049 -0.1513 -0.2851
 7982SOL    HW124845   0.177   4.146   0.472 -1.0068 -0.3815  0.7488
 7982SOL    HW224846   0.324   4.096   0.522 -1.3203 -1.4811  0.6008
 7983SOL     OW24847   3.505   6.251   2.851  0.7049  0.1160  0.6864
 7983SOL    HW124848   3.482   6.314   2.778 -2.3084 -0.1633  1.2705
 7983SOL    HW224849   3.516   6.159   2.813  0.7305  0.2398  0.3908
 7984SOL     OW24850   4.340   5.552   3.826 -0.0254  0.1808 -0.3086
 7984SOL    HW124851   4.295   5.527   3.912 -0.1541  1.4899  0.0199
 7984SOL    HW224852   4.418   5.612   3.845  0.4522 -0.1751 -1.0582
 7985SOL     OW24853   1.587   1.091   4.430 -0.0299  0.1420  0.4431
 7985SOL    HW124854   1.636   1.149   4.494 -0.6191  1.3399 -0.1570
 7985SOL    HW224855   1.500   1.063   4.471  0.6680 -1.1725  1.1168
 7986SOL     OW24856   5.379   3.675   3.746 -0.3993  0.6304 -0.4801
 7986SOL    HW124857   5.357   3.605   3.679 -0.3302  0.0844  0.0572
 7986SOL    HW224858   5.464   3.651   3.794 -2.1725 -0.7902  2.1756
 7987SOL     OW24859   3.043   4.855   3.574  0.8377 -0.5181  0.1703
 7987SOL    HW124860   2.996   4.940   3.594  0.2078 -1.0930  1.2282
 7987SOL    HW224861   3.138   4.861   3.606  1.1510  0.1964 -0.8449
 7988SOL     OW24862   2.561   6.727   1.055 -0.5925  0.1555  0.1643
 7988SOL    HW124863   2.602   6.763   0.971  1.0332 -0.5145  0.6424
 7988SOL    HW224864   2.534   6.803   1.114  0.9416  0.6277  0.2890
 7989SOL     OW24865   3.912   1.893   5.925 -0.7070  0.3395 -0.8888
 7989SOL    HW124866   3.940   1.968   5.984 -1.2832 -0.3235  0.2556
 7989SOL    HW224867   3.819   1.865   5.947 -0.4492 -0.8097 -1.1835
 7990SOL     OW24868   0.537   6.842   6.002 -0.7099  0.5913 -0.0338
 7990SOL    HW124869   0.574   6.933   6.022  0.0807  1.0196 -3.0092
 7990SOL    HW224870   0.530   6.790   6.087 -0.6972  3.2123  1.6968
 7991SOL     OW24871   6.961   1.367   3.562 -0.6304 -0.2003 -0.2402
 7991SOL    HW124872   6.976   1.325   3.473  1.0384 -0.2237  0.0176
 7991SOL    HW224873   7.003   1.311   3.633  1.2750  1.6004  0.1622
 7992SOL     OW24874   4.217   5.389   2.847  0.3348  0.0714  0.1281
 7992SOL    HW124875   4.155   5.418   2.920 -1.1819  0.7320 -1.3525
 7992SOL    HW224876   4.302   5.356   2.887 -0.9181 -0.7883  2.2371
 7993SOL     OW24877   6.608   6.533   4.868 -0.4021  0.6774  0.3111
 7993SOL    HW124878   6.631   6.470   4.943 -1.2814 -0.6960 -0.5340
 7993SOL    HW224879   6.553   6.608   4.904  2.2805  2.1619  1.7233
 7994SOL     OW24880   6.251   5.494   1.682  0.1073 -0.1941 -0.2379
 7994SOL    HW124881   6.192   5.477   1.603 -2.0733 -0.9881  1.4661
 7994SOL    HW224882   6.221   5.576   1.730  0.6228 -0.4100  0.4721
 7995SOL     OW24883   0.951   4.201   1.858 -0.1063  0.3936  0.0176
 7995SOL    HW124884   0.929   4.138   1.783 -0.0162  0.5130 -0.1098
 7995SOL    HW224885   1.049   4.216   1.861 -0.1271  0.5223  0.0530
 7996SOL     OW24886   4.988   4.608   0.804 -0.0582  0.0369  0.0352
 7996SOL    HW124887   5.075   4.578   0.843 -0.1576 -0.4681 -0.1230
 7996SOL    HW224888   4.912   4.572   0.859 -0.1738  0.4366  0.1464
 7997SOL     OW24889   2.875   6.268   2.538  0.3190  0.0399  0.3664
 7997SOL    HW124890   2.895   6.263   2.440 -1.5185  3.2620 -0.2982
 7997SOL    HW224891   2.959   6.292   2.587  0.9515 -0.1783 -0.5734
 7998SOL     OW24892   1.419   2.590   3.334  0.3235  0.3543  0.5582
 7998SOL    HW124893   1.513   2.563   3.354 -0.3432 -1.1364  1.9323
 7998SOL    HW224894   1.392   2.554   3.244  0.4443 -1.0526  1.0517
 7999SOL     OW24895   3.004   3.295   2.599  0.5191 -0.0978  0.1617
 7999SOL    HW124896   2.941   3.234   2.550  1.9415 -0.1932 -1.6664
 7999SOL    HW224897   3.095   3.290   2.556  0.9953  2.3761  0.7314
 8000SOL     OW24898   5.290   2.543   5.235  0.0967  0.0828 -0.1717
 8000SOL    HW124899   5.201   2.564   5.195  0.3561  1.3363 -0.1392
 8000SOL    HW224900   5.286   2.555   5.334  0.0558 -0.8159 -0.0542
 8001SOL     OW24901   4.696   4.806   2.899 -0.6067 -0.2377 -0.5936
 8001SOL    HW124902   4.775   4.800   2.838 -0.2557 -1.7322 -0.0431
 8001SOL    HW224903   4.632   4.874   2.864  0.9470  1.0861 -1.0177
 8002SOL     OW24904   5.666   4.580   1.951 -1.1464 -0.0287 -0.4062
 8002SOL    HW124905   5.657   4.655   1.885 -1.0710  0.1324 -0.2319
 8002SOL    HW224906   5.725   4.508   1.912  1.4503  1.3987  0.6763
 8003SOL     OW24907   2.317   6.190   5.878  0.3309  0.5159  0.3117
 8003SOL    HW124908   2.218   6.174   5.887  0.1726  1.4301  0.2867
 8003SOL    HW224909   2.349   6.148   5.793  0.0378 -0.0819  0.4844
 8004SOL     OW24910   1.178   4.228   0.048 -0.4935 -0.0180 -0.3634
 8004SOL    HW124911   1.192   4.160  -0.025 -2.6880  0.5609 -1.4095
 8004SOL    HW224912   1.214   4.316   0.018  0.6685 -0.2822  0.2232
 8005SOL     OW24913   6.850   1.362   2.640 -0.0503 -0.3638  0.2638
 8005SOL    HW124914   6.828   1.414   2.558 -2.4902  0.0689  1.1032
 8005SOL    HW224915   6.766   1.325   2.679  1.3456 -2.8027  1.1281
 8006SOL     OW24916   0.185   6.611   1.053  0.2836  0.5238  0.0198
 8006SOL    HW124917   0.113   6.553   1.015 -0.3703  2.0283 -1.1124
 8006SOL    HW224918   0.172   6.705   1.024  2.1441  1.0245  0.6306
 8007SOL     OW24919   4.886   1.983   3.253  0.0129  0.1306  0.3528
 8007SOL    HW124920   4.941   1.926   3.192  0.3393 -0.1292  0.8784
 8007SOL    HW224921   4.864   1.931   3.336 -0.4679  0.4592  0.4362
 8008SOL     OW24922   1.022   5.467   2.071  0.2064 -0.1594 -0.0982
 8008SOL    HW124923   0.938   5.419   2.095 -0.5098 -0.2216 -2.4082
 8008SOL    HW224924   1.091   5.453   2.142 -1.7158 -0.0857  1.8713
 8009SOL     OW24925   0.810   0.795   3.225 -0.7186 -0.1799  0.1875
 8009SOL    HW124926   0.764   0.794   3.137 -0.5172  2.4619 -0.0312
 8009SOL    HW224927   0.814   0.702   3.262 -2.8924 -1.0133 -1.4683
 8010SOL     OW24928   1.208   6.122   3.467  0.1794 -0.3378  0.3770
 8010SOL    HW124929   1.177   6.216   3.481  1.1576  0.2942 -1.3717
 8010SOL    HW224930   1.282   6.102   3.530 -0.4938 -0.1978  1.2367
 8011SOL     OW24931   1.251   6.329   0.933  0.0715  0.2448 -0.0401
 8011SOL    HW124932   1.315   6.399   0.903 -1.2863  2.3291  1.6068
 8011SOL    HW224933   1.266   6.309   1.030  0.3543 -1.6994 -0.4522
 8012SOL     OW24934   6.773   3.630   5.120  0.1153  0.5446  0.0654
 8012SOL    HW124935   6.761   3.559   5.052 -1.9821  2.4970 -1.7643
 8012SOL    HW224936   6.805   3.714   5.076  2.8889  0.7596  2.1900
 8013SOL     OW24937   2.250   0.133   5.524 -0.4010 -0.2944  0.2687
 8013SOL    HW124938   2.317   0.186   5.472  0.7980 -1.5274  0.5068
 8013SOL    HW224939   2.160   0.141   5.481  0.6400 -1.7300 -2.3942
 8014SOL     OW24940   3.355   5.444   6.152  0.2184 -0.1891  0.0984
 8014SOL    HW124941   3.446   5.443   6.194  0.3514 -0.1242 -0.1832
 8014SOL    HW224942   3.365   5.446   6.052 -0.0923 -0.1009  0.0692
 8015SOL     OW24943   2.231   2.374   1.853  0.1258 -0.2563  0.1202
 8015SOL    HW124944   2.181   2.441   1.909 -0.3466 -1.4600  1.1844
 8015SOL    HW224945   2.188   2.369   1.763 -1.5782 -1.0863  0.9344
 8016SOL     OW24946   0.032   5.869   1.768 -0.5989 -0.1667 -0.3669
 8016SOL    HW124947   0.073   5.866   1.677 -0.5040  0.6318 -0.3554
 8016SOL    HW224948   0.091   5.821   1.833  0.3010  0.9139 -0.3619
 8017SOL     OW24949   0.779   0.770   0.078  0.0657 -0.3134 -0.6562
 8017SOL    HW124950   0.739   0.862   0.070 -1.4748 -1.0370 -1.7284
 8017SOL    HW224951   0.710   0.707   0.113  1.4704 -0.8729  1.2866
 8018SOL     OW24952   1.571   6.865   6.712 -0.3418  0.2706 -0.2071
 8018SOL    HW124953   1.618   6.926   6.649  1.7124 -0.0411  0.9402
 8018SOL    HW224954   1.554   6.913   6.798  1.9327 -0.8553  0.9695
 8019SOL     OW24955   5.437   5.273   6.365 -0.0330 -0.1310  0.2985
 8019SOL    HW124956   5.428   5.345   6.434  0.0330 -1.8040  2.1370
 8019SOL    HW224957   5.412   5.310   6.275 -0.9047  1.9244  1.3161
 8020SOL     OW24958   2.003   3.375   5.296  0.1230  0.1253  0.0538
 8020SOL    HW124959   2.055   3.434   5.234 -2.7722  1.3362 -1.4215
 8020SOL    HW224960   2.058   3.295   5.320  2.8911  1.6690 -0.7232
 8021SOL     OW24961   3.255   5.774   1.622  0.5644  0.5603  0.4293
 8021SOL    HW124962   3.210   5.700   1.672  0.9804  0.5722  0.8187
 8021SOL    HW224963   3.202   5.795   1.540 -0.8164  1.4044  1.5000
 8022SOL     OW24964   2.618   0.996   1.022 -0.1014  0.2216  0.1221
 8022SOL    HW124965   2.577   1.076   1.066 -0.8497  0.5716 -1.1612
 8022SOL    HW224966   2.652   1.021   0.932  1.3414 -0.4995  0.4410
 8023SOL     OW24967   5.966   4.649   1.337  0.3123 -0.2910  0.1227
 8023SOL    HW124968   5.969   4.691   1.247  0.7753 -2.5504 -0.9817
 8023SOL    HW224969   5.877   4.665   1.379 -0.9324 -1.4821 -1.9210
 8024SOL     OW24970   5.836   4.989   3.410 -0.0390 -0.5897  0.4235
 8024SOL    HW124971   5.861   4.899   3.375  2.6015  1.0401 -2.4627
 8024SOL    HW224972   5.830   5.054   3.333  1.0631  2.3023  2.6032
 8025SOL     OW24973   6.728   6.356   0.648 -0.4508  0.3030 -0.0170
 8025SOL    HW124974   6.761   6.307   0.568 -1.4302  1.8862 -1.4680
 8025SOL    HW224975   6.745   6.454   0.637 -0.5043  0.5455  1.7727
 8026SOL     OW24976   2.099   5.638   6.422 -0.5948 -0.3413  0.1719
 8026SOL    HW124977   2.049   5.627   6.336  0.7795 -0.0566 -0.6926
 8026SOL    HW224978   2.151   5.724   6.419  0.3101 -0.8519  0.8359
 8027SOL     OW24979   0.413   3.937   0.543 -0.2799 -0.1004 -0.0021
 8027SOL    HW124980   0.382   3.917   0.637 -0.4906  1.4671  0.2855
 8027SOL    HW224981   0.457   3.856   0.505  0.6980 -0.4850  1.8188
 8028SOL     OW24982   5.885   0.149   3.294 -0.0934 -0.3262  0.3062
 8028SOL    HW124983   5.978   0.183   3.303  0.3594 -1.6007  0.6418
 8028SOL    HW224984   5.877   0.097   3.209 -0.3235 -0.7437  0.5815
 8029SOL     OW24985   1.558   2.283   2.136  0.4322  0.0119  0.2422
 8029SOL    HW124986   1.618   2.257   2.060  0.3905  1.3611 -0.2706
 8029SOL    HW224987   1.612   2.323   2.210  0.3562 -0.3941  0.5237
 8030SOL     OW24988   2.676   0.425   5.868  0.0698 -0.1957  0.5423
 8030SOL    HW124989   2.636   0.435   5.959  2.3860 -1.0237  1.7157
 8030SOL    HW224990   2.645   0.338   5.828  1.6244 -1.5136  2.0210
 8031SOL     OW24991   1.515   6.197   4.833  0.3138  0.1259  0.3691
 8031SOL    HW124992   1.416   6.197   4.818  0.1280  0.5900  1.4875
 8031SOL    HW224993   1.562   6.186   4.746 -0.6822  1.7893 -0.4170
 8032SOL     OW24994   2.681   4.695   0.335  0.5240  0.1787 -0.5190
 8032SOL    HW124995   2.767   4.745   0.327  0.7050 -0.1586 -0.6964
 8032SOL    HW224996   2.699   4.597   0.334  0.0712  0.0884 -1.4799
 8033SOL     OW24997   0.244   4.826   5.374 -0.0392  0.1616  0.0649
 8033SOL    HW124998   0.214   4.766   5.301  0.3915 -0.8576  0.7044
 8033SOL    HW224999   0.343   4.814   5.389 -0.2081 -0.0087  1.1297
 8034SOL     OW25000   5.363   5.259   3.364  0.1714  0.5086  0.1487
 8034SOL    HW125001   5.335   5.249   3.268  0.3561  0.7346  0.0705
 8034SOL    HW225002   5.403   5.173   3.396 -0.0073  0.3929  0.0607
 8035SOL     OW25003   1.039   6.987   3.347 -0.2452  0.2386  0.0137
 8035SOL    HW125004   1.050   6.985   3.247 -1.6000 -0.9258 -0.1325
 8035SOL    HW225005   1.099   7.058   3.385  0.8987  0.1598 -1.5347
 8036SOL     OW25006   6.742   5.586   2.053  0.4398  0.7536 -0.3590
 8036SOL    HW125007   6.807   5.660   2.032 -0.5715  1.8945  0.3667
 8036SOL    HW225008   6.656   5.604   2.006  0.4302 -0.4073 -0.8089
 8037SOL     OW25009   1.979   4.302   6.322 -0.1218 -0.0819  0.0044
 8037SOL    HW125010   2.001   4.371   6.254  0.3520  1.1450  1.3733
 8037SOL    HW225011   2.044   4.306   6.397 -1.4721 -0.4139  1.2493
 8038SOL     OW25012   0.795   1.292   5.797  0.4929 -0.2408 -0.4101
 8038SOL    HW125013   0.744   1.343   5.866  2.7735  0.4322  0.8828
 8038SOL    HW225014   0.754   1.307   5.707 -0.8490  1.2167  0.3986
 8039SOL     OW25015   1.658   2.985   6.371  0.1479 -0.4203  0.1755
 8039SOL    HW125016   1.559   2.976   6.373  0.1967 -1.1048 -0.2019
 8039SOL    HW225017   1.686   3.023   6.282  0.1113  1.4313  0.9127
 8040SOL     OW25018   5.457   6.570   6.397 -0.0292 -0.9326  0.7454
 8040SOL    HW125019   5.463   6.501   6.324 -0.9011  0.2002 -0.4479
 8040SOL    HW225020   5.540   6.627   6.396 -0.5221 -0.2119 -0.1214
 8041SOL     OW25021   5.345   0.977   0.510  0.0660  0.1067  0.0161
 8041SOL    HW125022   5.428   1.030   0.523 -0.1473  0.1867  1.1435
 8041SOL    HW225023   5.265   1.036   0.522 -0.1730 -0.4433  1.2856
 8042SOL     OW25024   0.038   5.848   6.203  0.0761  0.9584 -0.0613
 8042SOL    HW125025   0.018   5.791   6.283 -1.1497  1.4561 -0.0058
 8042SOL    HW225026   0.030   5.792   6.120  0.8828  0.5619  0.1138
 8043SOL     OW25027   6.904   2.158   1.551  0.1603  0.1893  0.0097
 8043SOL    HW125028   6.855   2.239   1.517  0.1949  0.1438 -0.1515
 8043SOL    HW225029   6.912   2.163   1.650 -0.9111 -0.2232  0.1300
 8044SOL     OW25030   4.188   6.523   3.993 -0.1330  0.4421 -0.3968
 8044SOL    HW125031   4.232   6.611   3.977 -0.2924  0.9998  1.8687
 8044SOL    HW225032   4.230   6.480   4.073 -2.3380  0.0606  0.6230
 8045SOL     OW25033   0.208   1.799   4.692  0.4733  0.7060  0.1242
 8045SOL    HW125034   0.182   1.882   4.741 -0.2508  1.3943 -1.3694
 8045SOL    HW225035   0.146   1.724   4.716  1.8953  0.1942  2.4512
 8046SOL     OW25036   5.975   0.823   2.257  0.6331 -0.2881  0.3468
 8046SOL    HW125037   5.946   0.898   2.315  0.6718  0.1230 -0.1582
 8046SOL    HW225038   5.932   0.738   2.288  0.3008  0.0078  0.6944
 8047SOL     OW25039   2.702   1.812   6.158  0.0309 -0.2081 -0.2086
 8047SOL    HW125040   2.627   1.745   6.161  0.7786 -1.0193  0.7123
 8047SOL    HW225041   2.766   1.787   6.085 -0.1788  0.0505 -0.4859
 8048SOL     OW25042   5.223   0.279   6.940  0.3112  0.2064  0.0289
 8048SOL    HW125043   5.237   0.340   7.018  1.2925  1.3230 -0.9665
 8048SOL    HW225044   5.138   0.304   6.893  0.7590  0.9347 -0.4345
 8049SOL     OW25045   0.841   4.459   6.392  0.4554  0.1913  0.2024
 8049SOL    HW125046   0.908   4.394   6.358  2.4537  1.9652  0.5197
 8049SOL    HW225047   0.810   4.518   6.317  1.0732  0.8966  0.4911
 8050SOL     OW25048   6.129   5.284   4.859  0.0574  0.0727  0.5608
 8050SOL    HW125049   6.143   5.363   4.800  1.8507 -0.7383 -0.1643
 8050SOL    HW225050   6.123   5.314   4.954  1.0157  1.0558  0.3269
 8051SOL     OW25051   5.996   4.412   4.097  0.2682 -0.5316 -0.1584
 8051SOL    HW125052   6.075   4.388   4.041  0.3725 -2.0310  0.5947
 8051SOL    HW225053   5.912   4.385   4.050  0.2222  0.4181 -0.6436
 8052SOL     OW25054   6.741   2.678   2.082 -0.7339  0.2475 -0.0011
 8052SOL    HW125055   6.663   2.617   2.098  0.9575 -1.9653  0.3189
 8052SOL    HW225056   6.806   2.633   2.020  1.2818  1.0637  1.4046
 8053SOL     OW25057   1.803   2.567   5.971 -0.3096 -0.0772 -0.8046
 8053SOL    HW125058   1.865   2.544   6.046 -0.8658 -0.2050 -0.3749
 8053SOL    HW225059   1.744   2.489   5.952  0.0296 -0.1478 -1.5820
 8054SOL     OW25060   3.072   1.936   6.813 -0.3361  0.2449  0.2274
 8054SOL    HW125061   3.057   1.867   6.742  0.3426  0.4954 -0.1691
 8054SOL    HW225062   3.053   1.896   6.903 -3.9684  0.6941 -0.2039
 8055SOL     OW25063   2.769   1.839   2.419  0.5326  0.0330  0.2160
 8055SOL    HW125064   2.781   1.872   2.513 -1.8261  1.4874  0.1045
 8055SOL    HW225065   2.676   1.860   2.388  1.1989 -0.5005 -2.4334
 8056SOL     OW25066   5.015   5.723   5.032 -0.0538  0.3687  0.1038
 8056SOL    HW125067   5.009   5.768   5.121 -1.8182 -1.4365  0.9712
 8056SOL    HW225068   4.937   5.749   4.975  0.9430  1.3350 -0.8837
 8057SOL     OW25069   1.402   5.079   6.761 -0.5882  0.3789 -0.5736
 8057SOL    HW125070   1.484   5.067   6.705 -0.4381 -2.4779  0.1025
 8057SOL    HW225071   1.421   5.144   6.835  1.7121 -1.5235  0.6295
 8058SOL     OW25072   1.570   4.234   4.268 -0.1234 -0.0516  0.1433
 8058SOL    HW125073   1.616   4.172   4.331  0.9482  0.4003 -0.1856
 8058SOL    HW225074   1.474   4.206   4.258 -0.1691 -0.4431  1.5466
 8059SOL     OW25075   2.452   5.207   1.965 -0.5288  0.1184  0.3152
 8059SOL    HW125076   2.503   5.131   1.927 -0.1566  0.2999  0.4449
 8059SOL    HW225077   2.365   5.174   2.003 -0.6175 -0.1520 -0.1229
 8060SOL     OW25078   6.738   0.194   4.189 -0.4712  0.0920 -0.1444
 8060SOL    HW125079   6.683   0.271   4.221 -0.9337  0.7870 -2.4351
 8060SOL    HW225080   6.713   0.172   4.094  0.0455 -2.5333  0.2437
 8061SOL     OW25081   1.706   6.117   5.763  0.5290 -0.0976  0.3241
 8061SOL    HW125082   1.732   6.187   5.829 -0.0262 -1.1069  1.6770
 8061SOL    HW225083   1.780   6.050   5.755  0.0626 -0.7196  1.0115
 8062SOL     OW25084   6.529   3.398   1.330 -0.1421 -0.2842 -0.5756
 8062SOL    HW125085   6.535   3.496   1.348 -2.6556 -0.0399 -0.6965
 8062SOL    HW225086   6.540   3.347   1.415  0.4725  0.1359 -0.3994
 8063SOL     OW25087   3.391   6.292   6.787  0.3404  0.0578 -0.2151
 8063SOL    HW125088   3.331   6.371   6.777  0.2620  0.0131 -0.1046
 8063SOL    HW225089   3.401   6.246   6.699  1.5312  1.0114 -0.6108
 8064SOL     OW25090   5.148   3.615   2.451  0.0496  0.1228 -0.1456
 8064SOL    HW125091   5.081   3.609   2.377  0.6146 -1.8683 -0.5541
 8064SOL    HW225092   5.102   3.602   2.539 -0.0273 -2.4936 -0.4917
 8065SOL     OW25093   5.662   1.652   6.563 -0.4000 -0.2483  0.2181
 8065SOL    HW125094   5.605   1.703   6.627 -0.7099 -0.4753  0.1233
 8065SOL    HW225095   5.747   1.703   6.546 -0.9094  0.4599 -0.2414
 8066SOL     OW25096   2.176   4.495   6.170 -0.0079  0.3970 -0.1885
 8066SOL    HW125097   2.204   4.556   6.245 -0.8489  0.9484 -0.2990
 8066SOL    HW225098   2.233   4.512   6.090  0.1666  0.6146 -0.0195
 8067SOL     OW25099   5.334   3.372   2.176 -0.3888 -0.0564  0.0151
 8067SOL    HW125100   5.427   3.341   2.197 -0.5556 -0.1957  0.5826
 8067SOL    HW225101   5.275   3.292   2.161 -0.8131 -0.0506  1.4499
 8068SOL     OW25102   1.898   2.719   1.925  0.2130  0.2229 -0.2048
 8068SOL    HW125103   1.958   2.775   1.982 -0.2535  0.1976  0.3188
 8068SOL    HW225104   1.803   2.742   1.944  0.0338 -0.2982 -0.4503
 8069SOL     OW25105   2.968   0.405   3.871 -0.0685  0.0619  0.6037
 8069SOL    HW125106   2.899   0.376   3.806 -0.4972 -1.6098  1.7310
 8069SOL    HW225107   2.926   0.419   3.961  0.6233  1.5923  0.7149
 8070SOL     OW25108   0.160   5.341   1.976  0.3803 -0.2568  0.0508
 8070SOL    HW125109   0.183   5.253   2.017  1.5983  0.6890  1.4816
 8070SOL    HW225110   0.066   5.366   2.001  0.2042 -0.8938  0.0455
 8071SOL     OW25111   1.917   2.729   4.479  0.2975 -0.3008 -0.0098
 8071SOL    HW125112   1.858   2.807   4.458  1.7757  1.0198  0.5731
 8071SOL    HW225113   1.864   2.645   4.474 -1.4130  0.7573 -0.3648
 8072SOL     OW25114   5.070   2.433   3.601  0.0248 -0.9909  0.2695
 8072SOL    HW125115   5.042   2.349   3.648  0.2099 -2.0160 -1.3760
 8072SOL    HW225116   4.989   2.486   3.576 -0.0783 -0.4564  1.6459
 8073SOL     OW25117   2.054   4.489   4.614 -0.3559  0.3061  0.0088
 8073SOL    HW125118   2.124   4.552   4.646 -0.8940  1.7319 -1.4951
 8073SOL    HW225119   1.972   4.541   4.587 -0.7191 -0.9833 -1.5260
 8074SOL     OW25120   2.223   0.753   0.942  0.4276  0.5724 -0.6495
 8074SOL    HW125121   2.156   0.697   0.892  0.4698  2.2241 -2.7216
 8074SOL    HW225122   2.310   0.752   0.893  1.0558  0.7403  0.4502
 8075SOL     OW25123   6.631   0.825   5.091  0.5014  0.4575 -0.3090
 8075SOL    HW125124   6.640   0.785   5.183  0.4082 -0.7497 -0.8105
 8075SOL    HW225125   6.547   0.878   5.086 -1.3743 -2.3666 -0.6957
 8076SOL     OW25126   3.524   1.680   5.974 -0.5089 -0.1115  0.4070
 8076SOL    HW125127   3.445   1.619   5.964 -1.6083  1.1816  0.9432
 8076SOL    HW225128   3.598   1.632   6.021 -0.3052 -1.9021 -1.6133
 8077SOL     OW25129   6.177   1.792   1.064  0.3154  0.0261  0.1717
 8077SOL    HW125130   6.241   1.718   1.085  0.9444  0.0046 -1.6389
 8077SOL    HW225131   6.216   1.850   0.992 -2.3570 -0.9893 -2.2918
 8078SOL     OW25132   5.248   0.514   1.297 -0.2397 -0.0778 -0.1359
 8078SOL    HW125133   5.174   0.554   1.351  0.2340 -0.2980  0.6934
 8078SOL    HW225134   5.209   0.462   1.221 -1.0109 -1.4410  1.1445
 8079SOL     OW25135   2.433   4.537   2.565  0.3048 -0.2795  0.0430
 8079SOL    HW125136   2.413   4.484   2.483  0.5247 -1.1139  0.5149
 8079SOL    HW225137   2.447   4.475   2.642  1.0072  0.4514  0.5179
 8080SOL     OW25138   4.919   4.979   3.442 -0.2958 -0.0650 -0.6140
 8080SOL    HW125139   4.825   5.011   3.456 -0.1064  2.0042 -3.1464
 8080SOL    HW225140   4.964   4.967   3.530 -1.5700  3.3640  0.7016
 8081SOL     OW25141   6.334   3.163   5.312 -0.4716 -0.2302 -0.4373
 8081SOL    HW125142   6.271   3.237   5.337  0.6168  0.2753  0.9223
 8081SOL    HW225143   6.344   3.100   5.388 -0.3756 -1.0649 -1.1297
 8082SOL     OW25144   5.230   1.649   3.303  0.1135 -0.1632 -0.3866
 8082SOL    HW125145   5.228   1.645   3.403 -0.5279  0.4551 -0.3689
 8082SOL    HW225146   5.293   1.720   3.274 -0.1380  0.0556 -0.4045
 8083SOL     OW25147   5.354   4.901   1.670  0.3239  0.0637 -0.1416
 8083SOL    HW125148   5.416   4.950   1.732 -0.4937  0.2719  0.5243
 8083SOL    HW225149   5.366   4.802   1.681  0.9019  0.1046 -0.3903
 8084SOL     OW25150   6.062   2.717   6.445  0.0174 -0.4255 -0.4390
 8084SOL    HW125151   6.055   2.664   6.361  1.0174 -1.6876  0.2500
 8084SOL    HW225152   6.152   2.704   6.485  0.6233  2.4639 -0.6539
 8085SOL     OW25153   3.638   2.128   5.155 -0.3553 -0.1029 -0.5194
 8085SOL    HW125154   3.625   2.056   5.224 -0.2865 -0.8413 -1.2716
 8085SOL    HW225155   3.575   2.112   5.079 -0.2516  0.5692 -0.7476
 8086SOL     OW25156   4.158   4.890   6.979  0.0600  0.1068 -0.9353
 8086SOL    HW125157   4.161   4.922   6.885 -1.8436  0.8017 -0.8073
 8086SOL    HW225158   4.173   4.967   7.041 -2.2627  0.4126 -0.6614
 8087SOL     OW25159   3.681   6.360   6.385  0.5917 -0.7452  0.0408
 8087SOL    HW125160   3.731   6.436   6.345  0.9285 -1.9270 -1.8745
 8087SOL    HW225161   3.628   6.393   6.463  0.2379  1.5782 -1.1000
 8088SOL     OW25162   2.818   3.559   5.640 -0.2895  0.2490  0.2962
 8088SOL    HW125163   2.751   3.595   5.576 -0.6108 -1.8829 -0.6221
 8088SOL    HW225164   2.772   3.508   5.712  0.3217 -1.6258 -0.5947
 8089SOL     OW25165   4.822   0.771   3.314 -0.2177  0.0567  0.1210
 8089SOL    HW125166   4.755   0.726   3.254 -1.4307 -0.6102  1.8749
 8089SOL    HW225167   4.841   0.862   3.279 -1.8586  0.1703 -0.5996
 8090SOL     OW25168   4.962   2.957   0.626 -0.5209 -0.2502  0.2914
 8090SOL    HW125169   4.914   2.994   0.546 -0.5314 -1.8692 -0.5065
 8090SOL    HW225170   5.019   3.028   0.666 -1.0475  0.8013 -0.7386
 8091SOL     OW25171   6.802   3.487   6.436 -0.6911 -0.1999  0.0403
 8091SOL    HW125172   6.843   3.418   6.495 -1.0414 -0.3808  0.0754
 8091SOL    HW225173   6.863   3.566   6.430 -0.6980 -0.1322  0.7354
 8092SOL     OW25174   6.652   0.637   3.577  0.5320  0.4505  0.1123
 8092SOL    HW125175   6.642   0.564   3.644  0.1987  0.8472  0.5022
 8092SOL    HW225176   6.614   0.722   3.614  0.4351  0.6989 -0.5413
 8093SOL     OW25177   6.155   6.554   1.287  0.3358  0.3894  0.3581
 8093SOL    HW125178   6.185   6.565   1.382  0.4205  1.2620  0.2353
 8093SOL    HW225179   6.063   6.515   1.285 -0.0111  1.1571  0.8277
 8094SOL     OW25180   3.156   1.924   1.641  0.6668  0.2004 -0.3570
 8094SOL    HW125181   3.136   1.915   1.738 -2.4602  0.9320 -0.8523
 8094SOL    HW225182   3.129   1.840   1.593  2.3163 -0.2112 -0.6357
 8095SOL     OW25183   0.647   6.122   0.216  0.2872 -0.0877 -0.1190
 8095SOL    HW125184   0.638   6.173   0.130  0.4179  1.1657  0.5791
 8095SOL    HW225185   0.744   6.105   0.234  0.3868  1.0966  0.5661
 8096SOL     OW25186   2.296   2.890   4.557  0.0330 -0.0450 -0.2928
 8096SOL    HW125187   2.355   2.921   4.632 -0.8760 -0.1609  0.4869
 8096SOL    HW225188   2.234   2.819   4.591 -2.6527  2.1540 -0.2744
 8097SOL     OW25189   1.172   7.015   0.425 -0.1879 -0.1626  0.2454
 8097SOL    HW125190   1.212   6.973   0.507 -1.3631 -1.4100  0.2300
 8097SOL    HW225191   1.095   6.959   0.394 -1.5554  1.7990 -0.0745
 8098SOL     OW25192   0.508   2.809   5.661 -0.0593  0.3441 -0.0078
 8098SOL    HW125193   0.431   2.842   5.607  0.5055  1.5176 -0.1235
 8098SOL    HW225194   0.481   2.727   5.712 -1.5372  1.0533  0.3855
 8099SOL     OW25195   4.055   6.939   0.087 -0.2642 -0.2172 -0.0029
 8099SOL    HW125196   4.012   6.898   0.006  1.5984  0.0873 -1.2144
 8099SOL    HW225197   4.039   6.880   0.166 -1.5339 -0.8923 -0.7094
 8100SOL     OW25198   1.447   6.283   6.862 -0.1027 -0.5455  0.8375
 8100SOL    HW125199   1.468   6.258   6.957 -0.1278 -1.2819  0.6559
 8100SOL    HW225200   1.354   6.255   6.839 -0.8092  1.3903  1.1819
 8101SOL     OW25201   0.504   6.993   4.066  0.2208 -0.4062 -0.4675
 8101SOL    HW125202   0.565   6.980   3.988  1.5770  2.7573 -0.0932
 8101SOL    HW225203   0.462   7.084   4.061 -0.4887 -0.5279  1.9215
 8102SOL     OW25204   4.328   6.319   6.542 -0.6337  0.5322  0.7723
 8102SOL    HW125205   4.392   6.254   6.502 -1.2793  0.0948  0.4415
 8102SOL    HW225206   4.344   6.325   6.641 -0.2390  0.2594  0.7269
 8103SOL     OW25207   1.302   0.018   5.673 -0.3005  0.3186 -0.1678
 8103SOL    HW125208   1.352   0.091   5.720  0.2267  0.3281 -0.7320
 8103SOL    HW225209   1.367  -0.043   5.629 -0.7725 -0.0013 -0.4233
 8104SOL     OW25210   4.327   6.703   4.322 -0.3028 -0.1693  0.2207
 8104SOL    HW125211   4.356   6.799   4.321 -1.2670  0.1459 -1.6177
 8104SOL    HW225212   4.231   6.697   4.293 -0.2334 -1.6894  0.2471
 8105SOL     OW25213   0.762   5.793   2.590 -0.4003 -0.1552 -0.6822
 8105SOL    HW125214   0.718   5.835   2.671 -1.9819 -0.1055 -1.5175
 8105SOL    HW225215   0.764   5.694   2.601 -0.2473 -0.1230 -0.4104
 8106SOL     OW25216   1.859   0.740   6.824  0.6751  0.4058  0.0303
 8106SOL    HW125217   1.762   0.734   6.802  0.9283  0.3017 -1.1300
 8106SOL    HW225218   1.913   0.736   6.740  1.7892 -1.4322  0.7673
 8107SOL     OW25219   2.683   6.094   3.732  0.3950  0.3863  0.2916
 8107SOL    HW125220   2.613   6.028   3.760 -0.6907  1.2508 -0.2749
 8107SOL    HW225221   2.763   6.046   3.696 -0.8574 -0.6328 -1.2627
 8108SOL     OW25222   1.475   5.866   3.785  0.4782  0.5893 -0.4354
 8108SOL    HW125223   1.402   5.802   3.761  1.3924 -0.7462  0.2091
 8108SOL    HW225224   1.487   5.867   3.884  1.0017  1.1632 -0.4981
 8109SOL     OW25225   1.303   2.796   5.025 -0.3579  0.0580 -0.4461
 8109SOL    HW125226   1.358   2.814   5.107  0.1091  0.2343 -0.7880
 8109SOL    HW225227   1.348   2.726   4.970 -1.1245 -0.7049 -0.1297
 8110SOL     OW25228   5.552   3.615   0.869 -0.3156  0.0553  0.2485
 8110SOL    HW125229   5.610   3.696   0.876  0.2659 -0.2936 -0.3952
 8110SOL    HW225230   5.484   3.629   0.796 -0.4735  0.1163  0.4062
 8111SOL     OW25231   4.897   1.813   4.207 -0.2208 -0.2372 -0.6299
 8111SOL    HW125232   4.863   1.858   4.290  0.7162 -0.1931 -0.2584
 8111SOL    HW225233   4.994   1.835   4.194 -0.2256 -0.6617 -1.4587
 8112SOL     OW25234   1.231   1.639   3.921 -0.0381 -0.5943  0.0125
 8112SOL    HW125235   1.276   1.550   3.932 -0.9799 -1.1482 -0.4998
 8112SOL    HW225236   1.132   1.626   3.917 -0.1202  0.3222 -1.5896
 8113SOL     OW25237   4.358   1.131   2.310  0.3609 -0.5528  0.6738
 8113SOL    HW125238   4.268   1.165   2.285 -0.9195 -3.3760  1.0290
 8113SOL    HW225239   4.428   1.178   2.257 -1.5917 -0.5421 -2.0842
 8114SOL     OW25240   3.332   1.776   5.628 -0.0487 -0.6115 -0.0621
 8114SOL    HW125241   3.333   1.744   5.723 -2.7490  0.0215  0.2576
 8114SOL    HW225242   3.246   1.749   5.584  0.6363  0.1323 -1.9889
 8115SOL     OW25243   5.447   5.497   4.448  0.2807 -0.1098 -0.0873
 8115SOL    HW125244   5.377   5.461   4.386 -0.8235  1.6477  0.0778
 8115SOL    HW225245   5.413   5.494   4.542  1.6117 -1.9580  0.3945
 8116SOL     OW25246   3.059   4.116   0.671 -0.7123  0.2330 -0.0335
 8116SOL    HW125247   2.966   4.081   0.673 -0.0466 -1.6448  2.2021
 8116SOL    HW225248   3.116   4.057   0.614 -0.0867 -1.1044  1.8770
 8117SOL     OW25249   0.612   0.967   6.445 -0.4377  0.3253 -0.3872
 8117SOL    HW125250   0.660   0.928   6.523  0.8733 -0.0077 -1.3236
 8117SOL    HW225251   0.528   0.915   6.428 -0.9680  0.6649  1.0204
 8118SOL     OW25252   6.070   0.939   2.664 -0.1015  0.2951  0.8794
 8118SOL    HW125253   6.145   0.956   2.600 -0.9058  0.2980 -0.0943
 8118SOL    HW225254   5.983   0.936   2.613 -0.7516  0.2193  1.9685
 8119SOL     OW25255   4.682   1.655   1.403  0.1838  0.2984  0.5733
 8119SOL    HW125256   4.618   1.604   1.345 -0.2142  1.1395  0.2652
 8119SOL    HW225257   4.674   1.622   1.498 -1.2173  0.8624  0.6693
 8120SOL     OW25258   0.327   6.635   2.340 -0.0083  0.4742 -0.8724
 8120SOL    HW125259   0.276   6.550   2.331  1.6841 -0.7186  0.2716
 8120SOL    HW225260   0.278   6.697   2.401  0.0522 -0.8033  0.5451
 8121SOL     OW25261   2.412   1.940   1.689  0.8238 -1.2252  0.0586
 8121SOL    HW125262   2.425   2.020   1.749 -0.1165 -1.6274  0.8123
 8121SOL    HW225263   2.348   1.877   1.731  1.0996 -2.1099 -0.8202
 8122SOL     OW25264   3.526   1.552   4.580 -0.1638  0.2331 -0.2342
 8122SOL    HW125265   3.537   1.600   4.493 -1.4559  1.7681  0.4109
 8122SOL    HW225266   3.553   1.611   4.655 -0.7352 -0.4299  0.5138
 8123SOL     OW25267   6.630   0.530   4.721  0.2216 -0.5467  0.4591
 8123SOL    HW125268   6.654   0.566   4.811  1.2177 -1.3222  0.5369
 8123SOL    HW225269   6.636   0.430   4.723 -0.7439 -0.6317 -0.2060
 8124SOL     OW25270   3.875   2.750   6.508  0.0187  0.1631  0.0461
 8124SOL    HW125271   3.780   2.734   6.481  0.4449  0.0773 -1.5287
 8124SOL    HW225272   3.935   2.689   6.456  0.9958  0.7939  0.3997
 8125SOL     OW25273   3.072   5.992   0.998  0.0400 -0.3879  0.2388
 8125SOL    HW125274   3.037   5.901   0.979  0.9271 -0.4753 -1.0491
 8125SOL    HW225275   3.142   5.987   1.070  0.3047 -0.7732 -0.0435
 8126SOL     OW25276   0.191   4.879   3.509  0.2884 -0.0593  0.0666
 8126SOL    HW125277   0.140   4.941   3.569 -0.4671  2.5369 -2.9412
 8126SOL    HW225278   0.129   4.809   3.473  0.3775 -0.6566  1.0343
 8127SOL     OW25279   4.961   1.415   0.188 -0.0812  0.0139 -0.8336
 8127SOL    HW125280   5.039   1.446   0.243 -1.7212 -0.7699  2.1061
 8127SOL    HW225281   4.901   1.493   0.168 -0.1653  0.0770 -0.3364
 8128SOL     OW25282   3.711   0.456   1.120  0.0496 -0.3291  0.2100
 8128SOL    HW125283   3.659   0.542   1.117  0.9694  0.2582  0.7797
 8128SOL    HW225284   3.742   0.433   1.028 -0.0021  0.0693  0.0913
 8129SOL     OW25285   4.291   5.720   1.839 -0.5634  0.0941 -0.2440
 8129SOL    HW125286   4.215   5.655   1.833  1.6643 -2.8832  0.9360
 8129SOL    HW225287   4.335   5.728   1.750 -0.8006 -0.1147 -0.3811
 8130SOL     OW25288   3.623   6.815   5.789 -0.1486 -0.4059 -0.4357
 8130SOL    HW125289   3.610   6.888   5.856 -1.8722  1.0741 -2.2516
 8130SOL    HW225290   3.534   6.782   5.757  0.5521 -3.6359  0.5703
 8131SOL     OW25291   6.771   5.368   6.082  0.1515  0.0849 -0.2489
 8131SOL    HW125292   6.674   5.389   6.070  0.2869 -0.1790 -2.0746
 8131SOL    HW225293   6.781   5.270   6.099  0.1495 -0.0950 -1.2065
 8132SOL     OW25294   0.020   1.076   0.025  0.8419 -0.5183  0.1223
 8132SOL    HW125295  -0.023   1.160  -0.007 -0.1318 -0.3907  1.6538
 8132SOL    HW225296   0.035   1.082   0.124  1.6217 -1.7834  0.1068
 8133SOL     OW25297   5.567   6.728   0.619 -0.3218 -0.1792  0.0290
 8133SOL    HW125298   5.498   6.798   0.602  0.3278  0.6344  0.7115
 8133SOL    HW225299   5.574   6.669   0.538 -0.0340  1.2521 -1.0219
 8134SOL     OW25300   4.265   5.781   5.532 -0.2837  0.1024  0.4671
 8134SOL    HW125301   4.246   5.876   5.560 -0.1480  0.2078  0.2096
 8134SOL    HW225302   4.267   5.776   5.432 -3.3909 -0.7553  0.3395
 8135SOL     OW25303   0.614   4.329   5.033 -0.3081 -0.2909 -0.0493
 8135SOL    HW125304   0.708   4.316   5.063 -0.7865  0.2781  1.8430
 8135SOL    HW225305   0.580   4.244   4.991  1.3525 -0.1512 -1.7900
 8136SOL     OW25306   6.547   1.689   1.340 -0.3161 -0.1231  0.0810
 8136SOL    HW125307   6.521   1.764   1.279  0.5961 -0.1004 -0.2948
 8136SOL    HW225308   6.468   1.663   1.395 -0.3586  1.9213  1.0943
 8137SOL     OW25309   0.034   0.532   2.520 -0.2683  1.2064 -0.0275
 8137SOL    HW125310  -0.011   0.483   2.446  0.0737 -1.0995  1.2032
 8137SOL    HW225311  -0.031   0.594   2.565 -1.4088  0.0856 -0.1024
 8138SOL     OW25312   1.939   4.176   0.850 -0.1769 -0.3939 -0.2774
 8138SOL    HW125313   1.930   4.099   0.914 -0.4925  0.9746  1.4058
 8138SOL    HW225314   1.849   4.197   0.812  0.0161 -1.2304 -1.2297
 8139SOL     OW25315   4.251   4.837   1.315  0.4883  0.3427  0.5519
 8139SOL    HW125316   4.231   4.803   1.406 -0.2607  0.8413  0.5835
 8139SOL    HW225317   4.311   4.917   1.321 -0.5769  1.1630  0.7128
 8140SOL     OW25318   1.315   5.240   5.937  0.3676 -0.0968 -0.4096
 8140SOL    HW125319   1.344   5.306   6.006  2.4480  0.4346 -1.6975
 8140SOL    HW225320   1.217   5.220   5.948 -0.1042  2.4314  0.6284
 8141SOL     OW25321   5.476   3.107   1.033 -0.9429  0.0697  0.2804
 8141SOL    HW125322   5.438   3.019   1.006 -1.8222  0.7129 -0.5987
 8141SOL    HW225323   5.545   3.136   0.967 -2.7693  1.4256 -1.1087
 8142SOL     OW25324   3.769   0.982   1.868 -0.4337 -0.4863  0.1608
 8142SOL    HW125325   3.866   0.961   1.879  0.3581  3.3060  2.7287
 8142SOL    HW225326   3.759   1.061   1.807 -1.8817 -0.6344  0.1724
 8143SOL     OW25327   6.174   4.931   1.142 -0.3487 -0.4465  0.1631
 8143SOL    HW125328   6.165   5.030   1.150 -1.0288 -0.3435 -1.4062
 8143SOL    HW225329   6.084   4.888   1.149  0.1121 -1.1350  2.4837
 8144SOL     OW25330   6.536   5.004   2.688 -0.0017  0.1218  0.4376
 8144SOL    HW125331   6.510   5.100   2.692 -0.3746 -0.0077  1.5244
 8144SOL    HW225332   6.591   4.981   2.769 -2.4911 -1.2856  1.8614
 8145SOL     OW25333   2.564   0.637   5.336  0.2316 -0.6483  0.6263
 8145SOL    HW125334   2.493   0.707   5.341 -0.3856 -1.2297  0.3103
 8145SOL    HW225335   2.654   0.679   5.343 -0.1370  0.1461  0.6540
 8146SOL     OW25336   4.619   0.540   2.444  0.1619  0.2763 -0.4556
 8146SOL    HW125337   4.711   0.511   2.471 -0.7474 -1.0665  1.4440
 8146SOL    HW225338   4.589   0.486   2.366 -0.3094 -1.9212  1.1309
 8147SOL     OW25339   1.472   3.084   0.778 -0.2429 -0.8039 -0.2619
 8147SOL    HW125340   1.380   3.112   0.752  0.1378  1.1477  0.3331
 8147SOL    HW225341   1.467   3.006   0.840 -1.4473 -1.1596 -0.7798
 8148SOL     OW25342   2.398   6.554   2.694  0.0409  0.6083 -0.5558
 8148SOL    HW125343   2.373   6.577   2.600  0.2825  0.5221 -0.6441
 8148SOL    HW225344   2.497   6.538   2.698  0.3451  2.4699  0.1002
 8149SOL     OW25345   6.714   5.092   4.853  0.1408 -0.1596 -0.2977
 8149SOL    HW125346   6.789   5.043   4.809  2.1361 -0.2612  2.8746
 8149SOL    HW225347   6.653   5.027   4.898  0.0414  0.0862 -0.0789
 8150SOL     OW25348   4.812   3.557   5.707 -0.9925  0.3480  0.1838
 8150SOL    HW125349   4.857   3.504   5.778 -0.1762  0.2253 -0.4052
 8150SOL    HW225350   4.736   3.504   5.668  0.2215 -0.6776 -0.8472
 8151SOL     OW25351   0.857   5.743   2.232 -0.2157 -0.6708  0.1733
 8151SOL    HW125352   0.849   5.834   2.272  0.4954 -0.4718 -0.1178
 8151SOL    HW225353   0.831   5.674   2.300 -0.9383 -0.2476  0.3317
 8152SOL     OW25354   0.013   0.854   0.240  0.2563 -0.2366  0.1717
 8152SOL    HW125355   0.040   0.950   0.246 -0.7588  0.1330 -0.7138
 8152SOL    HW225356   0.093   0.798   0.221  0.9520  0.3596  1.2835
 8153SOL     OW25357   0.741   0.376   4.689  0.0046 -0.4802 -0.1398
 8153SOL    HW125358   0.683   0.366   4.770  1.1652  2.6389  1.2621
 8153SOL    HW225359   0.801   0.455   4.702  1.5146 -0.9653 -3.3527
 8154SOL     OW25360   1.247   1.322   0.484  0.2867 -0.5354  0.5451
 8154SOL    HW125361   1.335   1.369   0.472  1.0691 -1.9763  0.3621
 8154SOL    HW225362   1.253   1.230   0.446 -2.2538  0.2771 -2.1615
 8155SOL     OW25363   6.104   1.270   0.382  0.4241 -0.0373  0.5818
 8155SOL    HW125364   6.061   1.336   0.321  2.7859  1.0965  0.0353
 8155SOL    HW225365   6.166   1.211   0.330  0.1507 -1.1460  1.4496
 8156SOL     OW25366   6.506   1.590   3.751  0.0836 -0.3413  0.1973
 8156SOL    HW125367   6.584   1.609   3.691 -0.8033  0.4836 -0.7423
 8156SOL    HW225368   6.475   1.496   3.736  1.5353 -1.0613  1.3785
 8157SOL     OW25369   4.225   4.076   1.719  0.2489  0.3687 -0.4776
 8157SOL    HW125370   4.144   4.125   1.686  0.3662  0.3460 -0.7998
 8157SOL    HW225371   4.296   4.141   1.746  0.2458  0.3807 -0.5006
 8158SOL     OW25372   0.139   6.697   1.518  0.5107 -0.7755 -0.0098
 8158SOL    HW125373   0.088   6.626   1.470  1.3078 -1.0225 -0.5077
 8158SOL    HW225374   0.210   6.733   1.458  0.0246  0.5527  0.1887
 8159SOL     OW25375   2.064   4.811   2.629 -0.0624 -0.5126  0.3552
 8159SOL    HW125376   2.164   4.808   2.626 -0.0857 -0.7215 -2.2040
 8159SOL    HW225377   2.027   4.737   2.572 -1.5914  1.6889 -1.6637
 8160SOL     OW25378   1.196   3.503   2.643  0.5023 -0.5478  0.5359
 8160SOL    HW125379   1.116   3.514   2.701  0.5174 -0.2298  0.4998
 8160SOL    HW225380   1.279   3.511   2.698  0.5221  0.0928  0.4221
 8161SOL     OW25381   1.708   2.748   1.406 -0.5208  0.0364 -0.3553
 8161SOL    HW125382   1.743   2.838   1.381 -1.4740  0.4726 -0.1662
 8161SOL    HW225383   1.754   2.716   1.488 -0.2107  0.3722 -0.3955
 8162SOL     OW25384   6.343   6.022   1.335 -0.2303 -0.3016 -0.7222
 8162SOL    HW125385   6.426   6.004   1.389 -0.5179 -2.1685 -0.8128
 8162SOL    HW225386   6.282   5.943   1.342 -2.7845  1.6346  0.6781
 8163SOL     OW25387   3.353   1.518   6.903 -0.2297 -0.4174  0.0920
 8163SOL    HW125388   3.347   1.565   6.991 -1.2651 -0.8262  0.2597
 8163SOL    HW225389   3.449   1.498   6.881  0.0088 -0.6232  1.2924
 8164SOL     OW25390   2.953   3.394   3.077  0.2259 -0.0314 -0.1024
 8164SOL    HW125391   2.972   3.481   3.122 -1.1116  0.1428  0.1843
 8164SOL    HW225392   2.920   3.412   2.984  1.0599 -0.2953 -0.4530
 8165SOL     OW25393   0.269   4.227   2.028 -0.1150 -0.0154 -0.1708
 8165SOL    HW125394   0.368   4.212   2.031  0.3899  2.3945 -1.8887
 8165SOL    HW225395   0.227   4.186   2.110  1.8694 -3.3719 -0.6108
 8166SOL     OW25396   1.623   6.260   3.475  0.0793  0.2237  0.1757
 8166SOL    HW125397   1.558   6.196   3.517 -0.8249  1.1674  0.2823
 8166SOL    HW225398   1.710   6.215   3.460 -0.1155 -0.6418  1.4839
 8167SOL     OW25399   2.895   3.422   2.805 -1.1933 -0.3191  0.3246
 8167SOL    HW125400   2.934   3.364   2.733  2.1164  2.3134 -0.2884
 8167SOL    HW225401   2.859   3.506   2.763  0.7994  1.2644  1.5536
 8168SOL     OW25402   0.362   3.975   2.651  0.3719 -0.2860 -0.0316
 8168SOL    HW125403   0.335   3.994   2.556  0.1256  0.6852  0.2264
 8168SOL    HW225404   0.379   3.877   2.661  3.4571 -0.0803 -1.8788
 8169SOL     OW25405   3.238   5.585   1.066 -0.9869 -0.0952  0.0670
 8169SOL    HW125406   3.306   5.557   1.132 -1.7000 -0.2724  0.7377
 8169SOL    HW225407   3.246   5.530   0.983 -0.5516 -0.3544  0.2827
 8170SOL     OW25408   2.634   6.819   4.244 -0.1318 -0.1941  0.6107
 8170SOL    HW125409   2.579   6.736   4.242 -1.6653  0.8029 -0.3392
 8170SOL    HW225410   2.640   6.852   4.339 -0.3026 -0.8591  0.8604
 8171SOL     OW25411   5.846   1.175   3.102 -0.1370 -0.0029 -0.2775
 8171SOL    HW125412   5.751   1.177   3.072 -0.8674 -1.5746  1.7127
 8171SOL    HW225413   5.865   1.257   3.156 -1.2707 -0.9668  1.6893
 8172SOL     OW25414   3.367   6.286   5.685  0.1592 -0.5548  0.3017
 8172SOL    HW125415   3.272   6.302   5.656  0.4224  0.3016 -0.0936
 8172SOL    HW225416   3.424   6.269   5.605  0.4545 -0.5002  0.4974
 8173SOL     OW25417   3.812   1.680   4.440  0.5651  0.1085  0.3877
 8173SOL    HW125418   3.800   1.743   4.516  1.8590  1.7121 -0.6720
 8173SOL    HW225419   3.745   1.701   4.369  1.8718  1.2340 -0.5448
 8174SOL     OW25420   5.297   6.945   0.038  0.1507  0.8211  0.4570
 8174SOL    HW125421   5.225   6.953  -0.032  0.2340  1.9992  0.4950
 8174SOL    HW225422   5.341   6.855   0.029 -2.1663 -0.4729  1.2709
 8175SOL     OW25423   5.275   4.869   3.598 -0.2184  0.0221  0.3449
 8175SOL    HW125424   5.298   4.799   3.530 -1.6489  0.5812 -0.7636
 8175SOL    HW225425   5.178   4.862   3.620 -0.2987  1.4396  0.4894
 8176SOL     OW25426   5.673   0.082   2.185 -0.5161  0.7170  0.4486
 8176SOL    HW125427   5.609   0.013   2.150 -0.3047  1.4237 -1.4616
 8176SOL    HW225428   5.730   0.041   2.256 -0.6190 -0.9951 -0.3925
 8177SOL     OW25429   0.819   5.123   5.469  0.4063  0.5853 -0.2575
 8177SOL    HW125430   0.764   5.205   5.457 -0.8036  0.0175  1.1438
 8177SOL    HW225431   0.916   5.148   5.469  0.0423  2.1886  1.2375
 8178SOL     OW25432   4.074   6.861   5.045  0.1766  0.3458  0.1117
 8178SOL    HW125433   4.087   6.944   4.991 -0.2113 -0.2458 -0.9093
 8178SOL    HW225434   3.977   6.838   5.048  0.1948  0.3284  1.0201
 8179SOL     OW25435   2.285   2.136   2.692  0.3314  0.6249  0.5062
 8179SOL    HW125436   2.294   2.134   2.592  0.5637 -1.7223  0.5337
 8179SOL    HW225437   2.374   2.156   2.733  1.3523 -2.7695  0.2679
 8180SOL     OW25438   2.108   2.599   4.314  0.2248 -0.0767 -0.1070
 8180SOL    HW125439   2.068   2.583   4.224 -1.0124  1.2703  0.1659
 8180SOL    HW225440   2.049   2.660   4.367  1.5886  0.2366  1.1343
 8181SOL     OW25441   5.709   0.859   3.735  0.1807  0.0179  0.6246
 8181SOL    HW125442   5.680   0.842   3.829 -1.1855 -1.5651 -0.0360
 8181SOL    HW225443   5.629   0.868   3.676  0.9830  2.0643 -0.2671
 8182SOL     OW25444   0.411   5.883   3.519  0.6653  0.3932  0.1132
 8182SOL    HW125445   0.344   5.952   3.493  0.0950  0.0820  0.7251
 8182SOL    HW225446   0.393   5.799   3.467  0.3941  0.2227  0.4687
 8183SOL     OW25447   5.910   4.957   6.461 -0.4744  0.2824 -0.0100
 8183SOL    HW125448   5.874   4.912   6.379 -0.3311 -0.2953  0.2412
 8183SOL    HW225449   6.010   4.956   6.458 -0.3239  3.9872 -1.8805
 8184SOL     OW25450   0.992   3.444   6.129  0.3569  0.0575 -0.2844
 8184SOL    HW125451   0.963   3.537   6.152 -0.5462 -0.2409 -0.1921
 8184SOL    HW225452   0.963   3.422   6.036 -0.6530 -0.6148  0.1755
 8185SOL     OW25453   3.990   3.876   3.762 -0.4347 -0.4525  0.2875
 8185SOL    HW125454   3.942   3.792   3.788 -1.6011  0.1854  0.2801
 8185SOL    HW225455   3.940   3.955   3.798  0.9917  0.2258  0.8470
 8186SOL     OW25456   2.097   1.402   2.698  0.2102 -0.5831 -0.8276
 8186SOL    HW125457   2.020   1.341   2.716 -0.9259  0.7142 -1.0312
 8186SOL    HW225458   2.104   1.469   2.772  0.2462  0.1647 -1.4927
 8187SOL     OW25459   2.831   1.283   6.708  0.0260 -0.3426 -0.0052
 8187SOL    HW125460   2.852   1.370   6.663  0.5201 -0.6754 -0.4375
 8187SOL    HW225461   2.851   1.290   6.805 -0.9437  0.3526  0.1613
 8188SOL     OW25462   1.134   0.757   3.518  0.4220  0.6501 -0.3906
 8188SOL    HW125463   1.142   0.701   3.435 -2.1475  1.0031 -0.9858
 8188SOL    HW225464   1.133   0.854   3.492  0.5918  0.8040  0.1666
 8189SOL     OW25465   1.564   0.373   2.635 -0.4047  0.0863  0.3284
 8189SOL    HW125466   1.551   0.405   2.730  0.9308 -0.3924  0.6821
 8189SOL    HW225467   1.608   0.284   2.636 -1.3876 -0.4231 -0.7390
 8190SOL     OW25468   2.987   1.331   3.970  0.7707  0.6922 -0.4011
 8190SOL    HW125469   2.996   1.234   3.994 -0.8633  0.5217 -0.3787
 8190SOL    HW225470   2.891   1.359   3.980  1.6645  3.2270  2.9946
 8191SOL     OW25471   5.176   0.585   0.677 -0.1458  0.0303  0.0927
 8191SOL    HW125472   5.249   0.596   0.610 -0.1704  0.5829  0.1523
 8191SOL    HW225473   5.204   0.623   0.765 -0.2733 -0.3091  0.2834
 8192SOL     OW25474   1.895   5.230   4.607  0.4695 -0.5487 -0.0027
 8192SOL    HW125475   1.798   5.204   4.609 -0.2864  1.9783 -0.1359
 8192SOL    HW225476   1.902   5.329   4.615  3.0385 -0.6067 -0.8811
 8193SOL     OW25477   0.837   0.530   3.300 -0.5224  0.1039 -0.2641
 8193SOL    HW125478   0.740   0.507   3.289 -0.4133  0.2336 -1.8307
 8193SOL    HW225479   0.891   0.447   3.306 -0.7879  0.0293  1.4768
 8194SOL     OW25480   0.541   0.112   3.010 -0.3574  0.3003 -0.1512
 8194SOL    HW125481   0.499   0.202   2.998 -0.2209  0.2347 -1.2212
 8194SOL    HW225482   0.568   0.101   3.105  1.2749  2.1358 -0.3292
 8195SOL     OW25483   1.032   2.850   5.582  0.2381  0.1574  0.4056
 8195SOL    HW125484   1.042   2.852   5.482 -0.3086  0.5952  0.3560
 8195SOL    HW225485   0.943   2.889   5.607  0.4219  0.1494  1.0739
 8196SOL     OW25486   2.496   1.234   0.079  0.2879 -0.0442 -0.0412
 8196SOL    HW125487   2.460   1.142   0.094 -0.3223  0.1944 -0.0408
 8196SOL    HW225488   2.428   1.290   0.034  1.2958 -0.0921 -1.6968
 8197SOL     OW25489   6.240   3.260   1.854  0.5290  0.3909  0.0215
 8197SOL    HW125490   6.144   3.289   1.852  0.4835  0.3660  1.1611
 8197SOL    HW225491   6.275   3.268   1.947  1.5047 -0.0486 -0.2963
 8198SOL     OW25492   4.867   4.937   4.233  0.7384 -0.1834 -0.0226
 8198SOL    HW125493   4.944   4.873   4.234 -0.0639 -1.1915 -0.7617
 8198SOL    HW225494   4.854   4.976   4.324  4.0307  2.4019 -0.4629
 8199SOL     OW25495   3.976   6.767   4.603  0.5452 -0.0589  0.8653
 8199SOL    HW125496   3.897   6.828   4.594  0.7001  0.0234 -0.0352
 8199SOL    HW225497   4.005   6.737   4.513 -0.4308 -2.6726  1.3197
 8200SOL     OW25498   2.553   4.708   6.912  0.1604 -0.0056  0.4675
 8200SOL    HW125499   2.602   4.730   6.828 -0.1906 -1.9038 -0.2722
 8200SOL    HW225500   2.580   4.773   6.983  3.1368 -0.4361 -0.1074
 8201SOL     OW25501   4.973   4.349   1.862  0.3783  0.5654 -0.5567
 8201SOL    HW125502   5.005   4.270   1.914 -0.4889  1.7222  1.8832
 8201SOL    HW225503   4.873   4.345   1.854  0.4398  0.7704 -1.5927
 8202SOL     OW25504   2.368   6.467   4.836  0.2531 -0.3553 -0.4367
 8202SOL    HW125505   2.401   6.561   4.840  0.1299 -0.1141 -3.3381
 8202SOL    HW225506   2.269   6.465   4.846  0.3341 -0.2837  0.4388
 8203SOL     OW25507   5.073   3.026   5.372 -0.6963  0.5271  0.3876
 8203SOL    HW125508   5.069   3.126   5.366  1.1553  0.6382  0.2898
 8203SOL    HW225509   5.138   3.000   5.445  2.8948 -0.4899 -2.8463
 8204SOL     OW25510   2.205   0.507   5.735 -0.3627 -0.0857 -0.3974
 8204SOL    HW125511   2.275   0.436   5.739  1.4920  1.7380  0.7509
 8204SOL    HW225512   2.184   0.527   5.639  2.9433  1.3582 -0.9586
 8205SOL     OW25513   1.798   3.015   3.643 -0.1421  0.2436 -0.0627
 8205SOL    HW125514   1.844   2.956   3.709 -2.1210 -0.9201  0.3520
 8205SOL    HW225515   1.809   2.977   3.551 -1.1041 -0.5990  0.1599
 8206SOL     OW25516   5.236   6.367   1.221  0.0396  0.0631 -0.2527
 8206SOL    HW125517   5.267   6.371   1.126  0.0413  0.8360 -0.2302
 8206SOL    HW225518   5.194   6.454   1.246  0.3274 -0.0149  0.5505
 8207SOL     OW25519   0.635   1.705   2.677 -0.4671  0.0873  0.6853
 8207SOL    HW125520   0.683   1.717   2.764 -0.2784  0.3987  0.5401
 8207SOL    HW225521   0.700   1.718   2.601 -0.2543 -1.8161  0.5086
 8208SOL     OW25522   0.144   4.074   1.749  1.0531 -0.3748  0.4130
 8208SOL    HW125523   0.168   4.170   1.734  1.2832 -0.3084  1.1731
 8208SOL    HW225524   0.179   4.019   1.674  0.8594  0.1453 -0.0637
 8209SOL     OW25525   1.611   0.086   1.872 -0.1685  0.2683 -0.7709
 8209SOL    HW125526   1.617   0.136   1.958 -3.3048  0.1041 -0.3297
 8209SOL    HW225527   1.636   0.148   1.797  1.8477  0.6368  0.1396
 8210SOL     OW25528   1.458   6.656   4.992 -0.0124  0.8215 -0.6398
 8210SOL    HW125529   1.437   6.587   5.062  1.9735 -0.3440 -1.1086
 8210SOL    HW225530   1.548   6.696   5.012 -0.9757  3.0802 -0.5770
 8211SOL     OW25531   5.406   5.080   2.113 -0.3640  0.2096 -0.1910
 8211SOL    HW125532   5.505   5.063   2.120 -0.4570 -0.1705  0.2190
 8211SOL    HW225533   5.391   5.175   2.086  0.1291  0.0415 -1.1052
 8212SOL     OW25534   0.327   1.633   6.243 -0.2348 -0.1870 -0.6821
 8212SOL    HW125535   0.343   1.535   6.229  1.8223 -0.3810  2.1842
 8212SOL    HW225536   0.376   1.685   6.172 -1.3341 -1.1642 -2.2187
 8213SOL     OW25537   0.371   2.171   0.296 -0.3940 -0.6268 -0.2040
 8213SOL    HW125538   0.429   2.238   0.251 -1.7697  0.1021 -0.9440
 8213SOL    HW225539   0.314   2.125   0.228 -2.0003 -0.0137  0.6623
 8214SOL     OW25540   0.845   3.889   0.732 -0.9223  0.1742  0.4785
 8214SOL    HW125541   0.773   3.820   0.730 -1.0992  0.3569 -1.0637
 8214SOL    HW225542   0.918   3.860   0.793 -1.2954 -1.0707  0.3575
 8215SOL     OW25543   5.654   4.746   0.057 -0.0793  0.0902 -0.1829
 8215SOL    HW125544   5.668   4.801   0.139 -1.9852  1.6619 -0.8006
 8215SOL    HW225545   5.645   4.807  -0.022 -0.2853 -1.2478 -1.2233
 8216SOL     OW25546   5.597   2.601   4.198 -0.1108  0.3080 -0.1583
 8216SOL    HW125547   5.676   2.643   4.152  0.1904  0.4786  0.5150
 8216SOL    HW225548   5.541   2.553   4.130  1.9751 -2.0847 -0.3378
 8217SOL     OW25549   0.609   6.919   1.842 -0.6905  0.2852 -0.1682
 8217SOL    HW125550   0.587   6.921   1.744 -1.7511  1.4038  0.0669
 8217SOL    HW225551   0.537   6.870   1.891 -1.2565  1.4943  0.2661
 8218SOL     OW25552   1.900   0.446   6.668 -0.7761  0.1409  0.2497
 8218SOL    HW125553   1.851   0.360   6.680 -0.7200  0.1525  0.5728
 8218SOL    HW225554   1.912   0.465   6.570  0.9669 -1.2185  0.1458
 8219SOL     OW25555   5.273   6.504   1.487  0.2359 -0.4500 -0.5562
 8219SOL    HW125556   5.295   6.407   1.498 -0.5475 -0.4875  0.9372
 8219SOL    HW225557   5.341   6.547   1.427  2.4340 -1.2666  1.1985
 8220SOL     OW25558   0.726   2.701   6.348 -0.2273 -0.4002  0.2215
 8220SOL    HW125559   0.727   2.605   6.374  2.3600 -0.5434 -0.0987
 8220SOL    HW225560   0.715   2.758   6.429 -0.8953 -0.9445  0.5182
 8221SOL     OW25561   0.511   6.900   0.568  0.0187  0.6887  0.6113
 8221SOL    HW125562   0.598   6.856   0.588 -0.2551  0.0555  0.4316
 8221SOL    HW225563   0.442   6.870   0.633 -0.1860  0.8043  0.4506
 8222SOL     OW25564   2.271   2.129   1.171  0.2167 -0.2582 -0.1740
 8222SOL    HW125565   2.284   2.228   1.176 -2.1084  0.1709 -1.2256
 8222SOL    HW225566   2.286   2.088   1.261 -1.2870  1.4313  0.9130
 8223SOL     OW25567   6.013   3.238   4.780  0.3570 -0.5326  0.1186
 8223SOL    HW125568   6.100   3.250   4.828  0.9812 -0.2561 -1.0199
 8223SOL    HW225569   6.011   3.148   4.736 -0.4932 -1.0560  1.2053
 8224SOL     OW25570   5.231   6.996   6.218 -0.1727 -0.4570  0.3934
 8224SOL    HW125571   5.236   6.922   6.285  2.6410  0.2750  1.1414
 8224SOL    HW225572   5.273   6.967   6.133  0.1871 -0.0077  0.4115
 8225SOL     OW25573   1.108   5.197   2.498 -0.1631 -0.3376 -0.0979
 8225SOL    HW125574   1.122   5.149   2.584 -1.6261 -0.3596  0.1512
 8225SOL    HW225575   1.117   5.296   2.513  0.9379 -0.4053 -0.2196
 8226SOL     OW25576   5.193   1.499   0.301  0.1130 -0.4180  0.0267
 8226SOL    HW125577   5.158   1.572   0.360  0.0590  1.1776 -1.8913
 8226SOL    HW225578   5.243   1.539   0.224  1.1835 -2.4724 -0.4081
 8227SOL     OW25579   5.946   6.123   3.093  0.0210  0.1161 -0.4510
 8227SOL    HW125580   5.981   6.207   3.134 -0.8098 -0.3048  1.1695
 8227SOL    HW225581   5.949   6.049   3.160 -0.9098 -0.7180 -1.3030
 8228SOL     OW25582   4.118   1.862   6.493  0.0422 -0.5142  0.1213
 8228SOL    HW125583   4.045   1.889   6.556  0.5774  1.9363 -0.1924
 8228SOL    HW225584   4.083   1.793   6.429 -1.6298 -0.2584  0.7071
 8229SOL     OW25585   2.379   3.541   1.625  0.0809 -0.4297  0.0187
 8229SOL    HW125586   2.421   3.621   1.667 -0.3489 -0.6731  0.9516
 8229SOL    HW225587   2.387   3.463   1.688 -1.9246 -0.4290  0.3423
 8230SOL     OW25588   5.753   1.942   5.477 -0.1209  0.5008 -0.4468
 8230SOL    HW125589   5.657   1.929   5.451 -0.0808  0.1254 -0.4095
 8230SOL    HW225590   5.781   1.869   5.539  0.2935  0.4031 -0.7431
 8231SOL     OW25591   6.704   4.405   6.221 -0.1135 -0.3059  0.3966
 8231SOL    HW125592   6.671   4.331   6.163 -2.6187  0.0423  1.2630
 8231SOL    HW225593   6.633   4.430   6.287  1.7261  0.9548  2.0098
 8232SOL     OW25594   1.417   5.602   1.317 -0.0201 -0.4131  0.5035
 8232SOL    HW125595   1.335   5.551   1.344 -1.4011  1.4707  0.0778
 8232SOL    HW225596   1.498   5.554   1.350 -1.3256 -1.7473  1.9578
 8233SOL     OW25597   4.102   0.592   3.847 -0.2930  0.2698  0.6298
 8233SOL    HW125598   4.023   0.562   3.900  0.2209 -1.3082  0.5628
 8233SOL    HW225599   4.156   0.512   3.819  1.1036  1.2746  0.3224
 8234SOL     OW25600   5.252   0.731   3.310 -0.0462 -0.1233 -0.3109
 8234SOL    HW125601   5.326   0.754   3.246 -0.5731  0.9873 -0.5327
 8234SOL    HW225602   5.292   0.696   3.395  0.6894 -0.6307 -0.8464
 8235SOL     OW25603   4.956   3.569   4.531 -0.5146 -0.3586 -0.3211
 8235SOL    HW125604   4.921   3.662   4.541  0.6818  0.2961 -1.8272
 8235SOL    HW225605   4.923   3.531   4.444  1.1522 -0.3129 -1.0052
 8236SOL     OW25606   6.284   4.921   6.758  0.0285 -0.4688 -0.2147
 8236SOL    HW125607   6.260   4.891   6.665 -0.8617  1.2069 -0.5599
 8236SOL    HW225608   6.250   4.855   6.824 -1.5591 -0.4407 -0.9642
 8237SOL     OW25609   0.843   3.509   3.040  0.5853 -0.5244  0.4910
 8237SOL    HW125610   0.904   3.480   3.113 -0.1800 -0.3950  1.1969
 8237SOL    HW225611   0.758   3.545   3.079  1.1332  1.8972 -0.3729
 8238SOL     OW25612   1.891   2.292   6.981  0.0605 -0.0323 -0.0385
 8238SOL    HW125613   1.855   2.378   7.015  0.8218 -0.4740  2.0067
 8238SOL    HW225614   1.823   2.220   6.994  0.6937 -0.3825  1.4979
 8239SOL     OW25615   1.597   3.000   1.955  0.3171  0.4056 -0.1250
 8239SOL    HW125616   1.606   3.077   1.892  0.5788  0.7776  0.3610
 8239SOL    HW225617   1.548   3.029   2.037  0.5320  0.0902  0.1196
 8240SOL     OW25618   3.299   3.838   3.662 -0.5020  0.2452 -0.0733
 8240SOL    HW125619   3.372   3.774   3.636  0.9050  2.0862 -0.8437
 8240SOL    HW225620   3.320   3.929   3.625 -1.0061  1.8494  3.2675
 8241SOL     OW25621   3.148   5.008   5.108 -0.0445  0.6713 -0.0501
 8241SOL    HW125622   3.168   5.069   5.031 -1.6813  1.1088 -0.1859
 8241SOL    HW225623   3.218   5.018   5.178  1.0072  0.9139 -1.1063
 8242SOL     OW25624   1.645   2.240   5.343 -0.1959 -0.2116 -0.5947
 8242SOL    HW125625   1.570   2.195   5.392  0.0243  0.1992  0.1428
 8242SOL    HW225626   1.704   2.171   5.300  0.9707 -0.7626  1.7157
 8243SOL     OW25627   1.320   5.297   0.244 -0.2427 -0.7417 -0.3706
 8243SOL    HW125628   1.327   5.208   0.290 -0.4338 -0.1926  0.7577
 8243SOL    HW225629   1.389   5.359   0.281 -1.8147  0.3952  0.8249
 8244SOL     OW25630   2.016   3.986   5.745 -0.2022 -1.1279 -0.1030
 8244SOL    HW125631   2.109   3.996   5.709 -0.0441 -1.4861  0.1984
 8244SOL    HW225632   1.995   4.063   5.805 -0.4857 -0.5013 -0.9897
 8245SOL     OW25633   2.979   5.977   0.714  0.3873  0.2686  0.2140
 8245SOL    HW125634   2.953   5.894   0.665 -1.9969 -1.5010  3.9609
 8245SOL    HW225635   3.034   5.953   0.794  0.1700  2.3617  1.0648
 8246SOL     OW25636   6.319   6.596   1.536  0.0623  0.3772 -0.4390
 8246SOL    HW125637   6.370   6.513   1.515 -0.5844 -0.3063  0.6339
 8246SOL    HW225638   6.376   6.658   1.590 -0.1599 -0.3220  0.6300
 8247SOL     OW25639   5.643   6.844   6.616 -0.5090  0.3954  0.3255
 8247SOL    HW125640   5.543   6.852   6.617 -1.0443 -3.9324  0.3145
 8247SOL    HW225641   5.676   6.821   6.707 -0.0088 -1.4749 -0.2765
 8248SOL     OW25642   0.921   3.490   1.065  0.1519 -0.3956 -0.0497
 8248SOL    HW125643   0.864   3.523   1.140  0.2200 -0.9600  0.2555
 8248SOL    HW225644   0.940   3.392   1.077 -0.5500 -0.7008 -1.2691
 8249SOL     OW25645   4.514   5.067   0.051  0.1278  0.6554  0.2215
 8249SOL    HW125646   4.417   5.080   0.034 -0.1963 -0.5944  0.9551
 8249SOL    HW225647   4.531   4.971   0.074  1.1741  1.2913  2.4105
 8250SOL     OW25648   6.570   1.735   6.793 -0.2068  0.0703 -0.3944
 8250SOL    HW125649   6.658   1.700   6.826 -0.5560  0.3159  0.8562
 8250SOL    HW225650   6.556   1.705   6.699  0.0429 -2.1943  0.2171
 8251SOL     OW25651   4.987   0.362   6.806  0.1099  0.2420  0.2418
 8251SOL    HW125652   4.938   0.448   6.821  0.0596  0.5437 -1.4303
 8251SOL    HW225653   5.033   0.365   6.717 -0.4658 -1.7313 -0.1757
 8252SOL     OW25654   4.890   6.845   3.001  1.0543 -0.0651  0.1204
 8252SOL    HW125655   4.831   6.767   2.981  0.8622 -0.6221  2.5079
 8252SOL    HW225656   4.834   6.923   3.028  1.3301 -0.2284  1.2201
 8253SOL     OW25657   5.051   0.898   6.161  0.3158 -0.4353 -0.4181
 8253SOL    HW125658   4.974   0.899   6.224  0.1792 -0.2356 -0.5860
 8253SOL    HW225659   5.023   0.940   6.075  0.6598 -0.2231 -0.4248
 8254SOL     OW25660   0.345   1.901   3.117  0.4230  0.1686 -0.3635
 8254SOL    HW125661   0.302   1.952   3.191  0.3573  0.9423 -0.9265
 8254SOL    HW225662   0.276   1.849   3.068  0.1832  1.0209 -0.9552
 8255SOL     OW25663   5.544   4.979   4.300 -0.1768 -0.1757 -0.5522
 8255SOL    HW125664   5.579   4.942   4.214 -1.0673  2.1947 -2.0593
 8255SOL    HW225665   5.618   5.024   4.350  0.1998 -0.9250 -0.4299
 8256SOL     OW25666   0.363   1.728   4.112 -0.0788  0.6590  0.0499
 8256SOL    HW125667   0.352   1.824   4.139 -2.5196  0.0080  1.7767
 8256SOL    HW225668   0.452   1.695   4.142  0.6255  2.2504 -0.1912
 8257SOL     OW25669   4.303   6.437   4.741 -0.0877 -0.2384 -0.3088
 8257SOL    HW125670   4.218   6.485   4.762 -1.2409 -1.4385 -1.9035
 8257SOL    HW225671   4.325   6.375   4.816 -0.2944  0.5166  0.3833
 8258SOL     OW25672   3.198   2.939   1.181  1.3639  0.0301 -0.1362
 8258SOL    HW125673   3.251   2.884   1.118 -0.5852 -1.1242 -0.8642
 8258SOL    HW225674   3.133   2.996   1.130  1.4621  0.9460  0.7257
 8259SOL     OW25675   1.848   4.630   4.551  0.9459  0.4592 -0.0700
 8259SOL    HW125676   1.821   4.721   4.581 -0.4765  0.1030 -0.2076
 8259SOL    HW225677   1.785   4.562   4.590  1.6345 -0.4124 -0.4382
 8260SOL     OW25678   5.326   1.124   1.761 -0.4883 -0.1892  0.9243
 8260SOL    HW125679   5.400   1.087   1.816 -0.5852  1.8931  2.6246
 8260SOL    HW225680   5.290   1.207   1.805 -1.3885  0.9497 -1.7104
 8261SOL     OW25681   5.526   2.260   3.408 -0.0397 -0.3230  0.6330
 8261SOL    HW125682   5.427   2.253   3.425  0.0245 -1.4033  0.6038
 8261SOL    HW225683   5.569   2.307   3.485 -0.5512  0.0165  0.7208
 8262SOL     OW25684   3.157   2.495   0.914  0.5598  0.2966  0.2431
 8262SOL    HW125685   3.089   2.496   0.988  0.5713  0.9124  0.2500
 8262SOL    HW225686   3.172   2.588   0.881  1.7880  0.2523  0.6055
 8263SOL     OW25687   2.199   2.727   2.254 -0.0809 -0.5572  0.4904
 8263SOL    HW125688   2.209   2.634   2.288  1.4126 -0.5600  0.1140
 8263SOL    HW225689   2.241   2.791   2.318  1.9703 -0.4828 -0.8494
 8264SOL     OW25690   3.530   5.720   2.190 -0.0481 -0.3132  0.5637
 8264SOL    HW125691   3.469   5.799   2.201  0.9414  0.3653  1.4266
 8264SOL    HW225692   3.538   5.671   2.277  1.1917  0.0538  0.6850
 8265SOL     OW25693   6.640   2.093   4.454 -0.0272 -0.4318  0.6749
 8265SOL    HW125694   6.599   2.002   4.457  0.8978 -0.8440  2.7819
 8265SOL    HW225695   6.713   2.095   4.387  0.0010 -1.2770  0.6720
 8266SOL     OW25696   4.626   0.075   0.484 -0.2005  0.1541 -0.0493
 8266SOL    HW125697   4.542   0.126   0.465 -2.1774 -3.6375 -2.9171
 8266SOL    HW225698   4.697   0.102   0.419  0.1728  1.8714  1.0088
 8267SOL     OW25699   4.064   1.342   7.017  0.5733  0.0502 -0.2627
 8267SOL    HW125700   3.985   1.399   7.034  0.6874  0.3635 -0.7668
 8267SOL    HW225701   4.114   1.328   7.102  0.4819  0.6055 -0.1148
 8268SOL     OW25702   4.922   6.422   6.428 -0.7582  0.1388 -0.0634
 8268SOL    HW125703   4.935   6.351   6.358 -2.0220 -0.0185 -0.1649
 8268SOL    HW225704   5.006   6.433   6.480 -0.6476 -1.7651  0.2529
 8269SOL     OW25705   1.403   4.427   3.088  0.6410  0.3583 -0.2216
 8269SOL    HW125706   1.431   4.421   2.993 -0.2487  1.2754 -0.5616
 8269SOL    HW225707   1.470   4.482   3.139  1.5100 -0.7466 -0.1284
 8270SOL     OW25708   2.489   2.479   2.603 -0.1089 -0.2773  0.0301
 8270SOL    HW125709   2.573   2.453   2.651  0.6432  0.9793 -0.5546
 8270SOL    HW225710   2.500   2.462   2.505  0.1856  1.5487 -0.2928
 8271SOL     OW25711   3.280   6.094   4.536  0.0750  0.3281 -0.0542
 8271SOL    HW125712   3.200   6.041   4.512 -0.1742  1.1399 -1.0913
 8271SOL    HW225713   3.252   6.185   4.568  0.5740  0.7859 -0.8629
 8272SOL     OW25714   1.558   5.870   3.396 -1.1569  0.2892 -0.1605
 8272SOL    HW125715   1.601   5.940   3.453 -2.3258 -0.8774  2.3080
 8272SOL    HW225716   1.528   5.794   3.454 -0.5231 -2.0016 -2.6299
 8273SOL     OW25717   2.702   6.456   4.584  0.0548  0.3701  0.6345
 8273SOL    HW125718   2.756   6.522   4.531 -0.6088  0.4781  0.0669
 8273SOL    HW225719   2.692   6.488   4.678  1.7926 -0.1367  1.0212
 8274SOL     OW25720   4.326   1.273   1.163  0.1998  0.2267 -0.2633
 8274SOL    HW125721   4.323   1.247   1.259  1.4544  1.2576  0.0875
 8274SOL    HW225722   4.330   1.191   1.106 -4.1699 -0.5821  0.2759
 8275SOL     OW25723   0.672   0.932   1.289 -0.0080 -0.0055  0.3546
 8275SOL    HW125724   0.737   0.957   1.217 -1.1297 -0.8408 -1.0164
 8275SOL    HW225725   0.688   0.988   1.370  0.8211  1.5072 -0.8057
 8276SOL     OW25726   3.742   2.375   6.028 -0.0982 -0.5270 -0.2896
 8276SOL    HW125727   3.686   2.321   6.091  1.4114 -0.5311  1.1204
 8276SOL    HW225728   3.810   2.315   5.986  1.6281  0.2058  1.3256
 8277SOL     OW25729   5.536   2.734   1.166 -0.1402 -0.4986 -0.1921
 8277SOL    HW125730   5.440   2.716   1.183 -0.2101  0.1279  0.1181
 8277SOL    HW225731   5.557   2.720   1.069 -0.6464 -0.1943 -0.3462
 8278SOL     OW25732   2.522   5.042   5.295  0.1011  0.3236  0.1398
 8278SOL    HW125733   2.612   5.057   5.254 -0.5340  0.0451 -1.4578
 8278SOL    HW225734   2.529   5.044   5.394  1.3017  3.6980  0.0988
 8279SOL     OW25735   3.146   1.024   6.596 -0.1071  0.0253 -0.2095
 8279SOL    HW125736   3.160   1.104   6.538  1.5542 -0.5730 -0.6614
 8279SOL    HW225737   3.232   0.996   6.637 -1.2197  0.4833  2.6822
 8280SOL     OW25738   1.597   0.665   5.804  0.2832 -0.4022 -0.8163
 8280SOL    HW125739   1.543   0.580   5.805  2.8439 -2.1413  0.5579
 8280SOL    HW225740   1.586   0.710   5.716  0.8111 -3.5630 -2.6675
 8281SOL     OW25741   5.546   1.176   3.007  0.0107  0.1565  0.1899
 8281SOL    HW125742   5.555   1.129   2.919  0.0608 -0.5085  0.5473
 8281SOL    HW225743   5.471   1.136   3.059 -0.6604  1.1958  0.0545
 8282SOL     OW25744   5.323   2.787   6.467  0.0980 -0.2318 -0.0203
 8282SOL    HW125745   5.269   2.871   6.475  0.4374 -0.0888  0.7771
 8282SOL    HW225746   5.349   2.755   6.558  0.7923 -0.6725 -0.3676
 8283SOL     OW25747   5.691   2.911   0.559 -0.2183  0.2295 -0.2381
 8283SOL    HW125748   5.619   2.869   0.504 -1.4972 -0.4396  1.8759
 8283SOL    HW225749   5.683   3.011   0.553 -1.1129  0.1616 -0.2795
 8284SOL     OW25750   1.377   1.664   3.377  0.6508 -0.4863  0.3594
 8284SOL    HW125751   1.296   1.611   3.404 -0.4276  1.4282  1.0734
 8284SOL    HW225752   1.440   1.670   3.454  0.9392 -1.0229  0.1660
 8285SOL     OW25753   1.832   2.343   4.724 -0.1730  0.2436  0.2276
 8285SOL    HW125754   1.806   2.433   4.759  0.3188  0.6440 -0.4144
 8285SOL    HW225755   1.838   2.278   4.800 -1.3361  0.5452  0.5948
 8286SOL     OW25756   0.010   2.889   4.482  0.2575  0.3099 -0.5884
 8286SOL    HW125757  -0.041   2.809   4.513 -0.0264  0.6164 -0.2536
 8286SOL    HW225758  -0.044   2.971   4.500 -1.4879  0.3463 -4.8814
 8287SOL     OW25759   4.620   5.493   0.371  0.2801 -0.3504 -0.0641
 8287SOL    HW125760   4.631   5.406   0.323 -1.2242  0.1682 -1.4577
 8287SOL    HW225761   4.604   5.476   0.469 -0.5827 -1.6822 -0.4139
 8288SOL     OW25762   6.959   4.145   4.361 -0.3623 -0.0845  0.1597
 8288SOL    HW125763   7.008   4.230   4.383  2.2215 -0.9507 -1.7990
 8288SOL    HW225764   6.861   4.164   4.357  0.1977  3.1500 -1.5414
 8289SOL     OW25765   1.733   3.161   3.940  0.2321  0.4597  0.2720
 8289SOL    HW125766   1.752   3.144   3.843  2.2116  0.6199  0.5785
 8289SOL    HW225767   1.815   3.141   3.993 -1.1990 -0.8573  2.1053
 8290SOL     OW25768   2.150   6.202   4.216  0.3131  0.2425 -0.2901
 8290SOL    HW125769   2.204   6.121   4.237  0.7847  0.3210 -1.1425
 8290SOL    HW225770   2.058   6.174   4.186 -0.5548  0.1480  2.2475
 8291SOL     OW25771   2.298   6.594   1.735 -0.2827 -0.1587  0.1575
 8291SOL    HW125772   2.270   6.499   1.747  0.1505 -0.3967 -0.6441
 8291SOL    HW225773   2.363   6.619   1.807  0.6512 -0.8988 -0.4093
 8292SOL     OW25774   0.954   3.683   1.680  0.3902  0.2409 -0.6366
 8292SOL    HW125775   0.855   3.690   1.680  0.3566 -0.2457 -0.5342
 8292SOL    HW225776   0.990   3.715   1.592  0.0861 -0.4397 -1.0088
 8293SOL     OW25777   2.430   5.828   3.147  1.1340  0.5787  0.2143
 8293SOL    HW125778   2.483   5.756   3.102  1.3342  0.2987  0.8896
 8293SOL    HW225779   2.347   5.847   3.094  1.1269 -0.0823 -0.0156
 8294SOL     OW25780   2.646   2.278   2.072  0.6525 -0.3713  0.4074
 8294SOL    HW125781   2.627   2.202   2.135 -0.1675  0.5619  1.3251
 8294SOL    HW225782   2.743   2.300   2.074  1.0726 -2.0191 -0.6061
 8295SOL     OW25783   0.894   6.852   5.724 -0.1082  0.5785  0.4712
 8295SOL    HW125784   0.869   6.945   5.751  0.0658  0.1203  2.3664
 8295SOL    HW225785   0.842   6.787   5.779  0.0212 -0.4589 -0.6010
 8296SOL     OW25786   1.317   5.992   0.100 -0.4926 -0.1609  0.1244
 8296SOL    HW125787   1.338   5.987   0.197  0.1012 -0.6484 -0.0167
 8296SOL    HW225788   1.259   6.070   0.082  1.1866  1.2565  0.5650
 8297SOL     OW25789   4.388   5.132   3.311 -0.1206  0.2580  0.1364
 8297SOL    HW125790   4.308   5.176   3.353  0.4742  1.3380  0.1697
 8297SOL    HW225791   4.466   5.195   3.313  0.6450 -0.6535 -0.2068
 8298SOL     OW25792   5.821   3.915   4.656 -0.1586  0.3276  0.1048
 8298SOL    HW125793   5.870   3.857   4.591  0.1521 -1.3932  1.7968
 8298SOL    HW225794   5.866   4.004   4.661  1.0844 -0.2337 -0.4645
 8299SOL     OW25795   4.338   4.592   3.412  0.4023 -0.3479  0.5059
 8299SOL    HW125796   4.355   4.565   3.507  1.7090  0.3589  0.4923
 8299SOL    HW225797   4.387   4.677   3.392 -1.3828  0.5646 -0.2544
 8300SOL     OW25798   6.717   1.700   1.549  0.3377  0.0927 -0.0956
 8300SOL    HW125799   6.642   1.696   1.483  1.0760 -1.6970 -0.9001
 8300SOL    HW225800   6.780   1.773   1.522 -1.1844  1.7744  0.7272
 8301SOL     OW25801   4.062   7.010   1.144 -0.1662 -0.4490  0.0124
 8301SOL    HW125802   3.972   7.043   1.116  1.0210  1.9522 -1.2934
 8301SOL    HW225803   4.062   6.994   1.243 -1.9932 -0.4472  0.0545
 8302SOL     OW25804   1.017   0.266   0.875  0.9377 -0.0112 -0.6371
 8302SOL    HW125805   1.089   0.270   0.944 -0.8573  1.1459  1.2907
 8302SOL    HW225806   1.012   0.174   0.837  2.1301 -0.6296  0.6202
 8303SOL     OW25807   0.031   2.717   0.249 -0.1045 -0.5042  0.6281
 8303SOL    HW125808  -0.026   2.712   0.331 -1.6858 -0.5586 -0.4194
 8303SOL    HW225809  -0.021   2.760   0.175  0.6675 -1.9308 -0.8231
 8304SOL     OW25810   2.546   3.307   5.326 -0.3452 -0.0638 -0.3537
 8304SOL    HW125811   2.527   3.217   5.288 -1.7925 -0.8841  2.0600
 8304SOL    HW225812   2.469   3.368   5.308  0.7346  0.8476 -2.1966
 8305SOL     OW25813   6.358   5.694   2.546  0.3777  0.3374 -0.4723
 8305SOL    HW125814   6.338   5.623   2.614 -1.2251 -0.6013 -1.8337
 8305SOL    HW225815   6.287   5.693   2.475  0.5826  2.9865 -0.8214
 8306SOL     OW25816   6.305   3.455   3.623 -0.8014  0.2464  0.4258
 8306SOL    HW125817   6.367   3.502   3.685  0.1960 -0.7846  0.2351
 8306SOL    HW225818   6.333   3.470   3.529  0.6018 -2.0780  0.3973
 8307SOL     OW25819   3.828   3.692   0.948  0.2218  0.2852  0.2353
 8307SOL    HW125820   3.919   3.719   0.919  0.3032  0.2316  0.4419
 8307SOL    HW225821   3.760   3.754   0.907  0.3427  0.2647  0.0055
 8308SOL     OW25822   3.070   1.693   3.023  0.6174 -0.4064 -0.1009
 8308SOL    HW125823   3.119   1.771   3.061  1.0538 -1.0958  0.7820
 8308SOL    HW225824   2.994   1.725   2.966  0.8690  0.6482  0.1517
 8309SOL     OW25825   1.660   3.985   6.722 -1.0331 -0.7841  0.3989
 8309SOL    HW125826   1.748   3.984   6.770 -0.4797  2.9195 -0.2679
 8309SOL    HW225827   1.586   3.967   6.787 -0.0963  1.0623  2.0505
 8310SOL     OW25828   5.764   5.051   2.821  0.1289  0.2783 -0.4523
 8310SOL    HW125829   5.799   5.026   2.731 -2.1113 -0.9205 -1.0764
 8310SOL    HW225830   5.745   4.968   2.873 -1.0676  0.8846  0.1115
 8311SOL     OW25831   2.466   1.838   5.111 -0.3384 -0.3177 -0.1985
 8311SOL    HW125832   2.427   1.877   5.194  1.1594  0.6503  0.0870
 8311SOL    HW225833   2.467   1.907   5.039 -0.1009 -0.6356 -0.5052
 8312SOL     OW25834   4.606   0.324   4.509  0.7468  0.1089 -0.5401
 8312SOL    HW125835   4.673   0.363   4.572 -0.3288  0.7833  0.2036
 8312SOL    HW225836   4.533   0.390   4.493  0.6625 -0.2989 -2.0037
 8313SOL     OW25837   6.955   6.132   5.742 -0.0422  0.0404 -0.5396
 8313SOL    HW125838   6.957   6.220   5.693  0.0425 -0.1069 -0.8030
 8313SOL    HW225839   6.893   6.069   5.695 -0.8973  0.2898  0.2229
 8314SOL     OW25840   0.750   2.955   2.786  0.0235  0.4344  0.0129
 8314SOL    HW125841   0.789   3.033   2.836  1.1611 -0.5035  0.6568
 8314SOL    HW225842   0.773   2.963   2.689 -2.1956  2.2695 -0.4428
 8315SOL     OW25843   1.527   0.447   2.897 -0.9070  0.2070 -0.0455
 8315SOL    HW125844   1.480   0.386   2.961 -0.8533  1.8623  1.6512
 8315SOL    HW225845   1.490   0.540   2.906 -0.1416  0.7003 -1.6680
 8316SOL     OW25846   4.410   0.944   5.532  0.1491 -0.3531  0.9769
 8316SOL    HW125847   4.473   0.869   5.554  0.7383 -2.1319 -4.9562
 8316SOL    HW225848   4.325   0.906   5.493 -0.9919  2.0614  0.9080
 8317SOL     OW25849   4.355   6.007   2.148  0.3941 -0.4669 -0.4275
 8317SOL    HW125850   4.383   6.033   2.055 -1.5529 -1.2426 -1.2859
 8317SOL    HW225851   4.308   6.084   2.191 -0.5192 -0.7469 -0.8930
 8318SOL     OW25852   5.289   0.411   3.328 -0.1509 -0.3514 -0.1493
 8318SOL    HW125853   5.297   0.432   3.230  2.0497 -2.2072 -0.4401
 8318SOL    HW225854   5.264   0.315   3.340 -1.1072  0.0289  1.1426
 8319SOL     OW25855   0.595   1.522   5.723  0.7921 -0.6899 -0.0447
 8319SOL    HW125856   0.638   1.465   5.652  0.1878  0.3071 -1.2468
 8319SOL    HW225857   0.619   1.486   5.813 -0.1775 -3.2997 -0.7459
 8320SOL     OW25858   5.823   4.291   3.924  0.5659 -0.4298 -1.1630
 8320SOL    HW125859   5.805   4.206   3.972  0.2927  0.6386  0.7232
 8320SOL    HW225860   5.739   4.323   3.880 -0.7727  1.2664  2.2341
 8321SOL     OW25861   2.202   1.680   6.584  0.0508  0.2885  0.1855
 8321SOL    HW125862   2.292   1.651   6.549  0.3711  0.8564  0.5147
 8321SOL    HW225863   2.155   1.732   6.513 -0.4783 -0.9051 -0.3657
 8322SOL     OW25864   2.084   3.354   6.430  0.4383 -0.3527 -0.0209
 8322SOL    HW125865   2.083   3.453   6.444 -0.9312 -0.3503  0.0213
 8322SOL    HW225866   2.176   3.324   6.404  0.7091  1.0166 -0.6899
 8323SOL     OW25867   6.773   5.170   1.594  0.3788  0.1743 -0.1280
 8323SOL    HW125868   6.769   5.163   1.494 -0.2849  1.0527 -0.1800
 8323SOL    HW225869   6.817   5.089   1.632 -1.6891 -1.4355 -0.9541
 8324SOL     OW25870   2.937   5.850   6.466 -0.4797 -0.3326 -0.0601
 8324SOL    HW125871   3.010   5.793   6.505  0.2985  0.7423  0.0983
 8324SOL    HW225872   2.977   5.922   6.410 -1.4919 -0.4195 -0.9112
 8325SOL     OW25873   1.243   2.707   2.164 -0.6698 -0.3388 -0.2889
 8325SOL    HW125874   1.320   2.649   2.139  0.7333  1.3264  0.0135
 8325SOL    HW225875   1.232   2.708   2.263  0.9885  1.8467 -0.0479
 8326SOL     OW25876   4.501   4.215   5.817 -0.6808 -0.3907  0.2923
 8326SOL    HW125877   4.490   4.215   5.917 -0.8309  0.0883  0.2818
 8326SOL    HW225878   4.425   4.266   5.776  0.1948  0.7375  0.0372
 8327SOL     OW25879   1.468   4.416   1.028  0.0115  0.7331  0.5302
 8327SOL    HW125880   1.396   4.478   0.997  0.1154  1.7665  2.2076
 8327SOL    HW225881   1.535   4.467   1.082  0.5502 -0.6783  1.2540
 8328SOL     OW25882   2.426   1.647   2.114 -0.3564  0.1622  0.1728
 8328SOL    HW125883   2.403   1.556   2.080 -0.9153  0.5977 -0.6617
 8328SOL    HW225884   2.523   1.650   2.138 -0.5544 -0.9277  1.1500
 8329SOL     OW25885   4.337   3.443   1.731 -0.5879 -0.2051  0.2923
 8329SOL    HW125886   4.341   3.483   1.639 -0.1630 -0.3576  0.2418
 8329SOL    HW225887   4.366   3.348   1.727  1.4475  0.3295  0.8850
 8330SOL     OW25888   3.160   1.726   6.242 -0.0262  0.1606  0.6913
 8330SOL    HW125889   3.104   1.807   6.228 -0.3929  0.5310  3.7142
 8330SOL    HW225890   3.235   1.748   6.305  0.6251 -1.5550  0.5720
 8331SOL     OW25891   3.491   5.107   6.983 -0.5749  0.1884 -0.2352
 8331SOL    HW125892   3.481   5.128   7.080  0.4109  0.4596 -0.1793
 8331SOL    HW225893   3.449   5.179   6.928 -2.1386 -0.5199 -0.0277
 8332SOL     OW25894   3.012   6.876   0.721  0.6992 -0.3271  0.8120
 8332SOL    HW125895   2.970   6.817   0.789 -0.1988 -1.4688 -0.6653
 8332SOL    HW225896   3.071   6.821   0.661  1.1725  0.5745  0.4254
 8333SOL     OW25897   1.205   0.539   6.621  0.2235  0.2426 -0.4114
 8333SOL    HW125898   1.185   0.616   6.561 -0.1505  1.1171  0.7979
 8333SOL    HW225899   1.269   0.477   6.576 -1.0126  0.2023 -2.2022
 8334SOL     OW25900   6.158   6.105   4.182  0.3467 -0.2417 -0.1254
 8334SOL    HW125901   6.066   6.100   4.220 -0.0391  1.2953 -0.7988
 8334SOL    HW225902   6.154   6.131   4.086  1.4660 -0.8424 -0.3579
 8335SOL     OW25903   0.470   3.860   1.760 -0.3352  0.1554 -0.0390
 8335SOL    HW125904   0.482   3.895   1.852  0.4422  0.9535 -0.4245
 8335SOL    HW225905   0.375   3.833   1.746 -0.5142  0.2882  0.8989
 8336SOL     OW25906   2.467   4.257   0.402  0.2668  0.1180 -0.2194
 8336SOL    HW125907   2.409   4.283   0.478  2.0887 -1.3192  1.7991
 8336SOL    HW225908   2.551   4.312   0.403 -0.2254  0.9843 -2.0324
 8337SOL     OW25909   4.939   4.450   4.144  0.6328  0.3616  0.6696
 8337SOL    HW125910   5.023   4.448   4.198  1.1344 -1.0470 -0.1121
 8337SOL    HW225911   4.922   4.360   4.105 -2.0100  0.2245  1.9233
 8338SOL     OW25912   3.833   6.508   0.941 -0.0374  0.1714 -0.1026
 8338SOL    HW125913   3.917   6.563   0.936  0.4978 -0.5624  0.5769
 8338SOL    HW225914   3.847   6.422   0.892  0.4112 -0.9395  1.8861
 8339SOL     OW25915   1.065   0.882   3.187 -0.3091  0.2871 -0.6653
 8339SOL    HW125916   0.968   0.869   3.208 -0.6239  0.0013 -2.1571
 8339SOL    HW225917   1.115   0.798   3.210 -0.5007  0.2578 -0.3450
 8340SOL     OW25918   6.560   3.219   0.615  0.1569  0.5625  0.0661
 8340SOL    HW125919   6.495   3.270   0.672 -0.9504  0.0740 -0.7071
 8340SOL    HW225920   6.599   3.144   0.668 -0.5154  0.3825  0.3222
 8341SOL     OW25921   6.364   2.631   0.412  0.1820  0.0007 -0.5834
 8341SOL    HW125922   6.332   2.724   0.425  2.5908  0.5192  3.1612
 8341SOL    HW225923   6.293   2.566   0.439 -0.1709  0.8939  0.7063
 8342SOL     OW25924   6.820   4.291   3.361  0.1621  0.2633 -0.0085
 8342SOL    HW125925   6.875   4.338   3.430  1.5741 -1.0773 -0.1704
 8342SOL    HW225926   6.879   4.235   3.303 -1.2635 -0.3869 -0.8944
 8343SOL     OW25927   3.101   1.695   4.553  0.7522 -0.2950 -0.5224
 8343SOL    HW125928   3.003   1.675   4.545  0.2482  2.3599 -2.2683
 8343SOL    HW225929   3.119   1.735   4.642  0.5760 -2.2361  0.4197
 8344SOL     OW25930   5.885   6.803   1.537  0.1163 -0.7894  0.0641
 8344SOL    HW125931   5.943   6.723   1.546  0.5729 -0.4011  0.6815
 8344SOL    HW225932   5.901   6.846   1.448  0.5833 -0.8396  0.1207
 8345SOL     OW25933   5.800   4.148   0.568 -0.4686 -0.3736  0.5210
 8345SOL    HW125934   5.818   4.227   0.509 -0.0389 -1.8335 -1.4061
 8345SOL    HW225935   5.784   4.179   0.662  0.3565  1.9237 -0.0388
 8346SOL     OW25936   2.442   4.689   1.184 -0.0987 -0.0604 -0.3829
 8346SOL    HW125937   2.523   4.707   1.240  0.2188 -0.0351 -0.8412
 8346SOL    HW225938   2.435   4.591   1.164 -0.3378 -0.0995 -0.1107
 8347SOL     OW25939   3.100   6.393   2.676 -0.4184  0.2663 -0.8972
 8347SOL    HW125940   3.114   6.472   2.617 -2.0768  0.3449 -1.2496
 8347SOL    HW225941   3.077   6.424   2.769 -3.4034  0.3521 -1.5626
 8348SOL     OW25942   6.617   5.024   3.235 -0.3773 -0.2529 -0.1989
 8348SOL    HW125943   6.715   5.030   3.257 -0.6243  0.0787  0.8565
 8348SOL    HW225944   6.571   4.966   3.302 -1.0017  0.0587 -0.3536
 8349SOL     OW25945   0.433   6.477   4.505  0.0053 -0.1572 -0.0398
 8349SOL    HW125946   0.476   6.560   4.542  1.7357 -1.5532  1.2447
 8349SOL    HW225947   0.386   6.429   4.579 -1.4149 -0.1227 -0.8814
 8350SOL     OW25948   5.124   4.003   3.097  0.8371  0.6447  0.0438
 8350SOL    HW125949   5.137   4.090   3.049 -0.4724  0.8152 -0.0306
 8350SOL    HW225950   5.092   4.021   3.190 -1.0682  0.2356 -0.4956
 8351SOL     OW25951   0.404   2.477   3.590  0.1127  0.0928  0.6324
 8351SOL    HW125952   0.317   2.464   3.542  0.0708  1.1504  0.3984
 8351SOL    HW225953   0.406   2.419   3.672  0.1637 -1.6850 -0.5910
 8352SOL     OW25954   4.608   2.010   4.194  0.1043  0.2080 -0.0734
 8352SOL    HW125955   4.627   1.975   4.102 -0.5847  0.9108 -0.4872
 8352SOL    HW225956   4.522   1.973   4.227  0.7760 -0.7505  0.6696
 8353SOL     OW25957   6.008   3.506   4.735  0.6733 -0.1512 -0.0043
 8353SOL    HW125958   6.023   3.409   4.718  0.5500 -0.0108 -0.9930
 8353SOL    HW225959   6.011   3.524   4.833  0.0735 -1.2463  0.2234
 8354SOL     OW25960   1.153   6.584   0.419  0.5663  0.4139  0.5135
 8354SOL    HW125961   1.192   6.676   0.425  1.5961 -0.0119  0.4421
 8354SOL    HW225962   1.192   6.526   0.490 -1.4006  0.4823  1.7225
 8355SOL     OW25963   2.954   1.054   2.027  0.0253 -0.8315 -0.0019
 8355SOL    HW125964   2.987   0.971   1.982  1.6793 -0.6513  0.8168
 8355SOL    HW225965   2.945   1.037   2.125 -1.3285 -0.5443 -0.0606
 8356SOL     OW25966   1.241   4.460   6.372  0.0273 -0.5108 -0.0268
 8356SOL    HW125967   1.213   4.557   6.372 -0.8664 -0.7498 -0.7179
 8356SOL    HW225968   1.222   4.420   6.461 -0.7959 -0.3607 -0.1230
 8357SOL     OW25969   0.627   4.457   7.004  0.0748  0.0190  0.0675
 8357SOL    HW125970   0.550   4.504   7.047  0.8604  2.5270 -1.0812
 8357SOL    HW225971   0.709   4.468   7.060  0.3498  0.3620 -0.3971
 8358SOL     OW25972   0.776   1.620   4.966 -0.9370  0.7315  0.1288
 8358SOL    HW125973   0.782   1.711   5.005 -1.7950  1.2286 -0.8339
 8358SOL    HW225974   0.750   1.627   4.869  0.9551 -0.4456 -0.5170
 8359SOL     OW25975   1.506   0.907   3.092  0.2476  0.1993 -0.4395
 8359SOL    HW125976   1.498   0.989   3.036 -1.5415  1.7412  1.8635
 8359SOL    HW225977   1.472   0.927   3.184 -0.2049 -3.1467  0.2261
 8360SOL     OW25978   2.123   5.462   4.641  0.3976  0.0175 -0.8025
 8360SOL    HW125979   2.030   5.488   4.616  0.5657  1.6087  0.0412
 8360SOL    HW225980   2.147   5.376   4.596 -1.7665 -0.8975 -0.3459
 8361SOL     OW25981   0.534   0.976   6.141 -0.0281 -0.4417  0.5199
 8361SOL    HW125982   0.477   1.057   6.128 -1.5893 -1.7697 -1.4526
 8361SOL    HW225983   0.553   0.965   6.239  0.8039  2.6033  0.8193
 8362SOL     OW25984   5.143   4.543   2.247 -0.3969  0.4359 -0.0418
 8362SOL    HW125985   5.127   4.449   2.219 -0.3352 -0.0950  1.5915
 8362SOL    HW225986   5.220   4.581   2.195 -0.3543 -0.4386 -0.6334
 8363SOL     OW25987   2.712   5.187   6.038  0.2416  0.3077 -0.3000
 8363SOL    HW125988   2.790   5.231   5.994 -0.0131 -0.8187 -1.9985
 8363SOL    HW225989   2.714   5.089   6.018  0.3319 -0.3830  2.6373
 8364SOL     OW25990   5.161   0.843   0.818  0.1881  0.4801  0.1210
 8364SOL    HW125991   5.115   0.840   0.907  2.0085  1.6016  1.1593
 8364SOL    HW225992   5.257   0.866   0.831  0.8914 -0.9069 -2.0385
 8365SOL     OW25993   0.960   5.345   0.738 -0.2237 -0.5536  0.0269
 8365SOL    HW125994   0.861   5.354   0.754 -0.0580  0.2891  0.6479
 8365SOL    HW225995   1.010   5.389   0.813  0.6234 -0.5511 -0.5277
 8366SOL     OW25996   4.851   0.675   3.012  0.6862 -0.6333 -0.3892
 8366SOL    HW125997   4.946   0.650   2.992  0.9203 -0.1379  0.0853
 8366SOL    HW225998   4.833   0.767   2.977  0.1869 -0.9766 -1.0528
 8367SOL     OW25999   2.745   0.996   2.494  0.6416  0.0854  0.2678
 8367SOL    HW126000   2.667   1.020   2.552 -0.5944 -0.6933 -1.0052
 8367SOL    HW226001   2.830   1.010   2.545 -0.3416  0.4092  1.8957
 8368SOL     OW26002   2.788   3.387   6.544 -0.6589 -0.3306  0.3761
 8368SOL    HW126003   2.774   3.485   6.529 -0.3967 -0.6153 -2.0196
 8368SOL    HW226004   2.841   3.348   6.469  2.5701 -1.6659  3.0771
 8369SOL     OW26005   0.829   3.334   4.691 -0.1479  0.0447  0.6651
 8369SOL    HW126006   0.764   3.376   4.754  0.9078  1.2982  0.9604
 8369SOL    HW226007   0.845   3.394   4.613 -0.6659 -1.0433 -0.3175
 8370SOL     OW26008   2.259   4.116   2.168  0.6645  0.2705 -0.3343
 8370SOL    HW126009   2.239   4.077   2.078 -0.7331  1.1144 -0.4315
 8370SOL    HW226010   2.209   4.064   2.238  1.1066  0.1100 -0.1376
 8371SOL     OW26011   5.720   1.541   5.396  0.3112 -0.1692 -0.3303
 8371SOL    HW126012   5.699   1.555   5.493  1.5741 -0.7526  0.0439
 8371SOL    HW226013   5.805   1.588   5.373 -1.0231  1.7360 -1.6930
 8372SOL     OW26014   5.033   0.601   1.911 -0.3351 -0.0503  0.6868
 8372SOL    HW126015   5.017   0.690   1.869 -1.3429 -0.2288  0.6862
 8372SOL    HW226016   4.986   0.596   1.999  0.8313 -0.0967  1.3321
 8373SOL     OW26017   5.718   5.398   4.446  0.1512 -0.2890 -0.3048
 8373SOL    HW126018   5.631   5.419   4.489 -0.4041 -2.8995  0.0068
 8373SOL    HW226019   5.792   5.416   4.511 -0.2193  0.9747 -0.2148
 8374SOL     OW26020   4.793   2.855   5.681 -0.7631  0.2477 -0.0418
 8374SOL    HW126021   4.754   2.777   5.632 -0.1824  0.2221 -0.4794
 8374SOL    HW226022   4.762   2.853   5.776 -1.8498  0.2561 -0.3778
 8375SOL     OW26023   5.865   4.081   2.700  0.0774 -1.0001  0.1559
 8375SOL    HW126024   5.877   4.037   2.611  0.9997 -2.9502  1.1761
 8375SOL    HW226025   5.890   4.178   2.692 -0.6920 -0.9081 -1.8646
 8376SOL     OW26026   3.788   0.279   4.638 -0.5797 -0.1964  0.2038
 8376SOL    HW126027   3.690   0.262   4.647 -0.6480  0.0771  0.0104
 8376SOL    HW226028   3.838   0.193   4.633 -1.0041 -0.3832 -1.8725
 8377SOL     OW26029   0.257   3.943   4.993 -0.4045 -0.4443 -0.1003
 8377SOL    HW126030   0.215   3.986   5.074  1.2268  3.0843 -0.9506
 8377SOL    HW226031   0.214   3.980   4.910  1.4620  0.0284 -0.8951
 8378SOL     OW26032   3.356   5.517   0.821 -0.7372 -0.6992  0.2111
 8378SOL    HW126033   3.421   5.588   0.848 -3.1052  2.1470 -0.9773
 8378SOL    HW226034   3.394   5.465   0.745 -0.3859  2.0644 -1.6741
 8379SOL     OW26035   5.442   5.516   3.214 -0.4183 -0.4677  0.1699
 8379SOL    HW126036   5.398   5.441   3.263 -0.1596 -0.5691  0.2512
 8379SOL    HW226037   5.496   5.479   3.138 -2.8541 -0.1596 -1.8341
 8380SOL     OW26038   3.756   4.963   3.289 -0.1173 -0.5792  0.5887
 8380SOL    HW126039   3.776   4.926   3.198 -0.9196 -1.7466  0.8612
 8380SOL    HW226040   3.831   4.941   3.351  0.4655  0.2828  0.2018
 8381SOL     OW26041   0.445   6.384   4.035  0.5992 -0.0139 -0.3914
 8381SOL    HW126042   0.467   6.386   4.132 -0.0748  0.0330 -0.2370
 8381SOL    HW226043   0.530   6.388   3.982  0.9130  2.4413  0.1618
 8382SOL     OW26044   5.627   2.147   5.952 -0.5636  0.1433  0.0741
 8382SOL    HW126045   5.626   2.172   5.856 -2.3269  1.0653  0.2838
 8382SOL    HW226046   5.693   2.205   6.001  1.0455 -0.9750 -0.6799
 8383SOL     OW26047   1.459   5.876   4.079 -0.3484 -1.0650 -0.0152
 8383SOL    HW126048   1.544   5.908   4.120 -0.9028 -0.1702  0.4596
 8383SOL    HW226049   1.442   5.781   4.108 -1.2367 -0.1584  2.7524
 8384SOL     OW26050   5.339   2.103   2.144  0.2972 -0.5664  0.1230
 8384SOL    HW126051   5.354   2.005   2.152  0.1841 -0.6859 -0.9918
 8384SOL    HW226052   5.386   2.138   2.062  0.8317  0.4182  0.8203
 8385SOL     OW26053   3.800   1.506   4.975  0.2447  0.3514  0.8792
 8385SOL    HW126054   3.716   1.505   4.920  1.9277  1.2583 -1.9396
 8385SOL    HW226055   3.796   1.581   5.041 -0.6582  1.2140 -0.1226
 8386SOL     OW26056   5.118   1.272   7.016  0.6264 -0.0205 -0.0697
 8386SOL    HW126057   5.205   1.322   7.016  0.3777  0.4882  1.6973
 8386SOL    HW226058   5.059   1.308   7.088 -0.8398 -0.7483 -0.8598
 8387SOL     OW26059   2.401   5.062   3.862 -0.2768 -0.4400 -0.1850
 8387SOL    HW126060   2.355   5.135   3.812  1.2390 -0.7083 -2.0932
 8387SOL    HW226061   2.343   4.981   3.864 -0.1312 -0.6265 -2.1240
 8388SOL     OW26062   5.335   5.794   5.631  0.2235 -0.3032 -0.2868
 8388SOL    HW126063   5.343   5.711   5.686  0.2316 -0.2803 -0.2532
 8388SOL    HW226064   5.422   5.811   5.584  1.1376  1.1121  1.7566
 8389SOL     OW26065   0.783   5.667   6.282 -0.8094 -0.1348  0.1704
 8389SOL    HW126066   0.690   5.697   6.260 -0.8439 -0.9327 -0.8407
 8389SOL    HW226067   0.808   5.700   6.373 -2.3231 -0.4549  0.7342
 8390SOL     OW26068   4.367   0.743   4.209 -0.3590 -0.5089 -0.8643
 8390SOL    HW126069   4.385   0.780   4.300  0.0202 -0.1955 -1.0662
 8390SOL    HW226070   4.415   0.797   4.140 -0.4634 -0.8793 -1.2349
 8391SOL     OW26071   2.711   7.008   5.367 -0.0542  0.0799 -0.7643
 8391SOL    HW126072   2.650   6.930   5.359 -2.0869  1.6300 -1.3476
 8391SOL    HW226073   2.673   7.074   5.432  2.2206  0.1222  0.6695
 8392SOL     OW26074   5.743   4.787   3.964 -0.2351 -0.2187  0.4121
 8392SOL    HW126075   5.717   4.778   3.868  0.0269  0.4357  0.2719
 8392SOL    HW226076   5.839   4.762   3.975 -0.6945 -1.9019  0.7981
 8393SOL     OW26077   0.712   3.249   3.183  0.7934  0.2361  0.0232
 8393SOL    HW126078   0.684   3.252   3.087 -0.3586 -0.7588  0.3122
 8393SOL    HW226079   0.809   3.223   3.188  0.5977 -0.7209 -0.8413
 8394SOL     OW26080   6.835   3.191   1.855 -0.5918  0.1421 -0.4861
 8394SOL    HW126081   6.740   3.161   1.853 -0.2408 -1.0465  0.1689
 8394SOL    HW226082   6.845   3.272   1.796 -1.7344 -0.4860 -1.5907
 8395SOL     OW26083   4.975   6.955   4.558 -0.5501  0.2257 -0.6999
 8395SOL    HW126084   4.998   6.956   4.655  1.1053 -0.3333 -1.0422
 8395SOL    HW226085   4.882   6.987   4.545 -0.6501  0.7320  1.0275
 8396SOL     OW26086   1.254   2.356   6.390  0.2890  0.7187 -0.1459
 8396SOL    HW126087   1.325   2.388   6.452 -0.0570 -2.0787  1.8846
 8396SOL    HW226088   1.285   2.368   6.295  2.9772  0.6587  0.6391
 8397SOL     OW26089   3.754   3.896   0.224  1.1715  0.0768  0.7535
 8397SOL    HW126090   3.754   3.862   0.318 -0.8274  0.6313  1.0004
 8397SOL    HW226091   3.718   3.989   0.223  1.5303  0.2122 -0.5359
 8398SOL     OW26092   2.364   0.725   5.715  0.2047  0.1442 -0.0015
 8398SOL    HW126093   2.316   0.804   5.750  0.2013 -0.6689  1.9391
 8398SOL    HW226094   2.312   0.642   5.735  1.8139 -0.6456  1.1050
 8399SOL     OW26095   6.712   2.000   3.145  0.0696 -0.5825  0.2375
 8399SOL    HW126096   6.672   1.938   3.078  1.9484 -0.6218 -0.9190
 8399SOL    HW226097   6.776   2.062   3.100  0.7286 -0.0074  1.8715
 8400SOL     OW26098   4.155   0.499   2.717 -0.4799  0.4815 -0.1098
 8400SOL    HW126099   4.183   0.432   2.649  1.2645 -0.2118  1.2145
 8400SOL    HW226100   4.083   0.558   2.679  0.1069 -0.1627 -2.3487
 8401SOL     OW26101   2.851   4.751   4.364 -0.0839 -0.0716 -0.0816
 8401SOL    HW126102   2.787   4.691   4.410 -2.7467  2.6920  0.1507
 8401SOL    HW226103   2.897   4.810   4.431  0.3600  0.0623 -0.4956
 8402SOL     OW26104   6.106   1.266   4.975 -0.3200 -0.1523  0.2229
 8402SOL    HW126105   6.105   1.360   5.009  1.4668 -0.7933  2.3074
 8402SOL    HW226106   6.015   1.226   4.985 -0.7670  0.9182  0.6166
 8403SOL     OW26107   6.622   2.554   1.198 -0.1965 -0.4178  0.7574
 8403SOL    HW126108   6.640   2.456   1.209 -0.8419 -0.3339  3.2694
 8403SOL    HW226109   6.612   2.596   1.288 -1.8824  1.6078 -0.2835
 8404SOL     OW26110   3.963   3.556   0.331 -0.4821 -0.2274 -0.1440
 8404SOL    HW126111   4.046   3.594   0.291 -0.7551 -0.1854 -0.6780
 8404SOL    HW226112   3.980   3.462   0.360 -0.8697 -1.0701 -2.4154
 8405SOL     OW26113   1.462   6.658   0.467  0.5327  0.0715 -0.4028
 8405SOL    HW126114   1.498   6.723   0.535 -0.2988  0.5316 -0.3864
 8405SOL    HW226115   1.416   6.583   0.515 -0.4178  0.6090 -0.4415
 8406SOL     OW26116   5.235   0.605   4.528  0.4528  0.0911 -0.0098
 8406SOL    HW126117   5.297   0.539   4.571  2.8682  0.4454 -2.6433
 8406SOL    HW226118   5.197   0.565   4.444 -2.9111 -0.0332  1.3875
 8407SOL     OW26119   2.952   1.491   6.207 -0.3951 -0.3652 -0.0047
 8407SOL    HW126120   3.010   1.565   6.241 -1.7550  1.9365 -2.3753
 8407SOL    HW226121   2.937   1.502   6.109 -4.8040 -0.7799  0.4262
 8408SOL     OW26122   5.698   5.305   2.545  0.8312 -0.0056  0.1371
 8408SOL    HW126123   5.659   5.391   2.513 -1.0113  0.7498  3.8718
 8408SOL    HW226124   5.793   5.299   2.515  0.9054  3.1287 -0.6251
 8409SOL     OW26125   6.153   0.222   3.299  0.3752 -0.6425 -0.2526
 8409SOL    HW126126   6.196   0.132   3.305  0.1816 -0.6572  1.1603
 8409SOL    HW226127   6.220   0.293   3.317  0.5315 -0.4803 -1.3829
 8410SOL     OW26128   1.939   3.293   1.365  0.2965 -0.1970  0.8946
 8410SOL    HW126129   1.996   3.263   1.288  1.4557  0.5598  1.4366
 8410SOL    HW226130   1.990   3.357   1.422 -1.2755  0.9468  1.1035
 8411SOL     OW26131   2.516   1.227   1.267 -0.7109 -0.3693  0.6144
 8411SOL    HW126132   2.483   1.140   1.302  0.5933 -1.0292  0.2573
 8411SOL    HW226133   2.438   1.283   1.237 -1.6718 -0.7090  2.3866
 8412SOL     OW26134   4.077   0.843   1.685  0.1052 -0.3050  0.6089
 8412SOL    HW126135   4.085   0.888   1.774 -0.7933 -3.3843  2.4015
 8412SOL    HW226136   4.168   0.822   1.649  0.5271  2.3349 -0.0584
 8413SOL     OW26137   1.710   5.841   2.604  0.1143  0.1604  0.0042
 8413SOL    HW126138   1.776   5.852   2.678  0.5989 -2.4205  0.0379
 8413SOL    HW226139   1.755   5.859   2.517  0.2090  0.6857  0.1530
 8414SOL     OW26140   4.871   0.199   2.303  0.1423  0.3044  0.4805
 8414SOL    HW126141   4.944   0.154   2.251  1.5341  0.3847  2.2727
 8414SOL    HW226142   4.852   0.147   2.386 -0.6897  1.1736  0.8525
 8415SOL     OW26143   5.553   3.119   1.826  0.3435 -0.3673  0.8932
 8415SOL    HW126144   5.477   3.185   1.823  1.2948  0.7438  0.0746
 8415SOL    HW226145   5.625   3.149   1.764  1.4387 -1.4301  1.6074
 8416SOL     OW26146   0.347   0.588   5.349 -0.3516  0.0014 -0.1887
 8416SOL    HW126147   0.269   0.540   5.311 -1.7557 -0.3101  2.8119
 8416SOL    HW226148   0.430   0.535   5.333 -1.3519 -1.6610 -0.0373
 8417SOL     OW26149   6.938   2.601   1.912 -0.1859  0.5917  0.3887
 8417SOL    HW126150   7.003   2.569   1.980 -0.6573 -2.2817 -0.3925
 8417SOL    HW226151   6.975   2.586   1.820 -1.0477  1.0113 -0.0461
 8418SOL     OW26152   5.321   1.292   4.082  0.0957  0.0611  0.1400
 8418SOL    HW126153   5.342   1.389   4.097  2.0128 -0.2416 -0.2806
 8418SOL    HW226154   5.353   1.238   4.160  0.9851 -0.4329 -0.5399
 8419SOL     OW26155   2.857   1.766   0.478 -0.3936  0.4360 -0.1040
 8419SOL    HW126156   2.937   1.706   0.487 -1.4224 -0.7135  2.1135
 8419SOL    HW226157   2.888   1.862   0.481  0.8482  0.0486  2.4307
 8420SOL     OW26158   3.282   2.903   4.140  0.2280  0.0053 -0.6127
 8420SOL    HW126159   3.214   2.929   4.071  0.5597  0.4951 -0.7573
 8420SOL    HW226160   3.345   2.837   4.101  2.4373  2.6987 -1.9004
 8421SOL     OW26161   5.590   5.881   5.006  0.1707 -0.6657 -0.3784
 8421SOL    HW126162   5.501   5.897   4.963 -0.5432  0.7323  1.4819
 8421SOL    HW226163   5.660   5.936   4.959 -0.1724 -0.7621 -1.0235
 8422SOL     OW26164   4.810   6.681   5.098  0.2202 -0.4549 -0.1516
 8422SOL    HW126165   4.845   6.766   5.136  1.1831 -0.8633 -0.0972
 8422SOL    HW226166   4.798   6.690   4.999 -0.4514 -0.0079 -0.0352
 8423SOL     OW26167   6.291   6.522   4.776 -0.3783  0.0154 -0.1070
 8423SOL    HW126168   6.261   6.535   4.682  1.6643 -1.4222 -1.0238
 8423SOL    HW226169   6.337   6.605   4.808  1.2180 -0.3719 -1.3190
 8424SOL     OW26170   4.360   5.996   4.432 -0.3462 -0.0998  0.0912
 8424SOL    HW126171   4.320   6.062   4.496  0.7546  0.4587  0.2333
 8424SOL    HW226172   4.287   5.942   4.390 -1.3003  1.3832 -0.2304
 8425SOL     OW26173   3.358   2.971   3.735 -0.1780 -0.5600 -0.3910
 8425SOL    HW126174   3.335   3.038   3.666 -0.9939  0.7505  1.1005
 8425SOL    HW226175   3.293   2.976   3.811  0.9029 -1.6704  0.6669
 8426SOL     OW26176   4.445   1.227   0.800 -0.5364 -0.3377  0.0798
 8426SOL    HW126177   4.428   1.311   0.852 -0.6130 -0.0541 -0.3904
 8426SOL    HW226178   4.435   1.148   0.860  0.8818  0.0428  0.8801
 8427SOL     OW26179   5.840   5.143   1.326 -0.0832 -0.6293 -0.2541
 8427SOL    HW126180   5.758   5.114   1.276 -0.1130 -2.1236  0.5977
 8427SOL    HW226181   5.822   5.138   1.425  0.3746  1.0737 -0.0478
 8428SOL     OW26182   6.383   0.689   1.165  0.1707 -0.2165 -0.2850
 8428SOL    HW126183   6.299   0.712   1.116  0.5822 -0.3219 -1.0432
 8428SOL    HW226184   6.384   0.737   1.253  1.0154  2.7701 -1.7895
 8429SOL     OW26185   1.924   5.121   1.443  0.1982 -0.5407  0.1414
 8429SOL    HW126186   2.014   5.135   1.403  1.4883 -2.4870  2.1131
 8429SOL    HW226187   1.881   5.210   1.460  1.4113  0.4081 -1.4649
 8430SOL     OW26188   5.923   2.374   3.397 -0.4456  0.1304 -0.3401
 8430SOL    HW126189   5.913   2.281   3.363 -2.6705  0.1112  0.2248
 8430SOL    HW226190   6.015   2.386   3.434 -0.4757 -2.2157  0.6747
 8431SOL     OW26191   6.507   0.939   1.054 -0.1604 -0.3791  0.3699
 8431SOL    HW126192   6.519   0.862   0.992 -0.4365  0.3144 -0.5798
 8431SOL    HW226193   6.454   0.911   1.134 -0.3187 -1.1468 -0.0006
 8432SOL     OW26194   2.678   6.576   4.829 -0.1203  0.4517  1.1681
 8432SOL    HW126195   2.621   6.635   4.887 -0.3008 -0.0478  1.5096
 8432SOL    HW226196   2.732   6.515   4.887  0.1409  0.3437  0.8184
 8433SOL     OW26197   1.668   4.917   6.626  0.1781 -0.2897  0.2732
 8433SOL    HW126198   1.673   4.875   6.717 -0.6477  1.3761  1.1346
 8433SOL    HW226199   1.684   4.847   6.556  0.4241 -1.6916  1.6720
 8434SOL     OW26200   1.039   5.677   1.430  0.0762 -0.6366  0.0671
 8434SOL    HW126201   0.990   5.593   1.452  2.2675 -1.9727  0.1978
 8434SOL    HW226202   1.071   5.720   1.514  0.6559 -0.7787 -0.0737
 8435SOL     OW26203   6.871   1.450   5.742 -0.2483  0.5610  0.2730
 8435SOL    HW126204   6.928   1.494   5.673 -1.9010  0.0869 -1.4683
 8435SOL    HW226205   6.844   1.517   5.811 -1.2309  1.8862 -1.3421
 8436SOL     OW26206   0.467   0.903   2.430 -0.1344 -0.0976  0.1268
 8436SOL    HW126207   0.435   0.853   2.349  0.5478  0.2892 -0.3941
 8436SOL    HW226208   0.406   0.980   2.447 -0.4321 -0.3336  0.1391
 8437SOL     OW26209   3.806   3.908   6.794 -0.3148 -0.1361 -0.2853
 8437SOL    HW126210   3.739   3.844   6.832 -1.2828  1.6505  1.1508
 8437SOL    HW226211   3.875   3.928   6.863 -0.0179  0.3610 -0.7243
 8438SOL     OW26212   5.629   3.986   1.782  0.0390  0.0731 -0.2961
 8438SOL    HW126213   5.533   3.987   1.810  0.2492  0.2348  0.4584
 8438SOL    HW226214   5.635   3.992   1.683 -0.7286  0.1203 -0.3483
 8439SOL     OW26215   1.398   1.398   5.216 -0.1175 -0.3255 -0.3289
 8439SOL    HW126216   1.435   1.440   5.299 -0.4810  0.7263 -0.6802
 8439SOL    HW226217   1.465   1.335   5.178  0.7876  0.5414 -0.2215
 8440SOL     OW26218   2.448   3.204   6.133  0.4405  0.1233 -0.9480
 8440SOL    HW126219   2.545   3.189   6.154 -0.2987 -1.2240  2.1426
 8440SOL    HW226220   2.437   3.294   6.091  2.9768  0.4932 -1.0288
 8441SOL     OW26221   1.542   5.867   1.889 -0.2245  0.1084  0.1335
 8441SOL    HW126222   1.623   5.815   1.861 -0.0154  0.0457  0.8360
 8441SOL    HW226223   1.461   5.828   1.845 -0.5680 -2.9579  3.0443
 8442SOL     OW26224   2.510   0.741   3.198  0.3067 -0.2895 -0.1368
 8442SOL    HW126225   2.564   0.709   3.276  0.9728 -0.5838 -0.7108
 8442SOL    HW226226   2.536   0.834   3.175 -0.4841  0.1079  0.5057
 8443SOL     OW26227   4.133   5.892   3.046 -0.6370  0.0978 -0.1741
 8443SOL    HW126228   4.047   5.876   3.094  0.1222  0.3952  1.3571
 8443SOL    HW226229   4.157   5.989   3.051  0.7018 -0.2590  1.1190
 8444SOL     OW26230   2.263   2.760   5.208 -0.2695 -0.1568 -0.4042
 8444SOL    HW126231   2.199   2.740   5.134  1.0117  0.4278 -1.7279
 8444SOL    HW226232   2.320   2.838   5.182 -0.6597  0.9255  1.7836
 8445SOL     OW26233   2.275   1.563   0.568 -0.4480  0.4209 -0.2163
 8445SOL    HW126234   2.231   1.504   0.501 -0.0245  1.6399 -1.6151
 8445SOL    HW226235   2.211   1.635   0.596 -0.7775 -0.3363  1.0700
 8446SOL     OW26236   1.405   4.978   0.133  0.1371 -0.0973 -1.0599
 8446SOL    HW126237   1.493   4.931   0.128  1.0386  1.1736  1.3527
 8446SOL    HW226238   1.412   5.067   0.088  0.6359  0.6913  0.5061
 8447SOL     OW26239   3.905   2.174   5.173 -0.2828 -0.2072 -0.3552
 8447SOL    HW126240   3.808   2.171   5.148 -0.0649  0.3787 -1.3373
 8447SOL    HW226241   3.920   2.251   5.236 -0.4455 -0.2797 -0.2263
 8448SOL     OW26242   4.460   6.014   4.860  0.4065  0.7151 -0.0454
 8448SOL    HW126243   4.492   6.045   4.770 -1.5177 -1.1944 -1.5089
 8448SOL    HW226244   4.383   5.952   4.848  0.3497  0.0448  2.9558
 8449SOL     OW26245   2.052   0.931   5.653 -0.5117  0.1802  0.4487
 8449SOL    HW126246   2.019   0.902   5.563  1.1238 -0.4168  0.0122
 8449SOL    HW226247   1.997   0.888   5.724  0.5006 -2.4144 -0.2229
 8450SOL     OW26248   1.207   5.356   4.373 -0.1398 -0.3632 -0.2236
 8450SOL    HW126249   1.204   5.323   4.279 -0.2559  0.4858 -0.5257
 8450SOL    HW226250   1.117   5.344   4.415 -1.1831  2.5406 -1.3990
 8451SOL     OW26251   0.490   5.334   6.189 -0.0332  0.0808  0.1586
 8451SOL    HW126252   0.582   5.373   6.185  0.1498 -0.2757  0.7538
 8451SOL    HW226253   0.442   5.353   6.104  1.3847 -1.6651 -1.1211
 8452SOL     OW26254   0.782   3.452   5.424  0.1712  0.0098 -0.6042
 8452SOL    HW126255   0.820   3.400   5.347 -0.8883 -1.1791 -0.3524
 8452SOL    HW226256   0.683   3.445   5.423  0.0636  1.1639  0.0781
 8453SOL     OW26257   0.860   5.984   5.603 -0.1633 -0.7845 -0.7242
 8453SOL    HW126258   0.882   6.039   5.522 -1.2128  1.2251  0.2870
 8453SOL    HW226259   0.787   6.029   5.655  0.3056 -2.1669  1.2276
 8454SOL     OW26260   5.305   4.352   1.896 -0.4738 -0.4468  0.4790
 8454SOL    HW126261   5.218   4.366   1.849  0.1909 -1.1793 -1.0551
 8454SOL    HW226262   5.308   4.258   1.931  0.0198 -0.6968 -0.2158
 8455SOL     OW26263   4.518   0.242   3.975  0.0627 -0.2702  0.3365
 8455SOL    HW126264   4.576   0.202   3.904  0.1777  1.3990 -0.5672
 8455SOL    HW226265   4.575   0.267   4.054  0.4138  0.4304 -0.1314
 8456SOL     OW26266   6.360   2.177   0.196 -0.0395  0.4886 -0.0196
 8456SOL    HW126267   6.317   2.142   0.113 -1.4400  0.8335  0.5358
 8456SOL    HW226268   6.448   2.131   0.211 -1.1856 -1.8240 -0.0422
 8457SOL     OW26269   1.011   6.075   3.953 -0.3329  0.0677 -0.6340
 8457SOL    HW126270   1.014   6.043   4.048  0.3738  2.1831  0.1010
 8457SOL    HW226271   0.920   6.057   3.916 -1.1900  0.7392  1.0272
 8458SOL     OW26272   3.905   4.608   6.052  0.6301  0.3338  0.0152
 8458SOL    HW126273   3.869   4.517   6.072 -0.5247  0.5931 -0.7688
 8458SOL    HW226274   3.829   4.672   6.041  1.4044  1.2465 -0.1549
 8459SOL     OW26275   2.993   3.367   1.336 -0.4418 -0.0453  0.1880
 8459SOL    HW126276   3.050   3.449   1.332 -0.0805 -0.3251 -0.8844
 8459SOL    HW226277   3.011   3.318   1.421  1.2376 -0.3249 -0.2949
 8460SOL     OW26278   4.121   1.314   6.001  0.1973  0.1290  0.0182
 8460SOL    HW126279   4.089   1.360   5.918 -1.4685 -0.6699  0.1623
 8460SOL    HW226280   4.214   1.343   6.022 -0.0531  1.8288 -1.0297
 8461SOL     OW26281   6.233   2.618   4.024 -0.3644 -0.5749 -0.2630
 8461SOL    HW126282   6.153   2.672   3.998 -0.6286 -0.9558 -0.2449
 8461SOL    HW226283   6.284   2.591   3.942  0.2287  0.3892 -0.2315
 8462SOL     OW26284   6.335   2.144   2.336  0.5484 -0.6937  0.2514
 8462SOL    HW126285   6.257   2.082   2.323 -0.6515  0.7155  0.5345
 8462SOL    HW226286   6.409   2.117   2.274 -0.8706 -0.9196 -1.4040
 8463SOL     OW26287   6.930   3.668   0.703  0.1029 -0.1464 -0.1170
 8463SOL    HW126288   7.023   3.704   0.715 -0.3271  0.6870  0.8851
 8463SOL    HW226289   6.916   3.593   0.768 -0.2713  0.4526  0.5100
 8464SOL     OW26290   5.378   0.256   6.531  0.0096  0.2322 -0.2682
 8464SOL    HW126291   5.279   0.250   6.539  0.1388 -0.5682  0.7424
 8464SOL    HW226292   5.400   0.316   6.453 -1.2515  2.0585  0.6960
 8465SOL     OW26293   0.641   6.476   0.849  0.0392 -0.1291 -0.2858
 8465SOL    HW126294   0.721   6.455   0.904  0.0685 -0.7405 -0.5637
 8465SOL    HW226295   0.562   6.490   0.910 -0.4448 -2.9845 -0.1409
 8466SOL     OW26296   6.209   2.846   4.923  0.1158  0.3211  0.2932
 8466SOL    HW126297   6.202   2.868   4.826 -2.0452  2.1378  0.7638
 8466SOL    HW226298   6.139   2.779   4.947  1.0199 -0.5660  0.5189
 8467SOL     OW26299   4.237   6.314   2.075 -0.3647 -0.1178  0.1638
 8467SOL    HW126300   4.178   6.346   2.000  1.1948 -1.8081 -1.8999
 8467SOL    HW226301   4.180   6.287   2.152 -1.9658  3.1775  0.3412
 8468SOL     OW26302   6.977   6.391   5.653  0.1943  0.4837  0.0707
 8468SOL    HW126303   6.920   6.466   5.688 -0.6407 -0.7108  1.3726
 8468SOL    HW226304   7.073   6.420   5.653 -0.0348  1.3202  1.2578
 8469SOL     OW26305   3.818   4.936   1.085 -0.3515  0.2143  0.1891
 8469SOL    HW126306   3.868   4.850   1.073  0.4760  0.7101  0.0004
 8469SOL    HW226307   3.877   5.013   1.060 -1.1193  0.8362  0.2407
 8470SOL     OW26308   0.852   5.996   3.595 -0.0198 -0.3287  0.5172
 8470SOL    HW126309   0.806   6.076   3.632 -0.0678  1.3847 -2.8737
 8470SOL    HW226310   0.928   5.971   3.655 -1.0150  1.1645  2.5348
 8471SOL     OW26311   5.028   0.800   5.767 -0.2697 -0.4778  0.2181
 8471SOL    HW126312   5.039   0.717   5.821  2.5517 -0.3903 -0.0468
 8471SOL    HW226313   5.002   0.775   5.673  1.3398 -1.1962 -0.0782
 8472SOL     OW26314   4.790   3.337   5.289  0.2121  0.1163  0.2984
 8472SOL    HW126315   4.779   3.400   5.212 -0.7483 -0.0135  0.3182
 8472SOL    HW226316   4.879   3.292   5.283  0.6057  0.9292 -0.1202
 8473SOL     OW26317   1.954   1.374   4.121 -0.4481 -0.1808 -0.0144
 8473SOL    HW126318   1.978   1.452   4.178 -0.0442 -0.5357  0.3086
 8473SOL    HW226319   1.887   1.316   4.169 -0.9187  0.0822 -0.3462
 8474SOL     OW26320   2.962   2.511   6.024  0.1078 -0.2083  0.1665
 8474SOL    HW126321   2.969   2.539   6.119 -0.0641 -1.0461  0.4325
 8474SOL    HW226322   2.891   2.441   6.014  2.2162 -2.4879  0.0056
 8475SOL     OW26323   6.583   1.460   2.736 -0.1219 -0.1364 -0.3666
 8475SOL    HW126324   6.638   1.539   2.711  1.2222 -0.5141  1.2310
 8475SOL    HW226325   6.513   1.487   2.801  0.1837 -0.1968 -0.0066
 8476SOL     OW26326   0.932   3.918   3.298  0.3404  0.1527 -0.3827
 8476SOL    HW126327   0.917   3.913   3.199  0.5248  1.1668 -0.4715
 8476SOL    HW226328   1.031   3.917   3.316  0.2978 -1.2298 -0.1233
 8477SOL     OW26329   1.763   2.569   4.825 -0.4788 -0.1510 -0.2972
 8477SOL    HW126330   1.792   2.587   4.920 -0.3575 -0.8716 -0.1864
 8477SOL    HW226331   1.680   2.620   4.805 -0.0772  0.6206 -0.0575
 8478SOL     OW26332   3.519   4.771   0.525  0.2590  0.4479 -0.0795
 8478SOL    HW126333   3.509   4.870   0.529  1.0159  0.5297 -0.0055
 8478SOL    HW226334   3.515   4.741   0.430 -0.4919  0.4832 -0.0654
 8479SOL     OW26335   4.884   1.512   6.889  0.0810  0.1850 -0.0982
 8479SOL    HW126336   4.929   1.428   6.920  1.1599  1.2391  1.3650
 8479SOL    HW226337   4.849   1.499   6.797 -2.1519 -2.7377  0.9940
 8480SOL     OW26338   0.392   3.951   4.073 -0.1219 -0.3504  0.0528
 8480SOL    HW126339   0.488   3.922   4.078 -0.3044 -0.9971 -0.1174
 8480SOL    HW226340   0.352   3.949   4.164  0.3950  1.2423  0.3469
 8481SOL     OW26341   0.092   3.778   6.829  0.1015  0.4968  0.4705
 8481SOL    HW126342   0.149   3.699   6.851 -2.2238 -1.2352  0.6246
 8481SOL    HW226343   0.148   3.849   6.786  1.8084 -2.3380 -2.3616
 8482SOL     OW26344   2.290   0.619   4.043 -0.1725  0.3735 -0.0628
 8482SOL    HW126345   2.262   0.531   4.082 -0.9816  0.7893  0.3278
 8482SOL    HW226346   2.285   0.690   4.113  1.4088  0.5728 -0.1198
 8483SOL     OW26347   6.094   6.193   0.883 -0.2621  0.1252  0.8164
 8483SOL    HW126348   6.101   6.254   0.962  0.8531  2.1375 -0.7231
 8483SOL    HW226349   5.999   6.187   0.853 -0.2859  1.8970  0.4555
 8484SOL     OW26350   0.804   1.435   2.787  0.0886 -0.0594  0.8661
 8484SOL    HW126351   0.840   1.479   2.705 -0.4223  0.4915  0.9321
 8484SOL    HW226352   0.777   1.341   2.765 -2.9416  0.9825 -0.4222
 8485SOL     OW26353   3.090   0.539   0.492 -0.0720 -0.3012  0.5030
 8485SOL    HW126354   3.045   0.623   0.463  1.1079  0.4723  0.8622
 8485SOL    HW226355   3.025   0.483   0.544 -0.7909  0.5083  0.4907
 8486SOL     OW26356   2.681   2.829   1.208  0.3697 -0.2266 -0.8298
 8486SOL    HW126357   2.723   2.823   1.117 -0.0275  1.9165 -1.2285
 8486SOL    HW226358   2.736   2.889   1.266 -0.3162 -0.1386 -0.2558
 8487SOL     OW26359   0.212   2.260   5.559  0.4173  0.4284  0.0466
 8487SOL    HW126360   0.219   2.336   5.494  1.6896  1.1126  0.9342
 8487SOL    HW226361   0.241   2.175   5.515  0.5289  0.7417 -0.4936
 8488SOL     OW26362   3.666   0.180   6.342  0.2311  0.0324  0.1671
 8488SOL    HW126363   3.627   0.159   6.432  1.3795  1.6225  1.0983
 8488SOL    HW226364   3.595   0.219   6.284 -0.1818  0.4688  0.9436
 8489SOL     OW26365   1.189   4.484   5.759  0.4962  0.0382  0.6514
 8489SOL    HW126366   1.091   4.471   5.742  0.7667  0.9095 -2.0570
 8489SOL    HW226367   1.201   4.554   5.829 -0.8888  2.0981 -1.0429
 8490SOL     OW26368   3.960   6.955   0.626  0.4269 -0.2248  0.8383
 8490SOL    HW126369   3.920   6.969   0.535  1.3642  0.4523  0.5013
 8490SOL    HW226370   3.916   6.878   0.671 -0.7117  0.0276  0.1918
 8491SOL     OW26371   6.613   2.313   2.401  0.6321 -0.8827 -0.0414
 8491SOL    HW126372   6.591   2.220   2.430  0.3760 -1.3105 -1.5324
 8491SOL    HW226373   6.693   2.310   2.341 -0.0003 -0.2688 -0.9276
 8492SOL     OW26374   4.894   6.339   6.937  0.5426  0.1609 -0.5872
 8492SOL    HW126375   4.815   6.278   6.939  1.4287 -1.2345  3.8944
 8492SOL    HW226376   4.869   6.428   6.974  0.9495 -0.2561  0.7609
 8493SOL     OW26377   3.353   2.007   4.746  0.3118 -0.2766  0.0626
 8493SOL    HW126378   3.366   2.045   4.837 -1.3314  0.2207  0.1087
 8493SOL    HW226379   3.404   2.061   4.680 -1.0430  1.3545  0.2829
 8494SOL     OW26380   6.537   6.314   0.838 -0.2561 -0.2991  0.1999
 8494SOL    HW126381   6.468   6.246   0.812  0.1851 -0.2341 -1.2727
 8494SOL    HW226382   6.615   6.307   0.775  0.6621  0.2670  1.2385
 8495SOL     OW26383   1.261   0.976   4.722  0.1965  0.0144 -0.5095
 8495SOL    HW126384   1.213   1.064   4.719  0.7715  0.3177 -1.1970
 8495SOL    HW226385   1.277   0.944   4.628 -0.2445 -0.9629 -0.2645
 8496SOL     OW26386   6.174   1.158   2.274  0.0691  0.1877 -0.6221
 8496SOL    HW126387   6.090   1.209   2.255 -0.8711 -1.5894 -1.4923
 8496SOL    HW226388   6.253   1.214   2.250 -0.8712  1.6490 -0.4402
 8497SOL     OW26389   5.790   0.056   0.441 -0.1278  0.4487 -0.1146
 8497SOL    HW126390   5.884   0.075   0.413  0.1549 -0.4816  0.1474
 8497SOL    HW226391   5.759   0.125   0.507 -0.3963  1.9920 -1.7857
 8498SOL     OW26392   2.576   5.105   3.389 -0.3981 -0.0384 -0.3460
 8498SOL    HW126393   2.562   5.121   3.487 -1.0923 -2.1223 -0.0573
 8498SOL    HW226394   2.545   5.185   3.337 -2.3718  0.1287  0.9979
 8499SOL     OW26395   4.122   2.590   0.238 -0.1208 -0.6630 -0.5814
 8499SOL    HW126396   4.091   2.685   0.244 -0.2163 -0.7166 -0.2201
 8499SOL    HW226397   4.222   2.589   0.232 -0.1228 -0.5367 -0.6575
 8500SOL     OW26398   2.374   2.196   4.644  0.2315 -0.7532 -0.0724
 8500SOL    HW126399   2.441   2.266   4.670  1.1896 -1.1651 -1.3113
 8500SOL    HW226400   2.282   2.226   4.669  0.7423  0.4503  0.4151
 8501SOL     OW26401   2.736   3.283   1.324 -0.0277 -0.6055 -0.3469
 8501SOL    HW126402   2.731   3.184   1.336  1.0402 -0.5315  0.8039
 8501SOL    HW226403   2.829   3.315   1.341 -0.3979  0.6273 -0.5240
 8502SOL     OW26404   6.670   0.626   3.304 -0.2155  0.1638  0.7534
 8502SOL    HW126405   6.642   0.616   3.399 -2.3658  0.1923  0.1711
 8502SOL    HW226406   6.637   0.714   3.268 -0.8327 -0.5298 -0.4484
 8503SOL     OW26407   4.226   4.828   0.417 -0.1836 -0.2982  0.4856
 8503SOL    HW126408   4.295   4.864   0.479 -0.8258 -0.1554  1.1298
 8503SOL    HW226409   4.139   4.876   0.432 -0.5857 -0.8954  0.1176
 8504SOL     OW26410   4.435   2.422   1.783 -0.3493  0.6331  0.1435
 8504SOL    HW126411   4.354   2.420   1.841 -0.0743 -0.2211  0.5302
 8504SOL    HW226412   4.447   2.332   1.740 -0.5746  1.2624 -1.2886
 8505SOL     OW26413   6.716   4.462   0.625 -0.3123  0.1054 -0.1269
 8505SOL    HW126414   6.629   4.422   0.595 -1.2287 -0.7887  3.3046
 8505SOL    HW226415   6.791   4.414   0.581 -1.5047 -1.0095 -1.0357
 8506SOL     OW26416   0.555   5.778   2.927 -0.5469 -0.6755 -0.0699
 8506SOL    HW126417   0.558   5.878   2.918 -0.7440 -0.7466 -1.0371
 8506SOL    HW226418   0.460   5.749   2.944 -0.9902 -0.8908 -2.6229
 8507SOL     OW26419   5.806   0.266   0.684  0.3786  0.2130 -0.4903
 8507SOL    HW126420   5.796   0.217   0.771 -0.0729  1.4864  0.2007
 8507SOL    HW226421   5.882   0.331   0.690 -1.3451  2.2952 -0.0403
 8508SOL     OW26422   0.297   4.372   6.680 -0.2588  0.4759 -0.0838
 8508SOL    HW126423   0.255   4.460   6.657 -0.7103  0.6831  1.3912
 8508SOL    HW226424   0.288   4.356   6.779  0.2003 -1.0289 -0.2590
 8509SOL     OW26425   4.663   0.003   0.148 -0.4676  0.6326 -0.0266
 8509SOL    HW126426   4.724   0.014   0.226  0.1446  3.0483 -0.7555
 8509SOL    HW226427   4.587   0.068   0.155 -1.1795 -0.0995 -0.7369
 8510SOL     OW26428   0.220   1.969   3.356  0.3324  0.5329 -0.7337
 8510SOL    HW126429   0.269   2.033   3.416  0.5788  0.4400 -0.8371
 8510SOL    HW226430   0.122   1.981   3.369  0.3537  1.6902 -1.5385
 8511SOL     OW26431   5.190   2.333   4.249 -0.1982 -0.2871  0.0517
 8511SOL    HW126432   5.176   2.362   4.343  1.2815 -0.5645  0.3869
 8511SOL    HW226433   5.101   2.320   4.204 -0.9274  1.9374  0.7287
 8512SOL     OW26434   3.302   6.793   2.710 -0.0106  0.2506 -0.1930
 8512SOL    HW126435   3.396   6.811   2.681 -0.2089  0.5780 -0.6409
 8512SOL    HW226436   3.283   6.841   2.795  0.6895 -0.9950  0.7019
 8513SOL     OW26437   0.657   1.897   3.395  0.2509 -0.3025 -0.0550
 8513SOL    HW126438   0.683   1.994   3.399 -1.4696  0.2701 -1.3742
 8513SOL    HW226439   0.731   1.844   3.354  0.1067  0.9735 -2.1047
 8514SOL     OW26440   6.149   5.391   1.027  0.5956  0.4389 -0.2194
 8514SOL    HW126441   6.249   5.385   1.020  0.7049  1.6310  0.0800
 8514SOL    HW226442   6.122   5.487   1.028 -0.6208  0.1275 -1.0701
 8515SOL     OW26443   3.872   1.237   5.753 -0.0245  0.8443  0.3350
 8515SOL    HW126444   3.831   1.327   5.740  0.4084  0.8583 -1.0292
 8515SOL    HW226445   3.937   1.218   5.680 -0.4707 -0.7740  0.3068
 8516SOL     OW26446   1.207   0.650   2.866 -0.1350 -0.6902  0.3840
 8516SOL    HW126447   1.255   0.617   2.785 -1.0722  0.6568 -0.7553
 8516SOL    HW226448   1.138   0.583   2.894 -1.8188  0.0688 -1.7211
 8517SOL     OW26449   2.350   4.437   1.860 -0.1495  0.1816  0.0074
 8517SOL    HW126450   2.448   4.428   1.847 -0.0707 -0.2930  0.8670
 8517SOL    HW226451   2.312   4.498   1.791  1.0678  2.0286  0.8914
 8518SOL     OW26452   2.608   4.967   1.865  0.1149  0.6901 -0.3059
 8518SOL    HW126453   2.621   5.011   1.776  0.2198  1.3262  0.0165
 8518SOL    HW226454   2.652   4.877   1.865 -1.1668  0.0370 -1.3864
 8519SOL     OW26455   2.613   1.853   5.543 -0.2197  0.0348 -0.4266
 8519SOL    HW126456   2.620   1.944   5.584  0.2767 -1.1800  2.4271
 8519SOL    HW226457   2.607   1.784   5.615 -2.3972 -2.1255 -2.4735
 8520SOL     OW26458   4.153   3.766   6.641  0.3798 -0.2417  0.4125
 8520SOL    HW126459   4.128   3.823   6.563  0.0450  0.2029  0.8386
 8520SOL    HW226460   4.246   3.788   6.671  1.5212 -2.1634 -1.4175
 8521SOL     OW26461   4.452   3.710   6.449  0.1753  0.0939  0.1236
 8521SOL    HW126462   4.473   3.748   6.358  0.2035  0.8716  0.4413
 8521SOL    HW226463   4.392   3.631   6.439 -3.4772  2.6541 -0.4599
 8522SOL     OW26464   3.885   1.786   0.732  0.7856 -0.7484  0.2038
 8522SOL    HW126465   3.800   1.837   0.723  0.9128 -0.7867 -1.4875
 8522SOL    HW226466   3.895   1.723   0.655  2.1704 -1.0160  0.5666
 8523SOL     OW26467   6.900   2.176   3.069 -0.0646 -0.1732  0.0236
 8523SOL    HW126468   6.845   2.259   3.059  0.6650  0.3780  0.4275
 8523SOL    HW226469   6.989   2.200   3.109  0.1895 -1.1420  0.0690
 8524SOL     OW26470   2.636   4.781   5.710 -0.4763 -0.2335  0.1031
 8524SOL    HW126471   2.684   4.864   5.737  1.5653 -0.5091 -2.3049
 8524SOL    HW226472   2.703   4.708   5.693 -2.1242 -2.0223  0.9441
 8525SOL     OW26473   3.121   5.180   0.342 -0.2595  0.1373  0.1045
 8525SOL    HW126474   3.160   5.272   0.335  0.2751 -0.0465  0.5679
 8525SOL    HW226475   3.024   5.183   0.318  0.0510  0.5844 -1.1741
 8526SOL     OW26476   3.124   1.757   1.084  0.0557 -0.3259 -0.4170
 8526SOL    HW126477   3.065   1.757   1.165 -0.9942 -0.5708 -1.1622
 8526SOL    HW226478   3.093   1.826   1.020  1.4422  0.4982 -0.2451
 8527SOL     OW26479   5.637   6.262   5.104 -0.4672  0.0190  0.1031
 8527SOL    HW126480   5.637   6.192   5.175  1.3402  2.0102  2.2468
 8527SOL    HW226481   5.560   6.324   5.118 -0.9254 -0.3911 -0.5674
 8528SOL     OW26482   0.758   6.387   1.118  0.0044 -0.0409 -0.0839
 8528SOL    HW126483   0.727   6.292   1.110 -0.2102  0.0221 -0.0042
 8528SOL    HW226484   0.853   6.388   1.149  1.0666 -0.3361 -3.0257
 8529SOL     OW26485   5.918   0.714   5.890  0.0051  0.0543  0.0320
 8529SOL    HW126486   5.984   0.642   5.870 -0.6128 -0.3331 -0.6287
 8529SOL    HW226487   5.931   0.790   5.827  0.3070  0.3014  0.3870
 8530SOL     OW26488   3.767   3.625   2.242  0.4094 -0.4771  0.3537
 8530SOL    HW126489   3.755   3.700   2.307  1.2555 -0.1005  0.0885
 8530SOL    HW226490   3.677   3.587   2.218  0.1283 -1.6756  2.9286
 8531SOL     OW26491   6.790   6.904   4.063 -0.3462 -0.1565 -0.0507
 8531SOL    HW126492   6.801   6.866   3.971  1.9048 -1.3745  0.6429
 8531SOL    HW226493   6.867   6.963   4.085 -1.0261  0.3968  0.9480
 8532SOL     OW26494   1.361   1.529   0.876 -0.3251  0.5451 -0.2935
 8532SOL    HW126495   1.319   1.515   0.786 -0.8971  0.0277  0.0445
 8532SOL    HW226496   1.321   1.609   0.920 -0.2213  0.6542 -0.3981
 8533SOL     OW26497   2.782   1.141   4.930 -0.3240 -0.4537  0.0596
 8533SOL    HW126498   2.704   1.136   4.867 -1.1133  1.6825  0.7640
 8533SOL    HW226499   2.783   1.060   4.988 -0.8206 -1.4651 -1.2713
 8534SOL     OW26500   1.744   1.836   6.166 -0.3637  0.6252 -0.1667
 8534SOL    HW126501   1.660   1.789   6.137 -0.9346  0.5575  1.5151
 8534SOL    HW226502   1.821   1.772   6.162 -0.9965 -0.2792  1.3620
 8535SOL     OW26503   5.362   0.933   0.236 -0.1842 -0.9104 -0.4077
 8535SOL    HW126504   5.343   0.968   0.328 -0.0183 -2.0296  0.0641
 8535SOL    HW226505   5.459   0.909   0.229 -0.2846 -1.2273 -0.7378
 8536SOL     OW26506   1.507   3.039   0.198 -0.2336 -0.5459  0.7957
 8536SOL    HW126507   1.447   2.960   0.209  0.4788 -1.3855 -0.8807
 8536SOL    HW226508   1.548   3.037   0.107 -0.1298  1.7373  0.7233
 8537SOL     OW26509   3.353   2.508   0.444 -0.4655  0.1978  0.1480
 8537SOL    HW126510   3.384   2.550   0.359  0.2228  0.6664  0.6178
 8537SOL    HW226511   3.375   2.569   0.521 -0.5786 -0.4698  0.7140
 8538SOL     OW26512   0.268   4.745   6.181 -0.0876 -0.1401  0.3046
 8538SOL    HW126513   0.325   4.702   6.110  2.0874 -0.2025  1.9696
 8538SOL    HW226514   0.324   4.808   6.234 -1.7097  0.1074  1.8051
 8539SOL     OW26515   5.080   3.200   4.087 -0.3446  0.4787 -0.2867
 8539SOL    HW126516   5.010   3.251   4.036 -2.2621  0.1297  1.8493
 8539SOL    HW226517   5.039   3.159   4.168  1.8532 -1.8276 -0.2327
 8540SOL     OW26518   1.896   5.766   6.857 -0.2637  0.0031  0.5472
 8540SOL    HW126519   1.966   5.788   6.790  0.0232 -1.2363  0.4200
 8540SOL    HW226520   1.854   5.850   6.890 -0.7515  0.6233 -1.5285
 8541SOL     OW26521   3.448   1.030   4.668  0.4725 -0.0403 -0.2527
 8541SOL    HW126522   3.486   0.985   4.749 -0.5372  0.5009  0.5436
 8541SOL    HW226523   3.505   1.107   4.643  1.9303 -1.3922 -1.3186
 8542SOL     OW26524   5.180   0.266   6.259 -0.5764  0.6892  0.9140
 8542SOL    HW126525   5.240   0.324   6.203 -0.8302  1.4123  1.3759
 8542SOL    HW226526   5.205   0.170   6.246 -1.0373  0.7799 -0.9212
 8543SOL     OW26527   0.380   2.882   0.976  0.0265  0.0543  0.1690
 8543SOL    HW126528   0.454   2.915   1.036 -0.9383  2.8162 -0.0294
 8543SOL    HW226529   0.411   2.885   0.881  0.2520 -0.5715  0.2180
 8544SOL     OW26530   6.535   5.934   3.625 -0.2538 -0.2640 -0.5560
 8544SOL    HW126531   6.442   5.960   3.652  0.8080  2.7675  0.6261
 8544SOL    HW226532   6.534   5.907   3.528 -2.1821  1.0861 -0.9943
 8545SOL     OW26533   4.595   5.216   4.212 -0.4120  0.0642 -0.1065
 8545SOL    HW126534   4.533   5.258   4.145 -1.9901 -0.6345  0.8550
 8545SOL    HW226535   4.571   5.246   4.304  1.9007  1.2091  0.2029
 8546SOL     OW26536   5.084   0.329   1.835 -0.3311 -0.2574 -0.1399
 8546SOL    HW126537   5.174   0.288   1.849 -0.0284 -0.1412 -1.5163
 8546SOL    HW226538   5.081   0.419   1.877  0.3728 -0.0661 -0.4771
 8547SOL     OW26539   2.977   5.582   1.227  0.1736 -0.1253  0.0133
 8547SOL    HW126540   3.042   5.571   1.151  0.4119 -1.2977  0.3575
 8547SOL    HW226541   2.886   5.603   1.191  0.2500 -0.8421 -0.6178
 8548SOL     OW26542   1.490   0.306   3.747 -0.1379  0.6125  0.0172
 8548SOL    HW126543   1.425   0.231   3.757  0.2550  0.2570 -0.0586
 8548SOL    HW226544   1.574   0.272   3.705  0.2587  0.9680  0.4991
 8549SOL     OW26545   3.576   2.936   2.816 -0.1213  0.1791  0.3183
 8549SOL    HW126546   3.516   2.900   2.888 -1.9057  0.6759 -0.8577
 8549SOL    HW226547   3.561   3.034   2.805  0.3828  0.1808 -0.4996
 8550SOL     OW26548   3.424   6.709   0.951 -0.0439 -0.5496 -0.0945
 8550SOL    HW126549   3.432   6.716   1.050 -0.2256  0.1721 -0.1217
 8550SOL    HW226550   3.343   6.761   0.920  1.2596  1.1664 -0.8220
 8551SOL     OW26551   6.813   5.368   2.815  0.3745  0.2380 -0.2661
 8551SOL    HW126552   6.840   5.443   2.754  0.9887  0.4678  0.2842
 8551SOL    HW226553   6.841   5.281   2.774 -1.2555  0.2030 -1.4054
 8552SOL     OW26554   3.248   1.513   4.433  0.2627 -0.0276 -0.5099
 8552SOL    HW126555   3.202   1.582   4.489  1.5926  0.2837  0.2283
 8552SOL    HW226556   3.329   1.480   4.481 -0.1715 -1.8908 -0.9901
 8553SOL     OW26557   2.372   4.423   4.826  0.0754  0.4584  0.0842
 8553SOL    HW126558   2.459   4.441   4.780 -0.5877 -1.0051 -1.8694
 8553SOL    HW226559   2.381   4.441   4.924  2.6767 -0.0226 -0.0149
 8554SOL     OW26560   4.849   1.390   3.609  0.2578 -0.0562 -0.0207
 8554SOL    HW126561   4.804   1.443   3.537 -1.0727  0.8845  1.4475
 8554SOL    HW226562   4.882   1.452   3.680  1.8297 -0.9441  0.0680
 8555SOL     OW26563   4.283   3.539   0.532 -0.8275  0.2704 -0.0686
 8555SOL    HW126564   4.258   3.443   0.523  0.8790 -0.1194 -1.0341
 8555SOL    HW226565   4.376   3.547   0.567 -0.5659  1.5283 -0.9536
 8556SOL     OW26566   2.785   0.652   0.151 -0.2372  0.5386 -0.4017
 8556SOL    HW126567   2.779   0.699   0.063  0.7326 -1.8677 -1.8508
 8556SOL    HW226568   2.725   0.572   0.150  0.9054 -0.3601  0.5370
 8557SOL     OW26569   6.961   3.519   2.897  0.3414 -0.6930 -0.0825
 8557SOL    HW126570   6.931   3.532   2.802 -0.2900 -0.1779  0.1846
 8557SOL    HW226571   7.055   3.553   2.907  0.6756 -1.4058 -0.6868
 8558SOL     OW26572   0.996   0.517   1.016 -0.0775  0.2115  0.1069
 8558SOL    HW126573   0.946   0.543   1.099 -0.6777  1.6770 -0.6868
 8558SOL    HW226574   0.996   0.417   1.008 -1.2309  0.1050  1.1283
 8559SOL     OW26575   5.354   2.439   6.715 -0.1806  0.4383  0.0802
 8559SOL    HW126576   5.309   2.506   6.773 -0.4767  0.3987 -0.1024
 8559SOL    HW226577   5.446   2.472   6.691  0.0121  0.3695  0.7176
 8560SOL     OW26578   6.409   3.662   3.987 -0.1160 -0.2759 -0.2405
 8560SOL    HW126579   6.419   3.693   4.082  0.1264  0.3743 -0.4671
 8560SOL    HW226580   6.345   3.586   3.983  0.3929 -0.7583  0.5304
 8561SOL     OW26581   0.565   4.748   3.986 -0.1719 -0.8140 -0.0652
 8561SOL    HW126582   0.531   4.834   4.025  0.8708  0.1521 -1.2065
 8561SOL    HW226583   0.662   4.738   4.007 -0.3957 -2.0163  0.5135
 8562SOL     OW26584   1.707   6.520   0.918  0.2625  0.5248 -0.0593
 8562SOL    HW126585   1.690   6.481   0.828  1.9775 -0.0603 -0.1534
 8562SOL    HW226586   1.694   6.450   0.988  0.9978  0.4130 -0.0312
 8563SOL     OW26587   0.209   2.622   2.711 -0.8456 -0.5559 -0.6589
 8563SOL    HW126588   0.254   2.619   2.621 -0.3252 -0.7141 -0.3959
 8563SOL    HW226589   0.276   2.601   2.782 -1.4012 -1.0459 -0.2820
 8564SOL     OW26590   5.793   2.558   2.294  0.0931 -0.1146  0.0578
 8564SOL    HW126591   5.761   2.463   2.291  0.6378 -0.3413  0.9259
 8564SOL    HW226592   5.736   2.609   2.358 -0.1158  0.1086 -0.3090
 8565SOL     OW26593   2.400   0.194   0.859 -0.2296  0.1741  0.3355
 8565SOL    HW126594   2.376   0.284   0.894  1.4114  1.6015 -1.8841
 8565SOL    HW226595   2.357   0.180   0.770 -1.8503 -2.0439  1.3555
 8566SOL     OW26596   6.328   6.784   0.932 -0.0273 -0.0879  0.0113
 8566SOL    HW126597   6.367   6.728   0.859 -0.8267 -0.8137  0.1350
 8566SOL    HW226598   6.379   6.769   1.016 -0.0908 -0.4398 -0.0145
 8567SOL     OW26599   0.705   6.851   2.179  0.0586  0.1010  0.0420
 8567SOL    HW126600   0.770   6.911   2.225  1.4302 -0.5607 -0.9711
 8567SOL    HW226601   0.731   6.840   2.083 -1.3197 -0.5205 -0.2899
 8568SOL     OW26602   6.566   0.224   0.935  0.7827  0.1449  0.0083
 8568SOL    HW126603   6.536   0.232   0.839 -0.5935  2.2295  0.5447
 8568SOL    HW226604   6.524   0.297   0.989 -0.3239 -2.2848  2.6883
 8569SOL     OW26605   0.240   1.261   5.687  0.2944 -0.1172 -0.0353
 8569SOL    HW126606   0.323   1.256   5.631 -0.4144 -1.5597 -0.9897
 8569SOL    HW226607   0.171   1.316   5.641  1.0003  1.9304  1.2060
 8570SOL     OW26608   1.046   0.338   4.940  0.1663  0.6323  0.9093
 8570SOL    HW126609   0.999   0.326   5.027 -1.5192  0.6091  0.0564
 8570SOL    HW226610   1.021   0.262   4.878  2.2155  0.0324  0.7520
 8571SOL     OW26611   0.729   1.022   0.045  0.6479 -0.0994 -0.7070
 8571SOL    HW126612   0.804   1.066   0.096  0.5125 -0.4411 -0.2087
 8571SOL    HW226613   0.708   1.077  -0.036  1.1910  0.1963 -0.6571
 8572SOL     OW26614   7.016   4.918   6.782  0.3750 -0.0532  0.5884
 8572SOL    HW126615   6.942   4.891   6.721  0.9567  1.1082 -0.6923
 8572SOL    HW226616   7.016   5.017   6.793  1.3265 -0.1000  1.1167
 8573SOL     OW26617   3.247   0.344   5.248 -0.1653 -0.0137  0.1699
 8573SOL    HW126618   3.307   0.413   5.290  0.7199 -0.7694  0.1640
 8573SOL    HW226619   3.160   0.387   5.223  0.7420  1.3466 -0.7578
 8574SOL     OW26620   4.212   3.104   5.986 -0.6581  0.2409  0.5963
 8574SOL    HW126621   4.211   3.135   5.891 -0.1727 -1.0414  0.1494
 8574SOL    HW226622   4.118   3.094   6.019 -0.8524 -0.2591 -0.0852
 8575SOL     OW26623   5.816   4.422   0.482  0.0055  0.0007  0.1520
 8575SOL    HW126624   5.800   4.441   0.385  0.9905 -0.3357 -0.0853
 8575SOL    HW226625   5.886   4.485   0.517  1.4570 -1.4760  0.0007
 8576SOL     OW26626   4.214   1.572   3.825  0.1570  0.5008 -0.3918
 8576SOL    HW126627   4.197   1.668   3.803  0.5282  0.6632  0.0164
 8576SOL    HW226628   4.214   1.561   3.925 -1.1484 -0.1516 -0.4398
 8577SOL     OW26629   5.287   4.985   5.858  0.1664 -0.5417  0.2158
 8577SOL    HW126630   5.244   4.907   5.903  0.4458  0.0394  1.5358
 8577SOL    HW226631   5.241   5.004   5.771 -1.3122 -0.8149  0.9175
 8578SOL     OW26632   1.363   1.281   1.095  1.1355 -0.6981  0.1216
 8578SOL    HW126633   1.368   1.312   1.190 -0.7442 -1.1686  0.4009
 8578SOL    HW226634   1.399   1.352   1.035  0.1952  0.5601  1.0160
 8579SOL     OW26635   4.496   2.218   3.043  0.1594  0.1532  0.1621
 8579SOL    HW126636   4.502   2.243   2.946 -0.8646 -1.6967 -0.4405
 8579SOL    HW226637   4.407   2.247   3.078  1.0173  1.9697  0.9580
 8580SOL     OW26638   1.586   1.403   2.659  0.2184  0.1173  0.3288
 8580SOL    HW126639   1.677   1.419   2.619 -1.0368  2.8928 -1.7704
 8580SOL    HW226640   1.561   1.480   2.718 -1.5520  0.4826 -0.8194
 8581SOL     OW26641   4.903   1.437   1.456  0.1906 -0.1739 -0.6338
 8581SOL    HW126642   4.986   1.382   1.466  1.1929  1.5408  1.0374
 8581SOL    HW226643   4.927   1.532   1.438 -1.4732  0.1212 -1.5500
 8582SOL     OW26644   3.615   0.037   5.915 -0.0348  0.3355  0.1825
 8582SOL    HW126645   3.704   0.066   5.952  0.1420  1.4245 -1.0212
 8582SOL    HW226646   3.574   0.113   5.864 -0.1150 -1.1622 -2.1035
 8583SOL     OW26647   0.233   4.272   4.894  0.3211 -0.0060 -0.3254
 8583SOL    HW126648   0.226   4.233   4.802 -1.6359 -0.8102  0.1269
 8583SOL    HW226649   0.154   4.330   4.913  0.3540 -0.3700  1.0752
 8584SOL     OW26650   4.701   6.507   1.037 -0.3954 -0.0182  0.0262
 8584SOL    HW126651   4.638   6.545   1.105 -0.1205 -0.0764  0.3189
 8584SOL    HW226652   4.791   6.495   1.079 -0.1500  0.2036 -0.4284
 8585SOL     OW26653   1.755   3.782   5.008  0.3636  0.1596 -0.2928
 8585SOL    HW126654   1.757   3.805   5.106  0.7401 -0.4579 -0.1447
 8585SOL    HW226655   1.774   3.684   4.997 -1.8674 -0.2651 -0.8494
 8586SOL     OW26656   4.736   6.936   6.913 -0.7008  0.1741 -0.3560
 8586SOL    HW126657   4.815   6.986   6.948 -2.0717  1.5398  0.9911
 8586SOL    HW226658   4.673   6.916   6.989 -0.9667 -2.2553 -1.1194
 8587SOL     OW26659   0.890   6.976   2.841 -0.0240  0.3387 -0.2364
 8587SOL    HW126660   0.837   6.902   2.798  2.0386 -1.7742  0.6180
 8587SOL    HW226661   0.901   7.051   2.776 -0.7624 -0.8400 -1.7925
 8588SOL     OW26662   5.570   2.869   3.937  1.1639  0.1615 -0.1889
 8588SOL    HW126663   5.496   2.936   3.938  0.2970 -0.6833  2.6831
 8588SOL    HW226664   5.532   2.778   3.920  1.8864 -0.0295 -0.8609
 8589SOL     OW26665   0.876   6.703   1.702  0.3775  0.2588 -0.7573
 8589SOL    HW126666   0.821   6.629   1.663  0.8060 -0.4839 -0.0050
 8589SOL    HW226667   0.881   6.692   1.801 -0.6491  2.0774 -0.4680
 8590SOL     OW26668   6.567   5.840   2.200  0.0022 -0.7553 -0.0624
 8590SOL    HW126669   6.582   5.818   2.103 -0.9887 -1.2401 -0.1252
 8590SOL    HW226670   6.502   5.915   2.207  0.4473 -0.3939  0.2235
 8591SOL     OW26671   3.265   0.109   0.928 -0.0967  0.5447 -0.3448
 8591SOL    HW126672   3.228   0.133   0.838 -0.3660  1.4339  0.0008
 8591SOL    HW226673   3.337   0.174   0.953  1.4583 -0.9076 -0.8208
 8592SOL     OW26674   3.883   6.680   5.840 -0.0738 -0.0067  0.4760
 8592SOL    HW126675   3.794   6.700   5.798 -0.0284  0.6159  0.6617
 8592SOL    HW226676   3.897   6.741   5.918 -0.7721 -2.0671  2.3108
 8593SOL     OW26677   5.842   2.128   3.369 -0.0372  0.3664 -0.3019
 8593SOL    HW126678   5.895   2.043   3.376  0.4781  0.7207  0.2219
 8593SOL    HW226679   5.753   2.108   3.329 -0.4324 -0.6622  1.0084
 8594SOL     OW26680   3.294   3.787   4.401  0.3984 -0.0809 -0.0682
 8594SOL    HW126681   3.342   3.703   4.427  2.1689  1.4592  1.9902
 8594SOL    HW226682   3.199   3.782   4.432  1.2961 -0.1393  3.0397
 8595SOL     OW26683   3.908   5.898   5.823 -0.5201 -0.2764 -0.3697
 8595SOL    HW126684   3.882   5.993   5.837  2.0434  0.7018 -1.7576
 8595SOL    HW226685   3.827   5.846   5.795 -1.4460  2.1381 -2.5882
 8596SOL     OW26686   1.762   0.396   6.349  0.0434  0.6651  0.3275
 8596SOL    HW126687   1.705   0.398   6.431 -0.0476 -1.1878  0.3693
 8596SOL    HW226688   1.743   0.476   6.292 -0.2379  1.7320  1.8676
 8597SOL     OW26689   6.483   2.258   3.642  0.5711  0.0496 -0.0756
 8597SOL    HW126690   6.493   2.204   3.558 -0.6601  1.0751 -0.9374
 8597SOL    HW226691   6.399   2.230   3.689 -0.3562  1.4564 -0.7919
 8598SOL     OW26692   0.891   3.949   3.631 -0.5156  0.2765 -0.7316
 8598SOL    HW126693   0.812   3.925   3.687  0.3546  0.1014  0.4465
 8598SOL    HW226694   0.971   3.962   3.689  0.4250  0.0797 -1.9380
 8599SOL     OW26695   0.558   5.640   0.928  0.3174 -0.6350  0.0940
 8599SOL    HW126696   0.545   5.542   0.943  0.8236 -0.7787 -0.4116
 8599SOL    HW226697   0.587   5.657   0.834 -0.6344  0.0814 -0.0927
 8600SOL     OW26698   4.332   4.212   0.694  0.7659 -0.1713  0.3281
 8600SOL    HW126699   4.329   4.249   0.601  0.8285 -0.3159  0.2673
 8600SOL    HW226700   4.403   4.258   0.747  0.4524  0.2004  0.4309
 8601SOL     OW26701   3.367   3.863   2.222  0.4711  0.2274  0.3596
 8601SOL    HW126702   3.307   3.813   2.160 -0.7730  1.5175  0.4928
 8601SOL    HW226703   3.377   3.811   2.307 -1.4490  0.5284  0.8128
 8602SOL     OW26704   6.843   6.526   3.270 -0.2163  0.3086  0.3651
 8602SOL    HW126705   6.830   6.580   3.187  0.7399  0.0566  0.0330
 8602SOL    HW226706   6.786   6.562   3.343 -2.2276 -0.3430 -0.7777
 8603SOL     OW26707   2.026   5.372   5.463 -0.6803 -0.6768 -0.3233
 8603SOL    HW126708   2.040   5.380   5.562  3.1519 -2.6205 -0.5503
 8603SOL    HW226709   2.055   5.456   5.418 -0.5104 -0.5302  0.0572
 8604SOL     OW26710   1.450   1.181   3.618  0.6735  0.3119  0.2463
 8604SOL    HW126711   1.378   1.226   3.671  1.2395  1.2950  0.2090
 8604SOL    HW226712   1.483   1.244   3.547  0.8918 -0.4822 -0.3649
 8605SOL     OW26713   4.902   3.581   0.735 -0.0793 -0.4754  1.2018
 8605SOL    HW126714   4.826   3.591   0.799 -2.3271 -1.1328 -1.1842
 8605SOL    HW226715   4.922   3.484   0.723 -0.5736 -0.4543  0.0286
 8606SOL     OW26716   3.998   0.666   6.008 -0.1262  0.0427 -0.3359
 8606SOL    HW126717   4.081   0.649   6.060 -0.4236 -0.9934 -0.1764
 8606SOL    HW226718   4.021   0.711   5.922  0.6583 -0.7107 -0.5339
 8607SOL     OW26719   5.186   6.205   1.449  0.2884 -0.4030  0.0994
 8607SOL    HW126720   5.221   6.255   1.370  0.1477  0.8825  0.8307
 8607SOL    HW226721   5.251   6.135   1.476  0.4559 -0.6779 -0.9883
 8608SOL     OW26722   4.248   4.073   1.395 -0.5053  0.0366  0.1200
 8608SOL    HW126723   4.197   3.994   1.360  0.6229 -0.2421 -0.9583
 8608SOL    HW226724   4.289   4.050   1.483  0.6672 -0.9638 -0.6570
 8609SOL     OW26725   5.837   5.688   4.965  0.0088  0.3931  0.3166
 8609SOL    HW126726   5.794   5.757   4.907  1.0370  3.0248  2.4764
 8609SOL    HW226727   5.767   5.628   5.004 -0.8928  0.0151 -1.7333
 8610SOL     OW26728   6.881   3.885   2.320  0.1519 -0.2718 -0.1179
 8610SOL    HW126729   6.839   3.867   2.409  0.1033 -0.1556 -0.1176
 8610SOL    HW226730   6.928   3.973   2.323  0.6467 -0.5365 -0.0269
 8611SOL     OW26731   1.434   2.449   4.948 -0.2003  0.0447  0.6074
 8611SOL    HW126732   1.362   2.402   4.895  2.2543 -1.8774 -1.2668
 8611SOL    HW226733   1.427   2.423   5.044 -2.6717  0.8531  0.7162
 8612SOL     OW26734   1.932   3.114   5.412  0.0010 -0.1705  0.5547
 8612SOL    HW126735   1.903   3.153   5.499  2.1512  0.1958  1.1587
 8612SOL    HW226736   1.897   3.170   5.337  0.0732  0.8436  1.2700
 8613SOL     OW26737   1.185   2.338   2.435 -0.3065  0.1495  0.2783
 8613SOL    HW126738   1.234   2.422   2.410  1.8285 -0.6434  1.5879
 8613SOL    HW226739   1.170   2.337   2.533 -2.0224 -0.1741  0.0429
 8614SOL     OW26740   6.995   1.386   2.046 -0.0796 -0.3022  0.2184
 8614SOL    HW126741   7.042   1.472   2.065 -1.1662 -0.0640  2.0661
 8614SOL    HW226742   6.902   1.404   2.014  0.3425 -0.7864 -1.3269
 8615SOL     OW26743   1.846   3.364   3.137 -0.1533  0.6049  0.1810
 8615SOL    HW126744   1.798   3.424   3.201  0.7202  1.9748 -0.4021
 8615SOL    HW226745   1.942   3.357   3.165 -0.1067 -0.0199 -0.1231
 8616SOL     OW26746   0.670   5.093   3.866  0.2283 -0.0559  0.5587
 8616SOL    HW126747   0.631   5.150   3.938 -0.7084  0.1056 -0.0474
 8616SOL    HW226748   0.662   5.141   3.778  0.1689 -0.7758  0.1591
 8617SOL     OW26749   6.791   3.892   6.433  0.2433  0.4659  0.3779
 8617SOL    HW126750   6.807   3.943   6.348 -0.5372  0.1729  0.0445
 8617SOL    HW226751   6.865   3.827   6.448  0.3775  0.5132 -0.0817
 8618SOL     OW26752   2.251   1.523   2.474 -0.3100  1.0800  0.0329
 8618SOL    HW126753   2.170   1.495   2.526  0.2894 -0.1225  0.3495
 8618SOL    HW226754   2.316   1.568   2.536  0.1703  0.1329  0.2319
 8619SOL     OW26755   3.433   5.592   5.393 -0.3231  0.4498  0.7785
 8619SOL    HW126756   3.495   5.612   5.318 -1.1736  2.2266  0.4867
 8619SOL    HW226757   3.483   5.551   5.469  0.6577 -0.7996 -0.4985
 8620SOL     OW26758   6.260   4.181   1.797  0.1254 -0.4577 -0.0621
 8620SOL    HW126759   6.273   4.095   1.747 -2.4214 -0.1638 -1.4406
 8620SOL    HW226760   6.269   4.258   1.733  0.6797  0.2083  0.7933
 8621SOL     OW26761   3.236   0.695   2.132  0.3819  0.1233 -0.9485
 8621SOL    HW126762   3.180   0.709   2.214 -0.4705  0.1090 -1.5193
 8621SOL    HW226763   3.310   0.631   2.153  2.1505  2.5239  0.7080
 8622SOL     OW26764   5.017   2.518   6.339 -0.5762 -0.1075  0.0370
 8622SOL    HW126765   5.106   2.563   6.332 -0.5669  0.0395  1.0028
 8622SOL    HW226766   5.027   2.421   6.316 -0.4156  0.1702 -1.1107
 8623SOL     OW26767   5.106   5.135   2.507 -0.4734  0.2243  0.0664
 8623SOL    HW126768   5.179   5.157   2.441 -2.1196  1.8777 -1.3038
 8623SOL    HW226769   5.018   5.135   2.460 -1.3897 -2.0194  1.6198
 8624SOL     OW26770   6.011   6.544   1.564 -0.5181 -0.5770 -0.2667
 8624SOL    HW126771   5.978   6.457   1.602  0.7653 -1.0929 -0.2807
 8624SOL    HW226772   6.110   6.552   1.581 -0.6708  1.0286  0.0109
 8625SOL     OW26773   5.767   4.634   2.194 -0.0954  0.1097  0.1014
 8625SOL    HW126774   5.724   4.603   2.110  2.0540 -0.2883 -0.9270
 8625SOL    HW226775   5.749   4.732   2.207  0.2094  0.3733 -1.2837
 8626SOL     OW26776   2.791   1.664   0.224  0.1211  0.1196  0.3159
 8626SOL    HW126777   2.765   1.568   0.210  1.0027 -0.2678  1.2034
 8626SOL    HW226778   2.811   1.679   0.321  1.3461  0.8346 -0.0207
 8627SOL     OW26779   2.387   5.581   4.421 -0.5444  0.0522 -0.5718
 8627SOL    HW126780   2.481   5.602   4.391 -0.3164  0.2304  0.2539
 8627SOL    HW226781   2.375   5.482   4.425  0.1449  0.0099  0.9346
 8628SOL     OW26782   3.076   1.751   5.037 -0.0003  0.0376 -0.5069
 8628SOL    HW126783   3.052   1.692   5.115  0.3749 -0.2375 -0.5969
 8628SOL    HW226784   3.066   1.847   5.064 -1.6262 -0.0471 -0.6683
 8629SOL     OW26785   0.915   2.767   1.683 -0.6866 -0.2324  0.0600
 8629SOL    HW126786   0.956   2.726   1.602  0.0595 -0.1972  0.4121
 8629SOL    HW226787   0.975   2.752   1.762 -1.2981 -0.0782  0.5607
 8630SOL     OW26788   3.785   4.481   0.876 -0.2688 -0.0281  0.2926
 8630SOL    HW126789   3.739   4.559   0.836  1.5636  2.0092  1.8875
 8630SOL    HW226790   3.735   4.450   0.957 -0.3636  0.2776  0.3510
 8631SOL     OW26791   0.894   3.982   4.854 -0.4651 -0.2775  0.0571
 8631SOL    HW126792   0.942   3.935   4.779 -2.6788 -1.3742 -0.7782
 8631SOL    HW226793   0.937   3.959   4.941  2.1351  0.9652 -0.7932
 8632SOL     OW26794   4.733   6.986   0.718  0.0004 -0.3604 -0.2677
 8632SOL    HW126795   4.669   6.910   0.715  1.5418 -1.7677  0.6534
 8632SOL    HW226796   4.729   7.037   0.632 -1.5421 -1.0643 -0.6289
 8633SOL     OW26797   1.335   0.475   6.380 -0.4636 -0.1654  0.2033
 8633SOL    HW126798   1.373   0.402   6.321 -0.5344 -0.7412  0.8603
 8633SOL    HW226799   1.270   0.530   6.327  1.6618  1.2111 -1.1465
 8634SOL     OW26800   1.392   3.517   4.980  0.5867  0.6565 -0.0630
 8634SOL    HW126801   1.356   3.531   5.072 -1.0513 -1.4146 -0.3045
 8634SOL    HW226802   1.474   3.460   4.984  0.3752  0.3634  0.1077
 8635SOL     OW26803   1.836   1.461   2.518  0.9126 -0.3867  0.1626
 8635SOL    HW126804   1.858   1.369   2.486  2.5298 -0.1109  0.4168
 8635SOL    HW226805   1.920   1.508   2.546  0.0162  0.8712  0.8341
 8636SOL     OW26806   4.837   6.133   4.367  0.7629  0.1895 -0.3112
 8636SOL    HW126807   4.751   6.158   4.410  0.4623 -0.5187 -0.4979
 8636SOL    HW226808   4.896   6.087   4.434  0.3123 -0.8732 -0.6318
 8637SOL     OW26809   1.437   4.695   2.015  0.4205  0.5089 -0.0183
 8637SOL    HW126810   1.359   4.659   1.964  0.8850  1.7534 -1.6598
 8637SOL    HW226811   1.414   4.785   2.052  1.1878  1.0566 -0.8414
 8638SOL     OW26812   0.059   2.310   0.529  1.3816 -0.3931  0.0662
 8638SOL    HW126813  -0.009   2.375   0.495  0.8882  1.7402  4.3419
 8638SOL    HW226814   0.022   2.217   0.524 -1.1155  0.4991  0.4766
 8639SOL     OW26815   2.911   5.923   2.580  0.1021 -0.3355  0.4093
 8639SOL    HW126816   2.889   6.010   2.537 -0.1235  0.2543  1.6809
 8639SOL    HW226817   2.827   5.876   2.606  0.2371 -0.5955  0.3814
 8640SOL     OW26818   5.671   3.987   2.868 -0.2041  0.4448 -0.5073
 8640SOL    HW126819   5.729   4.023   2.795 -0.4901  2.0885  0.0303
 8640SOL    HW226820   5.730   3.953   2.942  0.0838 -1.2100 -1.4478
 8641SOL     OW26821   5.062   4.256   3.441 -0.0885  0.1004  0.1014
 8641SOL    HW126822   5.082   4.354   3.437  0.6060  0.0408  1.4057
 8641SOL    HW226823   4.963   4.243   3.442 -0.1917  0.7895 -0.0799
 8642SOL     OW26824   5.657   5.229   0.738  0.2848 -0.1966  0.9227
 8642SOL    HW126825   5.727   5.300   0.740  0.7304 -0.4319 -1.8460
 8642SOL    HW226826   5.701   5.139   0.744  0.0818 -0.3067  0.7657
 8643SOL     OW26827   1.260   6.271   5.062 -0.5887 -0.4112 -0.5155
 8643SOL    HW126828   1.262   6.306   4.969 -1.2470 -1.1091 -0.8041
 8643SOL    HW226829   1.175   6.219   5.077  0.1514 -1.5072  0.0197
 8644SOL     OW26830   1.963   2.141   4.161  0.6652  0.4741 -0.2072
 8644SOL    HW126831   2.003   2.179   4.244  0.0928 -1.1719  0.8722
 8644SOL    HW226832   1.962   2.211   4.089 -0.3717  2.4668  1.6458
 8645SOL     OW26833   4.608   3.102   5.948  0.0306 -0.0673 -0.9422
 8645SOL    HW126834   4.576   3.030   5.886  1.6574 -0.3576 -1.5091
 8645SOL    HW226835   4.585   3.191   5.910 -0.6996 -0.2600 -0.9738
 8646SOL     OW26836   4.207   2.772   1.234  1.0859  0.3199 -0.1364
 8646SOL    HW126837   4.192   2.716   1.152 -2.2099  0.1843  0.4116
 8646SOL    HW226838   4.191   2.716   1.316 -2.1058  1.8349  0.4206
 8647SOL     OW26839   2.385   5.605   5.541 -0.0704 -0.0254 -0.2019
 8647SOL    HW126840   2.302   5.642   5.500 -0.6613 -0.3221  0.7088
 8647SOL    HW226841   2.405   5.515   5.501  1.1928  1.0526 -2.1871
 8648SOL     OW26842   5.497   1.533   4.496 -0.2564  0.0427  0.5160
 8648SOL    HW126843   5.408   1.524   4.451 -0.1417  0.0495  0.2852
 8648SOL    HW226844   5.487   1.585   4.580 -0.0643  2.4204 -0.8279
 8649SOL     OW26845   6.936   6.322   4.984 -0.1516 -0.1259 -0.4012
 8649SOL    HW126846   6.886   6.250   5.034 -0.2772  0.2860  0.0714
 8649SOL    HW226847   6.959   6.396   5.046  0.4394  0.0124 -0.7753
 8650SOL     OW26848   3.221   4.738   1.124  0.2843  0.2577 -0.4521
 8650SOL    HW126849   3.257   4.673   1.192  0.7417  1.4504  0.4758
 8650SOL    HW226850   3.278   4.735   1.042  0.2866 -0.5169 -0.4361
 8651SOL     OW26851   0.865   2.990   0.223  0.2911  0.4680 -0.1366
 8651SOL    HW126852   0.799   2.967   0.294 -0.1405  0.1783 -0.6212
 8651SOL    HW226853   0.953   3.013   0.265  0.2793 -0.4962  0.4542
 8652SOL     OW26854   1.510   3.196   5.942 -0.2072  0.2941  0.1691
 8652SOL    HW126855   1.530   3.101   5.966  1.3060  0.5513  0.0448
 8652SOL    HW226856   1.540   3.256   6.016  0.3562  0.7841 -0.4486
 8653SOL     OW26857   4.261   5.383   0.846 -0.2905  0.5862 -0.1128
 8653SOL    HW126858   4.170   5.407   0.811 -1.3131 -0.0664  1.9354
 8653SOL    HW226859   4.331   5.426   0.789 -1.8819  1.4817 -1.4827
 8654SOL     OW26860   4.871   6.704   0.371  0.4727 -0.0373 -0.2479
 8654SOL    HW126861   4.780   6.743   0.384  0.3338  0.0842 -1.4495
 8654SOL    HW226862   4.865   6.605   0.369  0.2912 -0.0187 -0.7755
 8655SOL     OW26863   2.784   6.375   6.496 -0.3284 -0.2224  0.0096
 8655SOL    HW126864   2.689   6.372   6.464 -1.4278  0.1941  2.8773
 8655SOL    HW226865   2.788   6.422   6.584  2.7586  0.7217 -0.5126
 8656SOL     OW26866   5.759   3.044   5.133  0.3806 -0.5439  0.1831
 8656SOL    HW126867   5.746   3.113   5.204 -2.0799  0.9341 -1.5556
 8656SOL    HW226868   5.764   3.088   5.043  0.6622 -2.5333 -0.8379
 8657SOL     OW26869   3.060   4.005   4.660  0.0064  0.6259 -0.3595
 8657SOL    HW126870   3.099   4.092   4.629 -1.0431  1.4682  0.5830
 8657SOL    HW226871   3.031   3.952   4.581  1.5498  0.6777 -1.0005
 8658SOL     OW26872   4.980   5.014   0.359  0.4389 -0.3317 -0.3575
 8658SOL    HW126873   5.034   4.944   0.406  1.4292  0.3784 -0.4276
 8658SOL    HW226874   4.981   4.997   0.260  1.4768  0.3199 -0.4662
 8659SOL     OW26875   0.680   5.226   0.385 -0.3477 -0.4218  0.5490
 8659SOL    HW126876   0.642   5.140   0.350 -0.7358  0.1369 -0.4461
 8659SOL    HW226877   0.605   5.290   0.403  0.0482  0.3380 -0.4487
 8660SOL     OW26878   0.888   6.412   4.542  0.1713  0.0739 -0.1615
 8660SOL    HW126879   0.876   6.504   4.502  2.9131  0.3586 -0.5711
 8660SOL    HW226880   0.915   6.421   4.637  0.7543 -0.2793 -0.2898
 8661SOL     OW26881   3.319   0.497   6.576  0.2081  0.2042  0.1671
 8661SOL    HW126882   3.368   0.581   6.598  0.0918 -0.0643  1.5832
 8661SOL    HW226883   3.221   0.511   6.589  0.2855 -0.5047  1.7979
 8662SOL     OW26884   4.635   4.491   2.901 -0.1287  0.1202  0.0488
 8662SOL    HW126885   4.539   4.473   2.924 -0.4133 -0.4236 -1.4691
 8662SOL    HW226886   4.653   4.589   2.909 -0.8565  0.2524  0.1609
 8663SOL     OW26887   1.562   6.013   1.539  0.1922  0.1149  0.2180
 8663SOL    HW126888   1.640   5.980   1.487  1.2220 -1.0074  2.3620
 8663SOL    HW226889   1.504   5.936   1.565 -0.0464  0.5847  1.1112
 8664SOL     OW26890   3.694   1.237   1.232  0.4106  0.3213 -0.2177
 8664SOL    HW126891   3.631   1.312   1.215 -1.3930 -1.6065 -2.8745
 8664SOL    HW226892   3.642   1.153   1.250  2.3112 -0.7488  0.6314
 8665SOL     OW26893   5.001   6.002   5.614 -0.0122 -0.1540 -0.3946
 8665SOL    HW126894   4.904   6.021   5.626 -0.2434 -1.4482 -0.0776
 8665SOL    HW226895   5.019   5.905   5.629  1.4182  0.1513  0.0793
 8666SOL     OW26896   6.146   5.176   4.142  0.2623  0.3696 -0.0169
 8666SOL    HW126897   6.242   5.164   4.170  0.7498 -0.5060 -1.9395
 8666SOL    HW226898   6.097   5.223   4.215  1.9550  0.1211  1.3661
 8667SOL     OW26899   6.996   5.533   1.777  0.2842  0.4585 -0.5819
 8667SOL    HW126900   6.999   5.620   1.827 -1.2281  0.4736 -0.4744
 8667SOL    HW226901   7.032   5.460   1.835  0.7601  0.8716 -0.3547
 8668SOL     OW26902   2.869   3.616   6.143 -0.2358  0.1017  0.1414
 8668SOL    HW126903   2.822   3.646   6.060 -1.0240 -0.5732  0.3382
 8668SOL    HW226904   2.835   3.526   6.171  0.4171  0.0708  0.8887
 8669SOL     OW26905   4.613   6.803   0.410 -0.0943 -0.1572 -0.0633
 8669SOL    HW126906   4.568   6.753   0.485 -0.3004  0.4535  0.2313
 8669SOL    HW226907   4.568   6.892   0.398 -0.2507 -0.3635 -1.1129
 8670SOL     OW26908   4.115   6.966   6.412 -0.0157  0.1767 -0.0539
 8670SOL    HW126909   4.174   6.885   6.422  1.8598  1.6266  1.3438
 8670SOL    HW226910   4.019   6.937   6.415  0.5877 -2.0199  0.1056
 8671SOL     OW26911   4.688   6.715   1.334  0.2681 -0.2615  1.0596
 8671SOL    HW126912   4.606   6.667   1.303  1.3298 -1.4034 -0.0749
 8671SOL    HW226913   4.675   6.814   1.323 -0.0716 -0.5293 -1.4160
 8672SOL     OW26914   2.960   3.035   1.541 -0.0071 -0.8538  0.7065
 8672SOL    HW126915   2.908   2.989   1.613  2.5991 -2.3799  1.7535
 8672SOL    HW226916   3.040   2.981   1.518  1.0194  1.2378 -1.0067
 8673SOL     OW26917   4.219   1.603   2.887 -0.1892 -0.0484 -0.1425
 8673SOL    HW126918   4.232   1.530   2.820 -2.1761  0.8070 -1.5758
 8673SOL    HW226919   4.307   1.629   2.927  1.0105 -0.8959 -2.1158
 8674SOL     OW26920   2.763   3.426   6.864  0.1129  0.0584  0.5428
 8674SOL    HW126921   2.839   3.459   6.808  0.4849 -0.0681  0.9699
 8674SOL    HW226922   2.742   3.331   6.838  0.0341  0.1250  0.3594
 8675SOL     OW26923   6.967   3.414   4.800 -0.0534 -0.0466  0.2053
 8675SOL    HW126924   6.870   3.395   4.785  0.4266 -0.3673 -3.0931
 8675SOL    HW226925   6.977   3.506   4.839 -1.6624  0.0943  0.3498
 8676SOL     OW26926   1.865   5.019   4.329 -0.1869 -0.6221  0.0808
 8676SOL    HW126927   1.826   5.094   4.276 -1.1058 -0.2315  1.2750
 8676SOL    HW226928   1.963   5.035   4.343 -0.0410 -0.4869 -1.0556
 8677SOL     OW26929   3.295   1.442   3.366 -0.4508  0.2920  0.1125
 8677SOL    HW126930   3.231   1.371   3.396  1.7909 -2.1080 -0.4008
 8677SOL    HW226931   3.296   1.516   3.433 -1.0980 -1.3303  2.0356
 8678SOL     OW26932   2.102   5.300   2.513 -0.4046 -1.0787  0.0370
 8678SOL    HW126933   2.004   5.281   2.503 -0.5031 -0.7842  0.4173
 8678SOL    HW226934   2.144   5.229   2.570 -0.4092 -1.1646 -0.0657
 8679SOL     OW26935   1.150   0.039   2.320 -0.8402 -0.1341  0.2259
 8679SOL    HW126936   1.144   0.092   2.235  0.9525 -0.3076 -0.0501
 8679SOL    HW226937   1.156   0.101   2.397 -1.1139  0.0300  0.1193
 8680SOL     OW26938   6.791   6.698   0.341  0.2237  0.2940 -0.2535
 8680SOL    HW126939   6.867   6.729   0.284  0.6367  0.2083  0.2392
 8680SOL    HW226940   6.821   6.621   0.398 -0.7804 -1.0233 -1.4434
 8681SOL     OW26941   0.742   5.355   5.296 -0.4814  0.2994 -0.1720
 8681SOL    HW126942   0.815   5.399   5.348 -1.9538 -0.1143  2.4183
 8681SOL    HW226943   0.654   5.392   5.324 -1.4140 -0.5151 -1.8831
 8682SOL     OW26944   5.215   5.323   3.759 -0.1198  0.6412 -0.1341
 8682SOL    HW126945   5.213   5.224   3.764 -0.9874  0.6033 -0.8791
 8682SOL    HW226946   5.213   5.362   3.851  0.5075 -0.0246  0.1662
 8683SOL     OW26947   4.408   2.444   2.311 -0.4083  0.1918 -0.2066
 8683SOL    HW126948   4.396   2.520   2.375  2.5063 -0.5504  1.3812
 8683SOL    HW226949   4.335   2.377   2.325 -1.0876  1.0977  0.7415
 8684SOL     OW26950   4.252   4.682   2.293 -0.4315  0.3405  0.0407
 8684SOL    HW126951   4.205   4.680   2.205 -1.2832  0.8770  0.4709
 8684SOL    HW226952   4.211   4.752   2.351 -0.3184 -0.4565  1.1159
 8685SOL     OW26953   2.406   0.962   1.275  0.2898  0.0998  0.3686
 8685SOL    HW126954   2.312   0.929   1.267  0.0721  0.4649  1.2815
 8685SOL    HW226955   2.469   0.894   1.237 -0.4641  0.8431 -2.4030
 8686SOL     OW26956   1.220   1.218   2.339  0.2942 -0.1063 -0.0182
 8686SOL    HW126957   1.275   1.167   2.274 -0.0301  0.1248 -0.4847
 8686SOL    HW226958   1.178   1.296   2.293 -1.1223 -0.7681  0.1001
 8687SOL     OW26959   6.418   1.052   3.644  0.4305  0.8440 -0.2279
 8687SOL    HW126960   6.469   0.996   3.709  1.3213  0.1504 -1.4846
 8687SOL    HW226961   6.327   1.013   3.630  0.9707 -0.2058 -0.9377
 8688SOL     OW26962   5.558   4.922   6.874  0.5043 -0.1243 -0.0875
 8688SOL    HW126963   5.623   4.931   6.799  1.1038  0.2297  0.4580
 8688SOL    HW226964   5.508   5.008   6.886  1.7653  0.4755  1.1169
 8689SOL     OW26965   6.918   4.169   0.079  0.0190  0.4294 -0.1496
 8689SOL    HW126966   6.990   4.101   0.095  2.5760  3.1006  0.5112
 8689SOL    HW226967   6.906   4.183  -0.019 -0.4715 -0.8523 -0.2899
 8690SOL     OW26968   5.783   1.691   0.190 -0.0851 -0.1509  0.3514
 8690SOL    HW126969   5.757   1.699   0.286  0.7848  1.7872  0.4824
 8690SOL    HW226970   5.702   1.675   0.134 -1.1971  2.5944  1.0329
 8691SOL     OW26971   3.748   3.577   2.576  0.1575  0.4030 -0.1413
 8691SOL    HW126972   3.669   3.523   2.605  0.4385  0.4100  0.6332
 8691SOL    HW226973   3.721   3.635   2.499 -0.4296 -0.0417 -0.2834
 8692SOL     OW26974   4.380   1.807   1.522  0.8921  0.3255  0.4984
 8692SOL    HW126975   4.346   1.808   1.616  0.7803 -0.0524  0.4630
 8692SOL    HW226976   4.342   1.728   1.474 -0.4744  1.4513 -0.3752
 8693SOL     OW26977   2.457   6.707   6.841 -0.3388  0.5505  0.7845
 8693SOL    HW126978   2.528   6.662   6.896 -1.1557 -1.3228  0.3618
 8693SOL    HW226979   2.499   6.778   6.784  1.0135  0.2453  1.3663
 8694SOL     OW26980   1.382   1.927   3.322  0.0058  0.3982 -0.3020
 8694SOL    HW126981   1.293   1.970   3.311 -0.5778 -0.7637 -0.1880
 8694SOL    HW226982   1.372   1.828   3.328  1.4225  0.1057 -1.7496
 8695SOL     OW26983   0.017   1.434   3.956 -0.0941  0.3926 -0.2862
 8695SOL    HW126984   0.028   1.373   3.877  0.7966  0.0213  0.1166
 8695SOL    HW226985  -0.017   1.381   4.034  0.5764  0.4343  0.0343
 8696SOL     OW26986   3.179   2.815   5.553 -0.0843 -0.5824  0.0729
 8696SOL    HW126987   3.248   2.749   5.585 -1.7497 -2.2778  0.3302
 8696SOL    HW226988   3.095   2.803   5.605 -2.3213 -2.1938 -3.5436
 8697SOL     OW26989   3.239   2.487   0.118  0.2126  0.4692  0.1762
 8697SOL    HW126990   3.310   2.551   0.149  0.0933  1.3517 -1.2620
 8697SOL    HW226991   3.152   2.510   0.162  0.6054 -0.0182  1.2250
 8698SOL     OW26992   6.863   2.357   6.925 -0.3251  0.5775 -0.7657
 8698SOL    HW126993   6.776   2.366   6.878 -0.0974  0.8287 -1.1419
 8698SOL    HW226994   6.938   2.363   6.859 -0.0623 -1.9788 -0.8206
 8699SOL     OW26995   2.255   2.399   5.958  0.8865 -0.5724 -0.0653
 8699SOL    HW126996   2.278   2.305   5.934  0.8101 -0.9465  1.2707
 8699SOL    HW226997   2.336   2.445   5.994  0.7877 -0.2911 -0.1949
 8700SOL     OW26998   1.449   1.521   4.356  0.1851  0.4498  0.3966
 8700SOL    HW126999   1.504   1.463   4.296 -0.8341  0.0180 -0.1401
 8700SOL    HW227000   1.491   1.523   4.447  1.9623  1.4387 -0.3912
 8701SOL     OW27001   3.641   1.459   4.165 -0.7891 -0.3421 -0.0772
 8701SOL    HW127002   3.725   1.512   4.150  0.3530 -1.8923  0.6652
 8701SOL    HW227003   3.600   1.438   4.076  0.1837 -0.4671 -0.5149
 8702SOL     OW27004   6.584   1.213   1.845 -0.0808 -0.0815 -0.3486
 8702SOL    HW127005   6.556   1.123   1.878  1.1024  0.0719  1.1616
 8702SOL    HW227006   6.605   1.207   1.748 -1.7419 -1.0013 -0.7069
 8703SOL     OW27007   2.046   3.529   2.219 -0.8513 -0.1309  0.0829
 8703SOL    HW127008   2.045   3.441   2.266 -0.0147 -0.2066 -0.0170
 8703SOL    HW227009   2.119   3.529   2.150 -0.2906  0.9076  0.6413
 8704SOL     OW27010   3.761   2.942   6.920  0.4305 -0.2412  0.0318
 8704SOL    HW127011   3.838   3.002   6.942  1.4950 -0.8483 -1.7928
 8704SOL    HW227012   3.795   2.863   6.869 -1.3516 -0.7823 -0.3605
 8705SOL     OW27013   6.702   4.407   6.613  0.0345  0.4431 -0.4915
 8705SOL    HW127014   6.687   4.501   6.642  4.2724  0.4782  2.4612
 8705SOL    HW227015   6.635   4.348   6.657 -0.4336  1.7262  0.5872
 8706SOL     OW27016   5.660   1.877   6.750  0.3962 -0.2153 -1.1851
 8706SOL    HW127017   5.611   1.951   6.705 -1.3523 -1.8715 -2.1473
 8706SOL    HW227018   5.753   1.907   6.772 -0.8122  2.8899  0.2489
 8707SOL     OW27019   2.831   4.921   3.966  0.1428  0.5191 -0.0267
 8707SOL    HW127020   2.839   4.854   3.892  0.2469  0.8299 -0.2938
 8707SOL    HW227021   2.886   4.891   4.044  0.2896  0.3562 -0.1924
 8708SOL     OW27022   5.537   3.121   1.303  1.1136 -0.0154 -0.1275
 8708SOL    HW127023   5.550   3.028   1.338 -4.6729 -1.0753  0.1581
 8708SOL    HW227024   5.521   3.117   1.205  1.3882  0.7958 -0.2101
 8709SOL     OW27025   2.797   1.726   1.629 -0.2667  0.2965 -0.0948
 8709SOL    HW127026   2.836   1.768   1.710 -0.7593  0.4638  0.0586
 8709SOL    HW227027   2.768   1.797   1.565  1.4198  0.1660 -1.0597
 8710SOL     OW27028   5.880   2.743   1.530  0.1646  0.4484 -0.7812
 8710SOL    HW127029   5.949   2.678   1.564  0.5686  2.0611  1.8025
 8710SOL    HW227030   5.912   2.836   1.547 -1.7234  1.2858 -1.5857
 8711SOL     OW27031   1.532   2.314   6.806  0.3413  0.0375  0.1024
 8711SOL    HW127032   1.617   2.263   6.794 -0.0155 -0.5123 -0.1235
 8711SOL    HW227033   1.514   2.367   6.723  0.6218  0.4081  0.2716
 8712SOL     OW27034   3.266   2.292   1.659  0.3715  0.1103  0.3011
 8712SOL    HW127035   3.334   2.220   1.648 -0.2689 -0.7723  1.7910
 8712SOL    HW227036   3.215   2.277   1.744 -1.0467  1.2664 -0.2971
 8713SOL     OW27037   6.044   4.023   1.235 -0.4599  0.0151 -0.0258
 8713SOL    HW127038   6.022   4.120   1.232 -0.0989  0.0838 -0.4232
 8713SOL    HW227039   5.970   3.974   1.282 -1.3844  0.2773 -1.1664
 8714SOL     OW27040   6.364   5.340   0.870 -0.3553 -0.5659  0.2045
 8714SOL    HW127041   6.437   5.290   0.823  0.8966  0.2752  1.1928
 8714SOL    HW227042   6.363   5.435   0.838  0.0355 -0.1670  1.3311
 8715SOL     OW27043   5.112   1.725   6.542 -0.2838  0.6719 -0.2637
 8715SOL    HW127044   5.211   1.715   6.554 -0.4718 -2.2559 -0.3796
 8715SOL    HW227045   5.065   1.692   6.624 -1.2137  2.0777 -0.1841
 8716SOL     OW27046   2.944   6.240   6.132 -0.1650 -0.2259 -0.6751
 8716SOL    HW127047   2.978   6.162   6.184 -1.2896 -0.9796 -1.0312
 8716SOL    HW227048   2.857   6.215   6.088 -1.9262  1.9936  1.2886
 8717SOL     OW27049   3.396   5.378   0.597 -0.0635 -0.3973  0.3064
 8717SOL    HW127050   3.420   5.290   0.555  0.9889 -0.2638  0.5904
 8717SOL    HW227051   3.344   5.433   0.531  1.2752 -0.3151 -0.7326
 8718SOL     OW27052   6.383   5.423   6.761  0.4530  0.3878 -0.1515
 8718SOL    HW127053   6.448   5.373   6.704 -0.6442  0.8268 -1.8726
 8718SOL    HW227054   6.303   5.366   6.778 -0.9563  1.5597 -2.4127
 8719SOL     OW27055   5.410   6.784   3.597  0.5064 -0.2942  0.2706
 8719SOL    HW127056   5.395   6.702   3.542 -0.0089 -0.3070  0.4303
 8719SOL    HW227057   5.420   6.758   3.693  0.1767 -0.1528  0.3428
 8720SOL     OW27058   6.489   5.862   3.362  0.3085  0.1172  0.1939
 8720SOL    HW127059   6.425   5.929   3.326  2.1545  1.7605 -0.2478
 8720SOL    HW227060   6.535   5.816   3.286  0.7895  0.1205  0.4805
 8721SOL     OW27061   0.982   3.820   2.764 -0.4236  0.0572 -0.0068
 8721SOL    HW127062   1.061   3.818   2.703 -0.3585 -0.2778  0.0840
 8721SOL    HW227063   1.008   3.860   2.852 -0.4031  0.1203 -0.0415
 8722SOL     OW27064   3.276   4.830   5.942 -0.3759 -0.1609 -0.0138
 8722SOL    HW127065   3.279   4.734   5.914 -0.6044 -0.6837  1.6434
 8722SOL    HW227066   3.357   4.878   5.908 -0.4629 -0.8294 -1.2000
 8723SOL     OW27067   3.108   1.301   6.489  0.5581 -0.3053 -0.1186
 8723SOL    HW127068   3.046   1.299   6.411  0.4226 -0.9605  0.0061
 8723SOL    HW227069   3.076   1.368   6.556  0.8468  0.4936 -0.7603
 8724SOL     OW27070   6.524   5.535   1.819 -0.7946  0.0005  0.1032
 8724SOL    HW127071   6.452   5.490   1.765 -0.0813 -0.3708 -0.5513
 8724SOL    HW227072   6.613   5.513   1.781 -0.1028 -1.7971  2.5494
 8725SOL     OW27073   5.211   1.903   0.629 -0.1253  0.2160 -0.1980
 8725SOL    HW127074   5.282   1.972   0.641 -0.7349  0.7551  0.3856
 8725SOL    HW227075   5.246   1.814   0.659  0.6857  0.2325 -1.0185
 8726SOL     OW27076   0.105   1.544   3.156 -0.2364 -0.0506 -0.3576
 8726SOL    HW127077   0.064   1.607   3.222  0.3438  1.3392 -1.2790
 8726SOL    HW227078   0.042   1.467   3.140 -0.8464  0.1374  0.9778
 8727SOL     OW27079   1.704   0.511   4.416  0.1163  0.4011 -0.0935
 8727SOL    HW127080   1.785   0.456   4.435 -0.5461 -0.9179 -0.9592
 8727SOL    HW227081   1.690   0.576   4.491  3.1097  2.1130 -0.8418
 8728SOL     OW27082   0.998   6.210   2.615 -0.2936 -0.3377 -0.8551
 8728SOL    HW127083   0.980   6.162   2.700  0.0002  0.5562 -0.2779
 8728SOL    HW227084   0.911   6.229   2.568 -0.3754 -2.0218 -1.4472
 8729SOL     OW27085   4.420   4.475   6.259  0.7615  0.4042 -0.3873
 8729SOL    HW127086   4.387   4.438   6.346  1.1034  0.7550 -0.1028
 8729SOL    HW227087   4.420   4.403   6.190  3.5624 -0.7661  0.7164
 8730SOL     OW27088   6.495   5.389   4.524 -0.0580 -0.1280  0.3713
 8730SOL    HW127089   6.510   5.299   4.564 -0.0593 -0.4962 -0.4505
 8730SOL    HW227090   6.539   5.459   4.581 -0.2299 -0.6170  1.1191
 8731SOL     OW27091   3.805   4.538   1.596  0.1140 -0.3517 -0.0788
 8731SOL    HW127092   3.825   4.442   1.616 -0.1937 -0.2938  0.5120
 8731SOL    HW227093   3.759   4.580   1.674 -1.4363 -0.2080 -1.0201
 8732SOL     OW27094   6.614   5.778   2.772 -0.3552  0.0931  0.2891
 8732SOL    HW127095   6.677   5.775   2.850 -0.0233 -0.3697  0.0118
 8732SOL    HW227096   6.666   5.765   2.687 -0.6407  1.1619 -0.0575
 8733SOL     OW27097   4.218   2.685   0.696 -0.6718 -0.4198  0.0611
 8733SOL    HW127098   4.141   2.622   0.709 -0.1678 -1.1701 -0.5081
 8733SOL    HW227099   4.190   2.761   0.637 -1.4453  0.2071  1.1988
 8734SOL     OW27100   2.750   4.517   6.916  0.3441  1.0372  0.3910
 8734SOL    HW127101   2.665   4.569   6.903 -0.2568 -0.1363 -0.5944
 8734SOL    HW227102   2.738   4.452   6.991  1.1819  2.4311  1.7969
 8735SOL     OW27103   2.207   1.791   2.738 -0.0931  0.6310  0.3543
 8735SOL    HW127104   2.297   1.835   2.747 -0.9700  2.8042 -0.8674
 8735SOL    HW227105   2.193   1.729   2.816  2.8773 -0.6425  0.0049
 8736SOL     OW27106   1.080   2.751   4.868  0.3097 -0.0415 -0.6193
 8736SOL    HW127107   1.173   2.763   4.902 -0.5694 -0.1539  2.0700
 8736SOL    HW227108   1.022   2.825   4.903 -0.7833 -0.4026 -1.6019
 8737SOL     OW27109   0.255   5.064   4.357 -0.2337 -0.1079  0.2394
 8737SOL    HW127110   0.261   5.008   4.440 -0.1215  0.5005  0.6447
 8737SOL    HW227111   0.317   5.142   4.364 -1.6296  1.0287  0.4165
 8738SOL     OW27112   2.045   5.513   3.406 -0.2245 -0.6824  0.3313
 8738SOL    HW127113   1.990   5.571   3.466 -0.7618 -1.6748  0.8370
 8738SOL    HW227114   2.139   5.509   3.439  0.4050  1.6251 -0.9573
 8739SOL     OW27115   5.799   3.818   3.823  0.4941 -0.1588  0.2741
 8739SOL    HW127116   5.891   3.830   3.858 -0.1068  2.3400  1.1441
 8739SOL    HW227117   5.741   3.895   3.850 -2.4937 -2.6333  1.6744
 8740SOL     OW27118   3.416   1.760   6.389 -0.2651  0.3655  0.1533
 8740SOL    HW127119   3.491   1.693   6.386  0.7550  1.1669  3.4156
 8740SOL    HW227120   3.348   1.730   6.456 -1.0651  1.3964 -0.1804
 8741SOL     OW27121   4.119   5.213   3.395 -0.4896 -0.6293  0.2356
 8741SOL    HW127122   4.031   5.229   3.440 -1.0612  2.6319 -1.6934
 8741SOL    HW227123   4.103   5.181   3.302  0.2519  1.0468 -0.5025
 8742SOL     OW27124   0.692   2.386   6.298 -0.6367 -0.0768 -0.5651
 8742SOL    HW127125   0.791   2.387   6.285 -0.7433 -0.3367 -1.4159
 8742SOL    HW227126   0.669   2.322   6.371 -0.1057  0.6922  0.2972
 8743SOL     OW27127   0.310   1.887   2.087  0.0903 -0.4699 -0.2779
 8743SOL    HW127128   0.356   1.799   2.071 -0.2110 -0.8537  0.8621
 8743SOL    HW227129   0.214   1.870   2.107  0.0419  0.1289 -0.0015
 8744SOL     OW27130   5.746   2.113   2.182  0.0226 -0.2267 -0.0327
 8744SOL    HW127131   5.842   2.134   2.196 -0.1621  0.4342  0.2849
 8744SOL    HW227132   5.690   2.192   2.210 -0.5798 -0.4233 -0.6490
 8745SOL     OW27133   2.590   0.826   2.298 -0.1838 -0.1971  0.0620
 8745SOL    HW127134   2.642   0.862   2.375 -0.2358 -0.7502  0.3654
 8745SOL    HW227135   2.574   0.898   2.231 -2.2886  0.9827  1.7068
 8746SOL     OW27136   5.374   6.013   1.257  0.0380  0.7182  0.0912
 8746SOL    HW127137   5.364   5.976   1.164 -2.0735  0.3449  0.4092
 8746SOL    HW227138   5.322   6.099   1.264 -0.0823  0.5830  0.9963
 8747SOL     OW27139   5.440   0.804   4.467 -1.0236  0.2020 -0.4136
 8747SOL    HW127140   5.406   0.885   4.515 -1.6310 -0.1693 -0.2163
 8747SOL    HW227141   5.369   0.735   4.462 -0.0145 -0.9779  0.8443
 8748SOL     OW27142   1.733   2.684   3.134  0.1957 -0.1671  0.5352
 8748SOL    HW127143   1.636   2.705   3.135 -0.0260 -1.1438  0.7163
 8748SOL    HW227144   1.781   2.750   3.077 -0.6325  0.0697  0.1000
 8749SOL     OW27145   3.124   3.747   5.521  0.8110  0.3131  0.1656
 8749SOL    HW127146   3.052   3.814   5.542 -0.7148 -1.3005  0.3076
 8749SOL    HW227147   3.175   3.777   5.441 -0.9335  0.8460 -0.7984
 8750SOL     OW27148   2.422   0.675   0.730  0.0759  0.1582  0.3660
 8750SOL    HW127149   2.468   0.744   0.674  0.6213 -0.7735 -0.3744
 8750SOL    HW227150   2.489   0.623   0.782 -0.1571 -0.8491 -0.3028
 8751SOL     OW27151   6.096   5.312   0.037  0.3174  0.0412 -0.0543
 8751SOL    HW127152   6.065   5.401   0.004 -1.2609 -1.2101 -2.1989
 8751SOL    HW227153   6.141   5.262  -0.038  0.7335 -1.1765  0.9626
 8752SOL     OW27154   1.785   1.583   2.786  0.2209 -0.0720  0.0387
 8752SOL    HW127155   1.698   1.623   2.758  0.5789  0.9703  0.3580
 8752SOL    HW227156   1.853   1.597   2.713  0.6542  0.9629  0.6187
 8753SOL     OW27157   2.483   1.550   5.173  0.0315  0.1414  0.3019
 8753SOL    HW127158   2.458   1.641   5.141  0.9961 -0.3326 -2.0341
 8753SOL    HW227159   2.535   1.503   5.101  0.0590 -2.0387  1.6630
 8754SOL     OW27160   5.932   4.533   4.598  0.5961  0.1116  0.2208
 8754SOL    HW127161   5.926   4.475   4.517 -0.4646  0.8111 -0.2260
 8754SOL    HW227162   5.978   4.619   4.574  2.1434 -0.4997  0.8722
 8755SOL     OW27163   2.250   5.579   1.367 -0.0642  0.4624  0.2563
 8755SOL    HW127164   2.196   5.654   1.328  0.2819 -0.0089 -1.1459
 8755SOL    HW227165   2.263   5.507   1.299  0.9448 -0.1794  1.0966
 8756SOL     OW27166   4.558   0.996   2.480  0.2420 -0.1748  0.0005
 8756SOL    HW127167   4.530   1.006   2.576  0.5553  1.8394 -0.0717
 8756SOL    HW227168   4.494   1.046   2.422  1.3671  0.5891 -0.6094
 8757SOL     OW27169   1.561   2.695   2.795 -0.3026  0.1676  0.0120
 8757SOL    HW127170   1.475   2.649   2.773 -0.1502  0.3173 -0.9453
 8757SOL    HW227171   1.542   2.789   2.823 -0.4956  0.0162  0.3915
 8758SOL     OW27172   0.102   3.686   6.189 -0.7251  0.2076  0.3211
 8758SOL    HW127173   0.152   3.638   6.117  0.3202 -0.6409  1.5465
 8758SOL    HW227174   0.130   3.782   6.192  1.1976 -0.3359  1.2222
 8759SOL     OW27175   0.022   4.614   0.239 -0.0331  0.4504 -0.2743
 8759SOL    HW127176  -0.010   4.697   0.285  0.8751  1.7738 -1.9338
 8759SOL    HW227177  -0.057   4.568   0.198 -0.3015  1.7501 -1.2882
 8760SOL     OW27178   2.545   5.059   6.568 -0.0900 -0.4056 -0.4905
 8760SOL    HW127179   2.485   4.989   6.529 -0.9554 -0.6768  1.2227
 8760SOL    HW227180   2.519   5.149   6.533 -0.3615 -0.7143 -1.0906
 8761SOL     OW27181   5.611   4.296   6.987  0.1772 -0.2690 -0.3184
 8761SOL    HW127182   5.649   4.242   7.063 -0.0567 -1.1723 -0.8278
 8761SOL    HW227183   5.682   4.308   6.917  0.3679  0.4936  0.0021
 8762SOL     OW27184   6.820   2.094   0.050  0.1268  0.2197  0.4157
 8762SOL    HW127185   6.860   2.027  -0.012  2.8111 -0.1456  2.3101
 8762SOL    HW227186   6.828   2.185   0.010  0.0524 -0.1946 -0.5632
 8763SOL     OW27187   0.113   3.410   3.377  0.0661  0.4421  0.3783
 8763SOL    HW127188   0.096   3.311   3.372  0.6387  0.3241  0.6275
 8763SOL    HW227189   0.033   3.460   3.344  0.0487 -0.1158 -0.4387
 8764SOL     OW27190   0.750   6.822   5.500  0.7842  0.9001  0.1128
 8764SOL    HW127191   0.805   6.816   5.584  1.0280 -1.6960 -0.1358
 8764SOL    HW227192   0.801   6.873   5.431  1.2523  1.7260  1.0342
 8765SOL     OW27193   1.876   4.283   5.124 -0.2670 -0.3191 -0.2328
 8765SOL    HW127194   1.946   4.213   5.114 -0.7916 -0.6295 -2.0645
 8765SOL    HW227195   1.870   4.337   5.040 -1.7281  0.1491  0.1374
 8766SOL     OW27196   5.191   6.114   1.789 -0.0173  0.4156  0.5115
 8766SOL    HW127197   5.123   6.165   1.736 -0.5150 -1.7021 -1.0511
 8766SOL    HW227198   5.229   6.172   1.860  0.0862  3.1908 -1.6511
 8767SOL     OW27199   1.076   2.396   2.864  0.0041  0.3816  0.4542
 8767SOL    HW127200   1.129   2.335   2.804  0.4340  0.7325  0.4701
 8767SOL    HW227201   1.070   2.355   2.955 -2.1798 -1.0298 -0.2380
 8768SOL     OW27202   3.976   3.055   6.091  0.3163  0.4899 -0.0244
 8768SOL    HW127203   3.892   3.001   6.100  0.4860  0.2266 -0.0085
 8768SOL    HW227204   3.980   3.123   6.165 -1.0357  2.1116 -1.3769
 8769SOL     OW27205   5.083   1.397   4.942  0.6062 -0.0660  0.1500
 8769SOL    HW127206   5.025   1.347   4.877  0.0815  0.9493 -0.1781
 8769SOL    HW227207   5.174   1.354   4.945 -0.0337 -1.4655  0.4103
 8770SOL     OW27208   0.850   6.187   2.085  0.0661  0.1588  0.2783
 8770SOL    HW127209   0.933   6.181   2.140  0.1404  0.8969  0.2573
 8770SOL    HW227210   0.872   6.220   1.993 -0.1557 -0.3374  0.0462
 8771SOL     OW27211   3.674   5.344   5.782 -0.2477  0.6536  0.2857
 8771SOL    HW127212   3.760   5.353   5.731 -0.4739  0.2183 -0.1776
 8771SOL    HW227213   3.602   5.311   5.721 -0.7646  1.0724  0.6546
 8772SOL     OW27214   3.143   1.256   3.463  0.5118  0.4326 -0.6700
 8772SOL    HW127215   3.059   1.218   3.422  0.4257  1.8653 -1.8974
 8772SOL    HW227216   3.182   1.189   3.526 -0.9262 -0.7221 -0.9463
 8773SOL     OW27217   0.077   6.757   1.886  0.1153 -0.7870 -0.6155
 8773SOL    HW127218   0.100   6.678   1.829  0.3507  0.0887 -1.7711
 8773SOL    HW227219   0.014   6.817   1.837  1.5626  0.8124 -0.6548
 8774SOL     OW27220   2.830   6.390   5.867  0.3104  0.2659 -0.1438
 8774SOL    HW127221   2.918   6.360   5.904  0.4236 -0.1389 -0.7263
 8774SOL    HW227222   2.840   6.480   5.825  0.0535  0.9974  1.2839
 8775SOL     OW27223   5.665   3.132   5.703  0.3677  0.0818  0.5239
 8775SOL    HW127224   5.645   3.124   5.605  0.1832  0.0660  0.5629
 8775SOL    HW227225   5.754   3.175   5.715  0.2669  0.3394  0.3541
 8776SOL     OW27226   3.142   3.792   2.014  0.1721  0.6020 -0.6613
 8776SOL    HW127227   3.085   3.836   2.084  0.0545  0.1299 -0.4611
 8776SOL    HW227228   3.097   3.799   1.926 -0.1595  0.3047 -0.5181
 8777SOL     OW27229   5.088   0.062   3.979 -0.4992  0.3555  0.0042
 8777SOL    HW127230   5.163   0.113   4.019  0.3691 -1.8038  1.2967
 8777SOL    HW227231   5.001   0.105   4.003  0.1167  0.4096  2.3483
 8778SOL     OW27232   5.008   6.194   3.293 -0.0981 -0.4471 -0.2630
 8778SOL    HW127233   5.032   6.100   3.318  1.2593 -0.6370 -2.1158
 8778SOL    HW227234   4.957   6.194   3.207 -0.5669  0.4916  0.0037
 8779SOL     OW27235   3.319   2.277   6.152  0.1980  0.5075 -0.3747
 8779SOL    HW127236   3.415   2.263   6.177 -0.5173 -1.7863  1.4205
 8779SOL    HW227237   3.305   2.250   6.057  1.4560  1.7711 -0.9671
 8780SOL     OW27238   5.393   4.568   2.022  0.2022  0.4203  0.5617
 8780SOL    HW127239   5.349   4.494   1.972  0.5878  1.8956 -2.1534
 8780SOL    HW227240   5.492   4.559   2.015  0.3259  2.3989 -2.0327
 8781SOL     OW27241   1.631   2.196   1.522 -0.1131 -0.1433  0.0142
 8781SOL    HW127242   1.656   2.283   1.565 -1.1391 -0.1927  0.7308
 8781SOL    HW227243   1.648   2.121   1.586  1.3439 -0.5556 -0.8154
 8782SOL     OW27244   0.890   6.412   6.341 -0.2091  0.5492 -0.1976
 8782SOL    HW127245   0.944   6.389   6.259 -0.2531  0.4660 -0.2031
 8782SOL    HW227246   0.797   6.378   6.329  0.5232 -2.2034  1.1357
 8783SOL     OW27247   4.196   1.957   5.542 -0.1167 -0.3267 -0.0932
 8783SOL    HW127248   4.271   1.994   5.487 -1.2514  2.1274 -0.1075
 8783SOL    HW227249   4.148   1.887   5.490  0.3508  0.1887 -1.2469
 8784SOL     OW27250   1.571   0.821   6.266 -0.3251 -0.9383  0.1812
 8784SOL    HW127251   1.635   0.896   6.283 -0.8738 -0.2027 -0.8560
 8784SOL    HW227252   1.517   0.804   6.348 -2.0783  1.6633 -0.2991
 8785SOL     OW27253   4.590   5.682   3.810  0.9465 -0.5502  0.0149
 8785SOL    HW127254   4.578   5.762   3.751  0.1140 -0.1788  0.6709
 8785SOL    HW227255   4.628   5.606   3.756  1.6644  0.2510 -0.6288
 8786SOL     OW27256   0.697   3.735   1.726  0.1875  0.3457  0.6140
 8786SOL    HW127257   0.731   3.764   1.815 -0.4149  3.9488 -0.1697
 8786SOL    HW227258   0.604   3.769   1.713 -0.0814 -0.8912 -1.0736
 8787SOL     OW27259   1.324   5.510   2.623 -0.3481 -0.0487 -0.2328
 8787SOL    HW127260   1.300   5.449   2.699 -0.2522 -0.6295 -0.6621
 8787SOL    HW227261   1.372   5.590   2.659 -3.1666  1.3587  0.7137
 8788SOL     OW27262   5.015   2.350   5.002  0.3950 -1.0244  0.5335
 8788SOL    HW127263   4.954   2.382   4.929  1.3829 -1.7435 -0.6370
 8788SOL    HW227264   5.108   2.383   4.985  0.6884 -1.4176  1.3363
 8789SOL     OW27265   6.661   1.874   3.373 -0.1554 -0.0523  0.3637
 8789SOL    HW127266   6.669   1.929   3.290 -0.7819  0.3764  0.5798
 8789SOL    HW227267   6.671   1.777   3.350 -1.7563 -0.0591 -0.4512
 8790SOL     OW27268   1.917   4.372   4.817  0.8280 -0.1150 -0.0987
 8790SOL    HW127269   1.888   4.442   4.883  2.0868 -0.2985  0.6761
 8790SOL    HW227270   1.975   4.415   4.748  0.1099 -0.0670 -0.6886
 8791SOL     OW27271   4.641   1.971   0.928 -0.6152 -0.1557 -0.4741
 8791SOL    HW127272   4.625   1.889   0.982 -2.3163  0.1394 -0.4739
 8791SOL    HW227273   4.682   1.946   0.840  3.3828 -0.5560  1.2589
 8792SOL     OW27274   0.128   3.673   2.497 -0.3959 -0.1439 -0.3543
 8792SOL    HW127275   0.211   3.704   2.450 -1.6070  0.3000 -2.3281
 8792SOL    HW227276   0.106   3.737   2.570  0.5769  0.1587 -0.3070
 8793SOL     OW27277   4.320   5.573   4.994  0.1876  0.7710 -0.0657
 8793SOL    HW127278   4.334   5.597   5.090 -0.5763 -1.2226  0.6082
 8793SOL    HW227279   4.227   5.538   4.982 -0.1968  2.2983 -1.8501
 8794SOL     OW27280   3.841   4.977   6.745 -0.0988 -0.1055 -0.0128
 8794SOL    HW127281   3.788   4.918   6.806  1.6472 -0.9035  0.8201
 8794SOL    HW227282   3.800   4.977   6.654 -0.8503 -1.5942  0.3000
 8795SOL     OW27283   0.689   3.309   2.676  0.2232  0.4258 -0.8617
 8795SOL    HW127284   0.618   3.251   2.637 -0.5431  1.1541 -0.6020
 8795SOL    HW227285   0.660   3.405   2.671  0.0637  0.5706  1.4561
 8796SOL     OW27286   2.995   2.143   2.521  0.0745 -0.4577 -0.4110
 8796SOL    HW127287   2.977   2.046   2.536 -0.9981 -0.2002  0.1038
 8796SOL    HW227288   2.971   2.168   2.428  0.8745 -0.7864 -0.7173
 8797SOL     OW27289   5.120   6.250   6.840  0.4484 -0.2404 -0.1807
 8797SOL    HW127290   5.101   6.183   6.768 -0.8000 -0.1030 -0.0129
 8797SOL    HW227291   5.033   6.290   6.872  1.0157  0.0477  1.0705
 8798SOL     OW27292   5.544   3.282   2.421  0.4156 -0.4525  0.1955
 8798SOL    HW127293   5.603   3.337   2.480 -1.9932  2.5755 -0.0123
 8798SOL    HW227294   5.582   3.280   2.329  1.9449 -1.5630  0.8063
 8799SOL     OW27295   2.082   1.665   5.762  0.1336  0.5373 -0.1860
 8799SOL    HW127296   1.990   1.627   5.755  0.5388 -0.2796 -1.7111
 8799SOL    HW227297   2.111   1.699   5.673  1.4874  0.3038  0.1319
 8800SOL     OW27298   1.103   0.070   1.878  0.0437  0.2760 -0.6294
 8800SOL    HW127299   1.195   0.100   1.853 -0.8050  1.8475 -2.0259
 8800SOL    HW227300   1.038   0.099   1.808 -1.7212  0.2888  0.9484
 8801SOL     OW27301   1.041   5.257   6.472 -0.3514  0.3641  0.5755
 8801SOL    HW127302   1.139   5.242   6.478 -0.5729 -0.8628  1.4435
 8801SOL    HW227303   0.995   5.211   6.548 -1.6804  0.1190 -0.3351
 8802SOL     OW27304   6.917   5.695   0.896  0.6343 -0.2314  0.2947
 8802SOL    HW127305   6.897   5.793   0.890 -1.5716 -0.6102  0.5581
 8802SOL    HW227306   6.851   5.644   0.841  3.0625 -1.4955 -1.5795
 8803SOL     OW27307   3.528   3.765   0.124  0.7512  0.0389  0.1212
 8803SOL    HW127308   3.513   3.756   0.025 -0.0268  1.0427  0.1299
 8803SOL    HW227309   3.623   3.790   0.141  0.9817 -0.4981 -0.3449
 8804SOL     OW27310   1.247   1.171   5.241 -0.5478 -0.2939  0.2903
 8804SOL    HW127311   1.176   1.170   5.311 -0.6136  1.5003  0.2974
 8804SOL    HW227312   1.302   1.255   5.249 -0.7109  0.1094 -1.9336
 8805SOL     OW27313   6.343   5.933   4.860 -0.1780  0.6943 -0.6457
 8805SOL    HW127314   6.393   5.879   4.791 -1.5496 -0.1886 -0.9836
 8805SOL    HW227315   6.313   6.019   4.818 -2.3796 -0.5162 -1.7075
 8806SOL     OW27316   2.008   6.733   0.511  0.4034 -0.7188  0.0248
 8806SOL    HW127317   2.043   6.824   0.530 -0.3813 -0.1325 -1.2193
 8806SOL    HW227318   1.934   6.739   0.445  0.7963 -2.3206 -0.6126
 8807SOL     OW27319   6.819   4.974   5.809  0.3828  0.1520  0.4816
 8807SOL    HW127320   6.834   4.919   5.891  0.0341  0.6801  0.9111
 8807SOL    HW227321   6.763   5.054   5.833 -1.4792 -0.7528 -0.6821
 8808SOL     OW27322   0.909   0.445   6.610 -0.0106  0.1370 -0.2575
 8808SOL    HW127323   0.853   0.517   6.650 -0.8974  0.6266 -2.2524
 8808SOL    HW227324   1.005   0.473   6.612 -0.2964  1.2032 -0.6284
 8809SOL     OW27325   2.420   5.817   5.780  1.0605 -0.2960  0.5276
 8809SOL    HW127326   2.510   5.821   5.822  2.1620  1.0481 -1.7077
 8809SOL    HW227327   2.425   5.764   5.695 -0.9553 -2.5645  1.7148
 8810SOL     OW27328   1.551   5.530   6.533 -0.1637  0.1994 -0.3687
 8810SOL    HW127329   1.479   5.467   6.564 -0.0452 -0.1944 -0.8909
 8810SOL    HW227330   1.613   5.482   6.472  0.6607  0.4936  0.2285
 8811SOL     OW27331   1.824   2.459   4.494  0.5281 -0.0703 -0.5252
 8811SOL    HW127332   1.812   2.430   4.589  0.3223 -1.9177 -1.0797
 8811SOL    HW227333   1.883   2.394   4.447 -2.3837 -1.3904 -2.6488
 8812SOL     OW27334   2.095   3.270   2.310 -0.1117  0.2639 -0.6695
 8812SOL    HW127335   2.033   3.203   2.350 -1.7379  1.6554 -0.7130
 8812SOL    HW227336   2.128   3.238   2.221  0.6664 -1.2598  0.1236
 8813SOL     OW27337   1.303   2.004   3.681 -0.2331  0.1281 -0.0368
 8813SOL    HW127338   1.326   1.909   3.703  0.4581 -0.2323 -2.1570
 8813SOL    HW227339   1.213   2.008   3.637  0.4450  0.2146 -1.4662
 8814SOL     OW27340   1.802   4.119   3.459 -0.0556  0.2422 -0.3514
 8814SOL    HW127341   1.889   4.074   3.442 -0.1115 -0.4595  1.0344
 8814SOL    HW227342   1.818   4.216   3.478  0.2774  0.3861 -1.2975
 8815SOL     OW27343   3.743   6.045   3.876 -0.5759  0.2756  0.0398
 8815SOL    HW127344   3.834   6.079   3.851 -0.4831  0.2765  0.3729
 8815SOL    HW227345   3.709   6.097   3.954 -0.1130 -0.8903  1.0411
 8816SOL     OW27346   0.283   0.504   1.951 -0.0980 -0.1209  0.2199
 8816SOL    HW127347   0.208   0.454   1.908  1.2930 -2.3459  0.2345
 8816SOL    HW227348   0.279   0.491   2.050  1.6966 -2.4844  0.0694
 8817SOL     OW27349   3.861   5.347   0.975  0.6316  0.0890 -0.0762
 8817SOL    HW127350   3.887   5.441   0.999  0.4436 -0.5350  2.9537
 8817SOL    HW227351   3.919   5.283   1.025 -1.1678 -1.3583  0.2388
 8818SOL     OW27352   5.075   6.850   0.509  0.4153  0.4305  0.1480
 8818SOL    HW127353   4.994   6.817   0.459 -0.4748  2.0744  0.4390
 8818SOL    HW227354   5.100   6.941   0.475  0.6745  0.9602  1.7051
 8819SOL     OW27355   5.459   0.579   2.278 -0.0563 -0.4741  0.2747
 8819SOL    HW127356   5.368   0.618   2.261 -0.4617 -0.7143  1.7740
 8819SOL    HW227357   5.489   0.530   2.196 -1.9641 -1.7123  0.2516
 8820SOL     OW27358   3.463   5.278   2.625 -0.1751 -0.4650 -0.1675
 8820SOL    HW127359   3.477   5.181   2.645  0.3253  0.0375  2.2716
 8820SOL    HW227360   3.460   5.329   2.711 -2.5792  1.4263 -1.2791
 8821SOL     OW27361   4.231   5.565   6.910  0.1943  0.4366 -0.4746
 8821SOL    HW127362   4.246   5.616   6.826 -0.6039  0.5310 -0.5667
 8821SOL    HW227363   4.147   5.598   6.955 -1.0539 -1.5911 -1.1722
 8822SOL     OW27364   0.021   0.269   3.154  0.0820  0.1929  0.1055
 8822SOL    HW127365  -0.058   0.293   3.098 -1.5983 -2.4085  1.1618
 8822SOL    HW227366   0.005   0.296   3.249  0.1718 -0.8787  0.4396
 8823SOL     OW27367   2.289   1.767   3.263  0.2169  0.2671  0.3407
 8823SOL    HW127368   2.202   1.751   3.309 -0.5716 -1.6072 -1.6563
 8823SOL    HW227369   2.283   1.852   3.210 -0.8411 -0.4070 -0.6741
 8824SOL     OW27370   6.901   0.687   2.653  0.1959 -0.3335  0.1011
 8824SOL    HW127371   6.834   0.749   2.613  0.0182  0.9466  2.2044
 8824SOL    HW227372   6.963   0.739   2.712  0.2258 -2.0993  1.7228
 8825SOL     OW27373   2.940   3.841   2.185  0.2753  0.5170 -0.0106
 8825SOL    HW127374   2.903   3.933   2.168 -1.3087 -0.1943 -0.6371
 8825SOL    HW227375   2.876   3.773   2.150  2.7164 -0.8221 -2.1543
 8826SOL     OW27376   1.992   2.424   2.648 -0.2984 -0.2141  0.5354
 8826SOL    HW127377   2.014   2.366   2.570  0.7007 -1.0061  1.3737
 8826SOL    HW227378   1.894   2.443   2.649 -0.5587 -1.4448 -0.0509
 8827SOL     OW27379   6.287   2.700   6.596  0.6380  0.0303  0.0260
 8827SOL    HW127380   6.333   2.613   6.575  0.2717 -0.4894  1.2521
 8827SOL    HW227381   6.353   2.764   6.634  0.5815 -0.3225  0.7317
 8828SOL     OW27382   1.955   6.240   4.762  0.2829  0.3474  0.3072
 8828SOL    HW127383   1.914   6.180   4.831 -1.5027  1.0879 -0.0681
 8828SOL    HW227384   2.004   6.184   4.695 -1.6068 -0.7584 -0.2105
 8829SOL     OW27385   6.563   0.731   5.368  0.3971  0.0810 -0.7241
 8829SOL    HW127386   6.468   0.755   5.391  0.3170  0.5850 -1.5499
 8829SOL    HW227387   6.589   0.648   5.418 -0.7872 -0.6044 -1.2074
 8830SOL     OW27388   0.883   2.590   6.635 -0.5952 -0.3636 -0.0454
 8830SOL    HW127389   0.947   2.539   6.691  0.3404  0.8160  0.0020
 8830SOL    HW227390   0.923   2.679   6.611 -1.1719 -0.6068 -2.1344
 8831SOL     OW27391   3.590   4.074   1.611 -0.5752 -0.0244  0.1846
 8831SOL    HW127392   3.492   4.066   1.626 -0.2450  0.9467  4.2243
 8831SOL    HW227393   3.635   3.989   1.638 -0.2239 -0.0356 -0.4298
 8832SOL     OW27394   4.958   0.731   1.042  0.1429 -0.3203  0.3058
 8832SOL    HW127395   4.998   0.640   1.051  1.5445  0.0469 -1.6135
 8832SOL    HW227396   5.014   0.797   1.091  1.3695  0.0403 -1.5135
 8833SOL     OW27397   6.537   6.380   1.426 -0.0788 -0.2127 -0.3694
 8833SOL    HW127398   6.616   6.324   1.405  1.2342  1.3731  0.1123
 8833SOL    HW227399   6.479   6.334   1.494  1.7949 -0.3222  1.2333
 8834SOL     OW27400   4.997   4.004   6.083  0.6618 -0.3845 -0.0343
 8834SOL    HW127401   5.037   4.014   6.174  0.3122 -0.0294  0.0815
 8834SOL    HW227402   5.012   4.088   6.031 -1.2992  0.3899  0.5576
 8835SOL     OW27403   6.310   4.071   0.982 -0.3531 -0.4348  0.9343
 8835SOL    HW127404   6.363   4.106   1.060  0.5378  0.2047  0.0637
 8835SOL    HW227405   6.245   4.002   1.014  0.8871 -1.1108  2.0575
 8836SOL     OW27406   1.095   1.711   3.180 -0.4984 -0.1697  0.2435
 8836SOL    HW127407   1.120   1.722   3.084  0.3406 -1.2266  0.3201
 8836SOL    HW227408   1.137   1.627   3.216 -0.6541  0.3004  1.5774
 8837SOL     OW27409   0.828   4.837   4.809 -0.5315 -1.0180  0.2797
 8837SOL    HW127410   0.812   4.739   4.795  0.1213 -1.0465 -0.3461
 8837SOL    HW227411   0.909   4.865   4.756 -0.3638 -0.2641  0.9258
 8838SOL     OW27412   3.001   2.811   5.307  0.3962  0.4714  0.7738
 8838SOL    HW127413   2.985   2.908   5.293  2.5893  0.8422  0.5532
 8838SOL    HW227414   3.085   2.797   5.358  1.9602 -1.3453 -2.0138
 8839SOL     OW27415   0.032   1.900   2.245 -0.2226 -0.4457 -0.1377
 8839SOL    HW127416  -0.046   1.961   2.256 -0.9634 -1.1981 -0.9868
 8839SOL    HW227417   0.103   1.923   2.311 -1.2975  0.0372  0.8689
 8840SOL     OW27418   2.580   2.666   0.782  0.1904 -0.3339 -1.1944
 8840SOL    HW127419   2.576   2.644   0.685 -0.8049 -0.6416 -1.1016
 8840SOL    HW227420   2.615   2.587   0.833 -2.4786 -1.4756 -0.9675
 8841SOL     OW27421   6.702   3.063   0.863 -0.6819  0.3422 -0.3146
 8841SOL    HW127422   6.770   3.093   0.930 -1.2461 -0.7340  0.7815
 8841SOL    HW227423   6.614   3.049   0.910 -1.0527 -0.5603 -1.2624
 8842SOL     OW27424   4.492   6.299   1.293  0.7617  0.3327 -0.2686
 8842SOL    HW127425   4.459   6.204   1.290 -0.9036  0.8752  0.0474
 8842SOL    HW227426   4.551   6.311   1.374  2.1774 -0.7651 -1.0890
 8843SOL     OW27427   2.849   0.092   1.238 -0.1882 -0.0892  0.6201
 8843SOL    HW127428   2.933   0.105   1.187 -2.1535  0.3658 -2.7722
 8843SOL    HW227429   2.842  -0.004   1.267  0.0696 -0.9318 -1.9048
 8844SOL     OW27430   0.255   1.683   2.492  0.1670  0.6857 -0.1974
 8844SOL    HW127431   0.310   1.627   2.430  0.5052  0.6536  0.1274
 8844SOL    HW227432   0.290   1.776   2.493 -0.2703  0.8624 -0.5815
 8845SOL     OW27433   6.371   2.187   6.837  0.0336  0.3921 -0.3982
 8845SOL    HW127434   6.375   2.177   6.737  1.9019  0.5929 -0.3793
 8845SOL    HW227435   6.303   2.124   6.874 -1.7913  1.3835 -1.9166
 8846SOL     OW27436   0.891   6.391   0.443  0.0026 -0.0139 -0.3061
 8846SOL    HW127437   0.836   6.349   0.515 -0.6545 -2.0410 -1.8987
 8846SOL    HW227438   0.987   6.366   0.456  0.1543  1.0332  0.7715
 8847SOL     OW27439   6.309   0.439   4.448  0.2493 -0.7477  0.2611
 8847SOL    HW127440   6.222   0.477   4.415 -0.4019 -0.1521  2.4876
 8847SOL    HW227441   6.293   0.348   4.486  0.4053 -0.2859  1.4698
 8848SOL     OW27442   2.670   6.118   0.996 -1.1444  0.9845 -0.1172
 8848SOL    HW127443   2.730   6.189   1.031 -1.0485  1.0181 -0.3468
 8848SOL    HW227444   2.611   6.084   1.069 -2.0051  2.1187 -0.2695
 8849SOL     OW27445   0.406   2.673   0.118 -0.0759  0.3501 -0.4111
 8849SOL    HW127446   0.487   2.649   0.065 -0.0638 -1.2680  0.2938
 8849SOL    HW227447   0.349   2.737   0.066  0.9434  0.4012 -1.4919
 8850SOL     OW27448   5.781   3.682   3.593  0.4680  0.1780  0.2235
 8850SOL    HW127449   5.871   3.688   3.551  1.4744  0.2801  2.2703
 8850SOL    HW227450   5.778   3.742   3.673 -1.6010  0.5522 -0.0759
 8851SOL     OW27451   6.384   1.571   1.771 -0.1666 -0.5291  0.7250
 8851SOL    HW127452   6.299   1.614   1.801 -0.2235 -1.3354  1.7947
 8851SOL    HW227453   6.389   1.571   1.672 -1.0740  0.1722  0.6723
 8852SOL     OW27454   4.590   5.785   3.382  0.1965 -0.3592  1.0776
 8852SOL    HW127455   4.640   5.700   3.397 -2.3484 -1.7353  2.3511
 8852SOL    HW227456   4.500   5.764   3.343  0.3660  1.9842 -0.8067
 8853SOL     OW27457   5.045   4.346   5.707  0.3447 -0.4991 -0.0840
 8853SOL    HW127458   4.970   4.406   5.734 -0.0033 -0.6275 -0.7634
 8853SOL    HW227459   5.046   4.266   5.766 -0.7127 -1.0115 -0.7324
 8854SOL     OW27460   6.575   0.271   1.424  0.2340 -0.0433 -0.8092
 8854SOL    HW127461   6.507   0.229   1.364 -1.1955 -1.0468  1.3586
 8854SOL    HW227462   6.528   0.331   1.489  1.5258 -0.1415  0.2455
 8855SOL     OW27463   2.023   6.023   2.144  0.1348 -0.6151 -0.3707
 8855SOL    HW127464   2.000   6.051   2.051  1.2606  1.9316  0.0119
 8855SOL    HW227465   2.076   6.096   2.188 -1.6049 -1.0937  2.7805
 8856SOL     OW27466   3.147   5.555   1.748  1.2380  0.6242  0.4268
 8856SOL    HW127467   3.092   5.494   1.692 -0.4909  1.7689  0.7808
 8856SOL    HW227468   3.117   5.549   1.844 -0.0429  3.0146  0.2733
 8857SOL     OW27469   5.864   2.710   3.002  0.3157  0.1822  0.5925
 8857SOL    HW127470   5.891   2.806   2.996 -2.0301  0.9401  1.0588
 8857SOL    HW227471   5.896   2.672   3.089  3.8153 -0.4350 -0.7961
 8858SOL     OW27472   3.704   5.581   5.901 -0.5774 -0.2535  0.1513
 8858SOL    HW127473   3.699   5.488   5.866  3.6231 -0.2337 -1.1434
 8858SOL    HW227474   3.716   5.645   5.825 -1.8711  1.1897  1.0962
 8859SOL     OW27475   4.392   1.150   3.898 -0.2011 -0.1285  0.4545
 8859SOL    HW127476   4.375   1.197   3.811  2.4384  1.2081  0.5818
 8859SOL    HW227477   4.324   1.078   3.909 -1.1144  0.1492 -2.3330
 8860SOL     OW27478   4.772   5.226   5.503 -0.4856  0.6463  0.1031
 8860SOL    HW127479   4.754   5.171   5.421 -2.5251  0.8566  0.3744
 8860SOL    HW227480   4.791   5.165   5.580 -0.3703  0.4004 -0.1174
 8861SOL     OW27481   0.227   0.644   4.664  0.0355 -0.2831  0.9758
 8861SOL    HW127482   0.286   0.681   4.592  1.0849 -0.2757  1.8151
 8861SOL    HW227483   0.242   0.545   4.671 -0.0947 -0.2894  1.1525
 8862SOL     OW27484   4.551   5.358   2.390  0.2064  0.4108 -0.0190
 8862SOL    HW127485   4.537   5.295   2.466  1.3305  0.9118  0.6375
 8862SOL    HW227486   4.520   5.449   2.417 -0.1945  0.4128 -0.4812
 8863SOL     OW27487   0.756   2.943   1.557  0.3418 -0.3143  0.2177
 8863SOL    HW127488   0.834   2.973   1.503  0.6250 -0.7750  0.3665
 8863SOL    HW227489   0.781   2.862   1.610  0.3679  0.6303  1.7391
 8864SOL     OW27490   0.408   4.846   4.767 -0.2881  0.2315 -0.1523
 8864SOL    HW127491   0.474   4.915   4.738 -1.5027  1.0600 -1.0702
 8864SOL    HW227492   0.352   4.883   4.841 -1.2397  0.4163 -0.9491
 8865SOL     OW27493   3.551   2.207   6.502 -0.0078 -0.7054  0.0387
 8865SOL    HW127494   3.598   2.133   6.551 -0.9337 -1.3994 -0.0887
 8865SOL    HW227495   3.540   2.285   6.564 -1.5887 -1.7463  1.1502
 8866SOL     OW27496   5.921   3.229   5.456 -0.2980  0.5222 -0.6820
 8866SOL    HW127497   5.905   3.130   5.457  0.9884  0.2984 -0.6133
 8866SOL    HW227498   5.914   3.265   5.549 -0.3077  0.4113 -0.6407
 8867SOL     OW27499   3.752   6.733   7.012 -0.0885  0.6523  0.2071
 8867SOL    HW127500   3.706   6.699   7.094  1.8836 -1.1588  0.6526
 8867SOL    HW227501   3.829   6.673   6.989  1.8780  3.2767 -0.6767
 8868SOL     OW27502   6.785   5.965   0.214  0.1027 -0.2147  0.0982
 8868SOL    HW127503   6.716   5.958   0.142 -0.8137  1.2866  0.7773
 8868SOL    HW227504   6.864   6.017   0.180 -0.8769  1.6205  0.5083
 8869SOL     OW27505   5.775   3.402   7.013 -0.2248  0.4204 -0.3027
 8869SOL    HW127506   5.859   3.443   7.047  0.0787  0.3445 -0.9471
 8869SOL    HW227507   5.700   3.423   7.075 -0.6267  4.0702 -1.7797
 8870SOL     OW27508   6.035   2.286   1.476  0.0966  0.5971  0.4241
 8870SOL    HW127509   6.046   2.297   1.377  2.1799 -0.7585  0.4517
 8870SOL    HW227510   5.953   2.231   1.495  0.1530  0.1485 -0.5789
 8871SOL     OW27511   6.682   3.252   1.102  0.0917  0.0342  0.2234
 8871SOL    HW127512   6.629   3.192   1.041  0.4014  0.5321 -0.5469
 8871SOL    HW227513   6.620   3.292   1.170  0.0562 -2.0332  1.5074
 8872SOL     OW27514   0.714   2.777   3.356  0.2608  0.5791 -0.0362
 8872SOL    HW127515   0.644   2.762   3.426 -1.7311 -0.0427 -2.0468
 8872SOL    HW227516   0.706   2.870   3.320 -0.3374  0.1371 -1.0806
 8873SOL     OW27517   0.423   5.260   4.455 -0.0311  0.3861  0.1041
 8873SOL    HW127518   0.344   5.321   4.448 -0.2079  0.0113 -1.5605
 8873SOL    HW227519   0.492   5.287   4.388  0.6821 -0.1229  0.6178
 8874SOL     OW27520   3.510   2.886   3.948 -0.3178  0.2437  0.6560
 8874SOL    HW127521   3.449   2.891   3.869 -0.3777  1.9182  0.7678
 8874SOL    HW227522   3.599   2.925   3.925  0.6744 -1.9183  0.5830
 8875SOL     OW27523   5.094   0.177   1.473  0.1589 -0.1757 -0.6692
 8875SOL    HW127524   5.191   0.150   1.479  0.5080  1.0197 -0.7216
 8875SOL    HW227525   5.055   0.179   1.564 -0.1220 -1.6419 -0.7211
 8876SOL     OW27526   0.470   5.939   0.668  1.2081 -0.2487  0.1193
 8876SOL    HW127527   0.480   5.975   0.576  1.5501  1.9996  0.9762
 8876SOL    HW227528   0.532   5.861   0.681 -0.3662 -1.9958 -2.1475
 8877SOL     OW27529   6.568   4.637   4.728 -0.5832  0.0719 -0.1079
 8877SOL    HW127530   6.660   4.643   4.689 -0.9423 -2.3600 -1.6043
 8877SOL    HW227531   6.573   4.645   4.827  1.1606  0.6463 -0.2124
 8878SOL     OW27532   2.009   0.334   1.025  0.0322  0.7148 -0.6307
 8878SOL    HW127533   2.006   0.234   1.023 -1.1941  0.6740  1.0670
 8878SOL    HW227534   2.066   0.364   1.101 -1.9563  1.2386  0.7205
 8879SOL     OW27535   6.100   4.310   3.001 -0.4887 -0.7071  0.3708
 8879SOL    HW127536   6.045   4.272   2.927 -0.9003 -0.1890  0.4039
 8879SOL    HW227537   6.102   4.246   3.078  0.0948 -1.3328 -0.1530
 8880SOL     OW27538   1.958   1.468   4.598  0.1925  0.7692 -0.4182
 8880SOL    HW127539   1.868   1.505   4.576  1.2046  2.7982 -1.4343
 8880SOL    HW227540   1.970   1.467   4.697 -1.0065  0.2355 -0.2567
 8881SOL     OW27541   0.752   2.072   3.755  0.1110  0.1074 -0.0337
 8881SOL    HW127542   0.669   2.110   3.714  0.1346  0.4762  0.2594
 8881SOL    HW227543   0.823   2.142   3.757  1.0031 -0.6894 -1.8721
 8882SOL     OW27544   5.483   0.587   5.095  0.3895 -0.4125 -0.0333
 8882SOL    HW127545   5.397   0.571   5.047  1.3808 -0.2546 -1.9855
 8882SOL    HW227546   5.557   0.600   5.028  1.4656  2.2589  1.4781
 8883SOL     OW27547   4.741   5.669   2.278  0.4371  0.4787  0.6082
 8883SOL    HW127548   4.659   5.696   2.228  1.7347  1.0868 -1.3298
 8883SOL    HW227549   4.822   5.691   2.223  1.8431 -1.8959  1.5522
 8884SOL     OW27550   1.639   2.139   0.946  0.2361 -0.7087 -0.2946
 8884SOL    HW127551   1.712   2.188   0.899  2.2857 -1.7904  1.5517
 8884SOL    HW227552   1.587   2.204   1.002  1.7976 -0.2799  0.7540
 8885SOL     OW27553   6.411   6.951   7.010  0.1990  0.5575 -0.2630
 8885SOL    HW127554   6.376   6.883   7.074  0.6537  2.5573  2.2590
 8885SOL    HW227555   6.407   6.914   6.917 -1.9622 -1.8879  0.6773
 8886SOL     OW27556   6.484   1.852   3.766  0.1488 -0.1426  0.1661
 8886SOL    HW127557   6.469   1.753   3.769  0.1850 -0.1783 -0.6026
 8886SOL    HW227558   6.574   1.870   3.728  0.7050  0.1597  1.5775
 8887SOL     OW27559   4.738   1.259   2.374 -1.0256  0.1566 -0.3837
 8887SOL    HW127560   4.670   1.268   2.301  0.4485 -0.9828 -1.9919
 8887SOL    HW227561   4.830   1.273   2.337 -0.3364  1.8943  1.7760
 8888SOL     OW27562   2.471   0.457   2.133  0.0138  0.2322 -0.0527
 8888SOL    HW127563   2.505   0.402   2.210 -1.5647  1.2587  1.4414
 8888SOL    HW227564   2.535   0.449   2.056  1.5221 -1.0295  1.2549
 8889SOL     OW27565   1.480   2.593   6.203  0.1619 -0.1938  0.1644
 8889SOL    HW127566   1.532   2.649   6.138  1.0794 -0.5537  0.5583
 8889SOL    HW227567   1.519   2.604   6.294  1.6584 -2.8848 -0.0250
 8890SOL     OW27568   5.160   0.710   4.042 -0.4244 -0.0774  0.2842
 8890SOL    HW127569   5.162   0.696   3.943  0.0830  2.6128 -0.1665
 8890SOL    HW227570   5.100   0.786   4.064  1.5078  1.1441  1.7463
 8891SOL     OW27571   2.105   3.758   3.640 -0.8049  0.0377  0.2702
 8891SOL    HW127572   2.049   3.687   3.684 -0.5007  0.3971  1.2676
 8891SOL    HW227573   2.129   3.828   3.707 -0.6898  0.8431 -0.5817
 8892SOL     OW27574   1.058   5.167   5.997 -0.2970 -0.3254  0.1362
 8892SOL    HW127575   1.000   5.178   6.078  0.0166 -0.1683  0.3415
 8892SOL    HW227576   1.006   5.192   5.915 -0.1246  1.1115  0.4364
 8893SOL     OW27577   4.952   1.133   4.235 -0.1687 -0.0748 -0.0280
 8893SOL    HW127578   4.854   1.121   4.248  0.0078 -0.7884  0.7591
 8893SOL    HW227579   4.987   1.060   4.176  0.1346 -0.7825  0.9877
 8894SOL     OW27580   5.133   7.007   6.874  0.2627 -0.2832 -0.3190
 8894SOL    HW127581   5.066   7.053   6.816  0.9680  2.3323  0.7798
 8894SOL    HW227582   5.217   6.990   6.821 -0.6088 -1.9960 -1.2161
 8895SOL     OW27583   1.459   2.269   1.130  0.6415 -0.7417  0.2239
 8895SOL    HW127584   1.432   2.246   1.223 -1.5184 -0.3503 -0.2543
 8895SOL    HW227585   1.493   2.363   1.127 -2.6472  0.5753  0.1321
 8896SOL     OW27586   5.486   1.200   6.566  0.1874  0.1279 -0.4766
 8896SOL    HW127587   5.447   1.117   6.526 -0.6135 -0.0813  0.6632
 8896SOL    HW227588   5.585   1.202   6.549 -0.0659 -0.1042 -2.1111
 8897SOL     OW27589   4.380   4.576   2.694 -0.0572 -0.3675 -0.1393
 8897SOL    HW127590   4.352   4.564   2.789  1.1783  0.2335  0.3189
 8897SOL    HW227591   4.418   4.490   2.659  0.7419 -0.2359  0.3620
 8898SOL     OW27592   1.302   2.750   1.444 -0.1241 -0.0103  0.7714
 8898SOL    HW127593   1.230   2.816   1.469 -1.4062 -1.9988  2.6618
 8898SOL    HW227594   1.367   2.741   1.519  1.4404  0.7952 -0.4183
 8899SOL     OW27595   1.795   0.464   3.598  0.1104  0.1269 -0.2350
 8899SOL    HW127596   1.793   0.487   3.501 -0.4595 -2.7676 -1.0093
 8899SOL    HW227597   1.711   0.494   3.642 -0.1869  0.3265 -0.9312
 8900SOL     OW27598   4.844   0.454   1.258 -0.0828  0.1370 -0.3527
 8900SOL    HW127599   4.880   0.489   1.344  0.5008  0.5358 -0.7535
 8900SOL    HW227600   4.841   0.527   1.190  1.7704 -0.6698 -1.3984
 8901SOL     OW27601   0.965   3.226   1.139  0.2157  0.3049 -0.1128
 8901SOL    HW127602   1.018   3.160   1.086 -0.7427  0.0383 -0.7551
 8901SOL    HW227603   1.000   3.228   1.233  0.8969 -0.3893 -0.3362
 8902SOL     OW27604   0.579   0.379   6.815 -0.3931 -0.7075 -0.6747
 8902SOL    HW127605   0.663   0.337   6.848  0.3832 -0.6319 -2.4864
 8902SOL    HW227606   0.594   0.476   6.799  0.2097 -1.2298 -4.0189
 8903SOL     OW27607   6.393   5.515   6.254 -0.1064 -0.0918 -0.7579
 8903SOL    HW127608   6.363   5.449   6.323 -2.4470  2.1097  0.5287
 8903SOL    HW227609   6.489   5.540   6.270 -0.2047 -0.6582  0.8519
 8904SOL     OW27610   5.595   1.122   1.190  0.2611 -0.5339  0.5062
 8904SOL    HW127611   5.551   1.034   1.205 -0.5200 -0.3815 -0.7627
 8904SOL    HW227612   5.655   1.117   1.110 -1.9787  0.7678 -1.4004
 8905SOL     OW27613   4.061   4.034   0.425 -0.2120 -0.1610  0.1043
 8905SOL    HW127614   3.979   3.977   0.421 -0.4600  0.2852 -1.6843
 8905SOL    HW227615   4.037   4.126   0.455 -0.7639  0.5635 -2.3571
 8906SOL     OW27616   5.620   5.233   5.253  0.2335  0.1766  0.3998
 8906SOL    HW127617   5.572   5.259   5.170  0.2836 -2.0292 -0.3676
 8906SOL    HW227618   5.561   5.175   5.310  0.7619  0.3459  1.1426
 8907SOL     OW27619   4.058   5.257   5.461  0.0148 -0.3095  0.2571
 8907SOL    HW127620   4.071   5.157   5.461  0.0358 -0.3067  0.4218
 8907SOL    HW227621   4.119   5.298   5.529  1.7203  0.0318 -1.3957
 8908SOL     OW27622   4.280   6.893   2.854 -0.5114  0.0895 -0.3064
 8908SOL    HW127623   4.239   6.801   2.857 -0.4135  0.0238 -0.8704
 8908SOL    HW227624   4.208   6.961   2.845 -0.5410  0.0115 -0.6950
 8909SOL     OW27625   4.639   3.414   5.512 -0.2799 -0.0141 -0.2391
 8909SOL    HW127626   4.612   3.509   5.501 -0.1625 -0.1021 -1.3687
 8909SOL    HW227627   4.699   3.386   5.437 -2.3846 -1.6857 -1.4348
 8910SOL     OW27628   4.772   3.887   6.902  0.3283 -0.4878  0.5963
 8910SOL    HW127629   4.860   3.934   6.905 -0.0369  0.2740 -0.0040
 8910SOL    HW227630   4.775   3.806   6.960  1.9176 -1.3465 -0.6073
 8911SOL     OW27631   3.494   3.544   4.213  0.2203  0.2714 -0.0481
 8911SOL    HW127632   3.565   3.551   4.283  1.2127 -0.7617 -0.9079
 8911SOL    HW227633   3.536   3.550   4.122 -0.6808 -1.0613 -0.5855
 8912SOL     OW27634   3.401   3.827   4.171  0.2458 -0.5799 -0.2644
 8912SOL    HW127635   3.351   3.807   4.255 -1.0732 -0.2132 -0.9256
 8912SOL    HW227636   3.367   3.769   4.097  1.4432 -0.9511 -0.5430
 8913SOL     OW27637   2.008   3.575   4.799  0.3676 -0.0804  0.3666
 8913SOL    HW127638   2.039   3.661   4.838 -1.3795 -0.0026  1.7111
 8913SOL    HW227639   2.080   3.536   4.741  1.0283  2.4937 -0.6744
 8914SOL     OW27640   4.719   1.388   3.954  0.3336 -0.6101 -0.4873
 8914SOL    HW127641   4.773   1.429   3.881 -1.1973 -0.2476 -1.4768
 8914SOL    HW227642   4.715   1.289   3.942 -0.1226 -0.5270 -1.0644
 8915SOL     OW27643   1.087   6.461   5.746  0.0874 -0.1195 -0.1234
 8915SOL    HW127644   1.047   6.369   5.741  1.3868 -0.6824 -0.3459
 8915SOL    HW227645   1.038   6.522   5.683 -0.0348 -0.9349 -0.8377
 8916SOL     OW27646   0.912   0.539   3.979 -0.0588  0.1206  0.4978
 8916SOL    HW127647   0.900   0.540   3.880  3.0399 -0.4358  0.0319
 8916SOL    HW227648   0.840   0.595   4.022 -1.8251 -0.1173 -1.9611
 8917SOL     OW27649   4.936   2.542   1.526 -0.4352 -0.7517  1.0636
 8917SOL    HW127650   4.854   2.488   1.507 -0.6800 -1.1610  3.0372
 8917SOL    HW227651   4.909   2.637   1.546 -0.1812 -0.3144 -0.5483
 8918SOL     OW27652   1.673   3.899   5.775 -0.1323  0.3185 -0.3445
 8918SOL    HW127653   1.660   3.880   5.872  2.5918 -0.0729  0.0124
 8918SOL    HW227654   1.718   3.988   5.764  1.3023 -0.4663 -1.0986
 8919SOL     OW27655   5.901   5.213   5.739 -0.0619 -0.0332  0.3725
 8919SOL    HW127656   5.892   5.231   5.837  0.9003  1.4202  0.2360
 8919SOL    HW227657   5.964   5.280   5.699 -3.7314  2.3124 -2.0369
 8920SOL     OW27658   6.338   6.704   0.109  0.0661 -0.4325 -0.1615
 8920SOL    HW127659   6.321   6.642   0.032 -0.5552 -0.4869  0.0128
 8920SOL    HW227660   6.255   6.756   0.129  0.5483  0.3929 -0.2413
 8921SOL     OW27661   4.900   4.571   6.788 -0.1297  0.0321 -0.7208
 8921SOL    HW127662   4.952   4.522   6.858 -2.4427 -1.7887 -0.1455
 8921SOL    HW227663   4.877   4.509   6.713 -0.1139  1.2166 -1.7485
 8922SOL     OW27664   1.991   3.500   6.811 -0.0986 -0.6108  0.3358
 8922SOL    HW127665   1.985   3.407   6.773  1.7109 -0.0276 -1.5955
 8922SOL    HW227666   2.060   3.502   6.883  3.0397 -0.0957 -2.4201
 8923SOL     OW27667   2.145   6.545   5.615  0.0295 -0.4697 -0.0736
 8923SOL    HW127668   2.225   6.564   5.671 -0.6630 -1.0494  1.1675
 8923SOL    HW227669   2.121   6.448   5.624 -0.8084 -0.3025 -0.4104
 8924SOL     OW27670   0.785   1.467   0.747 -0.1148 -0.1700 -0.1316
 8924SOL    HW127671   0.869   1.456   0.694 -0.9398  0.0694 -1.5190
 8924SOL    HW227672   0.732   1.382   0.743 -0.7530  0.2512 -0.7104
 8925SOL     OW27673   0.234   4.636   3.092  0.1716 -0.4517 -0.1059
 8925SOL    HW127674   0.236   4.539   3.115  0.3957 -0.8155 -1.5489
 8925SOL    HW227675   0.199   4.648   2.999 -0.6548  0.9247  0.3599
 8926SOL     OW27676   5.448   2.063   0.639 -0.8561 -0.0917  0.1633
 8926SOL    HW127677   5.504   2.016   0.707 -0.4277  0.1201 -0.0355
 8926SOL    HW227678   5.470   2.028   0.548 -0.2799  0.7202 -0.0239
 8927SOL     OW27679   6.406   5.905   5.564 -0.8815 -0.1912  0.2190
 8927SOL    HW127680   6.422   5.999   5.536  0.7037 -0.5212 -0.0905
 8927SOL    HW227681   6.486   5.849   5.542 -0.4274 -0.9664  3.3272
 8928SOL     OW27682   1.264   6.070   1.459  0.2017 -0.4363  0.4274
 8928SOL    HW127683   1.328   6.146   1.454  0.7357 -0.7611  1.8580
 8928SOL    HW227684   1.297   5.994   1.403  0.3910 -0.1361  0.1285
 8929SOL     OW27685   3.319   2.976   4.736  0.0375 -0.0372 -0.1474
 8929SOL    HW127686   3.362   2.964   4.647  1.7503 -0.5772  0.7225
 8929SOL    HW227687   3.298   2.887   4.776 -0.6748  0.2003  0.0334
 8930SOL     OW27688   3.390   5.817   0.483 -0.0851  0.3903 -1.0180
 8930SOL    HW127689   3.360   5.860   0.569  0.9264 -1.5462  0.3688
 8930SOL    HW227690   3.490   5.807   0.484 -0.1636 -0.6245 -1.9723
 8931SOL     OW27691   6.740   4.348   4.810 -0.6417 -0.2391 -0.4430
 8931SOL    HW127692   6.696   4.388   4.891  1.7677  0.3140  0.6837
 8931SOL    HW227693   6.802   4.415   4.770 -0.5876 -1.0779 -1.8139
 8932SOL     OW27694   3.335   2.153   3.687  0.2415 -0.1432 -0.7320
 8932SOL    HW127695   3.274   2.154   3.607 -0.7835  1.0389  0.0339
 8932SOL    HW227696   3.300   2.089   3.754  1.0652 -1.0824 -1.1704
 8933SOL     OW27697   1.186   3.237   1.984  0.3761  0.3908  0.3118
 8933SOL    HW127698   1.149   3.205   2.071  2.5181  2.0250  1.9506
 8933SOL    HW227699   1.177   3.337   1.979  1.2317  0.4277 -0.8852
 8934SOL     OW27700   1.854   3.367   0.793  0.2351 -0.9046  0.3369
 8934SOL    HW127701   1.917   3.314   0.850  1.4887  0.2011  0.0254
 8934SOL    HW227702   1.860   3.336   0.698  2.2748  0.8874 -0.1721
 8935SOL     OW27703   4.839   4.139   2.033 -0.2170 -0.4822 -0.2911
 8935SOL    HW127704   4.743   4.169   2.037 -0.4635 -1.2942  0.2211
 8935SOL    HW227705   4.854   4.085   1.951 -0.2081 -0.3950 -0.3471
 8936SOL     OW27706   2.077   2.413   6.820 -0.0691 -0.1228  0.2648
 8936SOL    HW127707   2.027   2.456   6.745  1.4583 -1.1287 -1.4169
 8936SOL    HW227708   2.015   2.354   6.872 -0.9094 -0.3370 -0.9517
 8937SOL     OW27709   5.675   1.357   0.163 -0.3370 -0.1087 -0.3689
 8937SOL    HW127710   5.591   1.304   0.172  2.0097 -3.7381  2.9974
 8937SOL    HW227711   5.700   1.396   0.251  2.7512 -1.3997 -0.5354
 8938SOL     OW27712   0.054   1.149   2.257 -0.8619 -0.1462 -0.1051
 8938SOL    HW127713  -0.013   1.224   2.253 -1.1513 -0.2898  1.2633
 8938SOL    HW227714   0.135   1.173   2.204 -0.2268  1.9189  1.6494
 8939SOL     OW27715   6.138   0.703   3.600 -0.3643  0.3205 -0.5824
 8939SOL    HW127716   6.209   0.637   3.626  1.2753  2.0748 -0.3523
 8939SOL    HW227717   6.055   0.686   3.653  0.5480 -0.5733  0.6140
 8940SOL     OW27718   5.774   0.396   1.680  0.6018 -0.3252 -0.9336
 8940SOL    HW127719   5.716   0.351   1.611 -3.8885  0.3725  1.9571
 8940SOL    HW227720   5.796   0.489   1.649 -0.7120 -0.2719 -1.7983
 8941SOL     OW27721   4.422   6.431   5.810  0.4328 -0.4483  0.1855
 8941SOL    HW127722   4.340   6.470   5.852 -0.7598 -1.7279 -0.8504
 8941SOL    HW227723   4.417   6.331   5.814  0.8980 -0.5861 -1.7465
 8942SOL     OW27724   5.835   5.544   2.045 -0.3550 -0.6421  0.0051
 8942SOL    HW127725   5.881   5.455   2.037 -0.5053 -0.9786  2.1673
 8942SOL    HW227726   5.779   5.560   1.965 -0.3609 -2.5264 -0.4150
 8943SOL     OW27727   0.436   0.574   4.023 -0.0191  0.0139 -0.1223
 8943SOL    HW127728   0.517   0.520   4.044 -0.1753 -0.9451 -1.8391
 8943SOL    HW227729   0.384   0.591   4.107  1.9795  0.7369  1.0150
 8944SOL     OW27730   1.929   6.879   5.514 -0.5995 -0.4181  0.0838
 8944SOL    HW127731   1.860   6.825   5.561  1.0145 -0.6778  2.3086
 8944SOL    HW227732   1.985   6.927   5.581  0.6952  0.6558 -1.6803
 8945SOL     OW27733   2.451   5.115   6.298 -0.1391  0.1344  0.8272
 8945SOL    HW127734   2.547   5.135   6.277  0.0172 -0.7173  0.6958
 8945SOL    HW227735   2.395   5.141   6.220  0.2962 -1.8002 -0.1915
 8946SOL     OW27736   0.824   0.417   1.907  0.1399  0.1280  0.5211
 8946SOL    HW127737   0.763   0.471   1.966 -0.4028 -1.7915  1.8223
 8946SOL    HW227738   0.770   0.369   1.838  0.4968  0.4272  0.0284
 8947SOL     OW27739   3.021   0.867   0.023  0.1215 -0.6701  0.2343
 8947SOL    HW127740   3.060   0.951   0.061  0.5397 -2.0010  3.0263
 8947SOL    HW227741   2.941   0.889  -0.031  1.9474  1.7379 -1.6954
 8948SOL     OW27742   2.428   4.317   0.826  0.1634  0.5078  0.6033
 8948SOL    HW127743   2.368   4.260   0.882  1.1447 -0.5860  0.5807
 8948SOL    HW227744   2.488   4.370   0.886  0.1177  0.5487  0.6122
 8949SOL     OW27745   5.512   0.055   0.728 -0.1289 -0.0608  0.4007
 8949SOL    HW127746   5.473  -0.010   0.663  0.8489  0.2392 -0.5129
 8949SOL    HW227747   5.449   0.131   0.741  0.1738  0.4985 -1.1721
 8950SOL     OW27748   1.157   4.524   0.668 -0.5586 -1.1170 -0.1682
 8950SOL    HW127749   1.214   4.463   0.724  0.7914  0.2558  0.0204
 8950SOL    HW227750   1.062   4.494   0.672 -0.2512 -1.9858  1.6062
 8951SOL     OW27751   2.613   4.812   6.357  0.5461 -0.5525  0.3459
 8951SOL    HW127752   2.693   4.753   6.371  1.7474  0.8238 -0.3627
 8951SOL    HW227753   2.641   4.893   6.306 -1.6658 -0.8537 -1.5418
 8952SOL     OW27754   2.400   6.710   2.211  0.3031  0.5854 -0.2974
 8952SOL    HW127755   2.425   6.613   2.202  0.4893  0.7136 -1.3867
 8952SOL    HW227756   2.308   6.724   2.175  0.1403  0.7529  0.1881
 8953SOL     OW27757   3.493   3.610   0.733  0.2442  0.5084 -0.3566
 8953SOL    HW127758   3.458   3.698   0.767  0.6017  1.0436 -1.3378
 8953SOL    HW227759   3.495   3.544   0.808  0.9025  1.6148  0.6293
 8954SOL     OW27760   3.330   4.778   0.882  0.4784  0.4198  0.1330
 8954SOL    HW127761   3.307   4.838   0.806  0.6746  0.5060  0.1408
 8954SOL    HW227762   3.337   4.684   0.849 -0.7014  0.2660  0.2864
 8955SOL     OW27763   2.266   4.909   3.366  0.3934 -0.2919  0.0873
 8955SOL    HW127764   2.287   4.970   3.290  1.5022 -0.3638  0.3152
 8955SOL    HW227765   2.265   4.815   3.335 -0.9832 -0.2030 -0.1956
 8956SOL     OW27766   5.799   1.545   6.022 -0.0070 -0.5106  0.2700
 8956SOL    HW127767   5.738   1.469   6.043  2.0062 -2.3981 -0.3370
 8956SOL    HW227768   5.847   1.574   6.104  0.1229 -0.7188  0.2660
 8957SOL     OW27769   3.790   4.941   2.033  0.3774 -0.2961  0.3044
 8957SOL    HW127770   3.788   5.020   1.972 -0.9175  0.6752  1.5166
 8957SOL    HW227771   3.702   4.894   2.029  0.2339 -0.1562  1.4670
 8958SOL     OW27772   5.762   2.472   5.834  0.4905 -0.6041 -0.4363
 8958SOL    HW127773   5.680   2.513   5.874  0.3942  0.4302 -1.6410
 8958SOL    HW227774   5.744   2.449   5.738  1.7464  0.0517 -0.8399
 8959SOL     OW27775   1.763   6.310   3.976 -1.0810 -0.6570 -0.2408
 8959SOL    HW127776   1.676   6.262   3.988 -0.4572 -1.5267  0.9749
 8959SOL    HW227777   1.751   6.384   3.909 -2.9849 -0.1481  0.6007
 8960SOL     OW27778   2.822   2.000   2.083  0.7519 -0.2346 -0.1211
 8960SOL    HW127779   2.884   2.065   2.128 -0.2345  0.6064  0.0621
 8960SOL    HW227780   2.806   2.031   1.989 -0.8540  0.6066  0.4061
 8961SOL     OW27781   3.701   0.565   1.710 -0.5215 -0.0683 -0.4480
 8961SOL    HW127782   3.788   0.576   1.757 -0.7074  0.2099 -0.1647
 8961SOL    HW227783   3.708   0.492   1.642  0.0501  0.2325 -0.7126
 8962SOL     OW27784   4.507   6.448   6.164 -0.3032  0.5376  0.1068
 8962SOL    HW127785   4.511   6.398   6.078 -0.4644 -0.2059  0.5274
 8962SOL    HW227786   4.592   6.500   6.176  1.0228 -1.6322  0.8371
 8963SOL     OW27787   3.190   1.709   2.591 -0.4550 -0.5101 -0.3648
 8963SOL    HW127788   3.222   1.660   2.672 -0.9072 -0.4068 -0.1201
 8963SOL    HW227789   3.250   1.688   2.514 -0.4566 -1.1905 -0.1876
 8964SOL     OW27790   6.916   3.902   1.642  0.0902 -0.3867  0.0565
 8964SOL    HW127791   6.990   3.961   1.610 -1.2081  1.5856  0.4919
 8964SOL    HW227792   6.898   3.921   1.738  0.0867 -2.0269  0.3998
 8965SOL     OW27793   5.983   4.245   2.363  0.4382 -0.0448  0.0530
 8965SOL    HW127794   5.945   4.158   2.395  1.9893  0.2582  3.0940
 8965SOL    HW227795   5.918   4.319   2.384  1.6367  0.2204  3.4075
 8966SOL     OW27796   1.176   4.071   3.768 -0.7677  0.3607 -0.6833
 8966SOL    HW127797   1.214   4.025   3.848  0.7928 -0.2307 -1.7268
 8966SOL    HW227798   1.133   4.157   3.797  0.0198  0.3147  0.7415
 8967SOL     OW27799   5.434   4.072   6.951  0.7977  0.3952 -0.7241
 8967SOL    HW127800   5.511   4.132   6.969  0.4791  0.8981 -1.0208
 8967SOL    HW227801   5.439   4.037   6.857  0.4503  0.7511 -0.8779
 8968SOL     OW27802   2.541   1.333   1.860 -0.0487  0.5311  0.3501
 8968SOL    HW127803   2.536   1.396   1.783  0.6706  0.0069 -0.1468
 8968SOL    HW227804   2.627   1.282   1.856 -0.1946  0.1831  1.2599
 8969SOL     OW27805   4.342   6.862   6.768 -0.9868 -0.5736  0.4119
 8969SOL    HW127806   4.265   6.829   6.822 -0.3766 -1.8750  0.5190
 8969SOL    HW227807   4.426   6.855   6.822 -0.9173  2.0450  0.7804
 8970SOL     OW27808   0.512   4.775   5.438 -0.5395 -0.6066 -0.3525
 8970SOL    HW127809   0.578   4.815   5.375 -0.3869 -0.5230 -0.1436
 8970SOL    HW227810   0.559   4.710   5.499 -0.8742 -1.4863 -1.0172
 8971SOL     OW27811   3.906   2.998   1.283 -0.2198  0.1595  0.0069
 8971SOL    HW127812   3.960   3.070   1.241  0.6199  0.9341  2.2677
 8971SOL    HW227813   3.920   2.999   1.382  0.7042 -3.8177  0.0951
 8972SOL     OW27814   4.248   1.285   6.324 -0.3258 -0.1526  0.1506
 8972SOL    HW127815   4.246   1.378   6.360  0.1706 -0.6131  1.4081
 8972SOL    HW227816   4.158   1.263   6.285 -0.5915  0.6777  0.2688
 8973SOL     OW27817   1.487   3.584   5.734  0.1174  0.0598  0.7579
 8973SOL    HW127818   1.466   3.579   5.637  0.4242 -0.0791  0.6987
 8973SOL    HW227819   1.411   3.629   5.782 -0.5518 -0.9032  0.6274
 8974SOL     OW27820   6.987   4.312   1.434  0.6718 -0.0425  0.6632
 8974SOL    HW127821   7.008   4.232   1.378 -0.7941  0.4044 -0.6054
 8974SOL    HW227822   7.072   4.352   1.470  1.9872  1.0203 -3.1926
 8975SOL     OW27823   5.568   6.116   0.315 -0.2296  0.2983 -0.1161
 8975SOL    HW127824   5.601   6.085   0.404 -1.3857  0.3197  0.3379
 8975SOL    HW227825   5.489   6.176   0.327 -1.4885 -1.0518 -1.1925
 8976SOL     OW27826   5.195   2.251   5.610  0.1656  0.1382  0.4161
 8976SOL    HW127827   5.134   2.330   5.605  0.5087  0.3718 -0.2029
 8976SOL    HW227828   5.275   2.275   5.666  2.1180  1.5541 -2.6723
 8977SOL     OW27829   6.749   4.752   4.521 -0.3672 -0.4577  0.1070
 8977SOL    HW127830   6.698   4.828   4.480 -0.1253 -0.7798 -0.8095
 8977SOL    HW227831   6.839   4.744   4.477 -0.6621 -1.7185 -0.3305
 8978SOL     OW27832   5.228   5.543   0.243  0.4807 -0.7697  0.3635
 8978SOL    HW127833   5.266   5.464   0.290  0.7284 -0.4784  0.6506
 8978SOL    HW227834   5.268   5.549   0.151  2.5632  0.5981  1.3020
 8979SOL     OW27835   1.841   5.174   5.418  0.2689 -0.2869 -0.1385
 8979SOL    HW127836   1.916   5.240   5.423 -0.2578  0.3807 -0.9194
 8979SOL    HW227837   1.875   5.084   5.444  0.9404  0.3184  1.1922
 8980SOL     OW27838   3.449   3.180   2.720  0.2950 -0.0903 -0.0043
 8980SOL    HW127839   3.447   3.202   2.818  0.2628 -1.4610  0.3173
 8980SOL    HW227840   3.449   3.265   2.667 -0.2307  0.6682  1.1680
 8981SOL     OW27841   6.255   5.747   3.206 -0.5576 -0.2928  0.3549
 8981SOL    HW127842   6.225   5.770   3.299  0.7136 -1.1503  1.0054
 8981SOL    HW227843   6.319   5.670   3.209  2.5115  1.9881 -0.7942
 8982SOL     OW27844   6.340   5.696   1.522  0.0774 -0.1341 -0.5882
 8982SOL    HW127845   6.322   5.615   1.577 -2.8362  1.7770  1.5734
 8982SOL    HW227846   6.276   5.699   1.446  0.0489  0.2136 -0.5518
 8983SOL     OW27847   3.209   6.253   3.168  0.0573  0.1050 -0.4814
 8983SOL    HW127848   3.184   6.184   3.100 -0.0339 -0.3179 -0.0262
 8983SOL    HW227849   3.307   6.272   3.162  0.2211 -0.5927 -0.1421
 8984SOL     OW27850   6.790   5.031   4.377  0.4217 -0.1774  0.0790
 8984SOL    HW127851   6.700   5.035   4.333  1.0211  0.2376 -1.1497
 8984SOL    HW227852   6.861   5.030   4.307  1.3364 -2.7324  0.9524
 8985SOL     OW27853   3.242   4.513   1.475 -0.2152 -0.1955 -0.5416
 8985SOL    HW127854   3.251   4.419   1.507 -2.6058 -0.8242 -1.5475
 8985SOL    HW227855   3.257   4.575   1.552 -0.2177 -1.4512  0.5078
 8986SOL     OW27856   6.269   4.821   4.643  0.1114 -0.4827  0.4282
 8986SOL    HW127857   6.276   4.818   4.743 -2.2480 -0.1138  0.6618
 8986SOL    HW227858   6.252   4.915   4.613 -0.5107 -0.7814 -0.1905
 8987SOL     OW27859   5.710   2.358   1.184 -0.5951  0.2449  0.0751
 8987SOL    HW127860   5.771   2.282   1.164  0.2261  0.9705 -0.2735
 8987SOL    HW227861   5.752   2.417   1.253 -1.0618  0.5635  0.0904
 8988SOL     OW27862   5.317   0.262   2.176  0.2966  0.4882  0.0776
 8988SOL    HW127863   5.305   0.178   2.229  0.9058  0.3718  0.0300
 8988SOL    HW227864   5.235   0.319   2.185  0.4108  0.4915  1.1852
 8989SOL     OW27865   6.062   5.474   2.844 -0.4959 -0.0196  0.1905
 8989SOL    HW127866   5.982   5.414   2.854 -1.7382  0.9667 -2.7824
 8989SOL    HW227867   6.053   5.551   2.907 -3.5841  1.6645 -2.0044
 8990SOL     OW27868   6.770   5.053   1.329  0.4777  0.0535  0.2189
 8990SOL    HW127869   6.798   4.957   1.326  1.0846  0.2024  0.8211
 8990SOL    HW227870   6.677   5.061   1.293 -0.3699 -1.0676  1.9470
 8991SOL     OW27871   1.365   3.523   0.427  0.3429  0.0353 -0.4601
 8991SOL    HW127872   1.415   3.436   0.418  0.4684 -0.0204  0.6590
 8991SOL    HW227873   1.390   3.567   0.513  0.0745  1.0638 -0.8913
 8992SOL     OW27874   2.060   1.231   0.534  0.0263  0.8727 -0.3188
 8992SOL    HW127875   2.143   1.206   0.584 -1.2656  1.4361  2.3060
 8992SOL    HW227876   1.987   1.168   0.559 -1.2495  2.5223  0.2807
 8993SOL     OW27877   2.854   2.850   0.025  0.0969 -0.3316 -0.6228
 8993SOL    HW127878   2.840   2.783   0.098 -0.9144 -0.7690 -1.1930
 8993SOL    HW227879   2.951   2.853   0.000  0.4251 -0.3114  0.5959
 8994SOL     OW27880   3.447   3.624   3.550  0.0930 -0.2057 -0.0606
 8994SOL    HW127881   3.437   3.551   3.482 -0.5854 -0.0518 -0.1287
 8994SOL    HW227882   3.434   3.587   3.641  0.9038 -0.3926 -0.0126
 8995SOL     OW27883   2.719   5.900   6.635  0.0824 -0.2675  0.0634
 8995SOL    HW127884   2.796   5.901   6.572 -1.5003 -0.8360 -1.9854
 8995SOL    HW227885   2.672   5.812   6.629 -0.0853 -0.3831  2.1513
 8996SOL     OW27886   6.091   4.358   6.086  0.2916  0.2285 -0.1969
 8996SOL    HW127887   6.062   4.299   6.162 -0.6936 -0.3197 -0.9762
 8996SOL    HW227888   6.189   4.347   6.071  0.5061  0.3696  1.0082
 8997SOL     OW27889   2.124   3.524   3.025  0.0321  1.2971 -0.7495
 8997SOL    HW127890   2.087   3.454   2.963  0.3842  0.3846  0.0464
 8997SOL    HW227891   2.149   3.605   2.972 -0.3157  0.7999 -1.7050
 8998SOL     OW27892   2.521   7.016   6.148  0.5070 -0.2894 -0.3716
 8998SOL    HW127893   2.594   6.954   6.118  2.2373  0.9093  1.0779
 8998SOL    HW227894   2.497   6.996   6.243  0.2008  0.4405 -0.2879
 8999SOL     OW27895   4.556   7.020   5.514 -0.1009  0.0258  0.1153
 8999SOL    HW127896   4.483   7.087   5.528  0.6398  0.7202  0.7498
 8999SOL    HW227897   4.558   6.991   5.419 -1.8804 -0.8008  0.2835
 9000SOL     OW27898   5.960   2.979   6.279 -0.7291  0.2537 -0.3458
 9000SOL    HW127899   5.886   2.929   6.234 -0.6277  1.0573 -1.4791
 9000SOL    HW227900   5.924   3.028   6.358 -0.9657 -1.0041  0.3532
 9001SOL     OW27901   1.121   2.132   0.936  0.5251 -0.4505  0.1093
 9001SOL    HW127902   1.038   2.105   0.984 -0.8677  1.1236 -1.2960
 9001SOL    HW227903   1.154   2.220   0.972  0.3553 -0.0274 -0.7345
 9002SOL     OW27904   5.097   4.672   1.329 -0.2540 -0.1945  0.8033
 9002SOL    HW127905   5.159   4.677   1.250 -1.6799  3.4912 -0.2988
 9002SOL    HW227906   5.003   4.690   1.299 -1.1245 -0.6942  3.0817
 9003SOL     OW27907   6.903   0.211   2.789 -0.5561  0.1612  0.2599
 9003SOL    HW127908   6.880   0.295   2.838  0.9614  2.4640 -2.6725
 9003SOL    HW227909   7.000   0.191   2.802 -0.5453 -0.2163 -0.3846
 9004SOL     OW27910   6.816   1.813   4.458 -0.4974  0.4060  0.0878
 9004SOL    HW127911   6.741   1.838   4.519 -0.9212  1.9435 -0.9976
 9004SOL    HW227912   6.782   1.806   4.364  0.5028 -0.0161 -0.2616
 9005SOL     OW27913   3.809   6.126   0.152 -1.0458  0.6318 -0.1768
 9005SOL    HW127914   3.802   6.221   0.124 -0.8065  0.7286  0.0853
 9005SOL    HW227915   3.729   6.101   0.207  0.1551  1.5063  2.1326
 9006SOL     OW27916   2.689   0.808   1.868 -0.1280 -0.0418  0.4586
 9006SOL    HW127917   2.625   0.770   1.802 -0.4137  0.1190  0.6412
 9006SOL    HW227918   2.641   0.872   1.929  0.6129  1.7534 -0.7676
 9007SOL     OW27919   3.263   4.354   0.346 -0.9520 -0.0564  0.1939
 9007SOL    HW127920   3.201   4.276   0.353 -0.4963 -0.3626  0.9458
 9007SOL    HW227921   3.342   4.328   0.291 -1.6856  0.4780 -1.1615
 9008SOL     OW27922   3.885   1.281   3.999 -0.4049  0.7550  0.1720
 9008SOL    HW127923   3.887   1.367   4.051  1.3019  0.9590 -0.1587
 9008SOL    HW227924   3.923   1.207   4.054 -1.5409  0.2615  0.3267
 9009SOL     OW27925   1.270   3.223   5.108  0.6462  0.8057 -0.3455
 9009SOL    HW127926   1.242   3.301   5.163 -0.3613  0.9360 -0.9965
 9009SOL    HW227927   1.209   3.215   5.029  2.4068  0.9930 -1.7909
 9010SOL     OW27928   6.784   5.463   3.783  0.2737  0.5290  0.2432
 9010SOL    HW127929   6.789   5.549   3.733  0.1817  0.1795 -0.3733
 9010SOL    HW227930   6.707   5.409   3.750  1.8955 -0.9579 -1.2871
 9011SOL     OW27931   6.742   0.271   1.888 -0.0601 -0.2714 -0.5579
 9011SOL    HW127932   6.658   0.254   1.837  1.1721 -0.6785 -2.6123
 9011SOL    HW227933   6.722   0.321   1.972 -2.2059  0.6707 -1.5707
 9012SOL     OW27934   4.968   4.634   1.896 -0.0637  0.1911  0.3313
 9012SOL    HW127935   5.000   4.542   1.873  1.1535 -0.0307  2.6180
 9012SOL    HW227936   4.883   4.627   1.948 -1.5447  0.5638 -1.9254
 9013SOL     OW27937   1.019   1.364   5.146 -0.0513 -0.0546  0.3687
 9013SOL    HW127938   1.029   1.378   5.047 -0.0810 -0.1142  0.3567
 9013SOL    HW227939   1.086   1.297   5.177  1.4464  1.5483  0.7776
 9014SOL     OW27940   2.933   0.239   0.373 -0.3019 -0.1394  0.5651
 9014SOL    HW127941   3.028   0.254   0.402 -0.9194  1.1929  2.0954
 9014SOL    HW227942   2.929   0.231   0.274  1.3991 -0.1017  0.4639
 9015SOL     OW27943   1.460   5.211   0.007 -0.3852 -0.4287 -0.1114
 9015SOL    HW127944   1.537   5.262  -0.032 -0.1477 -1.5048 -1.0929
 9015SOL    HW227945   1.408   5.272   0.067 -0.4208  1.1436 -1.6297
 9016SOL     OW27946   5.703   5.102   4.470  0.2239  0.1674 -0.1025
 9016SOL    HW127947   5.687   5.200   4.464 -0.8641  0.0313  0.3910
 9016SOL    HW227948   5.799   5.085   4.492  0.1108  1.1680  1.2966
 9017SOL     OW27949   6.629   2.622   0.400 -0.4524  0.0559  0.2405
 9017SOL    HW127950   6.530   2.622   0.392 -0.4371  1.5176 -0.2552
 9017SOL    HW227951   6.665   2.531   0.377 -1.5433  0.0052 -1.4106
 9018SOL     OW27952   1.959   4.668   1.960 -0.0280  0.2080 -0.2033
 9018SOL    HW127953   1.987   4.574   1.975 -1.0053 -0.1886 -0.7203
 9018SOL    HW227954   2.038   4.724   1.936  0.9061 -0.0129  2.1133
 9019SOL     OW27955   2.053   2.088   0.874  0.3622 -0.2046 -0.5069
 9019SOL    HW127956   2.050   2.182   0.910 -1.7244  0.1532 -1.4545
 9019SOL    HW227957   2.033   2.024   0.948 -2.3884  0.4252 -0.5868
 9020SOL     OW27958   5.800   4.035   4.068  0.2808  0.4465 -0.2489
 9020SOL    HW127959   5.808   4.030   4.167  0.5136  1.5414 -0.2039
 9020SOL    HW227960   5.729   3.971   4.037  3.0490 -3.1093  0.1815
 9021SOL     OW27961   2.290   1.758   6.843  0.1960 -0.1985  0.8067
 9021SOL    HW127962   2.271   1.700   6.764 -0.3113 -0.8518  1.3979
 9021SOL    HW227963   2.384   1.741   6.875 -0.0603 -0.9651  1.1845
 9022SOL     OW27964   0.843   6.628   3.647 -0.5133 -0.4796  0.2481
 9022SOL    HW127965   0.743   6.626   3.652 -0.6790 -1.2642 -2.0589
 9022SOL    HW227966   0.880   6.541   3.680 -0.5864 -0.1837  1.1148
 9023SOL     OW27967   2.966   4.323   6.878  0.3130  0.5038 -0.1010
 9023SOL    HW127968   2.886   4.383   6.879 -2.7814 -3.1905  2.3926
 9023SOL    HW227969   2.940   4.234   6.841  3.9263 -0.3107 -1.0475
 9024SOL     OW27970   2.309   1.840   1.968  0.2135  0.0901 -0.7205
 9024SOL    HW127971   2.247   1.814   1.894  0.0493  0.7113 -0.8139
 9024SOL    HW227972   2.341   1.759   2.016 -2.0833 -0.2313  0.4730
 9025SOL     OW27973   5.381   2.898   0.876 -0.3424  0.0298 -0.9107
 9025SOL    HW127974   5.389   2.921   0.779 -0.7511  0.5248 -0.8302
 9025SOL    HW227975   5.304   2.835   0.889  0.3617 -0.8865 -1.0405
 9026SOL     OW27976   0.275   6.846   5.941  0.0816 -0.4802 -0.0743
 9026SOL    HW127977   0.248   6.924   5.997  1.4927 -1.5479  2.2567
 9026SOL    HW227978   0.372   6.854   5.918  0.3124 -1.6267  0.4172
 9027SOL     OW27979   1.717   4.444   1.279  0.4357  0.6848  0.1900
 9027SOL    HW127980   1.638   4.416   1.333  0.3433  0.3402 -0.1206
 9027SOL    HW227981   1.778   4.366   1.267 -0.4895  0.2220 -1.8441
 9028SOL     OW27982   0.528   2.572   0.917  0.7829 -0.0436 -0.0309
 9028SOL    HW127983   0.520   2.481   0.876 -1.7582  0.3798 -0.6948
 9028SOL    HW227984   0.491   2.640   0.853  1.4727  1.3038  0.9582
 9029SOL     OW27985   2.226   6.682   5.408  0.9374  0.7936  0.6634
 9029SOL    HW127986   2.173   6.761   5.378  1.4779  0.7680 -0.3981
 9029SOL    HW227987   2.187   6.645   5.492 -1.0874  0.4148 -0.3854
 9030SOL     OW27988   6.994   3.881   5.890 -0.2951  0.1157 -0.2860
 9030SOL    HW127989   7.078   3.869   5.837 -0.0199 -0.1382  0.2000
 9030SOL    HW227990   7.008   3.952   5.959 -0.8265  0.8313 -0.9074
 9031SOL     OW27991   5.075   4.069   6.643 -0.2171 -0.0419 -0.1119
 9031SOL    HW127992   5.008   4.000   6.614 -0.2596 -0.1910  0.3267
 9031SOL    HW227993   5.067   4.083   6.742 -0.1609  0.5439 -0.1889
 9032SOL     OW27994   6.426   4.167   0.384 -0.8364 -0.2967  0.3675
 9032SOL    HW127995   6.378   4.178   0.297  0.8896 -0.9313 -0.7140
 9032SOL    HW227996   6.473   4.078   0.385  0.6003  0.4403  1.2107
 9033SOL     OW27997   3.620   1.304   2.690  0.3686  1.0199 -0.0141
 9033SOL    HW127998   3.542   1.284   2.749 -0.3959  0.4435 -1.1779
 9033SOL    HW227999   3.622   1.401   2.668 -0.5691  0.9025 -0.6918
 9034SOL     OW28000   2.618   5.880   2.317  0.0753  0.3212  0.4183
 9034SOL    HW128001   2.645   5.921   2.230 -0.9051 -1.1590 -0.6568
 9034SOL    HW228002   2.692   5.822   2.351 -0.3203 -0.8413 -0.6157
 9035SOL     OW28003   4.554   1.643   5.243  0.3289 -0.7606 -0.0897
 9035SOL    HW128004   4.521   1.716   5.183  1.0748  1.2259  1.7756
 9035SOL    HW228005   4.652   1.653   5.256 -0.0661  0.3966  3.1778
 9036SOL     OW28006   0.720   2.887   5.908 -0.2250 -0.4320 -0.0425
 9036SOL    HW128007   0.695   2.910   5.814 -0.3387 -2.3508 -0.5169
 9036SOL    HW228008   0.642   2.845   5.954 -1.0121  2.7066  1.7818
 9037SOL     OW28009   1.059   3.619   4.870  0.3019 -0.6060  0.2622
 9037SOL    HW128010   1.153   3.587   4.854 -0.3257 -2.1007 -0.6913
 9037SOL    HW228011   1.021   3.652   4.784  0.0728  0.3463  0.7261
 9038SOL     OW28012   3.304   5.253   4.527  0.0612 -0.0968 -0.7135
 9038SOL    HW128013   3.214   5.281   4.493 -0.1844 -0.9726 -0.8168
 9038SOL    HW228014   3.368   5.330   4.522 -0.9434  0.8340  0.3281
 9039SOL     OW28015   1.673   2.409   2.348 -0.4035  0.1672  0.5082
 9039SOL    HW128016   1.719   2.432   2.433  1.5612 -1.0652 -0.1524
 9039SOL    HW228017   1.682   2.485   2.284 -0.6290  0.5339  0.9105
 9040SOL     OW28018   1.692   1.675   4.802 -0.1573  0.2850  0.0836
 9040SOL    HW128019   1.788   1.669   4.832 -0.9019 -0.5613  2.5691
 9040SOL    HW228020   1.653   1.761   4.835 -0.6406 -0.0445  0.3800
 9041SOL     OW28021   1.010   2.208   3.127 -0.2973 -0.0983  0.0012
 9041SOL    HW128022   1.025   2.265   3.208 -0.1919 -1.0359  0.6566
 9041SOL    HW228023   0.911   2.196   3.113 -0.3164 -1.1339  0.8763
 9042SOL     OW28024   4.431   4.292   0.142 -0.0869  0.0939  0.1835
 9042SOL    HW128025   4.361   4.321   0.076  1.2259  2.1079 -0.4197
 9042SOL    HW228026   4.518   4.279   0.094  0.2155 -1.4023  1.0770
 9043SOL     OW28027   0.356   5.252   3.648 -0.2671 -0.6952 -0.0520
 9043SOL    HW128028   0.450   5.220   3.646 -0.2207 -0.6597  1.0372
 9043SOL    HW228029   0.347   5.334   3.591  0.7378  0.2558  1.1170
 9044SOL     OW28030   0.440   1.624   2.073  0.4465  0.1986 -0.3290
 9044SOL    HW128031   0.532   1.632   2.113  0.4343 -1.5462  0.1141
 9044SOL    HW228032   0.378   1.586   2.141 -0.9693  2.5509 -0.1779
 9045SOL     OW28033   6.716   5.152   5.411  0.1756  0.2592 -0.5483
 9045SOL    HW128034   6.785   5.103   5.463 -0.6800  1.2651  1.6523
 9045SOL    HW228035   6.627   5.142   5.455 -0.6929  0.8124 -2.0808
 9046SOL     OW28036   2.088   3.051   0.882  0.1331  0.1219 -0.1639
 9046SOL    HW128037   2.121   3.138   0.846  1.6896 -0.2922  0.1803
 9046SOL    HW228038   2.045   2.999   0.808 -0.5491  1.0423 -0.4341
 9047SOL     OW28039   5.354   5.764   6.342 -0.5488 -0.1443 -0.0331
 9047SOL    HW128040   5.365   5.845   6.284  1.5118 -0.6286 -0.3744
 9047SOL    HW228041   5.261   5.730   6.334 -1.2359  1.7164 -0.4979
 9048SOL     OW28042   6.989   4.720   1.058 -0.1988 -0.2950  0.1755
 9048SOL    HW128043   7.017   4.784   0.987 -0.9464  0.1198  0.2455
 9048SOL    HW228044   6.897   4.686   1.038 -0.5324  0.0473  1.0876
 9049SOL     OW28045   2.232   6.708   4.683 -0.1268  0.4931 -0.2673
 9049SOL    HW128046   2.222   6.609   4.671 -0.1192  0.2806  1.2794
 9049SOL    HW228047   2.329   6.733   4.676 -0.3120  0.7423 -2.8162
 9050SOL     OW28048   2.651   6.351   5.463 -0.4330 -0.8393  0.0816
 9050SOL    HW128049   2.564   6.345   5.414  0.1763 -2.0195 -0.9065
 9050SOL    HW228050   2.722   6.386   5.402 -0.0530 -0.5729  0.6643
 9051SOL     OW28051   5.164   3.724   5.631 -0.0946  0.4382 -0.0034
 9051SOL    HW128052   5.106   3.747   5.709  1.1329  1.6146  0.5983
 9051SOL    HW228053   5.215   3.641   5.650  0.4849  0.9271  0.6218
 9052SOL     OW28054   2.588   6.917   2.549  0.3984  0.3378 -0.3481
 9052SOL    HW128055   2.509   6.862   2.521 -0.1328  0.6057  0.5733
 9052SOL    HW228056   2.646   6.863   2.610 -0.0782  0.7533  0.4903
 9053SOL     OW28057   0.319   4.344   3.012 -0.4825 -0.0307 -0.2024
 9053SOL    HW128058   0.401   4.390   2.978  0.1729 -2.1005 -1.5829
 9053SOL    HW228059   0.270   4.303   2.935 -1.1523 -1.4426  0.9359
 9054SOL     OW28060   2.205   4.217   6.553 -0.0586  0.6346  0.1212
 9054SOL    HW128061   2.258   4.144   6.511 -1.0115  0.0841 -0.1765
 9054SOL    HW228062   2.261   4.266   6.619  0.6102 -0.3556  0.3127
 9055SOL     OW28063   6.382   4.308   4.243  0.1701 -0.0246 -0.1688
 9055SOL    HW128064   6.358   4.212   4.226 -0.6588 -0.1296  1.4084
 9055SOL    HW228065   6.391   4.323   4.342 -0.2383  1.6402 -0.3577
 9056SOL     OW28066   5.029   2.899   3.048 -1.0666  0.2138  0.9341
 9056SOL    HW128067   4.973   2.816   3.046 -1.7858  0.6070 -2.8315
 9056SOL    HW228068   4.969   2.979   3.056 -0.9606  0.5516 -1.1973
 9057SOL     OW28069   6.309   4.978   3.839 -0.8545  0.1247 -0.4077
 9057SOL    HW128070   6.256   4.933   3.910 -2.9886  0.9070 -1.4182
 9057SOL    HW228071   6.247   5.017   3.770  1.0335  1.3260 -1.5312
 9058SOL     OW28072   1.729   1.072   0.396 -0.0069 -0.4816  0.0840
 9058SOL    HW128073   1.673   1.147   0.432  0.1923 -0.8936  1.2717
 9058SOL    HW228074   1.795   1.044   0.465 -0.5743 -2.2709 -0.0486
 9059SOL     OW28075   1.595   6.135   5.160  0.0874 -0.1594 -0.5043
 9059SOL    HW128076   1.508   6.151   5.112 -0.3550  0.8472  0.5907
 9059SOL    HW228077   1.641   6.222   5.175  0.6629 -0.5596  0.0702
 9060SOL     OW28078   2.393   4.761   1.762  0.1517  0.3023  0.0592
 9060SOL    HW128079   2.466   4.702   1.799 -1.3987 -0.8332  1.4563
 9060SOL    HW228080   2.328   4.783   1.835 -0.2941  2.2822 -0.8817
 9061SOL     OW28081   1.573   4.384   1.981  0.3807  0.1160 -0.0681
 9061SOL    HW128082   1.558   4.483   1.984 -1.9529 -0.1743  0.0266
 9061SOL    HW228083   1.614   4.360   1.893  0.9642  1.1459 -0.1027
 9062SOL     OW28084   1.388   0.304   3.076 -0.1663  0.2818  0.0245
 9062SOL    HW128085   1.295   0.336   3.062 -0.3356 -0.5759 -0.9197
 9062SOL    HW228086   1.389   0.232   3.146 -0.5896 -1.3043 -1.5217
 9063SOL     OW28087   0.777   4.066   0.045  0.9154 -0.4885  0.1248
 9063SOL    HW128088   0.745   4.091  -0.046  2.0712  0.0593 -0.1555
 9063SOL    HW228089   0.831   3.981   0.039 -1.4958 -2.1647  0.7944
 9064SOL     OW28090   4.136   5.380   4.301 -0.2691 -0.1958 -0.1372
 9064SOL    HW128091   4.160   5.413   4.210  0.2486 -0.4773 -0.1040
 9064SOL    HW228092   4.045   5.413   4.325 -0.3330  0.0331 -0.6806
 9065SOL     OW28093   5.249   0.719   0.142 -0.3719 -0.0635 -0.2661
 9065SOL    HW128094   5.310   0.790   0.176 -0.0973 -0.2556 -0.3530
 9065SOL    HW228095   5.194   0.756   0.067  0.8535 -0.3648 -1.3405
 9066SOL     OW28096   1.698   1.334   6.133  0.1346  0.0247 -0.7004
 9066SOL    HW128097   1.604   1.361   6.113 -0.5404 -0.9197  0.9740
 9066SOL    HW228098   1.721   1.359   6.227  1.0404 -1.1063 -0.5994
 9067SOL     OW28099   1.666   6.889   3.415 -0.1516 -0.0287  0.5431
 9067SOL    HW128100   1.614   6.902   3.330 -2.1443 -1.5302  1.4274
 9067SOL    HW228101   1.693   6.978   3.452 -2.3888  0.8951  0.1416
 9068SOL     OW28102   2.644   4.753   1.557  0.6988  0.4125 -0.0855
 9068SOL    HW128103   2.674   4.730   1.465 -1.8262 -0.3921 -0.7848
 9068SOL    HW228104   2.578   4.685   1.588  1.2720  0.8268  2.2346
 9069SOL     OW28105   5.912   3.314   4.301 -0.5236 -0.0771 -0.3911
 9069SOL    HW128106   5.947   3.315   4.207 -0.3844  0.8641 -0.3406
 9069SOL    HW228107   5.948   3.392   4.351  0.2099 -1.1323  0.7702
 9070SOL     OW28108   0.363   4.370   0.359 -0.4449  0.5688 -0.2024
 9070SOL    HW128109   0.442   4.317   0.327 -1.2109  0.4428 -1.9992
 9070SOL    HW228110   0.321   4.323   0.437 -0.3150 -0.7851 -0.9183
 9071SOL     OW28111   1.046   1.860   0.916  0.1794  0.3641  0.3722
 9071SOL    HW128112   1.131   1.912   0.923  0.1773  0.3196  0.7459
 9071SOL    HW228113   1.015   1.859   0.821  0.8837 -0.0944  0.1452
 9072SOL     OW28114   2.567   1.014   6.165  0.3110  0.0865 -0.3934
 9072SOL    HW128115   2.505   1.001   6.088 -0.6429  1.0859  0.1733
 9072SOL    HW228116   2.516   1.004   6.251  1.3272 -0.8971  0.1261
 9073SOL     OW28117   4.529   3.208   0.972  0.3167  0.2649  0.2159
 9073SOL    HW128118   4.495   3.277   0.908  0.6750  0.0493 -0.2076
 9073SOL    HW228119   4.590   3.145   0.925  1.4645  0.7513  1.0062
 9074SOL     OW28120   3.068   4.910   0.515  0.1181 -0.0511  0.0402
 9074SOL    HW128121   3.141   4.955   0.464 -0.7365  0.7121 -0.5482
 9074SOL    HW228122   3.093   4.815   0.531  3.1250  1.1104  3.5053
 9075SOL     OW28123   6.360   5.200   6.114  0.5635 -1.1595  0.0483
 9075SOL    HW128124   6.393   5.127   6.173  0.8982 -0.7880  0.3258
 9075SOL    HW228125   6.438   5.245   6.069  0.4961  0.0616  1.1068
 9076SOL     OW28126   0.078   6.182   4.642 -0.1471  0.3101  0.2336
 9076SOL    HW128127   0.086   6.164   4.545 -0.2114 -1.9773  0.6088
 9076SOL    HW228128  -0.000   6.243   4.659 -0.9629 -0.3696 -1.0150
 9077SOL     OW28129   3.163   6.019   2.995 -0.7765  0.1472 -0.3167
 9077SOL    HW128130   3.075   6.040   2.953 -0.9871 -0.2022 -0.0513
 9077SOL    HW228131   3.231   6.003   2.924 -0.9849  0.1742 -0.5223
 9078SOL     OW28132   3.638   5.918   3.665  0.1170 -0.7214  0.0717
 9078SOL    HW128133   3.540   5.913   3.684  0.1598  0.8249  0.8811
 9078SOL    HW228134   3.682   5.972   3.737  1.2383  0.3669 -1.3839
 9079SOL     OW28135   6.128   0.379   5.410  0.3020  0.2120 -0.2491
 9079SOL    HW128136   6.107   0.457   5.470  1.0538 -1.2026  1.9919
 9079SOL    HW228137   6.051   0.363   5.348 -0.8218  1.3695  0.7917
 9080SOL     OW28138   0.448   0.590   5.623 -0.1801  0.1101  0.1083
 9080SOL    HW128139   0.414   0.557   5.535  0.3467  0.0191 -0.0640
 9080SOL    HW228140   0.377   0.646   5.667 -1.0913 -1.2274  0.4015
 9081SOL     OW28141   0.357   1.485   3.262 -0.7158 -0.4448 -0.7359
 9081SOL    HW128142   0.264   1.514   3.240  0.2201  1.6632 -2.2233
 9081SOL    HW228143   0.415   1.565   3.278  0.7499 -1.7202  0.7407
 9082SOL     OW28144   3.367   0.287   2.090  0.2703  0.4196 -0.0264
 9082SOL    HW128145   3.452   0.234   2.088  0.1984  0.3007 -2.0818
 9082SOL    HW228146   3.310   0.261   2.011 -2.7431 -1.1696  2.4432
 9083SOL     OW28147   3.011   6.323   6.890 -0.2349 -0.4052 -0.2483
 9083SOL    HW128148   3.065   6.392   6.842 -0.3365  0.1650  0.4420
 9083SOL    HW228149   3.034   6.233   6.854  0.7373 -0.1212 -0.3828
 9084SOL     OW28150   6.201   6.701   4.530 -0.4229  0.3016 -0.3816
 9084SOL    HW128151   6.113   6.655   4.519 -0.8306  1.0506 -0.3323
 9084SOL    HW228152   6.267   6.665   4.464 -1.3976  1.2571 -1.9079
 9085SOL     OW28153   2.162   4.810   5.793  0.3282  0.4400 -0.0121
 9085SOL    HW128154   2.218   4.875   5.844 -1.9208  1.5843  1.1636
 9085SOL    HW228155   2.184   4.817   5.696 -0.0830  3.3356  0.0087
 9086SOL     OW28156   4.977   3.441   4.996 -0.3603  0.2169  0.8214
 9086SOL    HW128157   4.893   3.491   5.020 -0.3456  1.3954 -1.3326
 9086SOL    HW228158   5.055   3.485   5.040 -0.5166  1.2541  0.1129
 9087SOL     OW28159   1.110   0.421   6.876 -0.0042 -0.0254 -0.1283
 9087SOL    HW128160   1.195   0.413   6.927  0.6225  3.0805 -0.4971
 9087SOL    HW228161   1.125   0.476   6.794 -2.5811  1.7399  0.4593
 9088SOL     OW28162   5.570   0.215   6.118  0.7470 -0.2734 -0.0165
 9088SOL    HW128163   5.489   0.267   6.088  0.5168  0.1061  1.1922
 9088SOL    HW228164   5.564   0.200   6.217  2.4224  0.2280  0.1814
 9089SOL     OW28165   5.991   2.113   6.191  0.2887 -0.0636  0.1614
 9089SOL    HW128166   5.970   2.016   6.180 -1.1642  0.0259  1.7963
 9089SOL    HW228167   5.925   2.168   6.140 -0.6125  0.1059  1.4708
 9090SOL     OW28168   6.968   4.489   5.895  0.0740 -0.0590  0.3014
 9090SOL    HW128169   7.012   4.481   5.984 -0.7532 -1.1778  0.6346
 9090SOL    HW228170   7.036   4.515   5.826  0.9263 -0.1957  1.0786
 9091SOL     OW28171   1.114   1.441   3.692  0.2738 -0.7922 -0.0780
 9091SOL    HW128172   1.149   1.497   3.767  1.8302  0.3930 -1.6035
 9091SOL    HW228173   1.072   1.358   3.730 -2.8957  1.6708  2.3067
 9092SOL     OW28174   2.161   3.291   3.847  0.3485 -0.4739  0.5789
 9092SOL    HW128175   2.128   3.237   3.770 -0.1071  3.2083 -2.0718
 9092SOL    HW228176   2.252   3.259   3.874  0.5509 -1.8463 -1.4955
 9093SOL     OW28177   2.472   0.469   3.637 -0.1036 -0.2170  0.0616
 9093SOL    HW128178   2.391   0.457   3.581 -1.4610  0.1905  1.8215
 9093SOL    HW228179   2.462   0.552   3.693  2.9883  1.7777 -2.0077
 9094SOL     OW28180   3.423   2.182   4.325  0.3376 -0.5211 -0.2053
 9094SOL    HW128181   3.447   2.279   4.332  0.4610 -0.6433  1.5619
 9094SOL    HW228182   3.327   2.174   4.298 -0.4697  0.1989  2.2020
 9095SOL     OW28183   2.516   5.177   0.157 -0.0190 -0.4824  0.3100
 9095SOL    HW128184   2.458   5.157   0.236  1.6636 -0.3746  1.6162
 9095SOL    HW228185   2.563   5.264   0.171  1.2083 -1.0320 -0.2587
 9096SOL     OW28186   2.297   6.288   0.072 -0.2446  0.4484 -0.5570
 9096SOL    HW128187   2.265   6.281   0.167  0.4430 -0.6203 -0.3800
 9096SOL    HW228188   2.220   6.275   0.010 -0.6718  0.9737 -0.1429
 9097SOL     OW28189   6.548   6.862   5.319  0.2185  0.2653  0.1980
 9097SOL    HW128190   6.481   6.936   5.322  0.1585  0.1743  1.3638
 9097SOL    HW228191   6.570   6.833   5.412 -0.0325 -1.4351 -0.2519
 9098SOL     OW28192   3.488   5.693   6.535  0.0851 -0.3988  0.2924
 9098SOL    HW128193   3.489   5.751   6.616  0.3548 -1.1817  0.8603
 9098SOL    HW228194   3.578   5.694   6.492  0.1464 -0.5497  0.4162
 9099SOL     OW28195   2.406   5.175   1.582  0.1722 -0.3229  0.1431
 9099SOL    HW128196   2.335   5.129   1.635 -1.0643  0.6873 -0.5843
 9099SOL    HW228197   2.495   5.139   1.608 -0.4093 -0.2100  2.5719
 9100SOL     OW28198   1.365   1.149   1.897 -0.0126 -0.4783  0.2387
 9100SOL    HW128199   1.401   1.203   1.821  2.7106 -1.0833  0.9792
 9100SOL    HW228200   1.311   1.073   1.860  0.8638 -0.5012 -1.0903
 9101SOL     OW28201   0.240   4.006   1.262  0.1239  0.5235 -0.4787
 9101SOL    HW128202   0.152   4.048   1.238  0.3320  0.6998 -0.9452
 9101SOL    HW228203   0.305   4.077   1.290  0.5152  0.5388 -1.3864
 9102SOL     OW28204   2.249   5.052   0.280 -0.5104 -0.2251  0.0670
 9102SOL    HW128205   2.150   5.057   0.264 -0.0345  1.7251 -3.1284
 9102SOL    HW228206   2.294   5.020   0.197  1.7219  1.4510  0.5328
 9103SOL     OW28207   3.883   0.058   6.225  0.2464 -0.5856 -0.0196
 9103SOL    HW128208   3.797   0.104   6.244 -0.4434 -1.9653  0.3069
 9103SOL    HW228209   3.934   0.110   6.155  0.5828  1.8942  1.9227
 9104SOL     OW28210   5.314   4.155   0.190  0.1965  0.0712  0.3150
 9104SOL    HW128211   5.404   4.186   0.220  0.7983  0.8056 -2.0821
 9104SOL    HW228212   5.322   4.105   0.104 -1.8950  2.6688 -1.5660
 9105SOL     OW28213   0.484   2.056   3.681 -0.3059  0.2097  0.4957
 9105SOL    HW128214   0.415   2.071   3.751 -2.0889  2.0867 -1.5348
 9105SOL    HW228215   0.463   1.973   3.629 -0.3803  0.1492  0.6248
 9106SOL     OW28216   5.571   0.047   2.999 -0.8153  0.6047  0.0652
 9106SOL    HW128217   5.547   0.083   3.089 -1.0911  3.0337 -0.8953
 9106SOL    HW228218   5.569   0.122   2.932  2.2297 -0.4821 -1.4463
 9107SOL     OW28219   1.115   0.493   1.748 -0.0994 -0.0417 -0.3599
 9107SOL    HW128220   1.075   0.502   1.839 -0.8777  0.0740 -0.7099
 9107SOL    HW228221   1.212   0.468   1.757 -0.1919 -0.1294  0.4948
 9108SOL     OW28222   1.762   1.901   0.786 -0.1828  0.4622 -0.1053
 9108SOL    HW128223   1.771   1.988   0.738 -1.2232  0.4458 -0.3710
 9108SOL    HW228224   1.668   1.867   0.774  0.9695 -2.2312 -2.6505
 9109SOL     OW28225   1.926   0.213   1.896 -0.7513  0.0277 -0.4523
 9109SOL    HW128226   1.883   0.187   1.809 -3.0444 -0.9321  0.8871
 9109SOL    HW228227   1.918   0.312   1.909 -0.4224  0.1747 -1.2880
 9110SOL     OW28228   2.517   6.893   0.521 -0.5049 -0.3404  0.2110
 9110SOL    HW128229   2.458   6.902   0.601 -0.4283 -0.6573  0.3056
 9110SOL    HW228230   2.612   6.893   0.549 -0.3992  1.4453 -0.0578
 9111SOL     OW28231   2.816   2.062   6.716  0.0367 -0.6723  0.0616
 9111SOL    HW128232   2.887   2.002   6.752  0.4680 -0.7885 -0.9638
 9111SOL    HW228233   2.737   2.060   6.777 -0.4477 -3.2169 -0.5121
 9112SOL     OW28234   1.077   1.045   5.654 -0.4808 -0.5264 -0.4626
 9112SOL    HW128235   1.020   1.107   5.601 -1.2699 -2.7198 -2.3411
 9112SOL    HW228236   1.163   1.029   5.606  0.7815  0.8729  1.1779
 9113SOL     OW28237   0.142   3.268   3.802  1.3354 -0.2262  0.0933
 9113SOL    HW128238   0.054   3.253   3.758  0.9465  0.7415  0.5264
 9113SOL    HW228239   0.137   3.240   3.898  1.0923  1.0957  0.4721
 9114SOL     OW28240   0.081   4.287   6.380  0.3466 -0.5464  0.0980
 9114SOL    HW128241   0.047   4.279   6.286  0.6306  1.0712 -0.1838
 9114SOL    HW228242   0.171   4.332   6.379 -0.5884  1.5275  1.2198
 9115SOL     OW28243   1.968   1.375   6.930 -0.3286 -0.1506  0.7361
 9115SOL    HW128244   1.974   1.460   6.879  0.7431  0.0613  1.1865
 9115SOL    HW228245   1.967   1.394   7.028  0.4246 -0.6723  0.8540
 9116SOL     OW28246   4.116   0.872   0.945 -0.2696  0.0354 -0.0599
 9116SOL    HW128247   4.040   0.878   1.009 -2.0448 -1.0004 -1.9470
 9116SOL    HW228248   4.085   0.829   0.860  2.3447 -0.0476 -1.0693
 9117SOL     OW28249   5.363   1.296   4.971  0.3630 -0.1607  0.0378
 9117SOL    HW128250   5.417   1.248   4.902 -0.3593 -1.0245  0.0581
 9117SOL    HW228251   5.415   1.303   5.056  1.7292  1.9490 -0.8991
 9118SOL     OW28252   5.411   6.122   3.960 -0.1200 -0.3553 -0.2269
 9118SOL    HW128253   5.402   6.024   3.947 -1.2322 -0.4540  1.0124
 9118SOL    HW228254   5.493   6.155   3.914 -0.0985 -1.7392 -1.2331
 9119SOL     OW28255   4.910   2.816   6.654  0.2786 -0.5755 -0.9000
 9119SOL    HW128256   4.964   2.772   6.726 -0.5283 -0.0140  0.0599
 9119SOL    HW228257   4.939   2.911   6.645  0.1143 -0.5403 -1.0496
 9120SOL     OW28258   3.016   5.496   1.991  0.0602 -0.0130  0.3403
 9120SOL    HW128259   2.928   5.466   1.956  1.1600 -0.7541 -2.0278
 9120SOL    HW228260   3.078   5.418   1.997  1.6766  0.9866 -1.8177
 9121SOL     OW28261   1.529   6.865   0.621 -0.3119  0.2845 -0.8269
 9121SOL    HW128262   1.585   6.803   0.676  0.6071  1.6816 -0.1145
 9121SOL    HW228263   1.588   6.929   0.572 -1.1329 -0.7178 -3.2545
 9122SOL     OW28264   2.219   4.820   1.962  0.1606  0.1218 -0.6949
 9122SOL    HW128265   2.233   4.918   1.972 -0.5196  0.0906  0.7860
 9122SOL    HW228266   2.238   4.774   2.049 -2.0544 -0.7232 -0.5750
 9123SOL     OW28267   0.750   2.745   2.413 -0.5091  0.1226  0.2159
 9123SOL    HW128268   0.755   2.843   2.430  2.2413  0.3851 -1.4860
 9123SOL    HW228269   0.843   2.706   2.412 -1.3643 -2.0932 -1.2981
 9124SOL     OW28270   0.026   2.163   5.757 -0.1744 -0.1583 -0.6674
 9124SOL    HW128271   0.081   2.216   5.692  0.2904 -1.6042 -1.5285
 9124SOL    HW228272   0.083   2.090   5.796 -1.3098 -1.3845 -1.2046
 9125SOL     OW28273   1.675   0.171   4.646 -0.3191 -0.2577  0.9300
 9125SOL    HW128274   1.767   0.209   4.645  0.0600 -1.1312  1.3809
 9125SOL    HW228275   1.655   0.133   4.736 -1.4314  0.6377  1.0753
 9126SOL     OW28276   2.750   1.169   1.890 -0.3541 -0.2329  0.2216
 9126SOL    HW128277   2.761   1.127   1.800  0.9414  0.5940 -0.0336
 9126SOL    HW228278   2.803   1.117   1.957 -1.5936 -1.0508  0.5931
 9127SOL     OW28279   1.787   3.915   3.667 -0.1370  0.0297  0.4895
 9127SOL    HW128280   1.863   3.967   3.706 -2.2096  2.3010  1.7447
 9127SOL    HW228281   1.783   3.932   3.568  0.7765  0.1197  0.4519
 9128SOL     OW28282   6.890   3.624   5.947  0.3128 -0.3959 -0.1770
 9128SOL    HW128283   6.861   3.571   5.868  2.6326 -0.0837 -1.3157
 9128SOL    HW228284   6.931   3.711   5.916  0.8331 -0.0496  1.3789
 9129SOL     OW28285   4.092   3.666   2.916 -0.1957  0.1769 -0.2893
 9129SOL    HW128286   4.143   3.726   2.855 -0.6628 -0.2658 -1.1348
 9129SOL    HW228287   4.054   3.590   2.864 -0.5093 -0.2792  0.5788
 9130SOL     OW28288   0.424   0.703   4.472  0.2238  0.1362  0.2978
 9130SOL    HW128289   0.376   0.727   4.388 -1.0389 -2.3667  0.2188
 9130SOL    HW228290   0.487   0.627   4.454  1.5967  1.0118  1.1902
 9131SOL     OW28291   2.833   2.443   0.487  0.2613 -0.0004 -0.0459
 9131SOL    HW128292   2.820   2.415   0.392  0.5491 -0.5668  0.0772
 9131SOL    HW228293   2.916   2.499   0.495 -0.7625  1.6470 -0.4359
 9132SOL     OW28294   0.386   6.540   0.672  0.3256  0.4960 -0.4565
 9132SOL    HW128295   0.302   6.495   0.703 -0.0522  1.3995 -0.1135
 9132SOL    HW228296   0.464   6.480   0.687 -0.0870  0.1892  0.5341
 9133SOL     OW28297   1.224   3.229   2.831  0.0803  0.3317 -0.3017
 9133SOL    HW128298   1.243   3.323   2.800  1.5162 -0.6471 -2.6595
 9133SOL    HW228299   1.292   3.203   2.899 -1.3321  1.5033  1.6657
 9134SOL     OW28300   4.676   5.129   2.913  0.3354 -0.5809  0.1039
 9134SOL    HW128301   4.708   5.184   2.836  0.6664 -0.3566  0.3919
 9134SOL    HW228302   4.622   5.052   2.880 -1.1093  0.5388 -0.2712
 9135SOL     OW28303   3.946   3.154   6.953 -0.8507 -0.4765 -0.4312
 9135SOL    HW128304   3.991   3.235   6.917  0.5273 -1.2416 -0.5074
 9135SOL    HW228305   3.950   3.154   7.053 -0.8336 -0.4700 -0.4320
 9136SOL     OW28306   2.978   3.341   4.437 -0.1479  0.0654 -0.3675
 9136SOL    HW128307   2.975   3.246   4.468  1.8944  0.2301  0.4837
 9136SOL    HW228308   3.072   3.374   4.439 -0.5980  1.6551 -2.1251
 9137SOL     OW28309   6.156   5.160   6.834 -0.0334  0.1085  0.5196
 9137SOL    HW128310   6.107   5.178   6.749 -0.6841  0.3266  0.9383
 9137SOL    HW228311   6.141   5.065   6.862 -0.8365  0.3811  1.0394
 9138SOL     OW28312   4.886   4.590   0.368  0.2485 -0.8392 -0.1042
 9138SOL    HW128313   4.928   4.500   0.380 -1.9744 -1.8295  0.7780
 9138SOL    HW228314   4.848   4.597   0.276  1.6164 -0.2296 -0.6473
 9139SOL     OW28315   3.482   5.880   1.593  0.1597  0.7567  0.0914
 9139SOL    HW128316   3.388   5.852   1.610  0.5802  0.5031  2.1925
 9139SOL    HW228317   3.540   5.854   1.670  1.8683  1.4004 -0.9039
 9140SOL     OW28318   4.770   2.126   6.271 -0.3983  0.4995  0.2061
 9140SOL    HW128319   4.753   2.050   6.209 -0.8982 -0.6834  1.7312
 9140SOL    HW228320   4.716   2.114   6.354  3.1323 -0.0750  2.6140
 9141SOL     OW28321   2.256   3.642   5.669  0.6369  0.0537  0.0470
 9141SOL    HW128322   2.319   3.652   5.592 -0.8760  1.3725 -1.0920
 9141SOL    HW228323   2.271   3.716   5.734 -0.1365  0.7602 -0.5566
 9142SOL     OW28324   5.061   1.725   3.628  0.4957  0.1544  0.1883
 9142SOL    HW128325   5.141   1.676   3.592  1.0849  1.1541  0.1048
 9142SOL    HW228326   5.092   1.802   3.683 -0.4045 -0.5112  1.6947
 9143SOL     OW28327   0.440   3.411   1.683  0.8926 -0.3629 -0.8384
 9143SOL    HW128328   0.360   3.467   1.660  0.3437 -0.6867  0.2260
 9143SOL    HW228329   0.466   3.428   1.778  0.9853 -1.5729 -0.6304
 9144SOL     OW28330   0.614   6.058   2.894  0.0968  0.3445 -0.1155
 9144SOL    HW128331   0.523   6.078   2.930  0.0272  1.1354 -0.7042
 9144SOL    HW228332   0.640   6.129   2.829  0.1475 -1.1139 -1.7526
 9145SOL     OW28333   2.122   6.099   0.195 -0.6689 -0.1190 -0.1433
 9145SOL    HW128334   2.116   6.180   0.253 -0.4441  0.0313 -0.3321
 9145SOL    HW228335   2.107   6.125   0.100  0.6733 -0.0914 -0.3678
 9146SOL     OW28336   0.527   1.260   4.898 -0.4092 -0.0283  0.3371
 9146SOL    HW128337   0.532   1.217   4.988  0.2646  0.2896  0.4613
 9146SOL    HW228338   0.617   1.255   4.854  0.6251  3.8223  1.5803
 9147SOL     OW28339   4.872   4.582   6.173 -0.1365  0.2004  0.4316
 9147SOL    HW128340   4.870   4.486   6.200 -0.7392  0.3464  0.9333
 9147SOL    HW228341   4.951   4.598   6.113 -2.6285 -1.6798 -3.8041
 9148SOL     OW28342   3.684   6.086   5.985 -0.3696 -0.0597  0.3789
 9148SOL    HW128343   3.748   6.021   6.026 -0.8965 -3.0869 -2.9831
 9148SOL    HW228344   3.735   6.160   5.942  0.4834  0.1500  1.6986
 9149SOL     OW28345   6.231   3.429   3.976 -0.2719 -0.0146 -0.6066
 9149SOL    HW128346   6.218   3.357   3.908  0.6267 -1.7744  0.9834
 9149SOL    HW228347   6.300   3.399   4.042 -0.2216  2.1422  0.3802
 9150SOL     OW28348   0.745   2.160   5.931  0.0474 -0.2620  0.3516
 9150SOL    HW128349   0.781   2.086   5.988  1.8985  0.5560  0.3314
 9150SOL    HW228350   0.786   2.247   5.960  0.1137  0.3460 -1.4562
 9151SOL     OW28351   0.130   6.290   1.481  0.2552  0.1670  0.8387
 9151SOL    HW128352   0.127   6.221   1.409 -1.1728 -0.6924  1.6647
 9151SOL    HW228353   0.125   6.381   1.441  1.7640 -0.1980 -0.2534
 9152SOL     OW28354   4.641   5.429   0.635  0.1490  0.9691  0.3789
 9152SOL    HW128355   4.640   5.330   0.619 -1.6567  1.2844 -1.8285
 9152SOL    HW228356   4.548   5.461   0.652  0.7586  2.2743  1.3984
 9153SOL     OW28357   3.955   1.117   4.211 -0.3434  0.3984  0.2995
 9153SOL    HW128358   4.035   1.139   4.268 -0.4872 -0.1946  0.7396
 9153SOL    HW228359   3.926   1.023   4.229 -0.8734  0.4632 -0.1859
 9154SOL     OW28360   4.017   6.824   0.322  0.1810  0.5763  0.8442
 9154SOL    HW128361   4.043   6.730   0.301  2.1324  1.4695 -1.2534
 9154SOL    HW228362   3.919   6.830   0.336 -0.1872 -1.5575 -0.4428
 9155SOL     OW28363   2.150   5.769   2.197 -0.1378 -0.9447  0.0903
 9155SOL    HW128364   2.106   5.858   2.181  0.0951 -0.6110  1.2302
 9155SOL    HW228365   2.080   5.701   2.219 -0.2027 -0.7229  0.5796
 9156SOL     OW28366   5.379   3.514   0.397 -0.2180  0.3071  0.1587
 9156SOL    HW128367   5.329   3.600   0.405 -1.3260 -0.2071 -0.8835
 9156SOL    HW228368   5.456   3.514   0.461 -0.9105  1.5654  1.0412
 9157SOL     OW28369   2.105   0.703   6.532 -0.5152  0.1638  1.0386
 9157SOL    HW128370   2.122   0.714   6.630 -1.6669  1.0476  1.1659
 9157SOL    HW228371   2.120   0.608   6.505  1.4137  0.2265  1.7202
 9158SOL     OW28372   3.034   3.788   5.118  0.1987  0.1598  0.2088
 9158SOL    HW128373   3.107   3.726   5.088 -0.1334 -0.1979  0.1278
 9158SOL    HW228374   3.029   3.865   5.055 -2.0259 -1.7269 -2.1696
 9159SOL     OW28375   4.958   3.049   3.497 -0.0491  0.5549 -0.0202
 9159SOL    HW128376   5.046   3.051   3.448  0.5827  2.0812  1.1085
 9159SOL    HW228377   4.969   2.996   3.581  0.2494  2.0484  0.9047
 9160SOL     OW28378   6.100   5.482   1.438  0.1539  0.4866 -0.7891
 9160SOL    HW128379   6.024   5.446   1.384 -1.6542  0.2476  1.7176
 9160SOL    HW228380   6.177   5.418   1.434 -1.6965 -2.0485  0.6873
 9161SOL     OW28381   3.964   1.609   3.527  0.0692 -0.3469 -0.3217
 9161SOL    HW128382   3.996   1.569   3.442  1.5067 -0.8845  0.4411
 9161SOL    HW228383   4.037   1.607   3.595 -0.8934  0.4973  0.7938
 9162SOL     OW28384   3.606   1.700   2.978  0.4201 -0.2528 -0.7929
 9162SOL    HW128385   3.682   1.740   3.030  1.4941 -0.2015 -2.3219
 9162SOL    HW228386   3.640   1.669   2.889 -1.5086  0.5347 -1.8646
 9163SOL     OW28387   6.348   1.607   1.511  0.4675  0.2033 -0.1750
 9163SOL    HW128388   6.312   1.695   1.540 -1.7261 -1.4086  2.5376
 9163SOL    HW228389   6.301   1.577   1.429 -1.0419  0.2627  0.6320
 9164SOL     OW28390   3.433   6.015   2.220 -0.0256 -0.1376 -0.0666
 9164SOL    HW128391   3.399   6.105   2.246  1.9824 -0.0320  2.6302
 9164SOL    HW228392   3.495   6.024   2.141 -0.1039  0.7949 -0.0302
 9165SOL     OW28393   2.151   2.437   3.045  0.3085  0.2683  0.5993
 9165SOL    HW128394   2.074   2.485   3.002  0.5287 -0.5373 -0.7513
 9165SOL    HW228395   2.119   2.393   3.129 -0.3338  1.1998  0.8626
 9166SOL     OW28396   6.171   3.744   5.996 -0.3444 -0.4376  0.3807
 9166SOL    HW128397   6.148   3.761   6.092 -2.2346 -2.4370  0.3639
 9166SOL    HW228398   6.215   3.825   5.957 -1.3443  1.1663  2.3863
 9167SOL     OW28399   2.896   0.143   2.378 -0.7962  0.2427  0.0750
 9167SOL    HW128400   2.985   0.129   2.421  0.1744 -0.2693 -1.9916
 9167SOL    HW228401   2.884   0.240   2.357  0.5503  0.0053 -2.1154
 9168SOL     OW28402   2.972   5.032   0.054 -0.5829  0.3649  0.0595
 9168SOL    HW128403   3.068   5.010   0.038 -0.5577  0.7900 -0.4052
 9168SOL    HW228404   2.915   4.985  -0.013 -1.0666 -2.8091  2.4890
 9169SOL     OW28405   6.208   2.856   0.429  0.0146  0.2335  0.4765
 9169SOL    HW128406   6.112   2.878   0.444 -0.0471  0.5540 -0.3226
 9169SOL    HW228407   6.263   2.940   0.431  0.1585  0.1501  0.1062
 9170SOL     OW28408   2.170   1.238   6.748 -0.1139 -0.0199  0.2057
 9170SOL    HW128409   2.178   1.191   6.837 -1.8005  1.9034  1.4634
 9170SOL    HW228410   2.073   1.244   6.723  0.1531  1.5848 -0.5389
 9171SOL     OW28411   3.242   0.966   2.638  0.1628  0.5487  0.2721
 9171SOL    HW128412   3.282   0.979   2.729  1.8181 -0.4231 -0.2655
 9171SOL    HW228413   3.148   0.999   2.637  0.5410  1.7628  1.9721
 9172SOL     OW28414   5.243   4.284   3.143  0.7266  0.4106  0.1373
 9172SOL    HW128415   5.152   4.315   3.168  0.8948  0.8697  0.1924
 9172SOL    HW228416   5.306   4.299   3.219  0.8720  0.1926  0.0617
 9173SOL     OW28417   3.206   6.757   1.607 -0.2516 -0.7409 -0.5229
 9173SOL    HW128418   3.185   6.661   1.588  1.0387 -0.9312 -1.0509
 9173SOL    HW228419   3.304   6.767   1.624 -0.5471  0.3024  0.6960
 9174SOL     OW28420   3.116   1.296   4.616 -0.4559 -0.2711 -0.1603
 9174SOL    HW128421   3.099   1.301   4.714  0.6157 -0.2647  0.0358
 9174SOL    HW228422   3.104   1.386   4.575  3.1717  0.7693  0.7004
 9175SOL     OW28423   3.119   6.434   1.031  0.2344  0.0963  0.2463
 9175SOL    HW128424   3.176   6.485   1.095 -0.8851  0.9396  0.5858
 9175SOL    HW228425   3.121   6.478   0.941  1.5377 -0.8999 -0.2530
 9176SOL     OW28426   2.078   2.039   1.924  0.7642  0.3053  0.0159
 9176SOL    HW128427   2.172   2.008   1.939  0.6403 -0.9485 -1.4925
 9176SOL    HW228428   2.015   1.968   1.954  0.4692 -1.1032 -3.4988
 9177SOL     OW28429   4.628   6.976   6.366 -0.4755  0.0546  0.1106
 9177SOL    HW128430   4.582   6.910   6.426 -0.7662 -0.6490 -0.8705
 9177SOL    HW228431   4.646   6.934   6.277 -0.4177  1.2163 -0.4409
 9178SOL     OW28432   5.729   3.713   1.647 -0.1925  0.1275 -0.2134
 9178SOL    HW128433   5.708   3.800   1.692 -0.2800  0.3046 -0.5961
 9178SOL    HW228434   5.645   3.659   1.639 -0.5952  0.9463 -1.9824
 9179SOL     OW28435   2.945   5.903   6.023  0.1335 -0.2609  0.3767
 9179SOL    HW128436   2.966   5.958   6.104  0.8405 -1.1883  0.8428
 9179SOL    HW228437   2.920   5.963   5.947 -0.8362  0.6112  1.3588
 9180SOL     OW28438   4.013   3.184   6.345  0.3110  1.0051  0.1127
 9180SOL    HW128439   4.111   3.204   6.333  0.3517  1.1996  0.6956
 9180SOL    HW228440   3.983   3.222   6.432  0.9204 -3.2805  2.4874
 9181SOL     OW28441   6.263   1.675   0.797  0.3834 -0.1800 -0.4727
 9181SOL    HW128442   6.247   1.771   0.775  2.8242  0.2452 -0.6632
 9181SOL    HW228443   6.271   1.664   0.896  1.4000  0.0676 -0.5192
 9182SOL     OW28444   3.106   6.102   5.837 -0.0944 -0.2804 -0.0707
 9182SOL    HW128445   3.136   6.196   5.856 -0.5071 -0.2963  0.7212
 9182SOL    HW228446   3.181   6.039   5.855 -0.1894 -0.2059  0.6302
 9183SOL     OW28447   0.423   5.374   5.662 -0.4721 -0.1289  0.0703
 9183SOL    HW128448   0.475   5.459   5.670 -0.3144 -0.3615  2.0467
 9183SOL    HW228449   0.332   5.394   5.626 -1.0849  1.2074  2.1404
 9184SOL     OW28450   1.321   5.533   4.547  0.1017 -1.2615  0.1141
 9184SOL    HW128451   1.270   5.495   4.470  0.3597 -0.4477 -0.4760
 9184SOL    HW228452   1.283   5.622   4.572  0.7933 -0.9483  0.0961
 9185SOL     OW28453   2.778   2.447   0.019 -0.7766 -0.1738  0.1470
 9185SOL    HW128454   2.718   2.472  -0.057 -1.0672 -2.9744 -0.6407
 9185SOL    HW228455   2.724   2.399   0.089 -0.0308  0.1461  0.9649
 9186SOL     OW28456   1.841   2.586   5.684 -0.4067 -0.1618 -0.2090
 9186SOL    HW128457   1.938   2.601   5.702 -0.4051 -0.1733 -0.2082
 9186SOL    HW228458   1.793   2.570   5.770 -0.5753  0.7887 -0.1202
 9187SOL     OW28459   0.228   6.145   3.794 -0.0450  0.2679 -0.6543
 9187SOL    HW128460   0.182   6.213   3.851 -0.2986 -0.8957  0.5748
 9187SOL    HW228461   0.292   6.191   3.733 -1.1892  1.7194 -0.8183
 9188SOL     OW28462   6.178   3.354   5.409  0.2497 -0.5496  0.3040
 9188SOL    HW128463   6.084   3.324   5.427  0.3381 -0.8713  0.2432
 9188SOL    HW228464   6.178   3.419   5.333 -0.0259  0.1746  0.9096
 9189SOL     OW28465   3.807   5.173   2.683 -0.3898 -0.5321 -0.4086
 9189SOL    HW128466   3.821   5.233   2.762 -0.7890 -2.1962  0.9794
 9189SOL    HW228467   3.775   5.228   2.606 -1.9171  0.8921  1.1410
 9190SOL     OW28468   5.643   3.168   6.139 -0.3247  0.2181 -0.1820
 9190SOL    HW128469   5.743   3.158   6.135 -0.3108 -0.7444  1.4923
 9190SOL    HW228470   5.619   3.238   6.206 -0.7748 -0.4615  0.3873
 9191SOL     OW28471   2.377   0.263   0.173  0.0900  0.1820  0.2930
 9191SOL    HW128472   2.364   0.285   0.269  0.9715 -1.5790  0.8545
 9191SOL    HW228473   2.475   0.258   0.152 -0.0465  2.1008 -1.1114
 9192SOL     OW28474   3.647   0.890   3.848  0.2679 -0.2039  0.0302
 9192SOL    HW128475   3.559   0.878   3.801  1.1490 -0.8430 -1.5119
 9192SOL    HW228476   3.685   0.979   3.825 -0.1536  0.2650  1.0620
 9193SOL     OW28477   3.264   3.577   2.127  0.2687 -0.0681 -0.0545
 9193SOL    HW128478   3.244   3.638   2.051 -0.8910  1.0736  1.1279
 9193SOL    HW228479   3.182   3.565   2.183  1.0204 -1.1246  0.8679
 9194SOL     OW28480   4.806   1.413   0.443 -0.7077  0.3330  0.6452
 9194SOL    HW128481   4.794   1.367   0.531  0.8096  1.2673  1.3846
 9194SOL    HW228482   4.828   1.346   0.373  0.2817 -0.2267  1.4588
 9195SOL     OW28483   0.366   6.685   3.351 -0.5241 -0.2330 -0.4066
 9195SOL    HW128484   0.280   6.638   3.370 -1.2970  1.4280  0.4477
 9195SOL    HW228485   0.442   6.633   3.390 -1.5430  0.1500  2.3429
 9196SOL     OW28486   0.327   2.208   1.871  0.4901  0.1863  0.5908
 9196SOL    HW128487   0.303   2.116   1.838 -2.2823  0.6767  1.0117
 9196SOL    HW228488   0.363   2.262   1.794  0.1226 -0.5956 -0.1557
 9197SOL     OW28489   6.449   2.823   2.597 -0.1670  0.4380  0.1862
 9197SOL    HW128490   6.436   2.724   2.592 -0.9929  0.5551 -0.1424
 9197SOL    HW228491   6.376   2.868   2.546 -0.6267  1.2604  1.5482
 9198SOL     OW28492   6.182   5.314   2.192  0.2860 -0.3217  0.3441
 9198SOL    HW128493   6.183   5.215   2.181 -4.3892 -0.4057 -1.4604
 9198SOL    HW228494   6.208   5.357   2.105 -2.0140 -0.1602 -0.3148
 9199SOL     OW28495   3.766   0.467   5.823  0.5847 -0.2884  0.0511
 9199SOL    HW128496   3.853   0.438   5.784  0.1213 -1.2623 -0.3033
 9199SOL    HW228497   3.778   0.491   5.920  1.4674  0.7798 -0.3002
 9200SOL     OW28498   4.619   1.724   4.838 -0.2892 -0.6737 -0.0854
 9200SOL    HW128499   4.710   1.687   4.854 -0.2541 -1.3979 -1.7810
 9200SOL    HW228500   4.563   1.657   4.789 -1.5604 -0.0201  0.4175
 9201SOL     OW28501   1.347   6.601   1.264 -0.3849  0.0760  0.2997
 9201SOL    HW128502   1.376   6.605   1.360 -0.9041  1.4280  0.4324
 9201SOL    HW228503   1.359   6.691   1.222 -0.8981 -0.3009 -0.6854
 9202SOL     OW28504   4.564   4.710   7.018 -0.1334  0.4925  0.5908
 9202SOL    HW128505   4.506   4.658   6.955  0.2477 -0.3733  0.9468
 9202SOL    HW228506   4.506   4.753   7.088 -0.6141  1.9005 -0.6288
 9203SOL     OW28507   0.957   0.052   6.380  0.1315  0.0430  0.2219
 9203SOL    HW128508   0.887   0.007   6.324 -0.1286  1.5461 -0.7368
 9203SOL    HW228509   0.913   0.109   6.449  0.4396 -0.4001  0.7918
 9204SOL     OW28510   4.325   0.633   1.775 -1.1416  0.3178  0.3612
 9204SOL    HW128511   4.391   0.564   1.805  0.9266  2.7595  1.8158
 9204SOL    HW228512   4.256   0.647   1.846 -0.3297  1.1499  1.0197
 9205SOL     OW28513   6.392   1.272   4.655 -0.5363  0.0628  0.1464
 9205SOL    HW128514   6.451   1.274   4.736  0.3806  0.4531 -0.5138
 9205SOL    HW228515   6.341   1.186   4.652 -0.8647  0.1908  1.3197
 9206SOL     OW28516   3.876   6.001   6.175 -0.4984  0.8133 -0.2894
 9206SOL    HW128517   3.969   6.037   6.174 -0.2714  0.2428 -0.1092
 9206SOL    HW228518   3.826   6.040   6.253 -0.2802  0.8046 -0.1453
 9207SOL     OW28519   3.464   0.908   2.215 -0.3441  0.1770 -0.1609
 9207SOL    HW128520   3.445   0.817   2.251 -1.3185  0.6400  0.5572
 9207SOL    HW228521   3.429   0.915   2.121 -1.3938  0.1731  0.2139
 9208SOL     OW28522   3.717   0.420   1.470  0.9007  0.0114  0.3303
 9208SOL    HW128523   3.748   0.342   1.416 -0.4561 -0.5341  0.3173
 9208SOL    HW228524   3.617   0.422   1.474  0.9242  1.1784  1.1698
 9209SOL     OW28525   6.711   4.418   2.443 -0.3524 -0.1874 -0.1334
 9209SOL    HW128526   6.792   4.423   2.385 -0.3138  0.2905 -0.0488
 9209SOL    HW228527   6.696   4.507   2.486 -1.2273 -0.1136 -0.5670
 9210SOL     OW28528   0.770   2.326   6.565 -0.1019 -0.0366 -0.7146
 9210SOL    HW128529   0.792   2.416   6.603 -0.2153  0.8123 -2.5227
 9210SOL    HW228530   0.851   2.288   6.520  0.1825 -1.2593  0.7716
 9211SOL     OW28531   1.265   4.186   1.864 -0.0955  0.0519  0.7124
 9211SOL    HW128532   1.272   4.263   1.799  1.1685 -0.1464  0.5763
 9211SOL    HW228533   1.345   4.187   1.924 -0.6487 -0.4906  1.4644
 9212SOL     OW28534   2.367   5.662   5.173  0.0722  0.4151 -0.5821
 9212SOL    HW128535   2.386   5.731   5.103  2.0307 -0.9234 -1.4435
 9212SOL    HW228536   2.369   5.571   5.132 -2.9675 -0.2185  0.4294
 9213SOL     OW28537   6.162   5.442   4.005 -0.0437 -0.1260  0.1723
 9213SOL    HW128538   6.256   5.459   4.031  0.1357 -0.3200 -0.3204
 9213SOL    HW228539   6.133   5.353   4.041 -1.0804  1.2466  2.9959
 9214SOL     OW28540   4.126   6.783   3.492  0.5838 -0.2158 -0.1087
 9214SOL    HW128541   4.091   6.850   3.558 -1.2764 -1.4690  0.2901
 9214SOL    HW228542   4.166   6.706   3.542  0.2361 -0.6269 -0.4556
 9215SOL     OW28543   4.369   0.019   1.131  0.0512 -0.0932  0.0024
 9215SOL    HW128544   4.396  -0.041   1.055  0.6639 -2.0237  1.6397
 9215SOL    HW228545   4.269   0.019   1.140  0.0574 -1.3072  0.2651
 9216SOL     OW28546   2.318   0.546   1.744 -0.1546 -0.1374  0.1812
 9216SOL    HW128547   2.337   0.467   1.685  0.8465  0.2394 -0.0273
 9216SOL    HW228548   2.244   0.524   1.807 -0.1548 -1.1080 -0.1461
 9217SOL     OW28549   2.396   2.937   5.783 -0.1600  0.4340  0.5359
 9217SOL    HW128550   2.482   2.908   5.741  0.1975  0.6281  1.1274
 9217SOL    HW228551   2.324   2.873   5.758 -0.0678  0.8187 -0.7870
 9218SOL     OW28552   5.660   0.220   1.501 -0.1972  0.6249 -1.0221
 9218SOL    HW128553   5.593   0.239   1.429  0.0009 -1.6123 -1.8817
 9218SOL    HW228554   5.709   0.135   1.479 -1.0733 -0.9263  2.4074
 9219SOL     OW28555   1.543   0.375   5.360  0.0548  0.3197  0.6209
 9219SOL    HW128556   1.540   0.419   5.270 -0.3687 -2.2129 -0.7112
 9219SOL    HW228557   1.454   0.383   5.404 -0.1806  0.2979  0.1546
 9220SOL     OW28558   6.781   6.279   0.380 -0.4748  0.2421 -0.1684
 9220SOL    HW128559   6.876   6.258   0.356 -0.4934  0.7710 -0.7300
 9220SOL    HW228560   6.720   6.249   0.306 -0.6698  0.6041 -0.1581
 9221SOL     OW28561   2.346   3.153   6.692  0.5193 -0.6887  0.3373
 9221SOL    HW128562   2.253   3.187   6.680  0.6167 -0.6528 -0.3164
 9221SOL    HW228563   2.409   3.229   6.704  0.7337 -0.6194 -1.1009
 9222SOL     OW28564   0.258   1.539   0.781  0.1285  0.6029 -0.1735
 9222SOL    HW128565   0.309   1.573   0.702 -1.3454  2.1764 -0.5184
 9222SOL    HW228566   0.191   1.607   0.809 -0.3563 -0.5253  1.5643
 9223SOL     OW28567   2.814   6.379   1.280  0.1050  0.0239  0.5514
 9223SOL    HW128568   2.860   6.326   1.209  0.8624 -0.4235  1.3602
 9223SOL    HW228569   2.870   6.458   1.304 -0.6407  0.7590 -0.0707
 9224SOL     OW28570   1.520   6.914   5.544 -0.0357  0.0030 -0.0886
 9224SOL    HW128571   1.576   6.995   5.526  1.5640 -1.2661 -0.9408
 9224SOL    HW228572   1.491   6.873   5.458 -0.3956 -0.6370  0.3282
 9225SOL     OW28573   0.678   4.869   3.033  0.3339 -0.6377 -0.4610
 9225SOL    HW128574   0.602   4.811   3.063  0.9422 -0.5640  1.3654
 9225SOL    HW228575   0.647   4.964   3.028  0.3390 -0.5837  0.4527
 9226SOL     OW28576   0.366   5.871   2.550 -0.1036 -0.0862  0.0380
 9226SOL    HW128577   0.344   5.857   2.453  0.9513  1.7528 -0.5256
 9226SOL    HW228578   0.449   5.926   2.557  0.0274 -0.4792  2.0118
 9227SOL     OW28579   1.238   2.255   6.829 -0.3025  0.0385  0.1658
 9227SOL    HW128580   1.259   2.252   6.927 -1.4959  1.0184  0.4851
 9227SOL    HW228581   1.323   2.253   6.777  0.3916  0.1987  1.2419
 9228SOL     OW28582   1.160   4.756   4.847 -0.3218  0.0616 -0.1243
 9228SOL    HW128583   1.117   4.760   4.937 -2.0011  1.6979 -0.9131
 9228SOL    HW228584   1.120   4.680   4.795 -1.4668  0.8368 -0.4293
 9229SOL     OW28585   0.803   3.318   3.483  0.6571 -0.0098  0.1165
 9229SOL    HW128586   0.749   3.271   3.552  1.0068  1.6746  1.6255
 9229SOL    HW228587   0.743   3.357   3.413  0.3411 -2.2192 -0.9074
 9230SOL     OW28588   3.747   0.076   1.542  0.4206 -0.5814 -0.0563
 9230SOL    HW128589   3.782   0.161   1.502  0.2746  0.0696  1.1600
 9230SOL    HW228590   3.675   0.098   1.608  1.0735 -1.5838  1.0109
 9231SOL     OW28591   2.384   6.322   3.827 -0.0661 -0.1515 -0.0021
 9231SOL    HW128592   2.364   6.394   3.760  0.2741 -1.7250 -1.8999
 9231SOL    HW228593   2.332   6.240   3.804  0.0398 -0.7383  1.7193
 9232SOL     OW28594   1.144   0.050   6.079 -0.0385 -0.1132 -0.1626
 9232SOL    HW128595   1.130  -0.015   6.004  0.1483 -1.0639  0.6038
 9232SOL    HW228596   1.162  -0.000   6.164 -1.1999  0.9025  0.7340
 9233SOL     OW28597   2.162   6.481   1.520  0.2982 -0.2560  0.5227
 9233SOL    HW128598   2.156   6.510   1.425 -3.3110 -2.1010  0.0499
 9233SOL    HW228599   2.198   6.556   1.575  0.2328  1.6931 -1.9234
 9234SOL     OW28600   4.439   0.722   3.356 -0.0332 -0.6537 -0.5719
 9234SOL    HW128601   4.512   0.721   3.289 -0.1069 -0.2396 -0.6587
 9234SOL    HW228602   4.352   0.744   3.311  0.0399  0.4133 -0.2307
 9235SOL     OW28603   2.072   3.157   6.931 -0.4310  0.1505 -0.1013
 9235SOL    HW128604   2.137   3.225   6.965  1.6037 -0.5759 -2.3214
 9235SOL    HW228605   2.043   3.182   6.838 -0.1695 -1.6311 -0.6991
 9236SOL     OW28606   1.102   5.586   0.516 -0.2703  0.3427 -0.0832
 9236SOL    HW128607   1.026   5.563   0.455 -0.7849  2.2569 -0.2204
 9236SOL    HW228608   1.187   5.590   0.463 -0.3596 -0.0978 -0.2630
 9237SOL     OW28609   2.399   2.043   6.375 -0.3831 -0.2236  0.0770
 9237SOL    HW128610   2.313   1.997   6.350  0.3968 -1.1394 -1.0576
 9237SOL    HW228611   2.435   2.004   6.459 -0.9611  0.0127  0.4384
 9238SOL     OW28612   0.770   2.162   3.440  0.1333 -0.3584 -0.2340
 9238SOL    HW128613   0.811   2.171   3.531  2.9425 -0.8564 -1.3373
 9238SOL    HW228614   0.770   2.251   3.394 -2.8819  0.2726  0.7657
 9239SOL     OW28615   0.105   6.504   1.327  0.4272  0.5423  0.4774
 9239SOL    HW128616   0.158   6.544   1.252 -0.6139  0.6562 -0.2155
 9239SOL    HW228617   0.012   6.485   1.296 -0.0605  0.6954  1.7754
 9240SOL     OW28618   2.954   5.001   1.998  0.2588 -0.1265 -0.2920
 9240SOL    HW128619   3.052   4.980   2.002 -0.0458 -1.8412 -0.8522
 9240SOL    HW228620   2.905   4.945   2.065 -0.1819  2.1390  1.4007
 9241SOL     OW28621   0.234   5.349   0.966  0.0882  0.1825 -0.2799
 9241SOL    HW128622   0.181   5.331   0.883  0.5200 -3.2936  0.0449
 9241SOL    HW228623   0.172   5.371   1.041 -0.5715  0.0751 -0.7861
 9242SOL     OW28624   0.819   4.604   1.855 -0.9973 -0.2449 -0.3807
 9242SOL    HW128625   0.805   4.648   1.944 -2.1002 -0.8580 -0.2346
 9242SOL    HW228626   0.782   4.511   1.857 -0.0204 -0.6741 -1.1390
 9243SOL     OW28627   5.192   4.034   5.655 -0.2483 -0.3558 -0.0910
 9243SOL    HW128628   5.173   3.937   5.665  2.0829 -0.7895  0.6691
 9243SOL    HW228629   5.214   4.054   5.559  1.6253 -1.0959  0.1432
 9244SOL     OW28630   2.141   3.814   4.179 -0.4371  0.0866  0.0908
 9244SOL    HW128631   2.203   3.887   4.150 -1.2391  0.1403 -1.6669
 9244SOL    HW228632   2.151   3.799   4.277  2.6579 -0.2271 -0.1583
 9245SOL     OW28633   4.377   4.694   0.826 -0.4387  0.8748  0.3948
 9245SOL    HW128634   4.416   4.618   0.774 -1.2592  0.6295  0.1261
 9245SOL    HW228635   4.370   4.669   0.922 -0.4685  0.7073  0.3492
 9246SOL     OW28636   1.291   0.581   1.175  0.2489 -0.2303 -0.6459
 9246SOL    HW128637   1.198   0.608   1.152  0.7799  1.6939 -0.7111
 9246SOL    HW228638   1.356   0.638   1.125  1.4398  1.3256  2.3596
 9247SOL     OW28639   0.093   1.637   1.518  0.3103  0.0785 -0.4595
 9247SOL    HW128640   0.165   1.589   1.568 -0.1752  1.3468  1.5763
 9247SOL    HW228641   0.105   1.736   1.529 -1.0813  0.3328 -1.0192
 9248SOL     OW28642   5.603   4.117   6.684 -0.4963 -0.3161  0.4996
 9248SOL    HW128643   5.638   4.207   6.710  1.2039  1.0350 -4.9814
 9248SOL    HW228644   5.515   4.129   6.638  0.7938 -0.9309 -2.3372
 9249SOL     OW28645   5.771   0.512   6.377  0.3663  0.3039  0.3052
 9249SOL    HW128646   5.844   0.523   6.309  0.5845  1.5543  0.7014
 9249SOL    HW228647   5.796   0.441   6.442  1.3314  0.8203  0.5229
 9250SOL     OW28648   2.939   4.741   3.352 -0.2924 -0.6708  0.8896
 9250SOL    HW128649   2.990   4.774   3.432 -1.5277  0.5058  1.2290
 9250SOL    HW228650   2.882   4.663   3.379  1.7445 -2.4548  0.3535
 9251SOL     OW28651   5.103   4.511   3.386  0.2536 -0.2005  0.5181
 9251SOL    HW128652   5.187   4.564   3.376 -0.5816  0.8174 -1.8999
 9251SOL    HW228653   5.041   4.558   3.449  2.0487 -1.8732  3.8065
 9252SOL     OW28654   5.479   4.386   2.578  0.8110 -0.2292  0.3399
 9252SOL    HW128655   5.519   4.350   2.494 -0.0313 -0.1510 -0.1065
 9252SOL    HW228656   5.536   4.460   2.613  0.6194  0.4623 -0.7555
 9253SOL     OW28657   4.092   0.581   4.947 -0.8878 -0.1311  0.1512
 9253SOL    HW128658   4.113   0.619   5.037  1.3221 -0.7567 -0.0499
 9253SOL    HW228659   4.023   0.638   4.903  2.3039  3.9798 -0.2198
 9254SOL     OW28660   4.536   5.439   1.138  0.1023  0.7059  0.2179
 9254SOL    HW128661   4.630   5.407   1.129  0.9035  0.7363  5.2694
 9254SOL    HW228662   4.475   5.361   1.145  0.1358  0.6182 -0.4488
 9255SOL     OW28663   0.845   0.233   3.695 -0.2581  0.0780 -0.1393
 9255SOL    HW128664   0.770   0.254   3.759  0.1603 -1.6240  0.9878
 9255SOL    HW228665   0.922   0.195   3.746 -0.0595 -1.7412 -1.6758
 9256SOL     OW28666   0.651   1.219   6.567 -0.2072  0.6564  0.2570
 9256SOL    HW128667   0.691   1.287   6.507  0.2261  0.0305 -0.1772
 9256SOL    HW228668   0.635   1.134   6.516  1.9605 -0.5529  1.4445
 9257SOL     OW28669   5.351   3.028   3.882 -0.0246  0.4189 -0.5559
 9257SOL    HW128670   5.360   3.096   3.955  1.0106 -0.1962 -0.0792
 9257SOL    HW228671   5.341   3.074   3.794  0.4435  1.1966 -0.2150
 9258SOL     OW28672   6.219   0.827   4.944  0.2538  0.0654 -0.4167
 9258SOL    HW128673   6.124   0.859   4.936 -0.2045 -1.5744 -2.4276
 9258SOL    HW228674   6.255   0.808   4.853  2.4975  0.4800  0.3259
 9259SOL     OW28675   6.158   2.408   3.515  0.1738  0.2272 -0.3965
 9259SOL    HW128676   6.170   2.500   3.554 -0.6866  0.3954 -0.5119
 9259SOL    HW228677   6.146   2.342   3.590 -0.8606  0.4597 -0.3424
 9260SOL     OW28678   0.563   0.403   5.348 -0.1897 -0.2161 -0.0331
 9260SOL    HW128679   0.623   0.481   5.331 -1.9705  1.7783  2.2754
 9260SOL    HW228680   0.618   0.324   5.377  1.4751  0.7607 -0.4248
 9261SOL     OW28681   1.809   1.395   0.671  0.0622  0.6063 -0.5067
 9261SOL    HW128682   1.838   1.315   0.619 -0.0139  0.5889 -0.5231
 9261SOL    HW228683   1.821   1.378   0.769  0.6533  0.8174 -0.5385
 9262SOL     OW28684   6.414   2.304   1.322  0.3834 -0.1357  0.4061
 9262SOL    HW128685   6.445   2.332   1.414  0.7452  0.5131  0.0995
 9262SOL    HW228686   6.340   2.364   1.292 -1.8323 -2.2059  1.4755
 9263SOL     OW28687   1.667   6.119   2.328  0.3722  0.1142  0.1703
 9263SOL    HW128688   1.660   6.166   2.416 -0.4035 -0.2535  0.3185
 9263SOL    HW228689   1.594   6.150   2.267  0.5204 -0.0979 -0.1198
 9264SOL     OW28690   3.937   3.156   4.475 -0.3435  0.0824 -0.0481
 9264SOL    HW128691   4.021   3.198   4.508 -0.1879 -0.5900  0.4302
 9264SOL    HW228692   3.911   3.198   4.388  0.0905  0.7913  0.1540
 9265SOL     OW28693   6.788   6.260   2.802 -0.5748 -0.0623  1.0661
 9265SOL    HW128694   6.761   6.190   2.736  1.5348  0.0303  0.0271
 9265SOL    HW228695   6.735   6.343   2.785 -0.5986 -0.2856 -0.0194
 9266SOL     OW28696   3.113   4.424   1.107 -0.4846  0.5244  0.0460
 9266SOL    HW128697   3.077   4.469   1.025  0.5120  1.4211  0.0717
 9266SOL    HW228698   3.053   4.348   1.133 -1.2531  0.7394 -1.0333
 9267SOL     OW28699   1.422   1.798   0.262  0.3080  0.9270  0.1288
 9267SOL    HW128700   1.496   1.740   0.228  1.0231  0.6075  2.1082
 9267SOL    HW228701   1.398   1.770   0.355 -2.5227  0.8415 -0.5323
 9268SOL     OW28702   3.459   2.628   0.181  0.3954  0.1212 -0.4188
 9268SOL    HW128703   3.533   2.581   0.133  1.1011  1.6889 -0.9162
 9268SOL    HW228704   3.440   2.715   0.136 -1.7371 -0.2261 -0.2624
 9269SOL     OW28705   4.669   1.448   6.077  0.1854 -0.3667  0.2091
 9269SOL    HW128706   4.705   1.362   6.112  2.4789  1.1976  1.9834
 9269SOL    HW228707   4.743   1.502   6.037 -1.0632  1.0914 -0.2675
 9270SOL     OW28708   1.202   4.416   1.688 -0.4379 -0.4385 -0.1897
 9270SOL    HW128709   1.186   4.368   1.602  0.4682  1.7373 -1.6525
 9270SOL    HW228710   1.200   4.515   1.672  1.0796  0.0247  2.0499
 9271SOL     OW28711   6.584   5.532   3.394  0.1149  0.2304 -0.0348
 9271SOL    HW128712   6.606   5.436   3.376  1.2028  0.3847  0.4169
 9271SOL    HW228713   6.580   5.582   3.308  0.2068 -0.0904 -0.2260
 9272SOL     OW28714   3.249   0.971   6.174  0.5241  0.7204  0.7025
 9272SOL    HW128715   3.224   0.888   6.224 -0.1805 -0.7746 -1.9611
 9272SOL    HW228716   3.166   1.014   6.136  0.9015  2.5728  1.8321
 9273SOL     OW28717   0.829   2.701   1.164 -1.1062  0.2124 -0.1795
 9273SOL    HW128718   0.792   2.693   1.071 -0.3540 -1.2819 -0.3940
 9273SOL    HW228719   0.916   2.751   1.161  0.1195 -1.8108 -0.7020
 9274SOL     OW28720   3.353   5.300   3.595 -0.1016 -0.5548  0.2249
 9274SOL    HW128721   3.293   5.289   3.516 -2.1463 -1.6776  1.8165
 9274SOL    HW228722   3.415   5.222   3.602  0.0540 -0.4734 -0.2321
 9275SOL     OW28723   1.098   3.125   4.430  0.1692 -0.9071  0.1675
 9275SOL    HW128724   1.133   3.067   4.504 -1.3205 -1.6517  0.3258
 9275SOL    HW228725   1.053   3.205   4.470  4.9223  2.3149 -0.0084
 9276SOL     OW28726   2.278   4.270   0.599  0.7883 -0.2289  0.0783
 9276SOL    HW128727   2.204   4.334   0.580 -0.6372 -1.7533  0.2859
 9276SOL    HW228728   2.332   4.304   0.676  1.7723  2.0460 -1.5317
 9277SOL     OW28729   1.216   5.788   4.569 -0.1327 -0.1478  0.0927
 9277SOL    HW128730   1.284   5.845   4.614  0.3664 -0.9702  0.4125
 9277SOL    HW228731   1.128   5.797   4.615  0.9333 -2.9837  3.0618
 9278SOL     OW28732   3.090   5.212   2.338  0.5122 -0.5501  0.2226
 9278SOL    HW128733   3.107   5.250   2.428 -1.6105  0.9058  0.0927
 9278SOL    HW228734   3.091   5.112   2.343  2.7150 -0.5203  1.3244
 9279SOL     OW28735   5.414   1.301   5.255  0.0556  0.2888  0.3110
 9279SOL    HW128736   5.441   1.257   5.340 -2.0871 -3.0977 -0.5685
 9279SOL    HW228737   5.359   1.382   5.275 -1.7195 -1.2981  2.2437
 9280SOL     OW28738   2.251   0.172   3.200  0.5137  0.3736 -0.2587
 9280SOL    HW128739   2.213   0.093   3.152  1.0187 -0.4822  0.7148
 9280SOL    HW228740   2.304   0.228   3.136 -1.1580  0.8328 -1.3216
 9281SOL     OW28741   2.472   3.969   6.622 -0.0678  0.4274  0.3543
 9281SOL    HW128742   2.410   3.939   6.550  0.4659 -0.5803  0.3014
 9281SOL    HW228743   2.454   3.916   6.706  0.7098  0.1322  0.3378
 9282SOL     OW28744   4.650   5.219   5.905  0.1701  0.1353 -0.5416
 9282SOL    HW128745   4.709   5.242   5.828  0.6039  1.5347  0.1621
 9282SOL    HW228746   4.699   5.238   5.991 -0.7289 -0.2285  0.0637
 9283SOL     OW28747   1.641   4.493   0.744  0.4752  0.3754  0.5802
 9283SOL    HW128748   1.658   4.476   0.841  1.6012 -1.1837  0.1444
 9283SOL    HW228749   1.657   4.590   0.724  1.4522  0.4750  1.7098
 9284SOL     OW28750   1.674   1.939   6.411  0.3456  0.1855  0.3031
 9284SOL    HW128751   1.714   1.919   6.322  1.5406  0.8908  0.6579
 9284SOL    HW228752   1.678   1.856   6.468 -0.4809 -0.2850 -0.2947
 9285SOL     OW28753   1.593   3.448   6.088 -0.5308  0.4663  0.8433
 9285SOL    HW128754   1.601   3.517   6.160 -0.4122  0.6784  0.6273
 9285SOL    HW228755   1.514   3.468   6.030  1.1084  2.0810 -0.9733
 9286SOL     OW28756   0.241   1.729   5.594 -0.4117  0.0631  0.2141
 9286SOL    HW128757   0.146   1.730   5.623 -0.9698 -1.5920 -1.3593
 9286SOL    HW228758   0.296   1.676   5.659 -0.7654  0.1328  0.5691
 9287SOL     OW28759   4.472   1.969   6.612 -0.7574 -0.1619 -0.1848
 9287SOL    HW128760   4.428   1.969   6.702  0.7940  2.7311  0.6953
 9287SOL    HW228761   4.553   1.911   6.615 -1.0477 -0.5597  0.0929
 9288SOL     OW28762   0.286   1.192   0.731  0.0810 -0.3920 -0.4746
 9288SOL    HW128763   0.273   1.234   0.641 -0.4780 -2.1809 -1.2683
 9288SOL    HW228764   0.200   1.153   0.763  0.4735 -0.5249  0.4666
 9289SOL     OW28765   3.957   5.664   3.818  0.9915 -0.2943  0.0095
 9289SOL    HW128766   3.980   5.591   3.753  2.8339 -0.4267  0.7350
 9289SOL    HW228767   3.987   5.752   3.781  1.4159 -0.2851  0.3641
 9290SOL     OW28768   0.689   0.760   4.278 -0.2447  0.8497 -0.1022
 9290SOL    HW128769   0.732   0.780   4.190 -0.5648  1.7883 -0.0516
 9290SOL    HW228770   0.673   0.661   4.285 -1.5736  0.9067 -1.7308
 9291SOL     OW28771   4.723   1.949   2.918 -0.3506 -0.0514 -0.2317
 9291SOL    HW128772   4.624   1.948   2.935 -0.3277  0.1090 -0.0879
 9291SOL    HW228773   4.758   2.042   2.926 -0.1615 -0.1297 -0.1341
 9292SOL     OW28774   4.670   4.918   4.971  0.3380 -0.3151 -0.5181
 9292SOL    HW128775   4.644   5.000   4.920 -1.4113 -0.1281  0.5837
 9292SOL    HW228776   4.751   4.877   4.929  0.9290  1.6550 -1.4195
 9293SOL     OW28777   0.518   6.850   2.397 -0.4632  0.0797 -0.2637
 9293SOL    HW128778   0.456   6.772   2.405  0.9991 -0.9836  1.9355
 9293SOL    HW228779   0.572   6.841   2.314 -1.1623 -0.5952 -0.6612
 9294SOL     OW28780   7.002   0.219   5.564 -0.2630  0.0406  0.0441
 9294SOL    HW128781   6.907   0.235   5.592 -0.1731  0.7930 -0.0627
 9294SOL    HW228782   7.003   0.171   5.476 -0.5569  0.9235 -0.4550
 9295SOL     OW28783   0.120   2.981   5.341 -0.1103 -0.0315  0.2947
 9295SOL    HW128784   0.164   2.961   5.253  0.8134 -0.0577  0.7463
 9295SOL    HW228785   0.045   3.045   5.327 -1.6306 -1.9366 -0.8683
 9296SOL     OW28786   4.428   2.067   7.000 -0.3014 -0.4621 -0.5160
 9296SOL    HW128787   4.366   2.146   7.003  0.4237  0.1124 -0.5442
 9296SOL    HW228788   4.392   1.995   7.060  0.5840  1.0556  1.9958
 9297SOL     OW28789   4.929   4.876   5.870 -0.4021  0.3646  0.1521
 9297SOL    HW128790   4.969   4.896   5.959 -0.6092 -1.1700  0.6296
 9297SOL    HW228791   4.848   4.819   5.882 -2.5574  3.0390 -0.8181
 9298SOL     OW28792   6.789   5.309   5.016 -0.3712 -0.3887 -0.1600
 9298SOL    HW128793   6.701   5.355   5.009 -0.0023  0.3602  0.0911
 9298SOL    HW228794   6.791   5.232   4.951 -1.8550 -1.5129  1.0388
 9299SOL     OW28795   5.053   0.171   2.852  0.3002  0.4932  0.1800
 9299SOL    HW128796   5.083   0.101   2.787  0.0164  0.3732  0.1750
 9299SOL    HW228797   5.047   0.132   2.943  0.2506  0.5386  0.1966
 9300SOL     OW28798   2.172   2.597   5.409 -0.3189 -0.8061 -0.0352
 9300SOL    HW128799   2.252   2.568   5.462 -0.1518 -0.3490 -0.0336
 9300SOL    HW228800   2.199   2.670   5.346 -1.5324  2.4134  2.8294
 9301SOL     OW28801   3.746   6.109   0.618  0.4457  0.3047  0.5239
 9301SOL    HW128802   3.797   6.029   0.586 -0.6882  0.0484 -0.7270
 9301SOL    HW228803   3.684   6.080   0.691  1.0891  0.3539  1.1043
 9302SOL     OW28804   6.031   6.733   6.873 -0.2100  0.0871 -0.3547
 9302SOL    HW128805   5.956   6.797   6.856  0.9274  1.4737 -0.4121
 9302SOL    HW228806   6.059   6.739   6.969  0.6125  0.4997 -0.6124
 9303SOL     OW28807   6.500   4.900   4.493 -0.3365  0.6233 -0.2510
 9303SOL    HW128808   6.503   4.998   4.514  1.1479  0.2688  1.4325
 9303SOL    HW228809   6.437   4.854   4.555 -0.8861  0.4681 -0.9133
 9304SOL     OW28810   2.040   4.296   3.751 -0.2392 -0.0379 -0.7231
 9304SOL    HW128811   2.096   4.218   3.726 -2.4314 -2.1613  0.5769
 9304SOL    HW228812   2.002   4.283   3.843 -0.3955  2.7699 -0.2848
 9305SOL     OW28813   3.642   5.410   3.100 -0.6719  0.2286  0.0463
 9305SOL    HW128814   3.632   5.477   3.027 -0.8801  0.3263  0.1608
 9305SOL    HW228815   3.639   5.457   3.189 -2.8139 -0.1019  0.2185
 9306SOL     OW28816   1.780   6.437   0.158  0.0439  0.7395  0.2215
 9306SOL    HW128817   1.716   6.501   0.200 -0.0074  1.6485 -1.1628
 9306SOL    HW228818   1.820   6.479   0.077  2.1378  0.0493  0.8375
 9307SOL     OW28819   4.130   3.614   4.435 -0.3671 -0.3481 -0.1725
 9307SOL    HW128820   4.155   3.592   4.530  1.2607 -0.2895 -0.5647
 9307SOL    HW228821   4.114   3.713   4.427  0.3047 -0.2330 -0.1281
 9308SOL     OW28822   0.364   2.323   3.017 -0.4455 -0.1303 -0.4970
 9308SOL    HW128823   0.414   2.338   3.103 -2.6114  1.6874  0.5354
 9308SOL    HW228824   0.408   2.249   2.966  2.7970  0.8109  0.6641
 9309SOL     OW28825   6.266   3.542   0.219  0.8578 -0.1411 -0.2491
 9309SOL    HW128826   6.305   3.506   0.304  0.7466 -1.2342 -0.6356
 9309SOL    HW228827   6.283   3.640   0.213  0.0011  0.1488  1.4973
 9310SOL     OW28828   3.549   0.794   0.305  0.0460  0.2603 -0.0259
 9310SOL    HW128829   3.566   0.754   0.395 -1.1286 -0.9294 -0.2916
 9310SOL    HW228830   3.525   0.890   0.315 -3.7641 -0.6656  1.4034
 9311SOL     OW28831   2.215   3.388   5.746 -0.0315  0.1831 -1.1735
 9311SOL    HW128832   2.261   3.317   5.693 -0.5907  0.0733 -1.5224
 9311SOL    HW228833   2.214   3.473   5.692  3.5132  1.4748  0.4658
 9312SOL     OW28834   3.895   6.698   1.414  0.8254 -0.4311 -0.2719
 9312SOL    HW128835   3.910   6.747   1.500  1.8664  1.8675 -1.6833
 9312SOL    HW228836   3.829   6.625   1.429  0.4692  0.3254  2.3268
 9313SOL     OW28837   0.057   4.269   4.684 -0.3210 -0.1765  0.1963
 9313SOL    HW128838   0.034   4.354   4.731  1.2271  0.9536 -0.9980
 9313SOL    HW228839   0.048   4.281   4.586  2.2786 -0.5579 -0.1576
 9314SOL     OW28840   3.745   2.558   1.023 -0.1727 -0.5904  0.3208
 9314SOL    HW128841   3.769   2.466   1.055  1.1964  0.1353  1.4871
 9314SOL    HW228842   3.778   2.626   1.088  0.9721  0.8793 -1.6858
 9315SOL     OW28843   4.689   4.752   5.916  0.1878 -0.3510  0.2139
 9315SOL    HW128844   4.632   4.821   5.961 -0.8354 -0.7975 -0.3715
 9315SOL    HW228845   4.677   4.664   5.961  0.6201 -0.3998  0.2426
 9316SOL     OW28846   1.274   5.222   0.872  0.4299  0.8384  0.3232
 9316SOL    HW128847   1.256   5.130   0.909  0.5505  0.9846  0.7573
 9316SOL    HW228848   1.372   5.233   0.859  0.5533  1.3463  1.4873
 9317SOL     OW28849   3.051   4.262   6.345  0.3433  0.4663 -0.0361
 9317SOL    HW128850   3.053   4.253   6.445  0.3788  0.2995 -0.0520
 9317SOL    HW228851   3.040   4.358   6.321 -2.5081  0.2719  0.1538
 9318SOL     OW28852   5.544   4.002   4.377 -0.3088 -0.5799 -0.5269
 9318SOL    HW128853   5.501   3.938   4.314  1.3628 -2.2330 -0.0663
 9318SOL    HW228854   5.643   3.992   4.374 -0.0699  0.9861  0.6225
 9319SOL     OW28855   5.301   0.930   5.557 -0.1761  0.1652 -0.8688
 9319SOL    HW128856   5.338   0.916   5.649  0.6186 -0.0961 -1.2206
 9319SOL    HW228857   5.233   1.003   5.559  0.4067  0.6959 -0.2156
 9320SOL     OW28858   2.476   2.730   1.040  0.1857 -0.5150 -0.6307
 9320SOL    HW128859   2.533   2.708   0.961 -0.1023 -0.4930 -0.8474
 9320SOL    HW228860   2.534   2.744   1.120  0.6271  1.2069 -1.2151
 9321SOL     OW28861   1.444   5.058   0.713  0.2515 -0.3295  0.3070
 9321SOL    HW128862   1.359   5.055   0.661  0.7655  1.3220 -0.6888
 9321SOL    HW228863   1.515   5.007   0.665 -0.0065 -1.2260  0.8543
 9322SOL     OW28864   1.714   3.585   0.676  0.1517 -0.8720 -0.4441
 9322SOL    HW128865   1.782   3.542   0.735 -0.0029 -0.2615  0.2012
 9322SOL    HW228866   1.761   3.634   0.601  0.5046  0.3155  0.5107
 9323SOL     OW28867   4.766   0.522   4.335  0.2850 -0.3849 -0.5453
 9323SOL    HW128868   4.755   0.621   4.348 -0.6610 -0.4990 -0.4080
 9323SOL    HW228869   4.804   0.505   4.245  1.4919  0.1510 -0.1605
 9324SOL     OW28870   5.162   5.897   1.972  0.2743  0.1901  0.0873
 9324SOL    HW128871   5.247   5.846   1.990 -0.0113 -0.8108 -1.2478
 9324SOL    HW228872   5.179   5.966   1.902  0.1069  0.3704  0.2232
 9325SOL     OW28873   2.404   1.753   1.358 -0.1757  0.1015 -0.1388
 9325SOL    HW128874   2.487   1.766   1.303 -0.6784  1.2325 -0.6712
 9325SOL    HW228875   2.333   1.710   1.302  1.0054 -4.0219  1.2115
 9326SOL     OW28876   2.314   1.154   2.224  0.8816 -0.6193  0.2030
 9326SOL    HW128877   2.357   1.142   2.314 -0.2610  0.1479  0.8738
 9326SOL    HW228878   2.259   1.074   2.202  0.8462 -0.6402  0.3677
 9327SOL     OW28879   6.496   0.653   5.970 -0.2319 -0.6579 -0.0638
 9327SOL    HW128880   6.565   0.721   5.946 -0.3750 -0.2588  0.6195
 9327SOL    HW228881   6.410   0.699   5.992 -0.8500 -1.1686 -1.2823
 9328SOL     OW28882   6.283   1.273   1.555 -0.1402 -0.2252 -0.2888
 9328SOL    HW128883   6.202   1.327   1.577 -1.3629 -1.7800 -0.7017
 9328SOL    HW228884   6.270   1.229   1.466  1.4191 -0.0838 -0.6206
 9329SOL     OW28885   0.640   1.460   5.971 -0.6509 -0.6822 -0.0806
 9329SOL    HW128886   0.693   1.543   5.989 -0.6771 -0.8581  0.8789
 9329SOL    HW228887   0.639   1.402   6.053 -0.3980 -1.7691 -0.8204
 9330SOL     OW28888   3.267   6.203   0.030 -0.1433  0.3413  0.5001
 9330SOL    HW128889   3.279   6.232  -0.065 -1.6063 -0.5403  0.0019
 9330SOL    HW228890   3.250   6.282   0.088  1.0248  0.9141  0.0885
 9331SOL     OW28891   3.497   3.479   5.999 -0.0308  0.4704  1.1698
 9331SOL    HW128892   3.426   3.533   5.954  0.8536  0.8575  0.2204
 9331SOL    HW228893   3.552   3.537   6.059 -0.4010  0.1968  1.7937
 9332SOL     OW28894   5.265   0.894   3.643  0.2746 -0.4636 -0.8022
 9332SOL    HW128895   5.177   0.928   3.611  0.4051 -0.5339 -1.2426
 9332SOL    HW228896   5.253   0.850   3.732 -0.3695 -1.5432 -1.3927
 9333SOL     OW28897   2.225   2.479   4.573 -0.1385  0.6409  0.0035
 9333SOL    HW128898   2.161   2.466   4.497 -1.7142  0.2817  1.3449
 9333SOL    HW228899   2.199   2.559   4.626  0.1751  0.1483  0.9202
 9334SOL     OW28900   4.307   5.307   4.560  0.6442  0.2991 -0.2686
 9334SOL    HW128901   4.239   5.380   4.560 -0.5648 -0.7374  1.7032
 9334SOL    HW228902   4.270   5.226   4.605  3.1338 -0.3928  0.7350
 9335SOL     OW28903   3.559   6.013   5.029  0.0389  0.2084 -0.1219
 9335SOL    HW128904   3.622   5.968   4.966 -1.6404 -2.8677  0.1938
 9335SOL    HW228905   3.475   6.038   4.981 -1.3462 -2.3678  0.7812
 9336SOL     OW28906   2.573   2.402   2.359  0.0821  0.6141 -0.6346
 9336SOL    HW128907   2.560   2.452   2.273  1.5303  1.5801 -0.3433
 9336SOL    HW228908   2.600   2.308   2.339  0.6499  0.8959 -1.2642
 9337SOL     OW28909   1.544   1.063   5.861 -0.9549  0.4625 -0.2119
 9337SOL    HW128910   1.571   1.016   5.777 -0.3964  0.2856  0.0617
 9337SOL    HW228911   1.517   0.996   5.930  0.4806  0.4778  0.4048
 9338SOL     OW28912   6.761   5.956   5.644  0.1297  0.5439 -0.4534
 9338SOL    HW128913   6.699   6.032   5.620 -2.2441 -1.7962 -2.3767
 9338SOL    HW228914   6.724   5.871   5.607  2.8570 -1.5571  1.3146
 9339SOL     OW28915   5.269   5.771   4.945  0.3460 -0.0911  0.4318
 9339SOL    HW128916   5.291   5.841   4.877 -0.2452  0.8434  1.1787
 9339SOL    HW228917   5.170   5.762   4.953  0.4139 -0.4333  0.9381
 9340SOL     OW28918   5.935   6.650   4.411  0.7761  0.5021  0.1831
 9340SOL    HW128919   5.917   6.737   4.366 -1.7322  0.4339  0.8983
 9340SOL    HW228920   5.978   6.587   4.347  0.1643  1.4238 -1.1647
 9341SOL     OW28921   4.923   2.079   0.823  0.2281 -0.8575 -0.2989
 9341SOL    HW128922   4.984   2.076   0.744 -0.9218 -1.0799 -1.2108
 9341SOL    HW228923   4.853   2.007   0.814 -1.4943  0.7473 -0.4052
 9342SOL     OW28924   1.235   6.292   5.399 -0.1289  0.1919 -0.1072
 9342SOL    HW128925   1.295   6.370   5.415  2.0720 -1.2898 -0.5939
 9342SOL    HW228926   1.234   6.234   5.480  1.3933 -1.1966 -1.0171
 9343SOL     OW28927   4.187   2.304   3.946  0.0542  0.7769  0.1822
 9343SOL    HW128928   4.200   2.218   3.996 -0.9183 -0.5044 -1.6985
 9343SOL    HW228929   4.091   2.316   3.924  0.0850  2.6623  0.8624
 9344SOL     OW28930   3.275   5.660   5.793 -0.1788  0.2260  0.0694
 9344SOL    HW128931   3.188   5.650   5.744  0.2307 -1.6499 -0.3277
 9344SOL    HW228932   3.260   5.717   5.875 -1.8949 -0.4646  0.2811
 9345SOL     OW28933   1.856   1.121   5.895 -0.2894 -0.3151  0.0771
 9345SOL    HW128934   1.828   1.059   5.822 -0.2210 -0.4686  0.1831
 9345SOL    HW228935   1.776   1.152   5.945 -0.3125 -0.3997  0.0918
 9346SOL     OW28936   6.030   3.276   2.208 -0.1311 -0.5621  0.3116
 9346SOL    HW128937   6.121   3.259   2.168 -0.4614  1.9105 -1.7358
 9346SOL    HW228938   5.968   3.203   2.179 -0.0548  0.5044 -2.9601
 9347SOL     OW28939   2.792   0.792   4.973 -0.2845 -0.3394  0.1718
 9347SOL    HW128940   2.699   0.815   5.003  0.1184  0.2211  1.0096
 9347SOL    HW228941   2.790   0.767   4.877 -0.9520  2.0353 -0.5053
 9348SOL     OW28942   5.106   6.665   5.607 -0.6805  0.6866 -0.6993
 9348SOL    HW128943   5.193   6.629   5.642 -1.0278  2.9144  2.9961
 9348SOL    HW228944   5.032   6.603   5.633 -0.3960 -0.7344 -3.0317
 9349SOL     OW28945   6.492   0.921   2.433  0.3870 -0.1601 -0.4761
 9349SOL    HW128946   6.525   0.988   2.367  0.2758  0.0825 -0.2855
 9349SOL    HW228947   6.421   0.961   2.490  1.4251  0.0800  0.7074
 9350SOL     OW28948   0.249   5.781   1.943  0.1199 -0.1424  0.2067
 9350SOL    HW128949   0.274   5.853   1.879 -0.3260  0.7900  1.0532
 9350SOL    HW228950   0.320   5.772   2.013  0.4174 -0.8892 -0.1713
 9351SOL     OW28951   2.839   5.259   6.435  0.1249 -0.0383  0.2884
 9351SOL    HW128952   2.815   5.249   6.532  2.2520  1.6866  1.0766
 9351SOL    HW228953   2.844   5.357   6.412 -1.0995 -0.4062 -1.8179
 9352SOL     OW28954   6.619   4.794   6.966 -0.3442  0.4232 -0.3357
 9352SOL    HW128955   6.670   4.868   7.011 -1.0257 -0.3166  1.7958
 9352SOL    HW228956   6.526   4.790   7.003 -1.1573  0.0965 -2.2862
 9353SOL     OW28957   6.300   0.576   4.166  0.2269  0.1700  0.6185
 9353SOL    HW128958   6.351   0.490   4.171 -0.6868 -0.3532  1.1729
 9353SOL    HW228959   6.228   0.569   4.098 -1.4976 -0.4467  2.4019
 9354SOL     OW28960   4.189   6.556   6.900  0.4661 -0.0289 -0.5766
 9354SOL    HW128961   4.188   6.566   6.800  0.5811 -0.7686 -0.6543
 9354SOL    HW228962   4.283   6.548   6.932  0.3882 -0.7822 -0.5161
 9355SOL     OW28963   4.141   6.228   0.031 -0.8304 -0.3580 -0.3690
 9355SOL    HW128964   4.109   6.161   0.098 -2.9160  1.1513  0.2327
 9355SOL    HW228965   4.063   6.260  -0.024  0.5131 -0.1297 -2.2344
 9356SOL     OW28966   6.724   1.682   2.663 -0.1075 -0.8107 -0.2650
 9356SOL    HW128967   6.822   1.690   2.645  0.0912 -2.5871 -0.1274
 9356SOL    HW228968   6.673   1.731   2.592  0.8713  0.6239 -0.0111
 9357SOL     OW28969   1.014   6.192   5.121 -0.3581  0.3080 -0.4393
 9357SOL    HW128970   0.965   6.269   5.082 -0.6142  1.0283  1.1991
 9357SOL    HW228971   0.976   6.106   5.085 -1.0961  0.9053 -1.1261
 9358SOL     OW28972   3.789   0.384   2.963 -0.8439  0.0997  0.3208
 9358SOL    HW128973   3.796   0.287   2.985 -2.1558  0.0169  0.4277
 9358SOL    HW228974   3.880   0.426   2.969 -0.1456 -1.2389 -0.3591
 9359SOL     OW28975   3.379   0.897   5.711  0.6902  0.2125  0.6219
 9359SOL    HW128976   3.341   0.832   5.778  1.1362 -0.9684 -0.2268
 9359SOL    HW228977   3.462   0.939   5.749  0.6211 -0.0153  1.0349
 9360SOL     OW28978   0.205   0.971   6.840  0.6662 -0.0259  0.2923
 9360SOL    HW128979   0.261   0.926   6.910 -0.1410  0.4621  1.2702
 9360SOL    HW228980   0.128   1.018   6.884  0.1866  0.3497 -0.9232
 9361SOL     OW28981   2.667   1.350   0.338  0.0752  0.2973 -0.4460
 9361SOL    HW128982   2.670   1.350   0.238 -2.0006 -0.5462 -0.5659
 9361SOL    HW228983   2.582   1.307   0.369  1.1737 -0.4987  1.7168
 9362SOL     OW28984   6.663   6.482   2.768  0.3079 -0.0673  0.3281
 9362SOL    HW128985   6.682   6.564   2.822 -2.2047  1.1748 -0.5248
 9362SOL    HW228986   6.677   6.503   2.671 -1.7262 -0.1234 -0.0273
 9363SOL     OW28987   4.097   2.849   0.508 -0.2147  0.3270  0.6740
 9363SOL    HW128988   4.068   2.941   0.536 -2.7026  0.0378 -0.6342
 9363SOL    HW228989   4.024   2.784   0.528  0.6191 -0.9775 -0.4139
 9364SOL     OW28990   4.383   0.487   4.479 -0.4150 -0.3942  0.0945
 9364SOL    HW128991   4.309   0.508   4.415 -1.7633 -1.2035  1.3192
 9364SOL    HW228992   4.388   0.558   4.549  2.5323  1.7187 -2.0171
 9365SOL     OW28993   5.560   2.056   1.165 -0.1941  0.2181  0.3848
 9365SOL    HW128994   5.658   2.074   1.170  0.1526 -1.5108  0.2917
 9365SOL    HW228995   5.512   2.114   1.232  1.0172  0.1614  1.3233
 9366SOL     OW28996   4.343   1.556   0.544  0.0953  0.0196 -0.0463
 9366SOL    HW128997   4.402   1.491   0.497  1.8927  3.3579 -2.8618
 9366SOL    HW228998   4.394   1.599   0.618 -0.2254 -0.0009  0.1874
 9367SOL     OW28999   5.160   5.728   4.595  0.1912  0.3131 -0.0070
 9367SOL    HW129000   5.173   5.801   4.662  0.1654 -0.2613  0.6341
 9367SOL    HW229001   5.220   5.744   4.517 -0.0994  1.2274 -0.0572
 9368SOL     OW29002   5.915   5.694   1.139 -0.2066 -0.4009 -0.3042
 9368SOL    HW129003   5.967   5.778   1.123  0.9566 -0.8518  0.8924
 9368SOL    HW229004   5.823   5.704   1.102  0.0990  1.1710 -0.7200
 9369SOL     OW29005   1.810   6.896   2.831 -0.3698 -0.1309  0.7301
 9369SOL    HW129006   1.828   6.797   2.827 -0.1339 -0.1433  1.8673
 9369SOL    HW229007   1.869   6.943   2.765  1.2280 -0.5254  1.8285
 9370SOL     OW29008   6.789   4.414   0.179  0.5149 -0.3004 -0.1243
 9370SOL    HW129009   6.768   4.427   0.082 -1.1596 -1.6251  0.0244
 9370SOL    HW229010   6.846   4.332   0.190  1.3621  0.2837 -0.0288
 9371SOL     OW29011   4.459   2.778   5.225 -0.1488 -0.0047 -0.5092
 9371SOL    HW129012   4.555   2.790   5.251  0.4365  0.9194 -2.8633
 9371SOL    HW229013   4.452   2.713   5.149 -1.3373  0.2623 -0.6599
 9372SOL     OW29014   0.202   6.987   6.911  0.2262  0.8292 -0.9696
 9372SOL    HW129015   0.284   7.033   6.878  1.3425 -0.1924  0.2383
 9372SOL    HW229016   0.209   6.975   7.010  0.3263 -2.4487 -1.2766
 9373SOL     OW29017   6.715   6.886   3.555  0.9835 -0.3873 -0.0483
 9373SOL    HW129018   6.691   6.789   3.565 -0.1723 -0.1865 -0.6857
 9373SOL    HW229019   6.703   6.913   3.459  1.1312  0.4338  0.1598
 9374SOL     OW29020   2.220   1.997   6.667 -1.1503  0.2825 -0.2063
 9374SOL    HW129021   2.184   1.926   6.728 -0.8112  0.0552 -0.2672
 9374SOL    HW229022   2.318   1.983   6.655 -0.8543  1.4445  0.7115
 9375SOL     OW29023   2.727   5.072   6.273 -0.6533  0.4498  0.3532
 9375SOL    HW129024   2.744   5.086   6.176 -0.8986  2.0259  0.5133
 9375SOL    HW229025   2.780   5.139   6.326 -0.6994 -0.2424  1.2960
 9376SOL     OW29026   6.817   6.651   1.975 -0.4588  0.2683  0.1752
 9376SOL    HW129027   6.792   6.737   2.018  1.8936 -0.4040  3.2166
 9376SOL    HW229028   6.899   6.664   1.920 -0.3997  0.0637  0.2146
 9377SOL     OW29029   5.917   4.668   5.981  0.6259  0.4660 -0.1648
 9377SOL    HW129030   5.865   4.593   5.939  0.1988 -0.0089  1.1788
 9377SOL    HW229031   6.013   4.642   5.988  0.4226 -0.0991  0.5989
 9378SOL     OW29032   2.135   4.007   2.370  0.4226  0.0855  0.3101
 9378SOL    HW129033   2.058   4.070   2.370 -0.0159 -0.4380 -0.4637
 9378SOL    HW229034   2.197   4.030   2.445 -0.2098  0.8405  0.6104
 9379SOL     OW29035   6.965   4.118   3.226 -0.0126 -0.1998  0.2090
 9379SOL    HW129036   7.050   4.151   3.269 -0.5362  1.2352  0.2112
 9379SOL    HW229037   6.985   4.087   3.133  0.7248 -1.1160  0.6523
 9380SOL     OW29038   1.409   2.533   2.472 -0.4018  0.3202 -0.0745
 9380SOL    HW129039   1.496   2.496   2.438 -1.5115 -1.6777 -0.9450
 9380SOL    HW229040   1.413   2.544   2.571  0.6429 -0.3661 -0.0294
 9381SOL     OW29041   0.054   5.766   6.468 -0.5177  0.1726  0.4902
 9381SOL    HW129042   0.062   5.669   6.490 -0.4937  0.4672  1.8315
 9381SOL    HW229043   0.145   5.808   6.466 -0.5292  0.1812 -0.0693
 9382SOL     OW29044   3.127   0.102   6.785 -0.2435  0.1450  0.5121
 9382SOL    HW129045   3.205   0.156   6.753 -0.2307 -1.3563 -2.3058
 9382SOL    HW229046   3.152   0.005   6.787 -2.1714 -0.4773 -1.2810
 9383SOL     OW29047   2.044   2.261   3.257  0.7391  0.1127 -0.3678
 9383SOL    HW129048   1.949   2.245   3.232 -0.0174  2.0255  1.0577
 9383SOL    HW229049   2.086   2.175   3.286 -1.3546 -0.3601  1.5084
 9384SOL     OW29050   4.205   6.233   4.314  0.3127 -0.2673 -0.1877
 9384SOL    HW129051   4.251   6.281   4.389  0.4398 -0.6478 -0.0136
 9384SOL    HW229052   4.266   6.227   4.236  0.5448 -0.7136  0.0205
 9385SOL     OW29053   6.821   3.399   6.136 -0.1289 -0.2372  0.1302
 9385SOL    HW129054   6.810   3.441   6.226 -1.3165 -0.9594  0.3312
 9385SOL    HW229055   6.865   3.465   6.074  0.5816  0.3101  1.1829
 9386SOL     OW29056   3.491   0.625   6.832 -0.5987  0.5144  0.3760
 9386SOL    HW129057   3.409   0.576   6.863  0.4527 -2.4829 -1.1496
 9386SOL    HW229058   3.573   0.577   6.865  0.5235  1.5655 -0.7660
 9387SOL     OW29059   6.551   0.081   5.126 -0.2980  0.3262  0.1151
 9387SOL    HW129060   6.615   0.095   5.050 -0.3702  0.4132  0.0702
 9387SOL    HW229061   6.603   0.078   5.211 -0.3197  1.4611  0.1913
 9388SOL     OW29062   1.669   4.510   5.978  0.1271 -0.1418 -0.4597
 9388SOL    HW129063   1.670   4.595   5.926 -2.0789 -0.2351 -0.7786
 9388SOL    HW229064   1.583   4.462   5.960 -0.4897 -0.4730  2.7616
 9389SOL     OW29065   4.888   4.188   5.548 -0.1236  0.0188  0.6931
 9389SOL    HW129066   4.933   4.263   5.596 -0.9947 -0.4543  2.3525
 9389SOL    HW229067   4.872   4.112   5.612 -0.4951 -1.0429 -0.5989
 9390SOL     OW29068   0.569   0.102   0.883 -1.0427 -0.6635  0.1730
 9390SOL    HW129069   0.645   0.142   0.933 -1.0777 -2.6494  2.0071
 9390SOL    HW229070   0.603   0.051   0.804 -0.1182 -3.1111  2.0143
 9391SOL     OW29071   0.766   2.762   4.964 -0.1345  0.2770  0.2912
 9391SOL    HW129072   0.850   2.816   4.962 -0.3868  0.6893  0.6112
 9391SOL    HW229073   0.687   2.823   4.959 -0.4903  0.1827  3.0197
 9392SOL     OW29074   0.559   1.210   0.555 -0.1757  0.2756  0.3236
 9392SOL    HW129075   0.537   1.256   0.641  1.0642  1.2546  0.1602
 9392SOL    HW229076   0.610   1.126   0.574  2.7430  1.9561  0.5804
 9393SOL     OW29077   6.393   1.644   4.339  0.1697  0.0172 -0.2502
 9393SOL    HW129078   6.463   1.583   4.301 -0.8597 -1.0994 -0.4117
 9393SOL    HW229079   6.331   1.592   4.397 -1.0938  0.7691 -0.8677
 9394SOL     OW29080   2.385   0.574   6.965  0.1409  0.4133  0.0485
 9394SOL    HW129081   2.323   0.534   7.032 -2.7707  1.9750 -1.5176
 9394SOL    HW229082   2.456   0.626   7.013 -1.1153  0.4922  1.9547
 9395SOL     OW29083   6.272   4.576   5.078 -0.0337 -0.4855  0.0296
 9395SOL    HW129084   6.291   4.556   4.982  1.3174 -2.7631  0.6902
 9395SOL    HW229085   6.306   4.501   5.135 -1.6209  0.3679  2.2352
 9396SOL     OW29086   4.856   1.023   6.616  0.3078 -0.6244  0.0030
 9396SOL    HW129087   4.845   0.969   6.699  2.3763 -0.3343  0.5156
 9396SOL    HW229088   4.950   1.055   6.609  0.0665 -0.2234 -2.2117
 9397SOL     OW29089   1.609   0.037   1.307 -0.0099  0.5574 -0.2879
 9397SOL    HW129090   1.579   0.125   1.269  0.2254  1.1707  0.9002
 9397SOL    HW229091   1.708   0.036   1.316  0.0537 -0.1285 -0.9812
 9398SOL     OW29092   6.708   1.379   2.026  0.3916  0.0356 -0.4242
 9398SOL    HW129093   6.673   1.341   1.940  3.6200  0.4138 -2.0370
 9398SOL    HW229094   6.679   1.474   2.035  0.8622  0.3009 -1.6182
 9399SOL     OW29095   4.567   6.351   5.183 -0.9917  0.4526 -0.8370
 9399SOL    HW129096   4.495   6.322   5.247 -1.3577 -0.9784 -1.8538
 9399SOL    HW229097   4.614   6.271   5.147  0.6049  1.3440 -0.8027
 9400SOL     OW29098   1.061   6.683   5.556 -0.5525  0.9838  0.2555
 9400SOL    HW129099   1.131   6.712   5.490 -0.8031 -0.9667 -0.9590
 9400SOL    HW229100   1.023   6.763   5.601 -0.3500  2.4256 -1.9709
 9401SOL     OW29101   5.850   0.604   2.386  0.5732  0.0074 -0.0575
 9401SOL    HW129102   5.813   0.511   2.393 -1.4585  0.8160  0.8368
 9401SOL    HW229103   5.775   0.670   2.395  2.1725  1.7701  1.0109
 9402SOL     OW29104   2.925   2.034   5.588  0.0109  0.6286  0.2301
 9402SOL    HW129105   3.020   2.008   5.570 -0.1762 -0.2027  0.3943
 9402SOL    HW229106   2.884   2.069   5.504  0.8435  2.2718  0.4664
 9403SOL     OW29107   5.557   2.610   3.237 -0.3135  0.2613  0.2791
 9403SOL    HW129108   5.459   2.602   3.218 -0.1695  0.2068 -0.4841
 9403SOL    HW229109   5.601   2.662   3.164  0.1941  0.4668  0.7241
 9404SOL     OW29110   5.003   0.348   3.132  0.4467  0.0577 -0.4200
 9404SOL    HW129111   5.091   0.314   3.165 -0.7637 -1.3129  1.6290
 9404SOL    HW229112   4.987   0.439   3.171  0.7344  0.0990 -0.3930
 9405SOL     OW29113   4.186   4.820   4.608  0.4328 -0.0807  0.1470
 9405SOL    HW129114   4.216   4.773   4.691 -0.0811  1.1817  1.0806
 9405SOL    HW229115   4.258   4.813   4.538  1.0278 -0.8540  0.8195
 9406SOL     OW29116   1.048   3.680   3.918  0.3156 -0.1676  0.2035
 9406SOL    HW129117   1.103   3.673   3.834  0.0074  0.3035 -0.0386
 9406SOL    HW229118   1.092   3.626   3.990 -0.5626 -2.4457 -0.8525
 9407SOL     OW29119   1.037   6.864   6.770  0.1528 -0.0770 -0.6163
 9407SOL    HW129120   0.957   6.834   6.719  0.4840 -0.8436 -0.6967
 9407SOL    HW229121   1.120   6.832   6.724  0.6740  2.9025 -2.0350
 9408SOL     OW29122   5.213   6.648   0.402 -0.1594  0.1073 -0.0735
 9408SOL    HW129123   5.139   6.698   0.447  0.3197  0.3342  0.4670
 9408SOL    HW229124   5.176   6.600   0.323 -1.1022 -0.6559  0.8019
 9409SOL     OW29125   0.858   0.299   0.465  0.0570  0.0370  0.0014
 9409SOL    HW129126   0.773   0.320   0.417 -1.0764 -0.3348  1.7760
 9409SOL    HW229127   0.935   0.336   0.413 -1.0965 -0.3249 -2.0524
 9410SOL     OW29128   0.845   6.344   3.125  0.4719  0.0092  0.3435
 9410SOL    HW129129   0.941   6.326   3.145  0.5110 -0.8258 -0.4889
 9410SOL    HW229130   0.790   6.265   3.152  0.3830 -0.6702 -1.6131
 9411SOL     OW29131   0.097   3.034   1.625  0.2909  0.0598  0.0637
 9411SOL    HW129132   0.007   3.018   1.665  0.1410  0.0428 -0.2838
 9411SOL    HW229133   0.161   3.060   1.698  0.6709 -2.5427  0.7685
 9412SOL     OW29134   0.034   5.401   0.449 -0.4286  0.5848 -0.9254
 9412SOL    HW129135   0.085   5.408   0.535  0.0748 -0.8118 -1.0821
 9412SOL    HW229136  -0.012   5.313   0.445 -1.3180  1.0690 -1.6350
 9413SOL     OW29137   2.803   0.719   4.688 -0.0795 -0.4782 -0.3249
 9413SOL    HW129138   2.757   0.793   4.638  0.4524 -0.0679 -0.2199
 9413SOL    HW229139   2.897   0.711   4.654 -0.3169 -1.5253 -0.7729
 9414SOL     OW29140   5.866   5.196   0.994 -0.0363 -0.1010  0.1472
 9414SOL    HW129141   5.861   5.268   0.925  0.1269  0.1845  0.4286
 9414SOL    HW229142   5.957   5.197   1.036 -0.6583  0.8506  1.5490
 9415SOL     OW29143   1.823   6.990   5.190 -0.0095 -0.2686 -0.2031
 9415SOL    HW129144   1.871   7.055   5.131  0.7831 -2.5283 -2.1821
 9415SOL    HW229145   1.787   7.039   5.270  1.5183  2.3561 -0.9874
 9416SOL     OW29146   5.317   3.768   6.505  0.0650  0.0920  0.3184
 9416SOL    HW129147   5.375   3.812   6.573  1.3546 -1.6965  0.4518
 9416SOL    HW229148   5.372   3.747   6.424 -1.2051  1.2490 -0.8954
 9417SOL     OW29149   0.489   2.600   1.499  0.2352 -0.3335  0.6324
 9417SOL    HW129150   0.405   2.545   1.491  0.3335 -0.3996 -0.0543
 9417SOL    HW229151   0.520   2.625   1.407  0.0737  1.0685  0.9492
 9418SOL     OW29152   2.742   3.718   1.000  0.0939  0.0827  0.0985
 9418SOL    HW129153   2.824   3.775   1.003  0.6862 -0.7356 -0.0339
 9418SOL    HW229154   2.694   3.724   1.087  1.2764 -0.7931  0.8561
 9419SOL     OW29155   4.559   5.309   6.320  0.1478  0.2192 -0.0021
 9419SOL    HW129156   4.462   5.316   6.344  0.3147  1.5936  0.3166
 9419SOL    HW229157   4.604   5.247   6.385  0.0899  1.9911  1.8176
 9420SOL     OW29158   3.287   4.083   6.996 -0.3561  0.3789 -0.1365
 9420SOL    HW129159   3.329   4.088   6.905 -0.6239  1.3393 -0.2201
 9420SOL    HW229160   3.244   3.993   7.008 -0.1172  0.1607 -0.8662
 9421SOL     OW29161   1.858   4.342   3.562 -0.1565 -0.4907  0.7644
 9421SOL    HW129162   1.789   4.367   3.631 -0.1408  0.0036  0.6034
 9421SOL    HW229163   1.946   4.326   3.607 -0.8358 -3.2652  1.2637
 9422SOL     OW29164   2.796   5.596   3.460  0.3539  0.3470 -0.2719
 9422SOL    HW129165   2.738   5.583   3.541  1.0432  0.2681  0.2189
 9422SOL    HW229166   2.830   5.690   3.458 -0.1860  0.5345 -0.8293
 9423SOL     OW29167   0.973   5.632   4.956 -0.0101 -0.2101  0.1279
 9423SOL    HW129168   0.979   5.640   5.055  0.9896 -1.2716  0.1685
 9423SOL    HW229169   1.038   5.563   4.924 -2.5736 -2.2980 -0.9172
 9424SOL     OW29170   1.340   5.108   0.444 -0.7455  0.7949  0.4890
 9424SOL    HW129171   1.282   5.172   0.494 -0.3021 -0.3672  2.5882
 9424SOL    HW229172   1.293   5.020   0.436  0.7139 -0.2038  2.3187
 9425SOL     OW29173   0.175   3.337   0.042 -0.4769 -0.4931 -0.0292
 9425SOL    HW129174   0.152   3.240   0.046 -3.0932  0.0480 -0.0948
 9425SOL    HW229175   0.151   3.381   0.128  0.5885  0.1393 -0.0370
 9426SOL     OW29176   5.891   1.787   6.460 -0.1994 -0.3397  0.0706
 9426SOL    HW129177   5.973   1.756   6.509 -0.1781 -2.2486 -1.0644
 9426SOL    HW229178   5.883   1.886   6.469  1.4067 -0.2821  1.4473
 9427SOL     OW29179   2.593   2.524   6.792  0.4084  0.0516  0.3546
 9427SOL    HW129180   2.618   2.598   6.729 -1.2635 -0.0947 -0.5285
 9427SOL    HW229181   2.494   2.514   6.794  0.5116 -1.0094  1.8359
 9428SOL     OW29182   0.359   4.568   2.085 -0.6363  0.6568  0.3128
 9428SOL    HW129183   0.266   4.534   2.097 -0.0470 -0.9311  0.7449
 9428SOL    HW229184   0.382   4.570   1.988 -0.0836 -2.1842  0.2789
 9429SOL     OW29185   3.108   3.513   4.080 -0.1423 -0.4339  0.4842
 9429SOL    HW129186   3.153   3.462   4.154  1.0825  1.5855  1.1993
 9429SOL    HW229187   3.084   3.450   4.006  3.4434 -1.7557  0.2634
 9430SOL     OW29188   0.542   3.705   0.450  0.0520 -0.2929 -0.1961
 9430SOL    HW129189   0.609   3.718   0.524  0.0133 -2.5950  0.3131
 9430SOL    HW229190   0.567   3.624   0.396 -0.4640  0.7753 -2.1488
 9431SOL     OW29191   0.402   5.628   3.408  0.0187 -0.0946  0.2918
 9431SOL    HW129192   0.360   5.541   3.381 -0.1438  0.2775 -0.6976
 9431SOL    HW229193   0.484   5.644   3.352 -0.6105  0.9381 -0.3770
 9432SOL     OW29194   5.565   4.909   6.262  0.6411 -0.2114  0.4934
 9432SOL    HW129195   5.665   4.920   6.265  0.4394  2.8288 -0.8181
 9432SOL    HW229196   5.526   4.945   6.347  0.5199  1.3431 -0.1970
 9433SOL     OW29197   2.789   0.863   4.028 -0.3540  0.1197  0.5135
 9433SOL    HW129198   2.779   0.763   4.035 -1.5762  0.1869  0.0375
 9433SOL    HW229199   2.710   0.907   4.070 -0.9757  0.8109 -1.2623
 9434SOL     OW29200   6.011   3.163   3.631  0.5399 -0.2789 -0.3497
 9434SOL    HW129201   5.932   3.217   3.661  0.7993 -0.6655  1.0858
 9434SOL    HW229202   5.986   3.067   3.626  0.2953 -0.1654 -2.1742
 9435SOL     OW29203   1.341   6.012   6.717  0.4195 -0.0645 -0.9295
 9435SOL    HW129204   1.368   5.918   6.699  1.3720  0.0592 -0.2428
 9435SOL    HW229205   1.249   6.013   6.757  1.4896 -0.9833  1.7778
 9436SOL     OW29206   3.570   0.417   3.737  0.1495 -0.1963  0.5266
 9436SOL    HW129207   3.586   0.464   3.824 -0.2604 -0.1313  0.5687
 9436SOL    HW229208   3.488   0.361   3.745 -0.7087  0.9156 -0.2603
 9437SOL     OW29209   3.133   0.384   1.367  0.6006  0.1300  0.3138
 9437SOL    HW129210   3.109   0.304   1.421 -1.7963 -0.2355 -1.1516
 9437SOL    HW229211   3.066   0.457   1.381  1.5917  1.1304  0.0669
 9438SOL     OW29212   4.529   6.800   0.692  0.4452  0.0151  0.0020
 9438SOL    HW129213   4.565   6.720   0.739 -1.3688  0.5957  2.5897
 9438SOL    HW229214   4.438   6.781   0.657  0.4411  0.6448 -0.3628
 9439SOL     OW29215   0.242   4.775   5.765  0.3858  0.1008 -0.9252
 9439SOL    HW129216   0.227   4.698   5.704  0.5120  1.3696 -2.6393
 9439SOL    HW229217   0.289   4.848   5.716 -0.0613  1.4204  0.5137
 9440SOL     OW29218   6.782   0.612   6.414  0.3576 -0.0378 -0.0165
 9440SOL    HW129219   6.859   0.655   6.460  0.7771  0.4778 -1.1729
 9440SOL    HW229220   6.776   0.516   6.443  1.6025 -0.1667 -0.1219
 9441SOL     OW29221   3.491   1.770   2.175  0.0845 -0.5048  0.4048
 9441SOL    HW129222   3.483   1.860   2.132  0.8416  0.4856  2.1979
 9441SOL    HW229223   3.488   1.698   2.105  1.7258  1.0036 -1.3224
 9442SOL     OW29224   5.104   1.657   0.029  0.1467 -0.1080  0.3813
 9442SOL    HW129225   5.170   1.659  -0.045 -0.3364 -0.1629 -0.0535
 9442SOL    HW229226   5.015   1.626  -0.005  0.2075 -1.2994  1.2098
 9443SOL     OW29227   5.445   0.169   0.024  0.2887  0.1607 -0.0664
 9443SOL    HW129228   5.416   0.074   0.024  1.3868 -0.2421 -2.5555
 9443SOL    HW229229   5.373   0.226  -0.016  0.2114  0.1835  0.1016
 9444SOL     OW29230   3.028   4.880   2.695 -0.7749 -0.4860  0.1263
 9444SOL    HW129231   3.090   4.868   2.772 -2.4014  0.3062  1.6297
 9444SOL    HW229232   3.031   4.976   2.664 -2.9781  0.2334  1.8693
 9445SOL     OW29233   0.028   1.388   2.817 -0.2448  0.2363  0.3334
 9445SOL    HW129234   0.095   1.459   2.793  0.4085 -0.1619  0.9393
 9445SOL    HW229235  -0.052   1.397   2.759  0.7350  0.1272 -1.0836
 9446SOL     OW29236   5.314   5.557   5.760 -0.1150  0.0735  0.1133
 9446SOL    HW129237   5.395   5.498   5.754 -0.0414  0.3540 -2.6864
 9446SOL    HW229238   5.234   5.508   5.725 -0.8071  0.4734  1.0654
 9447SOL     OW29239   3.514   6.294   0.999 -0.2372  0.5132 -0.4127
 9447SOL    HW129240   3.497   6.361   0.926  0.2691  0.9358 -0.1497
 9447SOL    HW229241   3.475   6.328   1.085 -1.0895 -0.1187 -0.5405
 9448SOL     OW29242   4.201   5.092   4.319 -0.1420 -0.0810  0.4440
 9448SOL    HW129243   4.187   5.190   4.320  0.5476  0.0699 -1.1276
 9448SOL    HW229244   4.260   5.065   4.395  0.7926  0.9350  0.1007
 9449SOL     OW29245   3.730   3.864   4.107  0.4956 -0.1503  0.1070
 9449SOL    HW129246   3.708   3.866   4.205  2.0286 -2.3211  0.5520
 9449SOL    HW229247   3.679   3.790   4.063 -0.0428  0.7004 -0.7450
 9450SOL     OW29248   4.967   0.035   1.121 -0.7439 -0.2281 -0.3975
 9450SOL    HW129249   5.022   0.118   1.129 -0.2820 -0.6140  0.6242
 9450SOL    HW229250   4.878   0.058   1.083 -0.8928  0.8681  0.5615
 9451SOL     OW29251   2.842   6.858   4.986  0.1394 -0.4910 -0.1715
 9451SOL    HW129252   2.876   6.806   4.908  0.6226 -1.3889  0.6222
 9451SOL    HW229253   2.918   6.887   5.044 -0.3056 -1.1274  0.7634
 9452SOL     OW29254   3.765   1.229   1.761  0.3267 -0.0557 -0.1516
 9452SOL    HW129255   3.767   1.285   1.844  0.1214 -1.0741  0.5648
 9452SOL    HW229256   3.779   1.287   1.681  1.8203  0.7723  0.6665
 9453SOL     OW29257   6.550   5.896   1.503 -0.1269  0.2689  0.0346
 9453SOL    HW129258   6.503   5.808   1.503 -0.8025  0.5427 -2.9557
 9453SOL    HW229259   6.627   5.892   1.439  1.0813  1.2801  1.3625
 9454SOL     OW29260   1.641   1.501   6.816  0.0631  0.4798 -0.7166
 9454SOL    HW129261   1.555   1.549   6.834 -0.6849 -0.9166 -0.5009
 9454SOL    HW229262   1.665   1.444   6.895  0.2376 -0.5349 -1.4848
 9455SOL     OW29263   0.751   6.828   2.689 -0.6883 -0.7594 -0.4344
 9455SOL    HW129264   0.807   6.747   2.674  2.0553  0.9604 -0.1361
 9455SOL    HW229265   0.732   6.873   2.602  0.5752 -0.0172 -0.3484
 9456SOL     OW29266   1.859   5.667   1.053  0.0219  0.2928 -0.6320
 9456SOL    HW129267   1.771   5.714   1.057  0.7461  1.7295 -0.7717
 9456SOL    HW229268   1.845   5.571   1.028 -1.3104  1.1461 -3.6532
 9457SOL     OW29269   3.948   0.012   2.627 -0.3555 -0.2985  0.0349
 9457SOL    HW129270   3.946   0.104   2.588  1.4984  0.5522  1.8277
 9457SOL    HW229271   3.992   0.013   2.716 -3.0771 -2.4423  1.5815
 9458SOL     OW29272   5.657   6.334   1.176 -0.1661  0.8225 -0.8971
 9458SOL    HW129273   5.709   6.293   1.101 -0.8372 -0.0302 -0.9084
 9458SOL    HW229274   5.571   6.371   1.140 -1.4002 -1.2831 -0.3061
 9459SOL     OW29275   2.330   5.118   5.114 -0.0035  0.4756 -0.1538
 9459SOL    HW129276   2.385   5.097   5.195 -2.0730 -4.0013  0.4394
 9459SOL    HW229277   2.237   5.144   5.143  0.2770  2.8805 -1.1778
 9460SOL     OW29278   6.563   3.904   0.111  0.2146 -0.8590  0.3263
 9460SOL    HW129279   6.625   3.950   0.175  0.9943 -1.9880  0.4008
 9460SOL    HW229280   6.609   3.824   0.072 -0.8981 -1.2133 -0.2784
 9461SOL     OW29281   5.183   0.146   0.687 -0.2990 -0.0470 -0.0233
 9461SOL    HW129282   5.166   0.125   0.590 -0.8071  1.2109 -0.2223
 9461SOL    HW229283   5.161   0.066   0.742 -1.9179 -0.1448 -0.7715
 9462SOL     OW29284   5.043   5.225   1.739  0.3010  0.3639 -0.6663
 9462SOL    HW129285   5.057   5.171   1.822 -2.6898  0.3720 -0.0378
 9462SOL    HW229286   5.051   5.166   1.659 -1.6754 -0.8229 -0.0550
 9463SOL     OW29287   1.177   4.457   6.640 -0.0105 -0.2223 -0.2825
 9463SOL    HW129288   1.256   4.490   6.692  0.6906 -1.3429 -0.6115
 9463SOL    HW229289   1.141   4.374   6.682 -0.3639 -0.3019 -0.7335
 9464SOL     OW29290   3.208   0.785   4.898  0.1390  0.2392 -0.1460
 9464SOL    HW129291   3.186   0.850   4.971  0.4066 -0.1054  0.2493
 9464SOL    HW229292   3.209   0.833   4.810  0.1809  0.7347  0.1188
 9465SOL     OW29293   6.243   2.280   1.684  0.0090 -0.9225 -0.0343
 9465SOL    HW129294   6.333   2.263   1.644 -0.0953  0.6011 -0.9969
 9465SOL    HW229295   6.174   2.280   1.612 -0.8053 -2.1942  0.7113
 9466SOL     OW29296   3.584   5.656   3.833 -0.7955  0.2751  0.3263
 9466SOL    HW129297   3.682   5.658   3.814 -1.1262 -2.1009 -2.2425
 9466SOL    HW229298   3.542   5.741   3.802  0.2255  0.6510 -0.0560
 9467SOL     OW29299   2.750   5.147   6.710 -0.5781 -0.1738  0.5621
 9467SOL    HW129300   2.734   5.246   6.713 -1.0343 -0.1816 -0.8096
 9467SOL    HW229301   2.677   5.103   6.658 -0.1423 -1.1778  0.7758
 9468SOL     OW29302   6.028   0.170   0.368  0.4771 -0.3183  0.1859
 9468SOL    HW129303   6.118   0.153   0.329 -0.4773 -0.0672 -2.2923
 9468SOL    HW229304   5.998   0.262   0.344 -0.3068 -0.2600  1.2968
 9469SOL     OW29305   0.232   5.976   2.198  0.0504 -0.1377 -0.4925
 9469SOL    HW129306   0.226   5.877   2.182 -2.9029  0.1740 -1.9522
 9469SOL    HW229307   0.220   6.025   2.112  0.3228  1.5407  0.3792
 9470SOL     OW29308   5.106   1.884   0.180 -0.2795 -0.0608 -0.1718
 9470SOL    HW129309   5.117   1.800   0.128  1.7454 -0.9336  1.5210
 9470SOL    HW229310   5.159   1.957   0.137 -0.5610 -0.1271 -0.6383
 9471SOL     OW29311   5.244   5.020   4.514 -0.3725  0.7275  0.4313
 9471SOL    HW129312   5.343   5.009   4.521 -0.1242  2.6400  0.4772
 9471SOL    HW229313   5.218   5.110   4.548 -1.8113  1.3327 -2.0170
 9472SOL     OW29314   6.541   5.388   0.405 -0.2620  0.0421  0.3118
 9472SOL    HW129315   6.560   5.330   0.483 -1.3985  0.4087  0.8830
 9472SOL    HW229316   6.502   5.334   0.331 -0.0506 -0.1530  0.3449
 9473SOL     OW29317   6.778   3.341   6.701  0.6372 -0.2530  0.3403
 9473SOL    HW129318   6.695   3.396   6.691 -0.0330 -1.6160 -2.9052
 9473SOL    HW229319   6.823   3.363   6.788 -1.7910  2.2798  1.0866
 9474SOL     OW29320   2.131   2.869   3.111 -0.4352  0.5706 -0.4914
 9474SOL    HW129321   2.154   2.944   3.173  0.8447  0.0718 -0.3299
 9474SOL    HW229322   2.035   2.875   3.084 -0.6079  1.6587  0.3454
 9475SOL     OW29323   3.168   6.850   1.356 -0.2922 -0.3706 -0.2111
 9475SOL    HW129324   3.223   6.798   1.289  1.4282  1.3601 -0.2386
 9475SOL    HW229325   3.174   6.805   1.445  0.2531 -0.8197 -0.4625
 9476SOL     OW29326   4.312   6.890   0.337 -0.1028 -0.1163 -0.1730
 9476SOL    HW129327   4.286   6.987   0.331 -0.2537 -0.1617 -0.2494
 9476SOL    HW229328   4.363   6.864   0.255 -0.7523 -0.3086 -0.5194
 9477SOL     OW29329   6.278   4.832   0.467  0.5113 -0.1070  0.5717
 9477SOL    HW129330   6.289   4.896   0.391 -2.2214 -0.3859 -0.1837
 9477SOL    HW229331   6.281   4.882   0.554 -0.5339  0.9213  0.0497
 9478SOL     OW29332   4.053   1.983   3.361 -0.2780  0.2544  0.1627
 9478SOL    HW129333   4.072   2.041   3.441  0.2742  0.4846 -0.1387
 9478SOL    HW229334   3.974   1.925   3.382  0.6929 -0.6870  1.4033
 9479SOL     OW29335   6.801   2.715   5.071 -0.3792 -0.3149 -0.3229
 9479SOL    HW129336   6.878   2.703   5.135 -0.7918 -0.9289  0.0580
 9479SOL    HW229337   6.715   2.694   5.118 -0.6626 -1.0621 -1.1638
 9480SOL     OW29338   1.545   2.252   2.741  0.1422 -0.9960 -0.1810
 9480SOL    HW129339   1.596   2.331   2.774 -0.3413 -0.4076 -0.8278
 9480SOL    HW229340   1.600   2.201   2.675  0.2185 -0.8457 -0.2337
 9481SOL     OW29341   1.550   1.644   2.122  0.4436  0.3867 -0.1766
 9481SOL    HW129342   1.605   1.574   2.168  0.0613  0.1336 -0.0997
 9481SOL    HW229343   1.465   1.603   2.089 -1.5777  1.5458  3.1330
 9482SOL     OW29344   5.254   2.465   6.028 -0.2923 -0.2452 -0.0399
 9482SOL    HW129345   5.160   2.496   6.012 -0.0501 -0.0603 -1.1601
 9482SOL    HW229346   5.281   2.488   6.121 -0.2780  2.5783 -0.6460
 9483SOL     OW29347   5.348   0.283   4.359  0.3107  0.0534  0.3806
 9483SOL    HW129348   5.263   0.334   4.366  0.4216  0.5318 -1.4655
 9483SOL    HW229349   5.343   0.201   4.417 -1.7361 -0.3817 -0.3565
 9484SOL     OW29350   1.347   1.498   1.604  0.3553  0.0344  0.2022
 9484SOL    HW129351   1.420   1.487   1.672 -0.2713 -0.2470  0.8452
 9484SOL    HW229352   1.258   1.487   1.649 -0.0921  0.6008 -0.5258
 9485SOL     OW29353   0.055   2.604   4.296 -0.8395 -0.0110 -0.1105
 9485SOL    HW129354   0.077   2.700   4.274 -0.2041 -0.3384 -0.9802
 9485SOL    HW229355   0.107   2.544   4.235 -0.2563 -0.9412  1.2611
 9486SOL     OW29356   2.578   1.198   4.201  0.1580 -0.3516  0.3633
 9486SOL    HW129357   2.538   1.284   4.232 -0.9418 -0.8719  0.4244
 9486SOL    HW229358   2.573   1.130   4.275  0.7965 -0.5440  0.2363
 9487SOL     OW29359   4.902   5.321   3.821 -0.3725  0.3905  0.3975
 9487SOL    HW129360   4.977   5.324   3.754 -0.1579 -4.7003  0.0187
 9487SOL    HW229361   4.815   5.320   3.772 -0.3115 -0.7804  0.2734
 9488SOL     OW29362   0.102   0.483   4.154 -0.2289 -0.0068  0.5355
 9488SOL    HW129363   0.100   0.516   4.249  0.7320 -0.5286  0.7511
 9488SOL    HW229364   0.087   0.560   4.092 -0.0560  0.4778  1.0822
 9489SOL     OW29365   1.830   4.214   4.468  0.0096 -0.1480 -0.2416
 9489SOL    HW129366   1.891   4.146   4.511 -2.0424 -2.6980 -1.0990
 9489SOL    HW229367   1.857   4.228   4.373 -0.0536 -0.4024 -0.2972
 9490SOL     OW29368   2.760   6.556   1.573  0.0370 -0.7717 -0.7457
 9490SOL    HW129369   2.788   6.486   1.507  0.4812 -0.7973 -0.5370
 9490SOL    HW229370   2.677   6.602   1.541  0.2423 -0.7918 -1.3181
 9491SOL     OW29371   3.747   1.390   6.536  0.0334 -0.4290 -0.0541
 9491SOL    HW129372   3.679   1.437   6.592 -1.1055 -3.3794  1.2299
 9491SOL    HW229373   3.795   1.322   6.592  2.8002  0.2401 -1.3925
 9492SOL     OW29374   3.379   4.076   4.784 -0.3300  0.4056 -0.3036
 9492SOL    HW129375   3.424   4.165   4.793 -1.7321  1.1472 -0.2048
 9492SOL    HW229376   3.322   4.076   4.702 -0.9684 -0.0971  0.1275
 9493SOL     OW29377   1.832   2.700   2.836  0.2611 -0.3219  0.0765
 9493SOL    HW129378   1.735   2.697   2.811  0.0463  0.0478  0.8321
 9493SOL    HW229379   1.856   2.617   2.887  0.5258 -0.7457 -0.7166
 9494SOL     OW29380   3.886   0.909   1.501 -0.2430 -0.2338 -0.1053
 9494SOL    HW129381   3.939   0.887   1.583 -1.5676 -1.5213  0.4458
 9494SOL    HW229382   3.933   0.873   1.421  0.5972  0.2044  0.1802
 9495SOL     OW29383   1.437   6.555   0.869  0.3686  0.6943 -0.5451
 9495SOL    HW129384   1.404   6.650   0.871  0.0072  0.6148 -1.8076
 9495SOL    HW229385   1.532   6.552   0.901 -0.2078  1.1978  1.3221
 9496SOL     OW29386   5.777   4.528   5.793  0.5265  0.4194  0.2666
 9496SOL    HW129387   5.713   4.497   5.722 -0.7079  1.1571  1.0308
 9496SOL    HW229388   5.831   4.450   5.825  0.2375 -0.1589 -0.6016
 9497SOL     OW29389   6.851   6.211   6.873  0.7476 -0.1267  0.8301
 9497SOL    HW129390   6.834   6.281   6.941 -1.4497  1.0823 -0.8472
 9497SOL    HW229391   6.886   6.253   6.789  1.4553 -1.3268  0.4892
 9498SOL     OW29392   5.221   5.744   2.584  0.7479 -0.2064 -0.1782
 9498SOL    HW129393   5.176   5.659   2.612 -0.4855  0.6506  0.5408
 9498SOL    HW229394   5.246   5.738   2.487  0.6325 -1.3644 -0.1460
 9499SOL     OW29395   2.668   6.489   2.638  0.4264 -0.0431 -1.1653
 9499SOL    HW129396   2.679   6.585   2.664 -1.3024  0.0144 -0.5473
 9499SOL    HW229397   2.695   6.430   2.714 -0.5356  0.0235 -0.7574
 9500SOL     OW29398   6.155   1.389   3.748  0.0588 -0.3901 -0.2129
 9500SOL    HW129399   6.084   1.348   3.691 -1.0640  1.0850  0.0825
 9500SOL    HW229400   6.175   1.328   3.825 -1.7405 -0.3173  0.3457
 9501SOL     OW29401   5.107   4.729   6.690 -0.4726  0.1524 -0.0551
 9501SOL    HW129402   5.026   4.671   6.690 -0.9142  0.7500  0.4210
 9501SOL    HW229403   5.166   4.704   6.767  0.2687 -0.8935 -0.9230
 9502SOL     OW29404   1.440   2.059   0.210 -0.7463  0.1906 -0.0062
 9502SOL    HW129405   1.438   1.961   0.233 -0.0439  0.2299  0.2688
 9502SOL    HW229406   1.455   2.070   0.112  0.8896  0.0045  0.1942
 9503SOL     OW29407   1.156   3.680   6.644  0.0148 -0.2684  0.1005
 9503SOL    HW129408   1.139   3.774   6.672  1.4004 -0.3107  1.1897
 9503SOL    HW229409   1.150   3.620   6.724 -0.4578 -1.0675 -0.5104
 9504SOL     OW29410   2.370   0.291   0.478  0.0674  0.1752  0.8106
 9504SOL    HW129411   2.465   0.270   0.504 -0.2217 -1.1424  0.8529
 9504SOL    HW229412   2.335   0.363   0.538  1.4623  1.6549 -0.0662
 9505SOL     OW29413   2.503   3.341   7.001 -0.0004 -0.1037 -0.3014
 9505SOL    HW129414   2.518   3.304   7.093 -1.2610 -0.5459 -0.2480
 9505SOL    HW229415   2.591   3.363   6.959  0.6180 -0.2922  0.8441
 9506SOL     OW29416   5.739   0.513   5.553 -0.0558  0.4164 -0.1474
 9506SOL    HW129417   5.835   0.526   5.578  0.1262  0.8929 -1.0446
 9506SOL    HW229418   5.728   0.527   5.455 -1.0009  0.0950 -0.0984
 9507SOL     OW29419   1.402   5.386   6.159  0.2568 -0.6814  0.2013
 9507SOL    HW129420   1.367   5.478   6.142  2.8554  0.4192  0.2730
 9507SOL    HW229421   1.391   5.363   6.256 -0.5367 -0.5095  0.1540
 9508SOL     OW29422   1.507   0.395   6.159  0.1482  0.1121 -0.0050
 9508SOL    HW129423   1.596   0.434   6.139  0.3173 -0.5619 -0.6265
 9508SOL    HW229424   1.517   0.319   6.224  0.0073  0.1320  0.0415
 9509SOL     OW29425   5.822   2.108   1.207 -0.7226  0.1228 -0.2684
 9509SOL    HW129426   5.889   2.064   1.149 -0.9517 -0.9042  0.2217
 9509SOL    HW229427   5.843   2.089   1.303 -1.4327  0.1965 -0.0903
 9510SOL     OW29428   6.557   3.054   6.825 -0.2089  0.8067  0.1260
 9510SOL    HW129429   6.652   3.084   6.827  0.6254 -1.3994 -1.6357
 9510SOL    HW229430   6.541   2.989   6.900  0.2049 -0.1070 -0.5522
 9511SOL     OW29431   2.203   5.774   4.161  0.2491 -0.4565 -0.0432
 9511SOL    HW129432   2.176   5.720   4.240 -2.4127  0.6142 -0.1396
 9511SOL    HW229433   2.260   5.850   4.191 -2.1358  0.9526  1.2028
 9512SOL     OW29434   3.649   5.816   0.421 -0.5036 -0.2787  0.9224
 9512SOL    HW129435   3.736   5.823   0.471 -0.9000  0.1741  1.5724
 9512SOL    HW229436   3.654   5.743   0.354  0.6583  0.2554  0.4018
 9513SOL     OW29437   6.320   2.817   0.708  0.6641  0.1542 -0.2276
 9513SOL    HW129438   6.262   2.840   0.787  0.1103  0.9310 -0.8431
 9513SOL    HW229439   6.300   2.880   0.633  0.9651 -0.7702 -1.0951
 9514SOL     OW29440   0.701   5.145   4.879  0.8996 -0.5776  0.4003
 9514SOL    HW129441   0.784   5.202   4.878  0.5803 -0.1146  0.1230
 9514SOL    HW229442   0.719   5.062   4.932  1.0814  0.2143  1.6345
 9515SOL     OW29443   6.872   5.512   5.851 -0.3981  0.2656 -0.5799
 9515SOL    HW129444   6.832   5.440   5.908 -0.9688  0.5442 -0.6227
 9515SOL    HW229445   6.907   5.472   5.767 -1.6976  0.1755 -1.0999
 9516SOL     OW29446   0.902   3.552   0.528  0.1710 -0.4533 -0.5389
 9516SOL    HW129447   0.864   3.460   0.532  1.9893 -1.2693 -0.7400
 9516SOL    HW229448   0.888   3.590   0.436 -0.5876 -0.5187 -0.4537
 9517SOL     OW29449   1.237   5.630   3.425  0.4292 -0.1484 -0.1477
 9517SOL    HW129450   1.262   5.631   3.328 -1.2830 -0.8314 -0.6248
 9517SOL    HW229451   1.156   5.574   3.438  1.0798 -0.7146  1.8203
 9518SOL     OW29452   5.151   1.941   4.227 -0.5079  0.4117  0.8782
 9518SOL    HW129453   5.096   2.022   4.249 -0.8943  0.4736 -0.2919
 9518SOL    HW229454   5.228   1.967   4.169 -1.8239 -0.3374 -1.3051
 9519SOL     OW29455   3.239   5.472   3.328  0.2751 -0.2939 -0.0900
 9519SOL    HW129456   3.146   5.438   3.343  0.9760 -1.4827  2.0039
 9519SOL    HW229457   3.284   5.415   3.258  0.0114 -0.9344  0.2488
 9520SOL     OW29458   2.645   6.112   0.259 -0.1690 -0.3306 -0.5187
 9520SOL    HW129459   2.745   6.119   0.255  0.0420 -2.2463  0.2542
 9520SOL    HW229460   2.612   6.159   0.341 -0.0063  0.8873 -1.1208
 9521SOL     OW29461   0.170   1.158   6.572 -0.3075 -0.2216 -0.5315
 9521SOL    HW129462   0.082   1.160   6.525 -1.6419 -2.1814  1.6662
 9521SOL    HW229463   0.175   1.076   6.629  1.9192  1.1209  1.3694
 9522SOL     OW29464   1.794   5.372   0.976 -0.1691 -0.1845  0.1372
 9522SOL    HW129465   1.723   5.403   1.040  0.7598  1.4634  0.4314
 9522SOL    HW229466   1.771   5.404   0.884  0.5755  1.0926  0.3707
 9523SOL     OW29467   0.786   1.942   5.059  0.0349  0.0018  0.2788
 9523SOL    HW129468   0.720   1.908   4.993 -1.1333 -0.6266  1.7277
 9523SOL    HW229469   0.807   2.038   5.038 -2.2311  0.5848  0.4592
 9524SOL     OW29470   4.238   6.808   0.602 -0.1423  0.8855 -0.3316
 9524SOL    HW129471   4.159   6.870   0.607 -0.0867  1.0221 -1.1283
 9524SOL    HW229472   4.284   6.820   0.515  0.0980 -0.0093 -0.3310
 9525SOL     OW29473   5.499   0.960   3.339  0.0947  0.4411 -0.4350
 9525SOL    HW129474   5.582   0.937   3.288  1.2352  1.7660  0.7431
 9525SOL    HW229475   5.429   0.991   3.276  1.3598  1.7385 -1.2756
 9526SOL     OW29476   5.877   2.115   4.935  0.2142  0.3420  0.0313
 9526SOL    HW129477   5.799   2.163   4.896  0.1008 -0.6709 -1.0160
 9526SOL    HW229478   5.888   2.026   4.891 -0.2693 -1.1353  2.6643
 9527SOL     OW29479   0.101   1.623   4.216 -0.4303 -0.4272  0.1750
 9527SOL    HW129480   0.193   1.612   4.178 -1.2831 -1.8937 -1.6424
 9527SOL    HW229481   0.053   1.696   4.167 -0.4846 -0.1507  0.6343
 9528SOL     OW29482   6.843   4.042   6.203 -0.3680 -0.4719  0.2379
 9528SOL    HW129483   6.911   4.115   6.195  0.8693 -1.6973 -0.8903
 9528SOL    HW229484   6.752   4.080   6.192  0.2112  0.9962  0.3322
 9529SOL     OW29485   2.230   2.329   6.233 -0.0205  0.1442  0.0432
 9529SOL    HW129486   2.253   2.349   6.138 -0.0112 -3.3356 -0.7896
 9529SOL    HW229487   2.310   2.349   6.290  0.7638  0.1048 -1.0056
 9530SOL     OW29488   6.810   1.383   1.185  0.2509 -0.1769 -1.2979
 9530SOL    HW129489   6.881   1.394   1.255  0.4225  0.8905 -1.6331
 9530SOL    HW229490   6.828   1.299   1.133 -0.6416 -1.7659  0.7796
 9531SOL     OW29491   5.053   4.400   1.060  0.5036 -0.1881 -0.1220
 9531SOL    HW129492   5.056   4.345   1.143 -0.2729 -0.4098 -0.2368
 9531SOL    HW229493   4.958   4.422   1.038  0.7994  1.1752 -0.0943
 9532SOL     OW29494   5.059   2.983   1.581  1.1181  0.0766 -0.5944
 9532SOL    HW129495   5.085   2.914   1.513 -0.0176 -0.2567 -0.7030
 9532SOL    HW229496   4.961   3.002   1.574  0.3344 -1.9959  2.7313
 9533SOL     OW29497   5.436   2.704   2.172 -0.4477 -0.6025 -0.3495
 9533SOL    HW129498   5.522   2.659   2.198 -0.7426 -1.6529 -1.1405
 9533SOL    HW229499   5.360   2.640   2.184 -1.3583  0.7745  1.7721
 9534SOL     OW29500   6.614   3.468   4.272  0.2300  0.0105  0.3423
 9534SOL    HW129501   6.698   3.479   4.219  1.0214 -1.6915  1.1642
 9534SOL    HW229502   6.570   3.557   4.284  1.4093  0.7929 -0.9082
 9535SOL     OW29503   4.395   1.105   4.355 -0.4277  0.1602  0.8548
 9535SOL    HW129504   4.319   1.168   4.372 -1.0418 -0.1054 -0.6755
 9535SOL    HW229505   4.376   1.017   4.398 -1.2851 -0.0854  0.0086
 9536SOL     OW29506   1.446   3.688   1.211  0.1692  0.2539 -0.1919
 9536SOL    HW129507   1.410   3.779   1.231  0.5235  0.5963 -1.0747
 9536SOL    HW229508   1.390   3.619   1.259 -0.1185  0.9193  0.4565
 9537SOL     OW29509   1.422   6.098   5.879 -0.4753 -0.7819  0.0821
 9537SOL    HW129510   1.429   6.028   5.808  1.7662 -2.7024  2.0608
 9537SOL    HW229511   1.371   6.062   5.957 -2.1240  0.9959 -0.0810
 9538SOL     OW29512   0.290   0.006   5.590  0.2441  0.0563  0.0971
 9538SOL    HW129513   0.221  -0.067   5.585 -0.6851  0.9011  0.1405
 9538SOL    HW229514   0.375  -0.026   5.548  0.7055 -1.9295  2.3257
 9539SOL     OW29515   0.774   2.226   0.848 -0.2722  0.3417  0.0174
 9539SOL    HW129516   0.805   2.174   0.928 -0.6227 -0.2678 -0.2357
 9539SOL    HW229517   0.788   2.324   0.864  0.3081  0.1799  0.5393
 9540SOL     OW29518   3.865   3.133   4.927 -0.1234 -0.2961 -0.3172
 9540SOL    HW129519   3.874   3.034   4.937 -4.0347 -0.7502  0.0563
 9540SOL    HW229520   3.838   3.155   4.833  1.2734  0.5329 -0.5546
 9541SOL     OW29521   3.334   1.230   2.175 -0.3016 -0.1066 -0.2112
 9541SOL    HW129522   3.365   1.182   2.094  0.1497  0.4413 -0.3709
 9541SOL    HW229523   3.291   1.165   2.239  0.3370 -0.7170 -0.3979
 9542SOL     OW29524   5.088   5.250   5.452 -0.0826  0.1236  0.1667
 9542SOL    HW129525   5.097   5.298   5.539  0.5827  1.1779 -0.4685
 9542SOL    HW229526   5.047   5.310   5.384  1.6201  0.1710 -0.9010
 9543SOL     OW29527   4.883   0.462   2.585 -0.2780 -0.1990  0.3065
 9543SOL    HW129528   4.925   0.386   2.535  1.8983  0.6751  0.7018
 9543SOL    HW229529   4.896   0.449   2.683 -2.3413 -0.6507  0.5673
 9544SOL     OW29530   5.894   5.119   0.036 -0.2275  0.5296  0.0930
 9544SOL    HW129531   5.819   5.158  -0.019 -0.7812  0.1820  0.5870
 9544SOL    HW229532   5.970   5.184   0.039 -0.1774  0.5412 -1.1072
 9545SOL     OW29533   2.830   0.274   4.271 -0.4886 -0.1295  0.5358
 9545SOL    HW129534   2.814   0.330   4.190  1.6210  0.8612  0.7353
 9545SOL    HW229535   2.820   0.177   4.248 -0.5415  0.1683 -0.7502
 9546SOL     OW29536   3.318   2.754   1.031 -0.3835 -0.0974  0.3105
 9546SOL    HW129537   3.357   2.695   0.960  0.8440 -0.2616  1.0799
 9546SOL    HW229538   3.264   2.698   1.094  0.4124 -0.3474  0.7869
 9547SOL     OW29539   1.265   0.953   6.893 -0.1259 -0.3327 -0.0865
 9547SOL    HW129540   1.286   1.021   6.963 -1.0427 -1.2043  1.0838
 9547SOL    HW229541   1.275   0.994   6.803 -2.2445  1.9007  0.5679
 9548SOL     OW29542   3.990   4.814   2.209 -0.5387  0.2470 -0.4629
 9548SOL    HW129543   4.067   4.877   2.202  1.4549 -2.0973 -1.3211
 9548SOL    HW229544   3.932   4.822   2.128  0.1983  0.3801 -0.9844
 9549SOL     OW29545   5.821   1.303   5.389 -0.2413  0.2481  0.0585
 9549SOL    HW129546   5.777   1.392   5.404 -1.0893 -0.0884 -0.4015
 9549SOL    HW229547   5.755   1.240   5.349  0.7871 -0.1435 -1.0582
 9550SOL     OW29548   2.417   1.510   3.876  0.6196  0.3399 -0.4407
 9550SOL    HW129549   2.413   1.597   3.925 -0.2771  0.3035 -0.4264
 9550SOL    HW229550   2.512   1.488   3.855  0.8985  1.0701  0.0015
 9551SOL     OW29551   3.316   0.930   4.184 -1.0438  0.4596  0.1566
 9551SOL    HW129552   3.341   1.001   4.118  0.0207 -1.9850 -2.2386
 9551SOL    HW229553   3.387   0.924   4.254 -0.2844  0.6384 -0.5835
 9552SOL     OW29554   0.606   3.919   6.294 -0.5265 -0.8136  0.0124
 9552SOL    HW129555   0.610   4.002   6.239 -1.1332 -2.2531 -2.3740
 9552SOL    HW229556   0.534   3.928   6.363  0.4591  1.1611  0.8849
 9553SOL     OW29557   6.089   2.109   2.874 -0.1401  0.2915 -0.2249
 9553SOL    HW129558   6.136   2.030   2.836  0.6672  1.1523 -1.0713
 9553SOL    HW229559   6.059   2.169   2.800 -0.2106  1.0712  0.4179
 9554SOL     OW29560   0.817   1.879   4.219 -0.3338 -0.4916 -0.3150
 9554SOL    HW129561   0.901   1.881   4.273 -0.4851 -1.3474 -0.0464
 9554SOL    HW229562   0.841   1.882   4.122 -0.0282  0.0328 -0.2320
 9555SOL     OW29563   6.344   1.987   0.909 -0.3970  0.0885 -0.3857
 9555SOL    HW129564   6.258   2.039   0.907  0.6666  2.0652  1.0024
 9555SOL    HW229565   6.384   1.985   0.818 -1.2318  0.3635 -0.7663
 9556SOL     OW29566   2.656   3.571   5.411 -0.7792  0.0517 -0.3378
 9556SOL    HW129567   2.651   3.473   5.393 -1.9992  0.0686 -0.1816
 9556SOL    HW229568   2.712   3.615   5.341  1.4909 -1.0056  0.7162
 9557SOL     OW29569   5.811   4.347   6.771 -0.0507  0.8506 -0.0247
 9557SOL    HW129570   5.823   4.445   6.787  1.2344  1.0756 -1.9717
 9557SOL    HW229571   5.897   4.299   6.788 -0.1102  0.3729 -0.9608
 9558SOL     OW29572   5.993   1.374   6.488 -0.1874  0.0126  0.7183
 9558SOL    HW129573   5.899   1.343   6.499 -0.2318 -0.0437  0.2195
 9558SOL    HW229574   6.038   1.379   6.577 -0.2966 -1.1071  0.8504
 9559SOL     OW29575   2.599   1.454   5.646 -0.2598  0.2761 -0.1616
 9559SOL    HW129576   2.547   1.392   5.705  1.0013  0.4301  1.1798
 9559SOL    HW229577   2.615   1.540   5.694 -1.5941  1.5104 -1.8307
 9560SOL     OW29578   5.303   5.347   0.410 -0.3213 -0.0033  0.3122
 9560SOL    HW129579   5.256   5.340   0.497  0.0712  0.5698  0.5765
 9560SOL    HW229580   5.387   5.292   0.413 -0.8051 -0.7787 -0.0525
 9561SOL     OW29581   4.556   1.612   2.553  0.3330  0.1455  0.1460
 9561SOL    HW129582   4.490   1.679   2.588  0.5832  0.6733 -0.3735
 9561SOL    HW229583   4.523   1.520   2.574  0.0848  0.4245  1.0446
 9562SOL     OW29584   2.128   6.965   2.408 -0.2050 -0.2226 -0.5272
 9562SOL    HW129585   2.211   7.017   2.429  0.3813 -1.3764  0.0949
 9562SOL    HW229586   2.048   7.021   2.428  0.4077  0.2981  0.5694
 9563SOL     OW29587   4.911   0.220   7.016  0.2353 -0.6248 -0.1680
 9563SOL    HW129588   4.833   0.279   7.037 -3.4509 -3.8088 -3.2693
 9563SOL    HW229589   4.942   0.238   6.922 -0.9845 -3.3383 -1.1986
 9564SOL     OW29590   6.896   5.979   1.024 -0.3143 -0.4446 -0.1526
 9564SOL    HW129591   6.867   6.037   0.948 -2.1760 -0.7105  0.3074
 9564SOL    HW229592   6.996   5.973   1.025 -0.1770  0.9397 -1.5326
 9565SOL     OW29593   3.847   4.870   0.755 -1.0196 -0.4491  0.8721
 9565SOL    HW129594   3.790   4.792   0.782  0.6924 -1.3179  2.1541
 9565SOL    HW229595   3.942   4.853   0.781 -0.2679  1.2889 -0.5101
 9566SOL     OW29596   5.403   0.911   1.426  0.1800 -0.0370  0.7485
 9566SOL    HW129597   5.374   1.004   1.449 -0.9283 -0.3705  0.7327
 9566SOL    HW229598   5.400   0.854   1.508 -0.8026 -0.4711  0.4225
 9567SOL     OW29599   3.163   4.430   5.635  0.3394  0.5205 -0.1553
 9567SOL    HW129600   3.108   4.406   5.555  0.2228  0.2468  0.0067
 9567SOL    HW229601   3.114   4.404   5.718  0.2044  1.3295  0.0262
 9568SOL     OW29602   5.662   2.184   0.889 -0.1758 -0.6127 -0.5353
 9568SOL    HW129603   5.598   2.168   0.965 -0.9231  0.2871 -0.9598
 9568SOL    HW229604   5.748   2.136   0.908 -0.7789 -1.4203  0.2952
 9569SOL     OW29605   3.561   5.699   2.963  0.3604 -0.9057 -0.7255
 9569SOL    HW129606   3.495   5.648   2.908  0.0018 -0.8769 -0.3221
 9569SOL    HW229607   3.519   5.784   2.994  1.1406 -0.0476 -1.9031
 9570SOL     OW29608   2.992   1.080   4.082 -0.2452  0.1620  0.7655
 9570SOL    HW129609   2.994   1.104   4.179  2.0835  0.0279  0.8081
 9570SOL    HW229610   2.951   0.990   4.071 -0.2237  0.0328  1.6652
 9571SOL     OW29611   5.283   0.614   6.503  0.1371 -0.6536 -0.0977
 9571SOL    HW129612   5.299   0.707   6.470  2.0621 -0.6574  0.6807
 9571SOL    HW229613   5.369   0.576   6.536 -0.9586 -2.0678  1.2510
 9572SOL     OW29614   1.387   0.534   2.247 -0.0825  0.0322  0.3110
 9572SOL    HW129615   1.359   0.438   2.247 -0.9768  0.2779 -0.7727
 9572SOL    HW229616   1.319   0.590   2.294 -0.9422  0.4783 -1.3773
 9573SOL     OW29617   5.372   3.835   5.466 -0.0172 -0.2469  0.1618
 9573SOL    HW129618   5.366   3.785   5.380  1.6771 -0.5443  0.1921
 9573SOL    HW229619   5.309   3.795   5.533 -0.5095 -0.7282 -0.5776
 9574SOL     OW29620   2.875   0.791   0.651 -0.6253  0.1979  0.2605
 9574SOL    HW129621   2.903   0.765   0.558  1.0560 -0.4219  0.9103
 9574SOL    HW229622   2.862   0.890   0.654 -0.3727  0.2709 -0.5636
 9575SOL     OW29623   6.640   5.702   5.874  0.2963  0.0771  0.0090
 9575SOL    HW129624   6.730   5.657   5.874 -1.2374 -3.4036 -1.5921
 9575SOL    HW229625   6.632   5.758   5.792  0.6564 -0.4485 -0.3967
 9576SOL     OW29626   6.265   4.362   3.949 -0.7117  0.1338  0.4905
 9576SOL    HW129627   6.241   4.265   3.947 -0.0159 -0.0723  1.4441
 9576SOL    HW229628   6.335   4.378   4.020  0.6925  0.9729 -1.0073
 9577SOL     OW29629   6.736   3.507   5.720  0.1345  0.2553  0.1460
 9577SOL    HW129630   6.740   3.408   5.728  2.1119  0.2411 -0.3382
 9577SOL    HW229631   6.707   3.532   5.627  5.0667 -0.0794 -1.7925
 9578SOL     OW29632   0.954   4.858   6.283 -0.5048  0.6197 -0.0539
 9578SOL    HW129633   1.034   4.859   6.223 -0.3287 -1.4324  0.0765
 9578SOL    HW229634   0.882   4.801   6.242 -0.4627 -0.6457  1.5562
 9579SOL     OW29635   2.978   0.373   3.135 -0.0050 -0.3034  0.0283
 9579SOL    HW129636   3.014   0.453   3.183 -0.7286  0.9588 -1.4492
 9579SOL    HW229637   2.958   0.301   3.202  1.8196  0.2585  1.2557
 9580SOL     OW29638   4.644   1.671   3.865 -0.1559 -0.3772  0.3546
 9580SOL    HW129639   4.631   1.703   3.771 -1.1870  2.0189  1.2186
 9580SOL    HW229640   4.726   1.614   3.870  1.7084  1.9216 -1.5045
 9581SOL     OW29641   4.639   4.661   2.545  0.6399 -0.0033  0.7075
 9581SOL    HW129642   4.563   4.625   2.599 -0.6048 -3.0113 -2.6472
 9581SOL    HW229643   4.606   4.735   2.487  1.1455  0.8716  1.4988
 9582SOL     OW29644   5.884   1.665   4.936  0.0004  0.2082  0.1938
 9582SOL    HW129645   5.799   1.634   4.892 -0.7758 -1.3384  2.5770
 9582SOL    HW229646   5.923   1.740   4.883 -0.6438 -1.6455 -3.2784
 9583SOL     OW29647   3.145   4.989   4.312 -0.1601  0.1859 -0.1613
 9583SOL    HW129648   3.163   4.938   4.396 -2.0990  0.1585  0.2875
 9583SOL    HW229649   3.231   5.008   4.266  0.8966 -0.4211  1.4578
 9584SOL     OW29650   2.754   6.179   5.001  0.5845 -0.4300 -0.5685
 9584SOL    HW129651   2.684   6.250   5.004  2.0979  1.2075 -1.7988
 9584SOL    HW229652   2.815   6.190   5.080 -0.8063 -2.2268  0.8376
 9585SOL     OW29653   5.652   0.897   4.355 -0.2777  0.0795  0.2583
 9585SOL    HW129654   5.641   0.973   4.290  0.2717  1.0544  1.2723
 9585SOL    HW229655   5.564   0.877   4.398 -0.1493  1.1524  1.0586
 9586SOL     OW29656   4.435   0.177   6.801 -0.8039 -0.0002  0.5121
 9586SOL    HW129657   4.429   0.119   6.720  0.2857 -1.3203  1.3463
 9586SOL    HW229658   4.413   0.124   6.882 -1.4263  1.1956  1.1501
 9587SOL     OW29659   3.706   5.752   2.588  0.5349  0.1510  0.0093
 9587SOL    HW129660   3.675   5.759   2.683  0.3655 -1.2263  0.0763
 9587SOL    HW229661   3.801   5.721   2.587  0.2166 -0.8455 -0.2727
 9588SOL     OW29662   3.975   1.025   3.704  0.5796  0.4511 -0.4559
 9588SOL    HW129663   4.064   1.020   3.749 -0.0723 -1.1517  0.7566
 9588SOL    HW229664   3.949   0.934   3.670 -0.6584  0.8540 -0.6451
 9589SOL     OW29665   0.673   0.615   2.032 -0.0860  0.3472 -0.5210
 9589SOL    HW129666   0.653   0.712   2.030 -1.1027  0.1377 -2.2431
 9589SOL    HW229667   0.621   0.571   2.105 -1.1271  0.8006 -0.9748
 9590SOL     OW29668   5.139   4.159   0.631 -0.1389  0.3783  0.1448
 9590SOL    HW129669   5.185   4.248   0.628  1.6348 -0.5085  0.4294
 9590SOL    HW229670   5.126   4.131   0.726 -1.3307  0.6125  0.0748
 9591SOL     OW29671   4.541   5.013   4.575  0.4588  0.2176 -0.3722
 9591SOL    HW129672   4.557   5.099   4.527  0.0923  0.5249  0.0512
 9591SOL    HW229673   4.499   4.947   4.512  0.4662  0.4459 -0.6174
 9592SOL     OW29674   4.119   4.094   6.980  0.4850  0.0006 -0.5817
 9592SOL    HW129675   4.202   4.129   6.937  0.8966 -0.1341  0.0775
 9592SOL    HW229676   4.047   4.163   6.975  0.8270  0.3592 -0.6226
 9593SOL     OW29677   3.135   0.540   6.146  0.3290  0.3222  0.6197
 9593SOL    HW129678   3.230   0.548   6.114 -0.3232 -0.0514 -1.5431
 9593SOL    HW229679   3.078   0.505   6.072 -1.9897  2.9442  1.0520
 9594SOL     OW29680   5.499   4.804   2.797 -0.0850 -0.6615 -0.1898
 9594SOL    HW129681   5.412   4.790   2.845 -1.1673  1.2271 -1.4783
 9594SOL    HW229682   5.570   4.828   2.863 -1.7046  2.6351  0.5685
 9595SOL     OW29683   0.886   7.001   1.655 -0.3141 -0.8872 -0.5862
 9595SOL    HW129684   0.908   6.905   1.636  2.7994 -0.5928  0.9425
 9595SOL    HW229685   0.823   7.005   1.733  0.3754 -1.6906  0.0383
 9596SOL     OW29686   1.209   3.917   4.896 -0.2109 -0.6719  0.0440
 9596SOL    HW129687   1.292   3.866   4.920 -0.3351 -0.2235  1.5623
 9596SOL    HW229688   1.157   3.936   4.980 -0.6873  1.0524 -0.6119
 9597SOL     OW29689   5.669   1.142   5.198 -0.2150  0.4034 -0.4975
 9597SOL    HW129690   5.588   1.146   5.257 -0.1956  2.7163 -0.5134
 9597SOL    HW229691   5.662   1.213   5.128  1.2322 -0.2349 -1.3287
 9598SOL     OW29692   0.704   1.737   6.761 -0.1026 -0.2430  0.2788
 9598SOL    HW129693   0.738   1.700   6.675 -0.1791 -0.2378  0.2467
 9598SOL    HW229694   0.702   1.837   6.757  0.6296 -0.2076  0.5617
 9599SOL     OW29695   3.191   4.268   0.824 -1.0987 -0.0236 -0.3148
 9599SOL    HW129696   3.156   4.210   0.750 -1.0390  2.1025 -2.1044
 9599SOL    HW229697   3.191   4.216   0.909 -1.3573 -2.5173 -1.7322
 9600SOL     OW29698   2.524   3.500   0.968 -0.2451  0.4634 -0.2201
 9600SOL    HW129699   2.597   3.568   0.969  1.0336 -0.8535 -0.4870
 9600SOL    HW229700   2.460   3.521   0.894  1.7753 -0.2422 -2.2744
 9601SOL     OW29701   0.460   2.354   3.928 -0.0673 -0.4262  0.1877
 9601SOL    HW129702   0.527   2.425   3.952 -0.9349  0.3752  0.2831
 9601SOL    HW229703   0.473   2.275   3.988  0.4618 -0.0801  0.5383
 9602SOL     OW29704   2.674   6.131   6.090 -0.4884 -0.2695  0.1859
 9602SOL    HW129705   2.614   6.084   6.154 -0.3478  0.4373  0.8573
 9602SOL    HW229706   2.639   6.223   6.073 -0.1858 -0.2364 -0.2699
 9603SOL     OW29707   2.048   2.594   0.461 -0.6146  0.3152  0.1840
 9603SOL    HW129708   1.997   2.545   0.390  0.5221 -0.8057  0.1017
 9603SOL    HW229709   2.075   2.530   0.532  1.0014  0.7840  0.0258
 9604SOL     OW29710   5.840   2.107   1.476 -0.0291 -0.1655 -0.2268
 9604SOL    HW129711   5.874   2.016   1.497  1.3853 -0.3016 -2.7107
 9604SOL    HW229712   5.764   2.129   1.536 -0.3078 -2.9005  0.5473
 9605SOL     OW29713   2.709   6.956   1.658  0.2487 -0.1696 -0.8654
 9605SOL    HW129714   2.779   6.935   1.726 -0.2589 -0.9176 -0.5594
 9605SOL    HW229715   2.713   7.053   1.635 -0.3783  0.3808  1.1476
 9606SOL     OW29716   6.590   1.500   4.229  0.0781  0.0673 -0.1607
 9606SOL    HW129717   6.590   1.438   4.307  0.0616  1.4129  0.9509
 9606SOL    HW229718   6.548   1.455   4.150  0.2075 -1.3614  0.5657
 9607SOL     OW29719   6.889   3.298   1.267 -0.3629 -0.5487  0.1110
 9607SOL    HW129720   6.829   3.302   1.187 -1.4518  0.7535  0.9438
 9607SOL    HW229721   6.941   3.213   1.266  1.6407  0.5045 -3.3722
 9608SOL     OW29722   3.057   1.919   0.883  0.0316 -0.8678 -0.3410
 9608SOL    HW129723   3.097   1.901   0.793 -0.4955  0.0602 -0.7731
 9608SOL    HW229724   2.962   1.948   0.873  0.2819  0.2999  0.4284
 9609SOL     OW29725   2.847   3.326   2.225  0.3472 -0.2720 -0.5114
 9609SOL    HW129726   2.910   3.248   2.226  0.6520 -0.0240 -0.1059
 9609SOL    HW229727   2.753   3.292   2.230  0.5144 -0.5784  0.8312
 9610SOL     OW29728   5.143   3.394   5.509  0.1186 -0.5601  0.3277
 9610SOL    HW129729   5.104   3.368   5.421 -0.4787  1.0560  0.0767
 9610SOL    HW229730   5.236   3.427   5.496 -0.1895  0.2953  0.1673
 9611SOL     OW29731   4.737   1.094   0.584 -0.4359  0.2158  0.0668
 9611SOL    HW129732   4.728   1.173   0.645 -0.2398 -0.6797  1.3055
 9611SOL    HW229733   4.823   1.047   0.604  0.1415  0.4661 -1.6335
 9612SOL     OW29734   5.441   0.413   0.542 -0.3965 -0.0228 -0.4258
 9612SOL    HW129735   5.508   0.381   0.475  1.2386  1.5110  0.3672
 9612SOL    HW229736   5.404   0.501   0.512 -1.9296 -0.7463 -0.7374
 9613SOL     OW29737   0.747   3.107   5.418 -0.4875 -0.3680 -0.5367
 9613SOL    HW129738   0.659   3.086   5.375 -0.9759  3.6442 -1.8703
 9613SOL    HW229739   0.798   3.171   5.362  1.3909  0.7997  2.2538
 9614SOL     OW29740   5.190   2.336   2.616  0.2241  0.8187 -0.7785
 9614SOL    HW129741   5.212   2.263   2.551 -1.0175  0.7565 -1.1569
 9614SOL    HW229742   5.098   2.320   2.653  1.3567  0.1593  1.9650
 9615SOL     OW29743   0.019   4.852   0.812 -0.5238  0.0305 -0.1503
 9615SOL    HW129744   0.098   4.896   0.770 -0.4361  1.4706  1.3889
 9615SOL    HW229745   0.011   4.759   0.779  1.1120  0.2353 -1.2396
 9616SOL     OW29746   4.370   1.020   1.012  0.1601  0.2682 -0.2831
 9616SOL    HW129747   4.292   0.966   0.980 -0.0037 -0.0453  0.6186
 9616SOL    HW229748   4.425   0.965   1.075  0.1910  1.0316  0.3663
 9617SOL     OW29749   6.400   5.380   4.895  0.5010 -0.7978 -0.0122
 9617SOL    HW129750   6.371   5.284   4.895 -0.1433 -0.6200 -1.1796
 9617SOL    HW229751   6.405   5.413   4.801  1.4388  0.1107  0.3384
 9618SOL     OW29752   2.948   5.172   2.622  0.3472 -0.2004  0.1497
 9618SOL    HW129753   2.889   5.159   2.542 -0.3295  0.4265  0.5338
 9618SOL    HW229754   3.028   5.227   2.596 -0.1745  0.5127  0.0302
 9619SOL     OW29755   6.420   0.384   5.829  0.7325  0.0653  0.6624
 9619SOL    HW129756   6.426   0.479   5.861  0.6408  0.4122 -0.3265
 9619SOL    HW229757   6.444   0.380   5.732 -1.3363 -0.5776  0.1300
 9620SOL     OW29758   3.678   0.479   4.002 -0.2366 -0.2275 -0.0146
 9620SOL    HW129759   3.738   0.404   3.976  0.7812  0.0096  1.5318
 9620SOL    HW229760   3.604   0.444   4.060 -0.9209 -0.3191 -0.9117
 9621SOL     OW29761   5.332   6.481   0.145  0.6782  0.2596 -0.3044
 9621SOL    HW129762   5.236   6.509   0.143  1.0046  1.4251 -1.2656
 9621SOL    HW229763   5.350   6.421   0.067  0.6973 -0.0931 -0.0296
 9622SOL     OW29764   3.188   0.946   4.646  0.1627 -0.0855 -0.2245
 9622SOL    HW129765   3.280   0.983   4.636  0.3431 -0.9332 -2.0697
 9622SOL    HW229766   3.121   1.021   4.644  0.6412  0.3169 -1.8114
 9623SOL     OW29767   6.376   3.264   6.823 -0.7894  0.0475 -0.3096
 9623SOL    HW129768   6.428   3.182   6.847 -1.5580 -0.4336 -0.2341
 9623SOL    HW229769   6.319   3.245   6.743 -1.3942  0.3269  0.0455
 9624SOL     OW29770   6.448   1.451   3.992  0.8785  0.8089  0.2954
 9624SOL    HW129771   6.490   1.491   3.910  2.1069 -0.0228  0.4925
 9624SOL    HW229772   6.389   1.375   3.965  0.6940  1.0046  0.1364
 9625SOL     OW29773   6.135   2.452   0.459 -0.7831 -0.0013  0.0195
 9625SOL    HW129774   6.064   2.430   0.392  0.7753 -0.6405 -1.5116
 9625SOL    HW229775   6.191   2.371   0.476 -0.0493  0.6313  0.7255
 9626SOL     OW29776   4.245   0.269   6.197 -0.5660 -0.2560  0.0779
 9626SOL    HW129777   4.196   0.320   6.126 -1.3541  0.3178  1.0197
 9626SOL    HW229778   4.327   0.320   6.223 -0.9849  0.2054  0.5224
 9627SOL     OW29779   4.281   2.300   0.970 -0.0351  0.0571 -0.4253
 9627SOL    HW129780   4.303   2.225   1.032  1.3674 -0.5253 -1.5628
 9627SOL    HW229781   4.355   2.368   0.972 -0.8894  1.0021 -0.0473
 9628SOL     OW29782   1.459   6.507   1.558 -0.8328  0.1553 -0.4582
 9628SOL    HW129783   1.445   6.457   1.643 -0.5941 -0.7981 -0.9553
 9628SOL    HW229784   1.475   6.603   1.577 -3.0353  0.3908  0.4331
 9629SOL     OW29785   2.394   6.568   3.650 -0.3638 -0.2670 -0.1970
 9629SOL    HW129786   2.465   6.528   3.591  0.3577  1.0270 -0.2605
 9629SOL    HW229787   2.426   6.657   3.683  0.3136 -1.8779  4.1188
 9630SOL     OW29788   5.862   1.802   5.692 -0.5945 -0.1529 -0.1432
 9630SOL    HW129789   5.799   1.762   5.757 -0.9333 -1.3810 -1.1988
 9630SOL    HW229790   5.922   1.868   5.739 -1.4866 -0.2686  1.1842
 9631SOL     OW29791   5.677   1.565   1.980  0.2740  0.0776  0.2388
 9631SOL    HW129792   5.683   1.502   2.058  0.4558 -1.5445 -1.0451
 9631SOL    HW229793   5.664   1.658   2.014  0.3735 -0.5807  2.2063
 9632SOL     OW29794   4.056   2.541   6.989  0.0762 -0.5236 -0.2885
 9632SOL    HW129795   4.039   2.553   7.087  2.1317 -0.1287  0.0563
 9632SOL    HW229796   4.072   2.445   6.969  1.4645 -0.3960  0.1131
 9633SOL     OW29797   2.541   0.086   2.845  0.2263 -0.4959 -0.1823
 9633SOL    HW129798   2.504   0.026   2.917  0.9470  0.1872  0.7826
 9633SOL    HW229799   2.640   0.074   2.839  0.3250  0.3060 -0.2445
 9634SOL     OW29800   5.151   3.576   5.998 -0.8616  0.3164  0.1833
 9634SOL    HW129801   5.201   3.500   5.957 -0.2174  1.0435 -0.4168
 9634SOL    HW229802   5.078   3.541   6.057  0.7022 -0.7731  1.5445
 9635SOL     OW29803   6.968   4.234   5.167  0.0107 -0.0797 -0.1548
 9635SOL    HW129804   6.930   4.270   5.253 -0.5584 -1.4654  0.2183
 9635SOL    HW229805   7.011   4.308   5.116  1.3871  0.6031  1.8442
 9636SOL     OW29806   2.524   1.740   5.766  0.0544  0.6870 -0.0955
 9636SOL    HW129807   2.593   1.781   5.826  1.3701 -0.6920 -0.6126
 9636SOL    HW229808   2.485   1.659   5.810 -0.0028  0.4772 -0.5271
 9637SOL     OW29809   1.376   0.587   0.551 -0.5353  0.8348 -0.4133
 9637SOL    HW129810   1.279   0.568   0.565 -0.1789 -0.4071  0.5277
 9637SOL    HW229811   1.428   0.502   0.551  0.1815  1.0428 -4.6788
 9638SOL     OW29812   6.809   4.993   0.074  0.3907  0.4494  0.8403
 9638SOL    HW129813   6.875   4.992  -0.002  1.5862  0.0911  1.8422
 9638SOL    HW229814   6.758   5.079   0.071  1.1595  0.9103  0.2372
 9639SOL     OW29815   2.529   4.587   4.563  0.2669  0.2767 -0.1256
 9639SOL    HW129816   2.547   4.666   4.504  1.2303  0.6408  0.6417
 9639SOL    HW229817   2.547   4.611   4.658  0.0732 -0.7194  0.1780
 9640SOL     OW29818   3.898   6.368   4.002  0.0829 -0.7638  0.5380
 9640SOL    HW129819   3.968   6.381   4.071  0.5980 -0.5891 -0.0067
 9640SOL    HW229820   3.940   6.361   3.912 -0.6569  0.4325  0.0723
 9641SOL     OW29821   4.295   4.980   0.954  0.6328  0.2155  0.3290
 9641SOL    HW129822   4.305   4.887   0.919 -0.2303  1.1141 -2.5935
 9641SOL    HW229823   4.372   5.001   1.014  2.0233 -1.6726 -0.6801
 9642SOL     OW29824   0.353   0.780   2.206 -0.4673  0.3771  0.4214
 9642SOL    HW129825   0.318   0.809   2.116  2.2654 -3.3084 -2.1543
 9642SOL    HW229826   0.285   0.721   2.250 -1.2112  0.9217  0.0277
 9643SOL     OW29827   1.591   3.229   2.698 -0.1203 -0.3208  0.5167
 9643SOL    HW129828   1.663   3.215   2.630 -0.0828 -2.9526  1.0027
 9643SOL    HW229829   1.551   3.320   2.686  1.1615  0.0196 -1.7573
 9644SOL     OW29830   4.259   6.037   6.283 -0.4338 -0.2644 -0.1185
 9644SOL    HW129831   4.172   6.045   6.331 -0.7047 -2.1284 -0.2469
 9644SOL    HW229832   4.321   6.108   6.315 -1.8950  0.9482  0.1540
 9645SOL     OW29833   5.120   4.039   3.681 -0.3908  0.0987  0.1697
 9645SOL    HW129834   5.045   4.003   3.736 -1.8905  1.2402 -1.0559
 9645SOL    HW229835   5.112   4.005   3.588 -0.3491  1.5187 -0.3705
 9646SOL     OW29836   4.090   3.916   6.430  0.3698 -0.3867 -0.0971
 9646SOL    HW129837   4.008   3.876   6.388 -0.0764  1.3609 -0.9959
 9646SOL    HW229838   4.157   3.937   6.359  0.6469  0.2885  0.3586
 9647SOL     OW29839   6.870   4.173   5.688  0.5484 -0.6100  0.2358
 9647SOL    HW129840   6.943   4.182   5.756  0.1827 -2.4207  0.9255
 9647SOL    HW229841   6.854   4.076   5.669  0.0943 -0.1690 -1.8664
 9648SOL     OW29842   0.354   3.546   6.380  0.5352 -0.9265  0.4549
 9648SOL    HW129843   0.300   3.489   6.318  1.8294 -2.1309  0.3781
 9648SOL    HW229844   0.435   3.579   6.331  0.8690 -0.7543  1.1220
 9649SOL     OW29845   3.121   0.771   4.097 -0.1046 -0.2171  1.2901
 9649SOL    HW129846   3.053   0.779   4.170 -0.0079 -0.2053  1.3790
 9649SOL    HW229847   3.191   0.842   4.108 -0.3437  0.0818  0.9178
 9650SOL     OW29848   4.425   2.206   5.750 -0.3702 -0.1983 -0.0226
 9650SOL    HW129849   4.421   2.288   5.693  0.1512  1.1038  1.7477
 9650SOL    HW229850   4.398   2.228   5.843 -0.3880 -2.0969  0.4690
 9651SOL     OW29851   5.926   2.688   0.405  0.1364 -0.2197  0.0193
 9651SOL    HW129852   5.897   2.598   0.372 -0.8051 -0.6726  1.9148
 9651SOL    HW229853   5.978   2.677   0.489 -0.5803  1.0255  0.6498
 9652SOL     OW29854   2.710   1.287   4.594 -0.3064 -0.1221 -0.1361
 9652SOL    HW129855   2.787   1.237   4.635  0.1881  0.2561 -0.5844
 9652SOL    HW229856   2.739   1.325   4.506 -0.6986  0.8852  0.1579
 9653SOL     OW29857   0.064   4.348   3.983 -0.2986  0.1280  0.2521
 9653SOL    HW129858   0.077   4.446   3.972 -0.8064  0.0167 -1.7586
 9653SOL    HW229859  -0.012   4.330   4.046 -3.0826  1.1778 -2.5617
 9654SOL     OW29860   0.074   2.509   4.553  0.2769 -0.0459  0.0365
 9654SOL    HW129861   0.158   2.562   4.566 -0.0367  0.8040 -1.2409
 9654SOL    HW229862   0.036   2.528   4.463 -0.0684 -2.1812 -0.3152
 9655SOL     OW29863   2.656   4.208   1.637  0.2781  0.4321 -0.8906
 9655SOL    HW129864   2.563   4.185   1.666  0.6637  0.0833  0.1184
 9655SOL    HW229865   2.681   4.152   1.557  0.5376 -1.4156  0.4129
 9656SOL     OW29866   6.154   4.575   2.937 -0.2913 -0.6554  0.1357
 9656SOL    HW129867   6.151   4.485   2.982 -0.5872 -0.2885  0.8601
 9656SOL    HW229868   6.237   4.581   2.881  0.5344 -0.8226  1.2883
 9657SOL     OW29869   2.087   2.861   0.353 -0.2870 -0.5111  0.7476
 9657SOL    HW129870   2.131   2.853   0.263  0.8013  1.6960  1.0337
 9657SOL    HW229871   2.078   2.770   0.394 -1.1121 -1.6215 -1.6937
 9658SOL     OW29872   0.788   5.069   1.304  0.3009  0.6084  0.5374
 9658SOL    HW129873   0.865   5.118   1.265  1.3894 -1.9027 -0.7049
 9658SOL    HW229874   0.795   5.069   1.404  0.6125  2.3274  0.5351
 9659SOL     OW29875   6.814   1.052   0.590 -0.6703  0.0058 -0.1416
 9659SOL    HW129876   6.773   1.047   0.681  0.7802 -0.2971  0.5328
 9659SOL    HW229877   6.914   1.048   0.599 -0.4831  0.5139 -1.7166
 9660SOL     OW29878   3.723   2.055   0.999  0.4189  0.1647 -0.0144
 9660SOL    HW129879   3.811   2.101   1.010  0.1136  0.9524 -0.7768
 9660SOL    HW229880   3.664   2.077   1.076  1.6882 -2.3229  1.8064
 9661SOL     OW29881   4.011   1.036   5.003 -0.6221 -0.1820  0.1303
 9661SOL    HW129882   3.960   0.963   5.048  1.3248 -1.2966  0.6317
 9661SOL    HW229883   4.047   1.003   4.916  1.0159 -0.1586  0.7643
 9662SOL     OW29884   0.195   5.629   1.247 -0.3333 -0.3475  0.0825
 9662SOL    HW129885   0.236   5.657   1.160  2.0395 -0.3809  1.1078
 9662SOL    HW229886   0.113   5.684   1.265 -0.3992  0.2159 -1.7666
 9663SOL     OW29887   5.186   6.756   6.383  0.3978  0.0145 -0.0866
 9663SOL    HW129888   5.259   6.712   6.436  0.9102  0.7766 -0.1314
 9663SOL    HW229889   5.115   6.789   6.445  0.9235  0.7711  0.1272
 9664SOL     OW29890   3.143   5.667   6.554 -0.1155 -0.6805 -0.4695
 9664SOL    HW129891   3.234   5.676   6.594 -0.4668 -1.3813  0.5322
 9664SOL    HW229892   3.138   5.582   6.501  0.2442  0.0782 -1.7641
 9665SOL     OW29893   4.121   5.834   5.050 -0.0900  0.2382 -0.3598
 9665SOL    HW129894   4.154   5.836   4.955 -1.5186  1.6062 -0.8711
 9665SOL    HW229895   4.041   5.775   5.056  0.9834 -1.1899  0.3808
 9666SOL     OW29896   4.073   4.125   0.893  0.3350  0.2284 -0.6425
 9666SOL    HW129897   4.075   4.224   0.882  1.9210  0.2098 -0.7118
 9666SOL    HW229898   4.032   4.102   0.982 -0.9110  0.8767 -1.0205
 9667SOL     OW29899   2.503   4.537   5.105  0.1798  0.2211 -0.1322
 9667SOL    HW129900   2.602   4.536   5.094  0.2597 -1.4712  0.4476
 9667SOL    HW229901   2.477   4.474   5.179 -1.3717  0.1194 -0.7248
 9668SOL     OW29902   4.502   1.486   4.682 -0.1058 -0.5350  0.5781
 9668SOL    HW129903   4.434   1.522   4.617 -0.3139  0.4740  1.3389
 9668SOL    HW229904   4.585   1.460   4.632 -0.1533  0.5118 -0.0675
 9669SOL     OW29905   7.019   0.924   1.734 -0.5715  0.3139 -0.1160
 9669SOL    HW129906   7.055   0.955   1.822  0.7511  0.3799 -0.6551
 9669SOL    HW229907   6.981   0.832   1.744  0.5732 -0.1347  0.3072
 9670SOL     OW29908   2.566   1.500   1.648 -0.6211  0.1206  0.5786
 9670SOL    HW129909   2.597   1.595   1.646 -1.9243  0.5506 -0.2568
 9670SOL    HW229910   2.489   1.489   1.586  0.9634 -2.0219 -1.1597
 9671SOL     OW29911   1.431   2.496   4.395 -0.6623 -0.2416  0.1827
 9671SOL    HW129912   1.487   2.547   4.461 -0.1873 -0.5408  0.0168
 9671SOL    HW229913   1.489   2.434   4.343 -0.8663  0.6283 -1.1386
 9672SOL     OW29914   5.878   3.881   0.510 -0.5134  0.0439 -0.5201
 9672SOL    HW129915   5.973   3.901   0.486  0.5290 -0.4239  2.6851
 9672SOL    HW229916   5.835   3.963   0.549 -0.4863 -0.4331  0.5584
 9673SOL     OW29917   4.323   5.308   0.271 -0.0474 -0.5786 -0.6047
 9673SOL    HW129918   4.326   5.401   0.306 -1.9221  0.0570 -1.9884
 9673SOL    HW229919   4.416   5.274   0.258  0.6696  0.8105  0.5975
 9674SOL     OW29920   4.884   1.985   2.532 -0.2978 -0.3948  0.1553
 9674SOL    HW129921   4.954   2.023   2.472 -1.4485  0.3913 -0.7254
 9674SOL    HW229922   4.867   1.890   2.506 -1.6834  0.2832 -1.6948
 9675SOL     OW29923   5.692   5.952   4.416  0.0159 -0.2616 -0.2338
 9675SOL    HW129924   5.639   5.868   4.405  0.1242 -0.1008 -2.2563
 9675SOL    HW229925   5.645   6.012   4.482 -0.5976 -1.4535  0.4552
 9676SOL     OW29926   2.665   2.261   0.232  0.3941  0.5631 -0.2352
 9676SOL    HW129927   2.645   2.171   0.271 -0.7846  0.4265 -1.1042
 9676SOL    HW229928   2.583   2.319   0.237  0.4485  0.8164 -1.7293
 9677SOL     OW29929   0.649   1.932   2.034  0.1612  0.2142 -0.0586
 9677SOL    HW129930   0.674   1.996   2.107 -0.9217  0.2836  0.2750
 9677SOL    HW229931   0.564   1.885   2.059  0.3417 -0.5360 -0.8094
 9678SOL     OW29932   4.133   3.517   6.552 -0.3172  0.0167  0.4010
 9678SOL    HW129933   4.124   3.610   6.587  0.2730  0.5127 -0.7146
 9678SOL    HW229934   4.199   3.516   6.477 -0.5999 -1.2331  0.1472
 9679SOL     OW29935   3.481   0.267   1.012 -0.2774 -0.3410  0.2170
 9679SOL    HW129936   3.579   0.286   1.027 -0.1929  1.8742 -2.4153
 9679SOL    HW229937   3.427   0.331   1.066 -0.2139  0.0707 -0.2043
 9680SOL     OW29938   5.417   6.698   6.998 -0.0611  0.4243 -0.0959
 9680SOL    HW129939   5.370   6.622   7.044  1.3215 -0.6695 -0.4440
 9680SOL    HW229940   5.515   6.683   6.999  0.1254  1.1798 -2.0108
 9681SOL     OW29941   1.726   5.438   2.800  0.1205 -0.0019  0.0215
 9681SOL    HW129942   1.637   5.423   2.756 -0.1374  0.6836  0.3044
 9681SOL    HW229943   1.784   5.493   2.740 -1.0601  3.0045  1.4299
 9682SOL     OW29944   0.452   1.790   5.100 -0.3460  0.3539  0.2563
 9682SOL    HW129945   0.516   1.832   5.036 -2.5783  0.7057 -1.8410
 9682SOL    HW229946   0.457   1.690   5.091  0.1491  0.3631  0.3841
 9683SOL     OW29947   5.380   1.811   1.373  0.3813  0.3680 -0.0843
 9683SOL    HW129948   5.391   1.775   1.280  4.0361  1.0484 -0.0662
 9683SOL    HW229949   5.368   1.910   1.370  0.8266  0.4317  0.1677
 9684SOL     OW29950   1.198   6.611   6.269 -0.5365 -0.1070  0.5261
 9684SOL    HW129951   1.242   6.528   6.301 -0.7071  0.3887  2.1295
 9684SOL    HW229952   1.153   6.593   6.182  0.5991 -1.3061  0.1473
 9685SOL     OW29953   3.092   4.656   1.780  0.3516  0.3827 -0.1645
 9685SOL    HW129954   3.017   4.600   1.815  0.3279  1.2843  1.3114
 9685SOL    HW229955   3.056   4.725   1.718 -0.1181  1.0749  0.8589
 9686SOL     OW29956   4.429   4.814   0.211 -0.1963 -0.0565 -0.0638
 9686SOL    HW129957   4.336   4.818   0.246 -0.7310 -2.9437 -0.8766
 9686SOL    HW229958   4.493   4.798   0.286 -0.2223  2.2452  0.5408
 9687SOL     OW29959   3.252   4.349   6.972  0.3970 -0.1827 -0.2024
 9687SOL    HW129960   3.262   4.256   7.007 -0.1624  0.2195  1.0939
 9687SOL    HW229961   3.161   4.360   6.931  0.3960 -0.1644 -0.1956
 9688SOL     OW29962   4.994   5.646   0.112 -0.8484 -0.3840 -0.0654
 9688SOL    HW129963   5.042   5.633   0.199 -1.4088 -0.1738  0.2853
 9688SOL    HW229964   4.976   5.744   0.098  0.1214 -0.3126 -0.9107
 9689SOL     OW29965   1.638   1.581   0.246  0.1095 -0.1930 -0.2363
 9689SOL    HW129966   1.717   1.572   0.306 -0.0811 -0.2532  0.0116
 9689SOL    HW229967   1.660   1.641   0.170  1.0660 -1.8741 -1.3496
 9690SOL     OW29968   6.769   5.772   5.222 -0.3420  0.2720 -0.2513
 9690SOL    HW129969   6.831   5.801   5.149  0.2159 -1.6240 -0.6024
 9690SOL    HW229970   6.700   5.710   5.184  0.6976 -1.7465  0.9424
 9691SOL     OW29971   1.295   4.005   1.041  0.5510  0.1717  0.2573
 9691SOL    HW129972   1.290   3.969   1.134  1.7192  0.8703  0.6051
 9691SOL    HW229973   1.296   3.929   0.976 -3.5951 -0.3771  0.5349
 9692SOL     OW29974   0.727   1.588   1.003  0.5218  0.3476  0.0483
 9692SOL    HW129975   0.741   1.555   0.910 -0.6983  1.0557 -0.4182
 9692SOL    HW229976   0.648   1.543   1.043  0.1152  1.1376  0.1666
 9693SOL     OW29977   0.258   1.510   4.912 -0.2964 -0.7118  0.2827
 9693SOL    HW129978   0.161   1.514   4.938 -0.2191 -0.4986  0.5465
 9693SOL    HW229979   0.312   1.480   4.990 -0.0396  0.1414  0.4451
 9694SOL     OW29980   6.879   4.586   5.202  0.3397  0.4239  0.5721
 9694SOL    HW129981   6.856   4.499   5.245  0.4770  1.2135  2.3001
 9694SOL    HW229982   6.798   4.622   5.156  0.0693 -0.2314  0.5203
 9695SOL     OW29983   5.942   4.759   3.316  0.2847 -0.0930 -0.6387
 9695SOL    HW129984   5.982   4.712   3.394 -0.9270  1.7343  1.1966
 9695SOL    HW229985   5.859   4.710   3.287  0.3933 -0.4434 -0.3634
 9696SOL     OW29986   2.302   4.632   6.830 -0.2787  0.3954 -0.5074
 9696SOL    HW129987   2.393   4.657   6.863 -0.3941  1.2903 -0.8431
 9696SOL    HW229988   2.254   4.582   6.902  1.1363 -1.7706 -0.9807
 9697SOL     OW29989   2.637   4.611   3.702 -0.7222  0.6032  0.1203
 9697SOL    HW129990   2.718   4.630   3.758 -0.3772 -3.1252  1.1710
 9697SOL    HW229991   2.663   4.616   3.605  0.1788  1.6327  0.3973
 9698SOL     OW29992   4.448   2.449   5.609 -0.5488 -0.1230  0.2134
 9698SOL    HW129993   4.397   2.457   5.523 -0.7368 -0.0372  0.3330
 9698SOL    HW229994   4.423   2.524   5.670  0.9386  0.8831 -0.3512
 9699SOL     OW29995   4.097   3.563   3.969  0.1432 -0.9472  0.5188
 9699SOL    HW129996   4.065   3.651   4.004  1.4390 -0.7105  1.1817
 9699SOL    HW229997   4.077   3.556   3.872 -0.2910 -0.0737  0.5362
 9700SOL     OW29998   0.003   2.434   5.893  0.5086 -0.3190  0.1862
 9700SOL    HW129999   0.076   2.497   5.868 -1.3725  1.6898 -0.5507
 9700SOL    HW230000  -0.015   2.372   5.817  1.2601 -0.6804  0.2918
 9701SOL     OW30001   2.078   1.574   1.002  0.2557  0.3596 -0.0732
 9701SOL    HW130002   2.166   1.591   0.957  0.1258 -1.7323 -1.2567
 9701SOL    HW230003   2.004   1.603   0.942  0.0642  3.0921  1.3469
 9702SOL     OW30004   6.425   6.447   5.288  0.0222 -0.4832 -0.3028
 9702SOL    HW130005   6.377   6.535   5.279  0.7218  0.2733  2.3981
 9702SOL    HW230006   6.513   6.452   5.241 -0.5663 -0.2737 -1.4094
 9703SOL     OW30007   6.549   2.093   2.156 -1.1526 -0.0696 -0.3853
 9703SOL    HW130008   6.611   2.025   2.116 -0.5500  0.5213 -0.4620
 9703SOL    HW230009   6.560   2.180   2.109 -2.6252 -0.1531 -0.9438
 9704SOL     OW30010   4.117   4.599   6.376  0.4707  0.3951  0.7477
 9704SOL    HW130011   4.114   4.524   6.310  1.0273  2.0172 -1.2151
 9704SOL    HW230012   4.026   4.611   6.417 -1.0165  1.7796 -2.6363
 9705SOL     OW30013   1.424   2.724   6.923  0.7036 -0.6518  0.2251
 9705SOL    HW130014   1.395   2.724   6.828 -1.5918  0.6980  0.8344
 9705SOL    HW230015   1.440   2.630   6.953  2.7183 -1.0340 -1.7600
 9706SOL     OW30016   0.968   1.224   2.142  0.7945 -0.0625  0.2926
 9706SOL    HW130017   1.028   1.303   2.153 -0.0021  0.5057  0.6544
 9706SOL    HW230018   0.924   1.228   2.053  0.0284  0.4268  0.6815
 9707SOL     OW30019   4.377   5.068   6.655  0.8550  0.0775 -0.2525
 9707SOL    HW130020   4.282   5.039   6.663  0.4586  1.6428  1.0916
 9707SOL    HW230021   4.437   4.998   6.696  0.1171  0.0747  0.8432
 9708SOL     OW30022   5.613   1.919   4.857 -0.0655  0.3565  0.1883
 9708SOL    HW130023   5.532   1.972   4.883 -0.1757 -0.7062  2.2378
 9708SOL    HW230024   5.667   1.898   4.939  0.7667 -1.4038 -0.7435
 9709SOL     OW30025   5.073   4.927   3.220  0.0113  0.1176  0.6009
 9709SOL    HW130026   5.019   4.961   3.297  0.3290  2.5791 -0.1627
 9709SOL    HW230027   5.166   4.909   3.252  0.5546  2.5167  0.6320
 9710SOL     OW30028   2.367   2.342   2.115 -0.0510  0.0025 -0.0789
 9710SOL    HW130029   2.464   2.327   2.096  0.2253  0.0365  1.2235
 9710SOL    HW230030   2.320   2.363   2.029  1.1323  0.2384 -0.7038
 9711SOL     OW30031   3.326   5.469   6.465  0.4270 -0.2600 -0.4736
 9711SOL    HW130032   3.337   5.437   6.371  2.1929  0.9276 -0.7091
 9711SOL    HW230033   3.395   5.538   6.485 -0.5990  0.2929  1.3685
 9712SOL     OW30034   2.036   5.503   0.556  0.0117 -0.1349 -0.0970
 9712SOL    HW130035   2.050   5.563   0.478  0.4381  1.0271  0.8536
 9712SOL    HW230036   2.094   5.422   0.546  1.9385  1.1491  0.1859
 9713SOL     OW30037   2.674   4.168   6.864  0.4821 -0.5019  0.5226
 9713SOL    HW130038   2.682   4.094   6.932  0.8899 -0.8311  0.1270
 9713SOL    HW230039   2.583   4.208   6.869 -0.8261 -2.9914 -1.2446
 9714SOL     OW30040   2.634   0.899   2.842 -0.0337 -0.5269 -0.2173
 9714SOL    HW130041   2.599   0.977   2.894 -2.0896 -2.4142  1.4628
 9714SOL    HW230042   2.579   0.887   2.760  0.4828 -0.0449 -0.6384
 9715SOL     OW30043   2.466   4.887   3.583  0.0836  0.0450  0.0470
 9715SOL    HW130044   2.533   4.818   3.558 -0.4203 -0.3993 -0.0955
 9715SOL    HW230045   2.402   4.900   3.507 -0.8530 -0.5827  0.7168
 9716SOL     OW30046   4.707   2.862   0.272  0.2906  0.6809 -0.0287
 9716SOL    HW130047   4.625   2.894   0.224  0.0426 -0.9499 -0.7661
 9716SOL    HW230048   4.687   2.776   0.318  0.2201  2.5986  3.9861
 9717SOL     OW30049   4.459   4.563   1.945  0.1217 -0.2867  0.4168
 9717SOL    HW130050   4.390   4.635   1.940  0.0885 -0.0984  2.6861
 9717SOL    HW230051   4.437   4.491   1.878 -0.6309  1.1017 -0.8955
 9718SOL     OW30052   6.648   2.818   4.180  0.0697 -0.2713 -0.1557
 9718SOL    HW130053   6.711   2.759   4.230 -0.5411 -0.4004  0.4753
 9718SOL    HW230054   6.559   2.819   4.226  0.1262  1.3225 -0.0047
 9719SOL     OW30055   0.851   1.668   3.356 -0.9166 -0.3315 -0.5193
 9719SOL    HW130056   0.772   1.614   3.325 -0.5418 -2.6500  2.1527
 9719SOL    HW230057   0.930   1.646   3.299 -0.8773 -2.4464  0.2514
 9720SOL     OW30058   1.795   1.864   2.406 -0.3418  0.1417  0.2001
 9720SOL    HW130059   1.808   1.952   2.360  1.0903  0.0915  0.4626
 9720SOL    HW230060   1.834   1.792   2.349 -0.0484 -0.1227  0.7379
 9721SOL     OW30061   4.895   3.003   1.122  0.4725  0.5662 -0.2613
 9721SOL    HW130062   4.900   2.919   1.177  0.3079  0.9608  0.3570
 9721SOL    HW230063   4.823   3.062   1.157  1.1728  1.3620 -0.1516
 9722SOL     OW30064   4.681   2.971   5.288 -0.1216 -0.2733  0.0071
 9722SOL    HW130065   4.710   3.067   5.293  0.0981 -0.3051 -0.6373
 9722SOL    HW230066   4.723   2.927   5.209  0.0173 -0.9875  0.4634
 9723SOL     OW30067   1.387   4.187   6.600  0.6008 -0.4717  0.0470
 9723SOL    HW130068   1.462   4.148   6.546  0.1333 -2.9492  1.0184
 9723SOL    HW230069   1.425   4.233   6.680  1.1667 -2.4095  0.9662
 9724SOL     OW30070   1.856   0.787   5.823  0.2165 -0.3138  0.1547
 9724SOL    HW130071   1.896   0.808   5.913 -0.0624 -0.0068  0.2081
 9724SOL    HW230072   1.762   0.757   5.834 -0.1918  0.8083 -0.1120
 9725SOL     OW30073   3.438   3.894   5.096  0.1713 -0.1881  0.4588
 9725SOL    HW130074   3.475   3.980   5.061  0.2315 -1.2438 -2.2758
 9725SOL    HW230075   3.510   3.824   5.097 -0.7730 -1.2732 -1.3970
 9726SOL     OW30076   3.865   2.529   0.751  0.0010 -0.0495 -0.4452
 9726SOL    HW130077   3.835   2.514   0.846  0.9809  1.3165  0.1230
 9726SOL    HW230078   3.949   2.477   0.735  0.1323  0.1410 -0.3813
 9727SOL     OW30079   0.254   7.000   0.175 -0.0618 -0.6458 -0.1037
 9727SOL    HW130080   0.228   7.052   0.257  0.4680  0.3772 -0.5645
 9727SOL    HW230081   0.341   7.035   0.140  0.2506 -1.7822 -0.5011
 9728SOL     OW30082   1.528   2.459   0.767  0.6606 -0.7045  0.4662
 9728SOL    HW130083   1.602   2.462   0.699  2.7477 -1.7684  2.5205
 9728SOL    HW230084   1.464   2.387   0.743 -0.0090  0.4796 -1.5685
 9729SOL     OW30085   4.598   0.353   6.996  0.1573  0.5503  0.1092
 9729SOL    HW130086   4.599   0.433   6.936  1.1468  0.4214 -0.0677
 9729SOL    HW230087   4.558   0.275   6.947 -2.7405  1.3955  0.9548
 9730SOL     OW30088   5.993   4.235   6.311  0.1357 -0.4634 -0.3044
 9730SOL    HW130089   5.926   4.166   6.285  1.0075 -1.9648  1.2130
 9730SOL    HW230090   6.064   4.193   6.367  1.5761  1.3692 -0.6453
 9731SOL     OW30091   4.948   0.505   4.087 -0.2426  0.3117  0.2564
 9731SOL    HW130092   4.909   0.474   4.000 -0.9615  0.4296  0.5361
 9731SOL    HW230093   5.033   0.554   4.069 -0.5217  0.5607 -0.4055
 9732SOL     OW30094   0.552   0.451   1.134 -0.9431 -0.1662 -0.2596
 9732SOL    HW130095   0.511   0.541   1.121 -1.4285  0.3370  3.5694
 9732SOL    HW230096   0.480   0.381   1.129 -1.2548  0.0911  0.4370
 9733SOL     OW30097   3.377   1.370   1.848  0.0142 -0.8260  0.6568
 9733SOL    HW130098   3.349   1.363   1.752 -3.5305  1.4752  1.3317
 9733SOL    HW230099   3.372   1.279   1.891 -1.0159 -1.4462 -0.6958
 9734SOL     OW30100   4.443   5.797   6.910  0.5164 -0.0280 -0.1345
 9734SOL    HW130101   4.506   5.861   6.954 -0.4748  0.4222  0.6579
 9734SOL    HW230102   4.451   5.708   6.954 -0.4808  0.4238  1.0227
 9735SOL     OW30103   1.591   1.733   5.763  0.8188  0.2787 -0.4688
 9735SOL    HW130104   1.573   1.790   5.683 -0.7790 -1.3532 -1.3706
 9735SOL    HW230105   1.590   1.789   5.846 -1.2789  1.4921 -1.2472
 9736SOL     OW30106   6.343   3.950   1.271  0.4043  0.0534 -0.2342
 9736SOL    HW130107   6.266   4.013   1.274 -0.0879 -0.3390 -2.8900
 9736SOL    HW230108   6.426   3.999   1.244  0.1602 -0.2678 -1.6326
 9737SOL     OW30109   6.449   1.480   5.808 -0.1602  0.1466 -0.0529
 9737SOL    HW130110   6.532   1.433   5.780 -0.3988 -0.6785  0.5918
 9737SOL    HW230111   6.405   1.429   5.882  0.3521  2.1340  1.7137
 9738SOL     OW30112   0.142   6.529   1.738  0.5493  0.3412  0.2262
 9738SOL    HW130113   0.192   6.579   1.667  2.0660 -1.8522 -0.3516
 9738SOL    HW230114   0.077   6.467   1.695  0.9393 -0.4551  0.7576
 9739SOL     OW30115   3.724   2.960   4.439  0.5907 -0.0350  0.0325
 9739SOL    HW130116   3.708   2.926   4.346  0.6391  0.6046 -0.2147
 9739SOL    HW230117   3.820   2.987   4.448  1.2822 -2.6005  1.1019
 9740SOL     OW30118   1.357   3.703   0.237 -0.1419  0.1958 -0.2099
 9740SOL    HW130119   1.450   3.740   0.235  0.6048 -1.6514 -2.4446
 9740SOL    HW230120   1.352   3.629   0.304  0.3956 -0.6155 -1.0490
 9741SOL     OW30121   5.548   4.211   6.360  0.2359 -0.0383 -0.4175
 9741SOL    HW130122   5.567   4.256   6.447 -0.2343  0.4071 -0.5399
 9741SOL    HW230123   5.552   4.278   6.286 -0.9465 -0.0775 -0.5452
 9742SOL     OW30124   0.852   5.496   0.400 -1.0316 -1.2891  0.0989
 9742SOL    HW130125   0.776   5.485   0.463 -0.9615 -1.8913  0.0879
 9742SOL    HW230126   0.885   5.406   0.372 -1.8495 -1.0681 -1.7444
 9743SOL     OW30127   3.951   0.464   6.833 -0.3648 -0.3800  0.1925
 9743SOL    HW130128   4.006   0.445   6.914 -1.4013  0.6059  1.1409
 9743SOL    HW230129   3.976   0.553   6.796 -0.4710 -0.4717 -0.1063
 9744SOL     OW30130   1.519   3.050   3.278  0.0398  0.0727  0.1491
 9744SOL    HW130131   1.470   3.137   3.268 -1.2740 -0.7438 -0.9048
 9744SOL    HW230132   1.457   2.982   3.319  0.6171 -0.7198 -0.2774
 9745SOL     OW30133   6.000   4.964   3.105 -0.2661 -0.0382 -0.7009
 9745SOL    HW130134   5.963   4.885   3.154 -0.0480 -0.9235 -1.9204
 9745SOL    HW230135   6.098   4.951   3.089 -0.4244 -0.0234 -1.7908
 9746SOL     OW30136   6.081   2.573   1.550 -0.5555 -0.6214 -0.2251
 9746SOL    HW130137   6.134   2.596   1.468  2.1703 -0.9154  1.3168
 9746SOL    HW230138   6.054   2.477   1.547 -1.7701 -0.2724 -1.3878
 9747SOL     OW30139   5.174   3.551   5.167 -0.2454 -0.4995 -0.3903
 9747SOL    HW130140   5.252   3.612   5.179 -0.7357 -0.0814  0.8721
 9747SOL    HW230141   5.097   3.584   5.222 -1.1489 -1.1937 -1.1933
 9748SOL     OW30142   2.151   3.092   4.741  0.3000  0.6872 -0.3189
 9748SOL    HW130143   2.056   3.060   4.745 -0.1289  1.9931  0.4814
 9748SOL    HW230144   2.174   3.118   4.647  0.8597 -2.3762 -1.1644
 9749SOL     OW30145   3.770   3.261   5.875 -0.2916  0.0635  0.3170
 9749SOL    HW130146   3.822   3.346   5.881 -2.4359  1.3633  1.4453
 9749SOL    HW230147   3.745   3.230   5.966  0.2551 -1.6891 -0.0919
 9750SOL     OW30148   6.923   1.347   4.571 -0.1966  0.6237  0.4972
 9750SOL    HW130149   6.950   1.289   4.647  2.2308  1.0613  0.0703
 9750SOL    HW230150   6.991   1.340   4.498  0.0382  3.6556  0.2693
 9751SOL     OW30151   5.092   6.956   0.873  0.2955 -0.7667  0.3542
 9751SOL    HW130152   5.044   6.870   0.851 -2.3075  0.5976  0.3256
 9751SOL    HW230153   5.056   6.993   0.958  2.4198 -0.3666  1.1329
 9752SOL     OW30154   0.202   4.717   6.889 -0.0182  0.6580  0.5799
 9752SOL    HW130155   0.252   4.765   6.961 -0.8579  1.2532  0.7805
 9752SOL    HW230156   0.113   4.761   6.875 -1.2317 -1.3913  1.4267
 9753SOL     OW30157   0.749   6.156   4.589 -0.8013 -0.6176  0.8855
 9753SOL    HW130158   0.784   6.249   4.576 -0.8646 -0.4572  1.7943
 9753SOL    HW230159   0.720   6.119   4.501 -2.4353  0.8767  0.7498
 9754SOL     OW30160   5.695   1.646   4.289 -0.7285  0.1659 -0.5362
 9754SOL    HW130161   5.635   1.689   4.221 -0.4594 -0.0274 -0.8969
 9754SOL    HW230162   5.639   1.610   4.364 -1.1434 -0.6630 -1.2169
 9755SOL     OW30163   1.749   0.168   6.758  0.0506  0.1145 -0.4191
 9755SOL    HW130164   1.776   0.148   6.852  0.0028 -0.3950 -0.5080
 9755SOL    HW230165   1.777   0.092   6.699  0.0243  0.4012 -0.8048
 9756SOL     OW30166   1.850   0.604   4.131 -0.9165 -0.2496 -0.1117
 9756SOL    HW130167   1.867   0.675   4.063 -0.7148 -0.8714 -0.7198
 9756SOL    HW230168   1.769   0.551   4.105 -1.5401  0.2573  0.7595
 9757SOL     OW30169   0.211   1.996   1.268 -0.0796  0.1984  0.0718
 9757SOL    HW130170   0.165   2.002   1.357  1.0763 -0.3745  0.7351
 9757SOL    HW230171   0.243   1.902   1.254 -0.6964  0.1589 -1.1962
 9758SOL     OW30172   3.380   1.649   2.389 -0.1449  0.2691  0.8867
 9758SOL    HW130173   3.388   1.550   2.375 -0.9383  0.4053 -0.6406
 9758SOL    HW230174   3.421   1.697   2.312 -2.3789  1.0992  0.1691
 9759SOL     OW30175   2.106   1.162   2.951 -0.3449 -0.6130 -0.6019
 9759SOL    HW130176   2.041   1.198   3.018 -1.0480 -0.1785 -1.4808
 9759SOL    HW230177   2.128   1.067   2.972 -1.8667 -1.0081 -0.7043
 9760SOL     OW30178   5.262   6.009   6.263  0.0631 -0.7772 -0.7162
 9760SOL    HW130179   5.248   6.021   6.165 -2.2206 -0.9992 -0.4875
 9760SOL    HW230180   5.319   6.082   6.298 -1.2180  0.8372 -1.8139
 9761SOL     OW30181   5.833   6.415   4.094  0.5051 -0.4389  0.0784
 9761SOL    HW130182   5.904   6.385   4.157  0.9216 -1.0281 -0.6480
 9761SOL    HW230183   5.828   6.515   4.095  1.0961 -0.4044  0.4055
 9762SOL     OW30184   5.854   2.577   3.240  0.8358  0.3455  0.0349
 9762SOL    HW130185   5.760   2.599   3.268  0.9678  0.7274  0.1770
 9762SOL    HW230186   5.894   2.513   3.306  1.1405  1.2300  0.7131
 9763SOL     OW30187   5.151   3.831   3.436  0.0900 -0.4403  0.2712
 9763SOL    HW130188   5.080   3.861   3.374  1.2058 -0.1446 -0.9117
 9763SOL    HW230189   5.226   3.897   3.436  1.1379 -1.5807  0.1428
 9764SOL     OW30190   0.366   4.319   6.163  0.1466  0.9742  0.5665
 9764SOL    HW130191   0.369   4.239   6.104  0.3137  1.9959 -0.8484
 9764SOL    HW230192   0.361   4.289   6.259  0.6102 -0.7077  0.1010
 9765SOL     OW30193   5.985   0.182   5.003  0.2398  0.5638  0.0671
 9765SOL    HW130194   5.988   0.084   5.021 -0.4860  0.6975  1.0177
 9765SOL    HW230195   6.052   0.205   4.933  0.3860 -0.6132 -0.2067
 9766SOL     OW30196   3.017   0.950   5.755 -0.7933  0.6695 -0.4714
 9766SOL    HW130197   3.086   0.880   5.734 -1.3106 -0.4719  1.3607
 9766SOL    HW230198   2.958   0.964   5.675  1.4175  1.5664 -2.0346
 9767SOL     OW30199   3.106   1.935   3.148  0.3399 -0.4792 -0.1254
 9767SOL    HW130200   3.027   1.966   3.202 -0.5354 -1.6732 -0.6685
 9767SOL    HW230201   3.177   2.004   3.150 -0.8954  0.8256  0.0302
 9768SOL     OW30202   4.773   0.648   0.683  0.1144  0.2614  0.5654
 9768SOL    HW130203   4.815   0.561   0.657  0.1661  0.5533 -0.3728
 9768SOL    HW230204   4.770   0.656   0.782  0.6965 -0.5294  0.6506
 9769SOL     OW30205   0.031   1.106   1.959 -0.1891 -0.3646  0.2192
 9769SOL    HW130206   0.048   1.195   2.002  1.0587 -0.8547  0.8016
 9769SOL    HW230207  -0.063   1.078   1.976 -0.6920  0.9656 -0.2267
 9770SOL     OW30208   6.538   4.551   1.306  0.7285  0.6263 -0.1730
 9770SOL    HW130209   6.522   4.617   1.232 -0.0187  0.6377 -0.0108
 9770SOL    HW230210   6.636   4.534   1.315  0.7371 -0.7377 -2.3496
 9771SOL     OW30211   1.748   3.929   0.042  0.5612  0.1664 -0.2377
 9771SOL    HW130212   1.802   4.013   0.050  0.1451  0.4278 -0.1457
 9771SOL    HW230213   1.801   3.859  -0.007  0.5170  0.8307 -1.2682
 9772SOL     OW30214   2.556   5.462   2.430  0.0638 -0.3756 -0.2074
 9772SOL    HW130215   2.572   5.377   2.381 -1.1263 -0.7917  0.1044
 9772SOL    HW230216   2.482   5.450   2.496  0.6105  0.6001  0.6196
 9773SOL     OW30217   1.851   1.110   4.905 -0.5309 -0.7706 -0.1039
 9773SOL    HW130218   1.876   1.081   4.998  1.4050  1.0490  0.0231
 9773SOL    HW230219   1.776   1.175   4.910 -0.9728 -1.2929  0.1113
 9774SOL     OW30220   0.788   5.754   3.929  0.2016  0.1164  0.2656
 9774SOL    HW130221   0.882   5.728   3.951  0.1883 -0.2087 -0.0583
 9774SOL    HW230222   0.754   5.696   3.856  0.2431  1.1729 -0.6160
 9775SOL     OW30223   4.752   6.131   5.786  0.6325 -0.3668  0.0563
 9775SOL    HW130224   4.685   6.068   5.826 -2.5973  1.1786 -2.4576
 9775SOL    HW230225   4.765   6.209   5.846 -2.6463  0.9847 -0.8190
 9776SOL     OW30226   2.125   6.990   0.582 -0.1770  0.7555 -0.1739
 9776SOL    HW130227   2.051   7.038   0.629 -0.5363  1.1179 -1.0926
 9776SOL    HW230228   2.206   6.988   0.641 -0.0635  2.7139 -0.2086
 9777SOL     OW30229   2.498   3.010   6.438  0.9442  0.5175  1.1438
 9777SOL    HW130230   2.486   3.028   6.536 -2.3857 -3.2281  1.6900
 9777SOL    HW230231   2.471   2.916   6.418  0.4675  1.4154 -3.5873
 9778SOL     OW30232   0.900   1.922   6.082 -0.2932 -0.0532 -0.5045
 9778SOL    HW130233   0.869   1.955   6.171  0.6407  0.8163 -0.4895
 9778SOL    HW230234   0.997   1.898   6.087 -0.4788 -0.9412 -1.0364
 9779SOL     OW30235   3.797   2.964   3.544 -0.0168  0.1451 -0.3129
 9779SOL    HW130236   3.848   2.963   3.631 -0.5314 -1.5766 -0.0013
 9779SOL    HW230237   3.856   3.002   3.472  1.2796 -0.6408  0.2939
 9780SOL     OW30238   6.109   4.099   5.346  1.1411 -0.3114  0.3386
 9780SOL    HW130239   6.208   4.094   5.362  0.6250  0.3070  6.0799
 9780SOL    HW230240   6.080   4.194   5.347  0.4421 -0.4313 -2.1983
 9781SOL     OW30241   1.681   0.033   4.881 -0.1350  0.1194 -0.2588
 9781SOL    HW130242   1.657  -0.055   4.839 -0.8489  0.8160 -1.3563
 9781SOL    HW230243   1.773   0.028   4.918  0.8836 -0.2937 -2.6812
 9782SOL     OW30244   6.555   1.519   4.810 -0.2557 -0.3364  0.9283
 9782SOL    HW130245   6.548   1.431   4.855  0.1817 -0.3139  1.0458
 9782SOL    HW230246   6.621   1.513   4.735  0.0870 -0.0111  1.1940
 9783SOL     OW30247   3.537   0.206   4.501  0.4630  0.2120  0.4606
 9783SOL    HW130248   3.451   0.199   4.449 -0.6840  0.2631  2.2655
 9783SOL    HW230249   3.584   0.290   4.475 -0.0489  0.2233 -0.5045
 9784SOL     OW30250   2.320   2.316   4.251  0.1978  0.4144  0.7184
 9784SOL    HW130251   2.289   2.276   4.165  1.1908  0.3693  0.3654
 9784SOL    HW230252   2.390   2.385   4.232 -0.6725  1.5183  1.3931
 9785SOL     OW30253   4.797   1.783   2.329 -0.0158  0.7382  0.6768
 9785SOL    HW130254   4.789   1.687   2.357 -0.7654  0.6304  0.1042
 9785SOL    HW230255   4.883   1.796   2.280 -0.3894  0.1165 -0.1614
 9786SOL     OW30256   1.812   0.577   1.306  0.7700 -0.1459 -0.3491
 9786SOL    HW130257   1.796   0.575   1.405  1.0365 -0.3972 -0.3130
 9786SOL    HW230258   1.818   0.672   1.276  0.3053 -0.0587 -0.1871
 9787SOL     OW30259   1.715   6.723   5.097  0.1261 -0.3212 -0.7048
 9787SOL    HW130260   1.781   6.685   5.162  0.5468 -0.0142 -0.9486
 9787SOL    HW230261   1.730   6.822   5.088  1.5392 -0.6566 -2.8909
 9788SOL     OW30262   6.921   6.959   3.071  0.0255  0.2617 -0.4877
 9788SOL    HW130263   6.954   6.976   2.978  2.1347 -2.8034 -0.4441
 9788SOL    HW230264   6.976   7.013   3.135  0.7850 -0.0750 -0.8375
 9789SOL     OW30265   6.421   6.827   3.483 -0.2856  0.0544 -0.3023
 9789SOL    HW130266   6.469   6.794   3.402  0.2490 -1.3921  0.5553
 9789SOL    HW230267   6.345   6.765   3.505 -1.1229  1.0493 -0.3276
 9790SOL     OW30268   4.873   3.672   1.367 -0.0730 -0.0812  0.4074
 9790SOL    HW130269   4.813   3.752   1.360  0.2025  0.0928 -0.0460
 9790SOL    HW230270   4.818   3.591   1.385 -0.1871  0.4812  2.9369
 9791SOL     OW30271   1.960   2.833   6.580 -0.5344 -0.3825 -0.3901
 9791SOL    HW130272   1.934   2.922   6.543 -1.0835 -0.4048 -0.0634
 9791SOL    HW230273   2.049   2.840   6.625  1.4084 -0.8831 -3.8258
 9792SOL     OW30274   6.414   6.365   2.769  0.1471  0.3606  0.4970
 9792SOL    HW130275   6.347   6.439   2.768 -0.7270 -0.2925 -3.0832
 9792SOL    HW230276   6.506   6.404   2.759 -0.3249  1.0433 -1.7320
 9793SOL     OW30277   2.344   1.226   2.804 -0.2437  0.3957 -0.6479
 9793SOL    HW130278   2.327   1.246   2.708  2.2700  0.4412 -1.1685
 9793SOL    HW230279   2.268   1.260   2.860 -2.2684 -0.5867 -2.6559
 9794SOL     OW30280   6.703   1.231   5.740 -0.8389  0.0619  0.3664
 9794SOL    HW130281   6.629   1.233   5.672 -1.4386 -0.5702  0.9938
 9794SOL    HW230282   6.755   1.317   5.734 -2.3161  1.0173  0.6876
 9795SOL     OW30283   2.367   0.318   5.787  0.9130  0.1277  0.5797
 9795SOL    HW130284   2.400   0.233   5.745  0.0683 -0.2991  0.7439
 9795SOL    HW230285   2.358   0.305   5.886  1.6340  0.7057  0.7270
 9796SOL     OW30286   1.532   6.568   6.120 -0.0205  0.3897 -0.1530
 9796SOL    HW130287   1.500   6.652   6.077 -2.8331 -0.6155 -0.2179
 9796SOL    HW230288   1.493   6.489   6.073 -0.4691 -0.8504  2.1236
 9797SOL     OW30289   0.889   3.179   3.780 -0.2145 -0.5161  0.5960
 9797SOL    HW130290   0.938   3.257   3.741  0.3134 -1.6935 -1.2089
 9797SOL    HW230291   0.935   3.150   3.864  0.8520 -0.1910  0.1418
 9798SOL     OW30292   6.430   0.422   2.928 -0.3501 -0.2237  0.0936
 9798SOL    HW130293   6.466   0.415   3.020  0.2009  0.2841 -0.0754
 9798SOL    HW230294   6.503   0.451   2.865 -0.8038 -0.1957 -0.4325
 9799SOL     OW30295   2.288   3.806   1.272  0.0521  0.0304  0.4412
 9799SOL    HW130296   2.363   3.837   1.330  0.0089  1.1609 -0.0845
 9799SOL    HW230297   2.299   3.709   1.252  1.8698  0.3688 -0.3523
 9800SOL     OW30298   2.539   1.196   0.683 -0.4593 -0.4668 -0.1049
 9800SOL    HW130299   2.550   1.246   0.769 -1.1730  0.6205 -0.6213
 9800SOL    HW230300   2.628   1.164   0.652  0.4100  2.3810 -0.8299
 9801SOL     OW30301   6.662   3.672   3.947  0.6214 -0.3531 -0.6224
 9801SOL    HW130302   6.569   3.641   3.966  0.9589 -0.8963  0.2351
 9801SOL    HW230303   6.703   3.708   4.031  0.4468  1.9689 -1.4718
 9802SOL     OW30304   7.018   6.534   0.057 -0.3704 -0.1503 -0.0642
 9802SOL    HW130305   7.027   6.612   0.118 -0.1075 -1.4237  1.6104
 9802SOL    HW230306   7.022   6.449   0.111 -0.9373 -1.3154 -1.7728
 9803SOL     OW30307   3.989   5.422   3.645 -0.4495 -0.0765 -0.4173
 9803SOL    HW130308   4.063   5.473   3.602 -1.6452  1.8873 -0.2501
 9803SOL    HW230309   3.928   5.385   3.574 -2.7574  3.6611 -0.6220
 9804SOL     OW30310   5.707   5.595   1.436 -0.0285  0.0999 -0.4749
 9804SOL    HW130311   5.753   5.524   1.383  0.3687 -0.3963  0.5121
 9804SOL    HW230312   5.771   5.667   1.460 -0.0949  0.0940 -0.2758
 9805SOL     OW30313   6.894   3.569   1.212  0.7882  0.1220 -0.7312
 9805SOL    HW130314   6.804   3.573   1.169 -0.5750 -1.1442  1.7413
 9805SOL    HW230315   6.905   3.481   1.258  1.7247  1.6004  2.1296
 9806SOL     OW30316   6.296   6.285   3.026 -0.2177  0.3359 -0.1538
 9806SOL    HW130317   6.384   6.300   3.070 -0.9368  1.9382  0.8342
 9806SOL    HW230318   6.285   6.350   2.950 -0.6856  0.3992 -0.0400
 9807SOL     OW30319   5.184   3.245   2.924  0.5433  0.1803 -0.2966
 9807SOL    HW130320   5.150   3.331   2.884  1.7972 -0.3547 -2.6985
 9807SOL    HW230321   5.158   3.169   2.865  0.6991 -0.9300  1.0445
 9808SOL     OW30322   0.962   1.953   5.578  0.7077 -0.4138 -0.1435
 9808SOL    HW130323   0.875   1.904   5.593  0.0595  0.5441 -0.6553
 9808SOL    HW230324   0.965   1.988   5.485  1.2476  0.3378  0.1477
 9809SOL     OW30325   2.113   1.179   3.390  0.1331  0.6240 -0.6994
 9809SOL    HW130326   2.175   1.139   3.457 -0.5667  1.0414  0.2032
 9809SOL    HW230327   2.038   1.116   3.371  0.3414  0.4969 -1.1102
 9810SOL     OW30328   4.181   0.375   5.940  0.1181  0.3170 -0.2580
 9810SOL    HW130329   4.103   0.381   5.877 -0.8215  1.1061  0.9434
 9810SOL    HW230330   4.214   0.467   5.961  0.8554  0.0251 -0.1072
 9811SOL     OW30331   1.692   5.850   3.165 -0.1911  0.4721 -0.2114
 9811SOL    HW130332   1.721   5.941   3.136 -2.0162  1.5004  0.9616
 9811SOL    HW230333   1.637   5.858   3.248 -1.0260 -1.6343 -0.4994
 9812SOL     OW30334   0.460   5.050   3.077  0.1006 -0.0641  0.3090
 9812SOL    HW130335   0.398   5.064   2.999 -0.4696  1.6274  1.0261
 9812SOL    HW230336   0.457   4.954   3.105  0.9698 -0.9570 -2.2572
 9813SOL     OW30337   5.826   3.885   1.944 -0.3499 -0.0481 -0.1953
 9813SOL    HW130338   5.905   3.884   1.884 -0.0860  2.4017  0.0176
 9813SOL    HW230339   5.743   3.900   1.890 -0.0902  2.3644  0.0065
 9814SOL     OW30340   0.291   6.625   6.784  0.0823 -0.1478 -0.2731
 9814SOL    HW130341   0.357   6.601   6.713  1.0812  1.7971 -0.0627
 9814SOL    HW230342   0.202   6.644   6.741  0.0366 -1.2653 -0.7185
 9815SOL     OW30343   6.184   0.655   2.184 -0.3132 -0.0038 -0.3570
 9815SOL    HW130344   6.094   0.693   2.203 -0.5641  0.3436 -2.0779
 9815SOL    HW230345   6.181   0.603   2.099  1.2701  0.6769 -0.8746
 9816SOL     OW30346   3.013   2.676   6.530  0.5965 -0.6935  0.3648
 9816SOL    HW130347   3.018   2.734   6.611  0.4326 -0.3028  0.1026
 9816SOL    HW230348   2.973   2.588   6.554  1.1936 -0.8445  0.8447
 9817SOL     OW30349   2.091   5.243   5.184  0.8897  0.0101 -0.0594
 9817SOL    HW130350   2.070   5.255   5.282  0.9965  2.6719 -0.2943
 9817SOL    HW230351   2.036   5.306   5.130  1.1635 -1.1043 -1.7146
 9818SOL     OW30352   3.868   6.667   2.980  0.0885  0.0856 -0.0968
 9818SOL    HW130353   3.962   6.655   2.946  0.2694 -1.9046  0.9251
 9818SOL    HW230354   3.859   6.757   3.021  2.1037 -0.2755  1.3082
 9819SOL     OW30355   3.589   0.720   0.553 -0.6466  0.4869  0.1460
 9819SOL    HW130356   3.626   0.784   0.620  1.5496 -0.9801  0.4399
 9819SOL    HW230357   3.613   0.627   0.578  0.1914 -0.1428 -2.5872
 9820SOL     OW30358   3.442   4.343   1.678  0.6219  0.2713  0.3387
 9820SOL    HW130359   3.528   4.358   1.727  0.0349  2.3913  0.8110
 9820SOL    HW230360   3.440   4.401   1.596 -0.4253  0.4165  0.4506
 9821SOL     OW30361   1.744   5.152   4.999 -0.2537  0.0575  0.3672
 9821SOL    HW130362   1.745   5.243   4.958  0.6148 -0.1093 -0.0084
 9821SOL    HW230363   1.662   5.142   5.055 -0.6516  0.8633 -0.0424
 9822SOL     OW30364   2.908   6.380   5.375  0.3601  0.8993 -0.6627
 9822SOL    HW130365   2.927   6.473   5.344  0.7585  1.3280  0.7908
 9822SOL    HW230366   2.988   6.344   5.422 -0.4199  0.5169  0.3970
 9823SOL     OW30367   4.999   2.556   2.174  0.4273  0.4445  0.4569
 9823SOL    HW130368   4.945   2.640   2.175 -1.8497 -0.9020 -0.0480
 9823SOL    HW230369   5.088   2.573   2.131  0.3487  2.7252  1.0811
 9824SOL     OW30370   1.589   0.230   5.063  0.3462 -0.6094 -0.1762
 9824SOL    HW130371   1.629   0.163   5.001 -0.0111 -1.4478  0.4859
 9824SOL    HW230372   1.504   0.195   5.100  0.9008 -0.4341  1.3342
 9825SOL     OW30373   4.241   5.137   2.337 -0.5429  0.0759  0.2914
 9825SOL    HW130374   4.216   5.229   2.308 -2.6105 -1.1651 -2.3930
 9825SOL    HW230375   4.175   5.103   2.403  0.0118  0.3519  1.0029
 9826SOL     OW30376   5.271   5.077   5.308 -0.0954 -0.1645  0.4999
 9826SOL    HW130377   5.254   5.166   5.351  0.0404  0.1835 -0.1556
 9826SOL    HW230378   5.191   5.019   5.320 -0.4646  0.3002  0.3194
 9827SOL     OW30379   3.370   5.839   0.928  0.0746 -0.0597  0.0431
 9827SOL    HW130380   3.348   5.841   1.026 -1.9026 -1.0067 -0.3250
 9827SOL    HW230381   3.455   5.788   0.914  0.3167 -0.0207  1.2675
 9828SOL     OW30382   1.392   2.153   1.410 -0.1572  0.4123 -0.4103
 9828SOL    HW130383   1.340   2.147   1.495  0.3448  0.2858 -0.1053
 9828SOL    HW230384   1.489   2.169   1.432  0.1345 -0.5823 -0.9209
 9829SOL     OW30385   0.644   5.723   0.691 -0.4065  0.4387 -0.5571
 9829SOL    HW130386   0.714   5.789   0.665  0.2511  0.4723  1.1859
 9829SOL    HW230387   0.663   5.634   0.648 -0.2287  0.8680 -1.3829
 9830SOL     OW30388   0.292   5.643   0.975  0.1369 -0.0515  1.0661
 9830SOL    HW130389   0.387   5.676   0.970 -0.6806  2.2803 -1.2486
 9830SOL    HW230390   0.292   5.543   0.974  2.5673 -0.1521  2.3355
 9831SOL     OW30391   2.182   6.690   0.946 -0.1841  0.1430 -0.0554
 9831SOL    HW130392   2.248   6.624   0.981 -1.3733 -1.4685 -0.6866
 9831SOL    HW230393   2.184   6.689   0.846 -1.8056 -0.6987 -0.1219
 9832SOL     OW30394   3.183   6.603   5.778  0.3394 -0.2788  0.6322
 9832SOL    HW130395   3.192   6.524   5.839 -2.0811 -0.7059  0.5179
 9832SOL    HW230396   3.157   6.684   5.831  0.4088 -0.1205  0.4280
 9833SOL     OW30397   1.340   2.272   0.708  0.4771  0.0903 -0.2395
 9833SOL    HW130398   1.254   2.255   0.660  1.3162 -0.6305 -1.5218
 9833SOL    HW230399   1.355   2.200   0.776 -0.2626  0.6178  0.5127
 9834SOL     OW30400   3.706   5.546   5.478 -0.4405  0.2995  0.0901
 9834SOL    HW130401   3.689   5.620   5.543 -2.3149  0.9729 -1.0713
 9834SOL    HW230402   3.781   5.572   5.417  0.9791 -0.1187  1.5877
 9835SOL     OW30403   4.645   0.915   0.261  0.0761 -0.2354 -0.1671
 9835SOL    HW130404   4.601   0.967   0.334  0.1806 -0.6127  0.1726
 9835SOL    HW230405   4.704   0.845   0.302 -0.8343 -1.2764 -0.6161
 9836SOL     OW30406   1.494   0.514   5.097 -1.0130  0.1143  0.2506
 9836SOL    HW130407   1.442   0.599   5.092 -0.3880  0.5049  0.3570
 9836SOL    HW230408   1.447   0.443   5.043 -1.3917  0.5935 -0.0551
 9837SOL     OW30409   0.122   6.604   2.798  0.5822 -0.1916 -0.0620
 9837SOL    HW130410   0.096   6.512   2.828 -0.6114 -0.3040 -1.3387
 9837SOL    HW230411   0.214   6.625   2.830  0.1623 -1.0775  1.8773
 9838SOL     OW30412   6.803   1.969   6.793 -0.7030  0.7676  0.2704
 9838SOL    HW130413   6.835   1.975   6.699 -0.2589  1.9229  0.4860
 9838SOL    HW230414   6.706   1.941   6.794  0.2878 -3.4925 -0.3704
 9839SOL     OW30415   5.858   6.480   1.299  0.0384 -0.0186  0.7080
 9839SOL    HW130416   5.885   6.437   1.385  3.4245 -1.0685 -0.6972
 9839SOL    HW230417   5.780   6.431   1.260  0.3375 -1.3843  1.7666
 9840SOL     OW30418   2.896   2.250   1.656 -0.4238 -0.5131  0.3466
 9840SOL    HW130419   2.937   2.314   1.720 -0.9922  0.8197 -0.5813
 9840SOL    HW230420   2.831   2.191   1.705 -1.0298  0.6365  0.9688
 9841SOL     OW30421   4.094   0.883   0.532  0.0785  0.3614 -0.1592
 9841SOL    HW130422   4.175   0.917   0.484  0.3745 -0.1485 -0.0238
 9841SOL    HW230423   4.122   0.825   0.608 -0.4146  0.2557 -0.0537
 9842SOL     OW30424   3.625   1.606   1.757 -0.1326  0.2424  0.0634
 9842SOL    HW130425   3.675   1.531   1.713 -0.5750  0.5899 -1.0694
 9842SOL    HW230426   3.566   1.570   1.829 -1.0838 -0.6395 -1.1224
 9843SOL     OW30427   2.751   2.126   4.465  0.4759 -0.8083  0.1411
 9843SOL    HW130428   2.797   2.054   4.413 -0.1318 -0.6723 -0.6034
 9843SOL    HW230429   2.671   2.087   4.510 -0.4842 -0.4077 -1.1441
 9844SOL     OW30430   6.790   1.486   1.668 -0.0056  0.2847 -0.2258
 9844SOL    HW130431   6.767   1.561   1.606 -1.3039  0.7684  0.8125
 9844SOL    HW230432   6.866   1.514   1.728  0.4970  0.2157 -0.8152
 9845SOL     OW30433   0.461   2.343   5.676 -0.0440  0.0116 -0.2395
 9845SOL    HW130434   0.371   2.313   5.644  0.7508 -0.0527 -2.5581
 9845SOL    HW230435   0.518   2.263   5.696  1.0793 -0.1713 -3.5691
 9846SOL     OW30436   1.657   1.352   6.592 -0.1493  0.0081  0.0246
 9846SOL    HW130437   1.627   1.430   6.647  0.4946  2.3409 -2.7072
 9846SOL    HW230438   1.746   1.320   6.624  0.4997  1.7069 -0.0250
 9847SOL     OW30439   1.658   5.776   4.520 -0.6688 -0.0669 -0.2575
 9847SOL    HW130440   1.664   5.683   4.484  0.0620  0.4139 -1.4359
 9847SOL    HW230441   1.739   5.795   4.576 -1.6756 -0.7219  1.5201
 9848SOL     OW30442   7.018   1.217   1.101  0.5250  0.1614 -0.1650
 9848SOL    HW130443   7.100   1.202   1.156 -0.3522  0.3374  1.2357
 9848SOL    HW230444   7.040   1.202   1.005  2.0741 -0.2790  0.2213
 9849SOL     OW30445   1.315   2.523   0.423 -0.1005 -0.5312 -0.7903
 9849SOL    HW130446   1.403   2.570   0.419 -0.2327 -0.2946 -0.9148
 9849SOL    HW230447   1.265   2.539   0.338 -0.4275 -0.3482 -0.5636
 9850SOL     OW30448   5.920   0.274   1.278 -0.0716  0.8590 -0.2920
 9850SOL    HW130449   5.919   0.348   1.345 -2.0417 -0.6981  1.5777
 9850SOL    HW230450   5.976   0.198   1.313 -1.7017 -0.2548  0.0396
 9851SOL     OW30451   6.462   1.380   0.743  0.3670  0.4500  0.0403
 9851SOL    HW130452   6.515   1.463   0.761 -0.6976  1.3175 -0.6581
 9851SOL    HW230453   6.364   1.403   0.740 -0.0269 -1.0077  0.7724
 9852SOL     OW30454   0.813   6.289   3.651  0.1582  0.0636 -0.3317
 9852SOL    HW130455   0.779   6.335   3.569  1.0691 -0.6416 -1.1370
 9852SOL    HW230456   0.886   6.343   3.692  0.0654  0.1574 -0.2894
 9853SOL     OW30457   6.622   0.078   2.969 -0.5403  0.2793 -0.0738
 9853SOL    HW130458   6.600  -0.003   2.916  0.1112  0.4769 -0.6689
 9853SOL    HW230459   6.627   0.158   2.908  2.2922  0.1765 -0.1465
 9854SOL     OW30460   3.081   1.556   6.910 -0.4276  0.4690  0.5488
 9854SOL    HW130461   3.179   1.541   6.921 -0.6583 -0.6786  1.2152
 9854SOL    HW230462   3.056   1.645   6.948  0.5382  1.3388 -0.7750
 9855SOL     OW30463   0.404   0.901   0.739  0.5296 -0.4942  0.3883
 9855SOL    HW130464   0.405   0.999   0.757 -4.3061 -0.8604  4.8432
 9855SOL    HW230465   0.321   0.878   0.687  1.3435 -2.3259 -0.1696
 9856SOL     OW30466   2.749   0.122   5.111 -0.3990  0.5638  0.0490
 9856SOL    HW130467   2.772   0.219   5.105  0.4493  0.4085  0.5251
 9856SOL    HW230468   2.784   0.085   5.198 -1.7348  0.0950  0.4057
 9857SOL     OW30469   3.538   2.088   4.557  0.6656 -0.1522 -0.5018
 9857SOL    HW130470   3.490   2.124   4.477 -0.8477  2.6107  1.4682
 9857SOL    HW230471   3.635   2.113   4.551 -0.0288  3.2374 -0.0098
 9858SOL     OW30472   5.170   1.719   1.131  0.0301  0.2240  0.0717
 9858SOL    HW130473   5.134   1.676   1.048  1.4651  0.4135 -0.6649
 9858SOL    HW230474   5.246   1.779   1.108  1.1552 -0.5286  1.6221
 9859SOL     OW30475   5.748   6.074   0.108 -0.0680 -0.0356  0.7282
 9859SOL    HW130476   5.829   6.117   0.148 -1.6340  3.1969  0.7622
 9859SOL    HW230477   5.670   6.084   0.171 -0.7811 -2.1275  0.2560
 9860SOL     OW30478   1.454   2.931   4.527  0.4252 -0.5974  0.0549
 9860SOL    HW130479   1.356   2.945   4.532  0.4132 -0.4011 -0.6631
 9860SOL    HW230480   1.502   3.018   4.544  0.3756  0.1754 -3.2259
 9861SOL     OW30481   0.295   0.414   2.199 -0.5488 -0.4695 -0.7874
 9861SOL    HW130482   0.309   0.318   2.223  0.1660 -0.2843 -0.4231
 9861SOL    HW230483   0.273   0.466   2.282  0.8156 -0.0235 -0.6689
 9862SOL     OW30484   2.722   2.633   6.416 -0.0805 -0.4343  0.4086
 9862SOL    HW130485   2.747   2.661   6.509 -0.2353 -2.0249  0.9590
 9862SOL    HW230486   2.804   2.599   6.369  0.4061  2.0936 -0.7518
 9863SOL     OW30487   2.093   1.902   5.975  0.4502  0.1918 -0.1520
 9863SOL    HW130488   2.031   1.897   5.896  1.2726  0.7474 -0.8554
 9863SOL    HW230489   2.134   1.812   5.990  0.0053 -0.0089 -0.1143
 9864SOL     OW30490   4.195   2.371   1.874 -0.6378  0.1122 -0.3725
 9864SOL    HW130491   4.097   2.390   1.867 -0.9071 -0.7983  0.6764
 9864SOL    HW230492   4.209   2.293   1.935  0.8421  1.2451  0.7896
 9865SOL     OW30493   2.064   5.205   6.619  0.0100  0.2582  0.6355
 9865SOL    HW130494   2.103   5.194   6.710  0.1552  0.5615  0.6088
 9865SOL    HW230495   2.119   5.269   6.566 -0.1634  0.2035  0.3861
 9866SOL     OW30496   6.069   7.004   2.503 -0.2269  0.9341 -0.3078
 9866SOL    HW130497   6.144   7.051   2.456  0.1443  1.2307  0.5396
 9866SOL    HW230498   5.984   7.054   2.489 -0.2059  0.7758 -1.0139
 9867SOL     OW30499   2.222   0.048   0.094  0.1726  0.3685  0.1561
 9867SOL    HW130500   2.287   0.116   0.129 -1.3858  2.4105 -0.7261
 9867SOL    HW230501   2.143   0.043   0.155 -0.0856 -0.1019 -0.2095
 9868SOL     OW30502   1.513   2.455   5.778 -0.5913  0.2352 -0.6746
 9868SOL    HW130503   1.540   2.400   5.698 -0.1150 -0.8094  0.1775
 9868SOL    HW230504   1.549   2.413   5.861 -1.4765  1.0493  0.1484
 9869SOL     OW30505   0.818   0.968   6.023 -0.2188 -0.7063 -0.3249
 9869SOL    HW130506   0.857   1.037   5.962 -0.3946  0.6525  1.0569
 9869SOL    HW230507   0.728   0.997   6.054 -0.8731 -2.1927 -0.7369
 9870SOL     OW30508   5.966   6.620   6.178  0.1415 -0.2937  0.6173
 9870SOL    HW130509   6.002   6.592   6.089 -0.3801 -0.8264  0.5626
 9870SOL    HW230510   6.003   6.710   6.203  0.8897 -0.4812  0.2203
 9871SOL     OW30511   6.359   4.554   0.190  0.2819  0.1120 -0.0824
 9871SOL    HW130512   6.293   4.496   0.236  0.2172  0.0278 -0.2816
 9871SOL    HW230513   6.405   4.502   0.118  1.4732 -0.2114  0.8767
 9872SOL     OW30514   1.612   0.246   3.989  0.4296 -0.3833 -0.0438
 9872SOL    HW130515   1.604   0.318   4.057 -2.4533 -0.8465  0.2331
 9872SOL    HW230516   1.578   0.280   3.900  2.3429 -0.3769 -0.8151
 9873SOL     OW30517   2.549   6.344   1.191 -0.0198 -0.0915  0.3133
 9873SOL    HW130518   2.498   6.328   1.275 -0.5861  0.4743  0.0864
 9873SOL    HW230519   2.641   6.376   1.212 -0.2307  0.2484  0.7103
 9874SOL     OW30520   0.028   2.315   4.764 -0.9035 -0.1309 -0.1124
 9874SOL    HW130521  -0.071   2.313   4.760 -0.9118  1.2334 -1.1227
 9874SOL    HW230522   0.063   2.388   4.706  0.6152  0.5282  1.5300
 9875SOL     OW30523   1.402   4.776   2.558  0.0382 -0.1153  0.2823
 9875SOL    HW130524   1.472   4.830   2.512  1.1660 -0.5618  1.4256
 9875SOL    HW230525   1.353   4.720   2.490  0.0848  0.9582 -0.6573
 9876SOL     OW30526   1.151   3.771   5.357  0.3505  0.5506 -0.8046
 9876SOL    HW130527   1.185   3.816   5.439  1.7398 -1.6093 -0.1230
 9876SOL    HW230528   1.062   3.731   5.375  0.4952  0.3854 -0.4573
 9877SOL     OW30529   5.704   0.135   0.931 -0.3332  0.0985  0.5580
 9877SOL    HW130530   5.757   0.054   0.956  0.5721  0.3832 -0.3689
 9877SOL    HW230531   5.647   0.114   0.852  0.1257  0.4256  0.1276
 9878SOL     OW30532   0.615   3.484   3.863 -0.0443 -0.1669 -0.5921
 9878SOL    HW130533   0.560   3.404   3.839 -2.2121  1.6034 -1.8593
 9878SOL    HW230534   0.641   3.478   3.960 -1.1398 -1.8239 -0.3534
 9879SOL     OW30535   1.916   4.922   5.528  0.2465  0.7996  0.2117
 9879SOL    HW130536   1.835   4.957   5.575 -0.0993  0.7801 -0.3598
 9879SOL    HW230537   1.948   4.840   5.574  0.0675  0.9251  0.5661
 9880SOL     OW30538   5.311   1.620   3.565  0.0981  0.4746  0.3646
 9880SOL    HW130539   5.392   1.664   3.527  0.9266 -1.6568 -0.4945
 9880SOL    HW230540   5.336   1.565   3.645 -0.0226 -1.7682 -1.0248
 9881SOL     OW30541   5.547   0.854   1.213 -0.1122  0.0310  0.3556
 9881SOL    HW130542   5.508   0.874   1.303 -3.8020  0.9775 -1.2794
 9881SOL    HW230543   5.484   0.797   1.161  1.7436 -0.1940 -1.8285
 9882SOL     OW30544   2.005   0.367   2.674 -0.1038 -0.6918 -0.0366
 9882SOL    HW130545   1.937   0.383   2.746  0.0107 -0.0901 -0.0549
 9882SOL    HW230546   2.093   0.405   2.703 -0.3608  0.7407 -1.0328
 9883SOL     OW30547   4.695   2.413   1.200  0.3761 -0.6705  0.1272
 9883SOL    HW130548   4.596   2.425   1.214  0.6249  0.5754  0.9785
 9883SOL    HW230549   4.739   2.394   1.287  0.7146 -2.9047 -0.4731
 9884SOL     OW30550   2.385   1.355   2.073  0.1950  0.0727  0.2962
 9884SOL    HW130551   2.352   1.275   2.122 -1.7940  0.3021 -0.5691
 9884SOL    HW230552   2.431   1.326   1.989 -2.1294 -0.1925 -0.9567
 9885SOL     OW30553   5.260   5.685   2.333 -0.2610  0.2102 -0.3839
 9885SOL    HW130554   5.216   5.611   2.283  0.0915 -0.8954  0.8959
 9885SOL    HW230555   5.257   5.769   2.278 -0.6624 -0.7378 -1.8593
 9886SOL     OW30556   4.873   5.533   5.788 -0.4670 -0.4417  0.2037
 9886SOL    HW130557   4.882   5.438   5.817 -3.3851 -1.3247 -1.3436
 9886SOL    HW230558   4.778   5.562   5.797  0.2282  2.1656  0.0593
 9887SOL     OW30559   2.117   3.366   3.249 -0.2625  0.9673 -0.3511
 9887SOL    HW130560   2.143   3.411   3.163  0.2556  1.0741 -0.1417
 9887SOL    HW230561   2.109   3.435   3.321  0.8089  0.7064  0.0387
 9888SOL     OW30562   0.446   5.605   2.650 -0.2459 -0.0855  0.1307
 9888SOL    HW130563   0.408   5.547   2.578  1.0301  0.0663 -0.7097
 9888SOL    HW230564   0.408   5.698   2.642  0.1018  0.0052 -0.5391
 9889SOL     OW30565   1.662   6.294   1.159  0.1402 -0.3487 -0.5021
 9889SOL    HW130566   1.608   6.291   1.243 -0.3807  0.6461 -0.7901
 9889SOL    HW230567   1.627   6.227   1.094  1.4479 -2.1665  0.5754
 9890SOL     OW30568   6.779   1.958   3.895  0.4353 -0.9547 -0.2318
 9890SOL    HW130569   6.748   2.051   3.877 -1.7185 -1.8628 -1.5541
 9890SOL    HW230570   6.845   1.931   3.825 -0.2028 -0.9737 -0.8381
 9891SOL     OW30571   0.413   3.740   1.285  0.4224  0.0872 -0.7445
 9891SOL    HW130572   0.363   3.795   1.218 -0.6715 -1.7501 -1.5228
 9891SOL    HW230573   0.350   3.674   1.327  1.1849  0.8578  1.7911
 9892SOL     OW30574   0.248   5.715   0.705  0.2969 -0.5444 -0.1566
 9892SOL    HW130575   0.342   5.750   0.698  0.6547 -1.4240  0.1939
 9892SOL    HW230576   0.223   5.707   0.801 -0.5705  0.7791 -0.2347
 9893SOL     OW30577   4.463   6.109   0.759 -0.1793 -0.3039  0.2123
 9893SOL    HW130578   4.415   6.180   0.707  2.5170  2.7461  1.5074
 9893SOL    HW230579   4.432   6.111   0.854  0.8720  0.1457  0.5593
 9894SOL     OW30580   1.089   1.806   4.368  0.0632  0.0385  0.4437
 9894SOL    HW130581   1.145   1.735   4.325 -1.2423 -1.6238  1.3368
 9894SOL    HW230582   1.048   1.769   4.451  0.5652  2.3886  1.8081
 9895SOL     OW30583   5.852   4.612   4.851  0.4334  0.7078 -0.5511
 9895SOL    HW130584   5.864   4.588   4.755  0.3554  1.0591 -0.6509
 9895SOL    HW230585   5.758   4.643   4.866  0.3676  0.3972 -0.3050
 9896SOL     OW30586   4.260   2.999   1.101 -0.1913  0.1783  0.5448
 9896SOL    HW130587   4.234   2.923   1.161 -0.0939 -0.0721  0.2717
 9896SOL    HW230588   4.352   2.982   1.064 -0.5830 -0.0740 -0.3317
 9897SOL     OW30589   5.611   6.382   1.789 -1.2009  0.5568 -0.5600
 9897SOL    HW130590   5.557   6.343   1.864  0.2860  0.0730  0.2965
 9897SOL    HW230591   5.598   6.327   1.707  1.3167 -2.3158  0.7697
 9898SOL     OW30592   5.631   6.131   1.619  0.5556 -0.5798  0.8034
 9898SOL    HW130593   5.570   6.055   1.643 -0.8466  0.2592  0.0286
 9898SOL    HW230594   5.654   6.124   1.522  2.0019 -1.0720  1.1590
 9899SOL     OW30595   2.047   5.770   1.275  0.3811  0.1677 -0.3223
 9899SOL    HW130596   2.027   5.740   1.182  0.2943  0.3117 -0.3504
 9899SOL    HW230597   1.961   5.791   1.323  0.4669  0.8741 -0.4743
 9900SOL     OW30598   0.381   1.236   1.899 -0.0600  0.0943 -0.5192
 9900SOL    HW130599   0.301   1.265   1.847  0.4655  1.7302 -0.4804
 9900SOL    HW230600   0.428   1.163   1.850 -0.7810  0.1216 -1.2660
 9901SOL     OW30601   4.141   0.692   6.669 -0.6768  0.3172  0.7703
 9901SOL    HW130602   4.231   0.735   6.668 -0.4572 -0.0910  1.8222
 9901SOL    HW230603   4.125   0.645   6.583  0.0392  0.5464  0.5087
 9902SOL     OW30604   5.097   5.947   3.398 -0.2007  0.2777 -0.3187
 9902SOL    HW130605   5.017   5.894   3.427  0.7672 -0.5494  0.9047
 9902SOL    HW230606   5.164   5.886   3.355  1.2796  0.3039  1.8228
 9903SOL     OW30607   1.633   5.340   1.762 -0.0078  0.1574  0.8131
 9903SOL    HW130608   1.727   5.306   1.767  0.9798  2.4760 -0.5310
 9903SOL    HW230609   1.620   5.411   1.831 -0.1264  1.1902 -0.2393
 9904SOL     OW30610   5.383   5.283   3.063  0.4513  0.1281  0.4222
 9904SOL    HW130611   5.297   5.316   3.024  1.1998  0.3373 -1.1380
 9904SOL    HW230612   5.449   5.269   2.989  0.5402 -3.9088  1.0633
 9905SOL     OW30613   3.019   5.296   3.814 -0.6950 -0.2260  0.0011
 9905SOL    HW130614   3.073   5.379   3.802 -0.8764 -0.1284 -0.1514
 9905SOL    HW230615   3.073   5.227   3.862 -1.1675  0.6476  1.9084
 9906SOL     OW30616   1.928   1.906   6.657  0.0666 -1.0554 -0.0495
 9906SOL    HW130617   2.006   1.891   6.597  0.4795 -4.0382  1.0918
 9906SOL    HW230618   1.846   1.866   6.616 -0.0300 -1.4649  0.5320
 9907SOL     OW30619   1.146   4.251   1.475 -0.2980  0.1358  0.2364
 9907SOL    HW130620   1.144   4.312   1.396  2.0156 -0.6089 -0.4739
 9907SOL    HW230621   1.078   4.178   1.463 -1.2543  1.0726 -0.1469
 9908SOL     OW30622   4.481   6.067   3.906 -0.0174  0.1271 -0.0852
 9908SOL    HW130623   4.494   6.037   4.001 -2.0302 -0.1632  0.1322
 9908SOL    HW230624   4.520   5.999   3.844  1.2214  0.2679  0.5092
 9909SOL     OW30625   4.456   6.330   0.141 -0.0489 -0.5846  0.0723
 9909SOL    HW130626   4.472   6.308   0.237  0.1814 -0.6285  0.0245
 9909SOL    HW230627   4.372   6.286   0.110  0.9201 -2.2161 -0.3004
 9910SOL     OW30628   5.056   0.561   5.906  0.1301  0.2255  0.1388
 9910SOL    HW130629   5.009   0.478   5.937 -0.6942  0.6186 -0.0337
 9910SOL    HW230630   5.151   0.538   5.882  0.6978 -0.1936  2.4695
 9911SOL     OW30631   0.518   4.585   2.671 -0.0845 -0.6224  0.3810
 9911SOL    HW130632   0.553   4.502   2.714 -0.5570 -1.1744 -0.2792
 9911SOL    HW230633   0.430   4.566   2.629 -0.2654  0.2585  0.3447
 9912SOL     OW30634   5.724   0.609   0.651 -0.1536 -0.1722 -0.6098
 9912SOL    HW130635   5.677   0.528   0.615 -1.6402  0.3680  0.0400
 9912SOL    HW230636   5.778   0.651   0.578 -0.5069 -0.9390 -1.3269
 9913SOL     OW30637   2.230   5.682   3.806 -0.4157 -0.5431 -0.7641
 9913SOL    HW130638   2.290   5.760   3.826 -2.7226  1.3136 -0.6181
 9913SOL    HW230639   2.202   5.638   3.891  0.0186 -0.8591 -0.7807
 9914SOL     OW30640   0.632   0.316   1.731  0.2746  0.5448 -0.0572
 9914SOL    HW130641   0.551   0.307   1.788  0.1821  3.7348  0.4684
 9914SOL    HW230642   0.649   0.229   1.685 -2.2521 -0.8118  1.3248
 9915SOL     OW30643   4.690   3.686   6.572 -0.2640 -0.1613  0.2691
 9915SOL    HW130644   4.694   3.603   6.628  0.4973  0.5985  1.3784
 9915SOL    HW230645   4.600   3.692   6.528 -0.0851 -1.9328 -0.4299
 9916SOL     OW30646   6.158   6.969   1.714 -0.1669 -0.5632 -0.1480
 9916SOL    HW130647   6.191   6.894   1.772  0.4055  0.3081  0.6677
 9916SOL    HW230648   6.080   6.937   1.661 -0.3860 -1.5318  0.7204
 9917SOL     OW30649   3.901   3.797   4.922 -0.2573  0.3562  0.2121
 9917SOL    HW130650   3.989   3.766   4.960  0.3276  0.5520 -0.9345
 9917SOL    HW230651   3.826   3.754   4.972  0.4972 -2.3102 -0.7566
 9918SOL     OW30652   0.681   2.031   2.290 -0.6717 -0.0776  0.0550
 9918SOL    HW130653   0.771   2.075   2.288 -0.4535 -0.5421 -0.5647
 9918SOL    HW230654   0.677   1.968   2.367 -0.2183 -0.5509 -0.2963
 9919SOL     OW30655   2.311   4.680   0.402 -0.2542  0.4227  0.1339
 9919SOL    HW130656   2.339   4.771   0.435  0.3127 -0.2019  1.4591
 9919SOL    HW230657   2.293   4.685   0.304  0.1254  1.8861  0.1040
 9920SOL     OW30658   0.602   4.821   6.965  0.3019  0.0617 -0.0516
 9920SOL    HW130659   0.676   4.800   7.028  0.8520  1.7505 -0.1059
 9920SOL    HW230660   0.636   4.815   6.871  0.0871 -0.1733 -0.1162
 9921SOL     OW30661   3.781   5.311   0.510 -0.7436  0.0797  0.1064
 9921SOL    HW130662   3.845   5.264   0.571 -0.9950 -0.1064  0.2294
 9921SOL    HW230663   3.829   5.337   0.426 -0.2501  0.8474  0.6154
 9922SOL     OW30664   6.694   3.943   2.926 -0.0320  0.5710 -0.6575
 9922SOL    HW130665   6.661   3.856   2.962  0.7028 -0.9922 -3.4278
 9922SOL    HW230666   6.622   4.012   2.933 -0.3910  0.0280  2.2294
 9923SOL     OW30667   5.641   0.708   5.936 -0.0519  0.4628 -0.4785
 9923SOL    HW130668   5.740   0.696   5.945 -0.1439  0.5426  0.7840
 9923SOL    HW230669   5.601   0.625   5.897 -0.1543 -2.0001  4.1793
 9924SOL     OW30670   6.973   5.105   2.809  0.1811  0.6005  0.2482
 9924SOL    HW130671   6.915   5.113   2.728 -1.4264 -0.2757  1.2531
 9924SOL    HW230672   7.008   5.012   2.817 -0.7267  0.3242  1.2157
 9925SOL     OW30673   4.816   3.266   1.815  0.1529 -0.1732 -0.0220
 9925SOL    HW130674   4.908   3.227   1.819  0.2500 -0.1310 -1.4928
 9925SOL    HW230675   4.749   3.193   1.828  0.3431  0.0380  2.9086
 9926SOL     OW30676   4.691   5.952   2.064 -0.0760  0.2369  0.0616
 9926SOL    HW130677   4.614   5.928   2.005  0.5520  0.4610 -0.8926
 9926SOL    HW230678   4.658   5.982   2.153 -1.1086  0.5859 -0.4219
 9927SOL     OW30679   5.648   1.893   2.302  0.1771 -0.2786 -0.3086
 9927SOL    HW130680   5.558   1.910   2.341  0.2463  0.0471 -0.2834
 9927SOL    HW230681   5.689   1.980   2.275  0.6380 -0.3837  0.0327
 9928SOL     OW30682   2.392   6.062   1.904 -0.4114  0.0474  0.2428
 9928SOL    HW130683   2.433   6.086   1.992  0.6526 -1.3619  0.1753
 9928SOL    HW230684   2.354   5.970   1.909 -0.2592 -0.0839 -0.7925
 9929SOL     OW30685   0.184   6.146   1.985 -0.3844  0.0007 -0.3658
 9929SOL    HW130686   0.199   6.229   2.039 -1.6527  0.4375 -0.6576
 9929SOL    HW230687   0.144   6.170   1.896  1.5968 -0.7057 -1.5173
 9930SOL     OW30688   6.686   6.310   2.424  0.1854 -0.0635  0.3128
 9930SOL    HW130689   6.690   6.405   2.452 -1.9078  0.3925 -0.7203
 9930SOL    HW230690   6.664   6.253   2.503 -0.0567  0.5081  0.6649
 9931SOL     OW30691   5.706   0.150   4.970 -0.3018  0.3552  0.2482
 9931SOL    HW130692   5.795   0.111   4.947 -0.8534 -0.7637 -0.0592
 9931SOL    HW230693   5.680   0.121   5.063  1.1681  3.4920  1.7857
 9932SOL     OW30694   4.781   4.395   0.645  0.4743 -0.1765 -0.5029
 9932SOL    HW130695   4.829   4.379   0.559 -0.9247  0.8064 -1.4986
 9932SOL    HW230696   4.778   4.310   0.697 -0.1775 -1.2455 -2.2054
 9933SOL     OW30697   1.045   6.470   3.746 -0.3480 -0.4150 -0.0043
 9933SOL    HW130698   1.117   6.499   3.683 -0.1244 -0.4921  0.2177
 9933SOL    HW230699   1.027   6.543   3.812 -1.5931  0.2617 -1.0357
 9934SOL     OW30700   0.970   1.040   2.840 -0.2199 -0.3200  0.0599
 9934SOL    HW130701   0.981   1.081   2.931 -0.1990  0.5281 -0.3196
 9934SOL    HW230702   1.049   1.064   2.783  0.3195 -1.7702  0.1473
 9935SOL     OW30703   7.007   3.907   4.517 -0.0588 -0.6964  0.0050
 9935SOL    HW130704   7.021   3.989   4.462  1.4612 -1.1768 -0.3675
 9935SOL    HW230705   6.952   3.929   4.598 -0.6739  0.4186 -0.7097
 9936SOL     OW30706   2.919   1.309   0.033  0.4920  0.8034  0.2097
 9936SOL    HW130707   2.978   1.240   0.075  1.2351  1.4687  0.2617
 9936SOL    HW230708   2.971   1.392   0.015  0.4077  0.3181 -2.6965
 9937SOL     OW30709   5.421   5.844   3.919 -0.3446 -0.3054 -0.0495
 9937SOL    HW130710   5.418   5.778   3.843  0.6039 -0.0175 -0.3520
 9937SOL    HW230711   5.479   5.808   3.992  0.6919  0.4616 -0.4847
 9938SOL     OW30712   3.848   0.385   3.624 -0.3904 -0.1735  0.4555
 9938SOL    HW130713   3.868   0.449   3.550 -1.4457 -1.9153 -1.4231
 9938SOL    HW230714   3.753   0.396   3.653  0.0629  0.6136  1.7079
 9939SOL     OW30715   4.982   5.125   4.723  0.3068 -0.4802  0.6978
 9939SOL    HW130716   4.986   5.025   4.735  0.9112 -0.7972 -1.5816
 9939SOL    HW230717   5.075   5.160   4.714  0.0497 -0.1137 -0.9331
 9940SOL     OW30718   6.993   0.645   3.107  0.5452 -0.4168  0.2306
 9940SOL    HW130719   6.999   0.742   3.086  0.2109 -0.3746  0.3306
 9940SOL    HW230720   6.924   0.630   3.178 -1.8229 -1.0518 -2.0539
 9941SOL     OW30721   0.028   2.483   1.115 -0.2949 -0.6539 -0.0359
 9941SOL    HW130722   0.057   2.570   1.154 -0.0021 -0.3772 -0.8494
 9941SOL    HW230723   0.015   2.416   1.188  0.0557 -0.0970  0.5430
 9942SOL     OW30724   1.568   3.953   1.360  0.3324 -0.3286  0.1866
 9942SOL    HW130725   1.494   4.017   1.383  1.1678  1.6148 -2.1127
 9942SOL    HW230726   1.655   3.989   1.392  0.7834 -0.4419 -0.8781
 9943SOL     OW30727   0.204   2.415   4.157  0.3308  0.4867 -0.4322
 9943SOL    HW130728   0.189   2.449   4.064 -2.1483 -0.2223 -0.3527
 9943SOL    HW230729   0.295   2.442   4.188  1.2192  0.7616 -3.0382
 9944SOL     OW30730   4.842   0.780   5.979 -0.8791  0.4434 -0.1527
 9944SOL    HW130731   4.767   0.842   5.955 -1.5186 -0.1709  0.2383
 9944SOL    HW230732   4.926   0.810   5.932 -1.4598  0.8752 -0.9386
 9945SOL     OW30733   4.032   4.257   1.613 -0.0269  0.0045 -0.1237
 9945SOL    HW130734   3.950   4.278   1.667 -0.3224 -1.3078 -0.0357
 9945SOL    HW230735   4.006   4.236   1.519  0.0750 -1.4952  0.1671
 9946SOL     OW30736   2.913   1.134   0.419 -0.0098 -0.0202 -0.2040
 9946SOL    HW130737   3.000   1.168   0.456  0.7000 -1.1935 -0.7534
 9946SOL    HW230738   2.923   1.114   0.322 -1.1092  0.4893 -0.4452
 9947SOL     OW30739   5.815   2.529   5.228  0.4742  0.0914  0.2925
 9947SOL    HW130740   5.873   2.496   5.153  0.8621  1.6725 -0.1337
 9947SOL    HW230741   5.793   2.625   5.214 -0.2303  0.1736  1.7422
 9948SOL     OW30742   5.294   2.522   3.125  0.4181 -0.5864  0.1098
 9948SOL    HW130743   5.244   2.553   3.206  0.7473 -0.5226  0.2907
 9948SOL    HW230744   5.305   2.598   3.061  1.3002 -0.2997  0.5905
 9949SOL     OW30745   1.103   3.861   0.234  0.3270  0.1551 -0.5306
 9949SOL    HW130746   1.110   3.933   0.302  0.2301  0.5921 -0.9801
 9949SOL    HW230747   1.181   3.799   0.241 -1.0227 -1.4530  1.8482
 9950SOL     OW30748   0.865   6.826   3.819  1.0894 -0.2067  0.0213
 9950SOL    HW130749   0.849   6.777   3.734  1.5789 -3.1323  1.4893
 9950SOL    HW230750   0.953   6.798   3.858 -0.7455 -2.0586  3.3330
 9951SOL     OW30751   4.172   1.176   6.806 -0.2177  0.3150 -0.1225
 9951SOL    HW130752   4.241   1.228   6.757  0.8424 -0.9666 -0.0602
 9951SOL    HW230753   4.139   1.228   6.885  1.0278  0.7674  0.1114
 9952SOL     OW30754   5.305   5.552   6.997  0.5343  0.4582 -0.0658
 9952SOL    HW130755   5.364   5.540   6.917 -1.1130 -1.7977 -1.0574
 9952SOL    HW230756   5.216   5.587   6.967 -0.0750 -0.3171  0.7838
 9953SOL     OW30757   1.701   6.787   3.951  0.2629  0.7916  0.1137
 9953SOL    HW130758   1.800   6.797   3.966  0.3735  1.7409 -1.0900
 9953SOL    HW230759   1.652   6.855   4.006  0.2630  0.3224  0.7095
 9954SOL     OW30760   2.151   1.099   1.560 -0.1806  0.1463  0.2850
 9954SOL    HW130761   2.119   1.005   1.565 -1.5193  0.5386 -0.4442
 9954SOL    HW230762   2.241   1.106   1.604 -0.5175 -1.2439  1.2640
 9955SOL     OW30763   5.633   3.918   2.561 -0.7586  0.0760 -0.5248
 9955SOL    HW130764   5.699   3.884   2.628  2.1800  0.0856 -3.1438
 9955SOL    HW230765   5.573   3.986   2.603  0.0595 -0.8378  2.3144
 9956SOL     OW30766   3.401   2.278   0.576 -0.2650 -0.0108 -0.1992
 9956SOL    HW130767   3.369   2.367   0.544 -1.1162 -0.5021 -0.7582
 9956SOL    HW230768   3.443   2.288   0.666  0.8928  1.1666 -0.8351
 9957SOL     OW30769   2.245   5.150   6.131  0.1906 -0.1803  0.1074
 9957SOL    HW130770   2.181   5.082   6.167  1.1702 -0.7773  0.7515
 9957SOL    HW230771   2.194   5.217   6.076 -1.3288  0.5949  2.3259
 9958SOL     OW30772   1.600   5.420   5.498  0.4722 -0.0894 -0.6918
 9958SOL    HW130773   1.608   5.516   5.525  0.0747 -0.5826  1.4271
 9958SOL    HW230774   1.603   5.362   5.580  0.2249 -1.8644 -1.8659
 9959SOL     OW30775   0.807   2.452   4.296  0.1578  0.2882 -0.2948
 9959SOL    HW130776   0.762   2.378   4.245 -2.3318  0.0888  1.9695
 9959SOL    HW230777   0.887   2.415   4.344  0.3735 -0.3401 -1.1000
 9960SOL     OW30778   3.882   3.743   1.258  0.4835  0.1402 -0.2550
 9960SOL    HW130779   3.916   3.670   1.318 -0.7211  1.2494  1.9156
 9960SOL    HW230780   3.798   3.713   1.214  0.4654 -0.0958 -0.0624
 9961SOL     OW30781   1.793   5.142   6.711  0.1616  0.0081 -0.2160
 9961SOL    HW130782   1.760   5.065   6.657  1.2757 -1.2421  0.8159
 9961SOL    HW230783   1.889   5.159   6.689  0.4129 -0.0341  0.8049
 9962SOL     OW30784   1.515   5.661   3.574  0.3249  0.0909 -0.1680
 9962SOL    HW130785   1.499   5.579   3.520  1.0975 -0.6024  0.6397
 9962SOL    HW230786   1.430   5.687   3.621 -0.2339  0.4478 -1.3284
 9963SOL     OW30787   1.119   5.001   1.990 -0.4848  0.7550 -0.3672
 9963SOL    HW130788   1.036   5.018   2.043 -0.5646  1.0430 -0.5834
 9963SOL    HW230789   1.122   4.904   1.965  0.0544  0.4040  0.9936
 9964SOL     OW30790   6.862   3.766   6.933 -0.3663  0.3513  0.0115
 9964SOL    HW130791   6.953   3.775   6.895 -0.1992  2.3173  0.7770
 9964SOL    HW230792   6.794   3.771   6.860  0.0023  2.6967 -0.2369
 9965SOL     OW30793   1.617   4.251   5.186  0.1670 -0.0914 -0.0505
 9965SOL    HW130794   1.576   4.330   5.230  1.0409  0.3681 -0.0447
 9965SOL    HW230795   1.714   4.268   5.169  0.1875 -0.8509 -0.7793
 9966SOL     OW30796   5.255   1.088   6.872  0.2703  0.4797 -0.1479
 9966SOL    HW130797   5.351   1.109   6.888 -0.1285  1.3905  1.1882
 9966SOL    HW230798   5.198   1.145   6.931 -1.0091 -1.6020  0.7510
 9967SOL     OW30799   5.662   3.577   6.790  0.2699  0.2513  0.2409
 9967SOL    HW130800   5.743   3.545   6.839  0.9027  0.9030 -0.3526
 9967SOL    HW230801   5.637   3.668   6.823  0.2400  0.3737 -0.1166
 9968SOL     OW30802   0.710   1.799   5.686 -0.3337  0.1975 -0.6465
 9968SOL    HW130803   0.645   1.828   5.615 -1.2609 -0.8953 -0.2852
 9968SOL    HW230804   0.685   1.708   5.718  1.0047  0.0320 -0.0084
 9969SOL     OW30805   1.553   6.618   6.605 -0.5730  0.1379  0.3376
 9969SOL    HW130806   1.570   6.705   6.651  1.1230 -0.3440  0.6623
 9969SOL    HW230807   1.600   6.617   6.517 -0.7188 -0.3916  0.2629
 9970SOL     OW30808   6.142   2.819   3.390 -0.0565 -0.3679 -0.1971
 9970SOL    HW130809   6.142   2.845   3.293  0.9621  2.8070  0.5273
 9970SOL    HW230810   6.232   2.837   3.429 -1.0990  0.7757  1.8470
 9971SOL     OW30811   4.140   2.046   3.614 -0.5214 -0.3894  0.5969
 9971SOL    HW130812   4.205   2.122   3.613  0.9144 -1.5755  0.0333
 9971SOL    HW230813   4.058   2.073   3.665  1.0211  0.6669  2.7010
 9972SOL     OW30814   6.006   3.986   4.908 -0.0275  0.5795  0.3502
 9972SOL    HW130815   5.980   4.057   4.843  0.6164  0.5230  0.0306
 9972SOL    HW230816   6.040   3.906   4.859  0.9400  0.7287  0.7623
 9973SOL     OW30817   1.598   0.828   0.394 -0.1701 -0.2865 -0.7715
 9973SOL    HW130818   1.519   0.804   0.451  0.8889  0.6754  1.2311
 9973SOL    HW230819   1.619   0.925   0.408  1.0829 -0.4260 -1.6317
 9974SOL     OW30820   3.883   2.303   1.146  0.1756  0.0550 -0.0106
 9974SOL    HW130821   3.943   2.232   1.110 -1.1294 -0.6613 -0.8522
 9974SOL    HW230822   3.835   2.270   1.227  0.1103  0.2337  0.0255
 9975SOL     OW30823   3.174   3.171   0.269  0.1072  0.5535  0.2814
 9975SOL    HW130824   3.240   3.145   0.199 -0.9188  2.1604 -1.3573
 9975SOL    HW230825   3.098   3.106   0.268  1.5265 -1.3102  2.1815
 9976SOL     OW30826   6.139   0.397   3.059  0.5179  0.0875 -0.2216
 9976SOL    HW130827   6.142   0.363   3.153 -0.9529  0.6121  0.0422
 9976SOL    HW230828   6.233   0.413   3.026  1.0707 -0.6084  0.9511
 9977SOL     OW30829   2.801   0.987   6.441  0.3404 -0.3019  0.2278
 9977SOL    HW130830   2.877   0.923   6.446 -0.8113 -1.6656  0.8742
 9977SOL    HW230831   2.828   1.067   6.388  1.8505 -1.2766 -0.5289
 9978SOL     OW30832   0.809   6.113   4.844  0.6256 -0.1481 -0.0736
 9978SOL    HW130833   0.879   6.042   4.842  1.5716  0.7765 -1.4936
 9978SOL    HW230834   0.792   6.146   4.751 -0.4927  0.8046  0.4432
 9979SOL     OW30835   6.528   2.645   5.108 -0.0028 -0.4098  0.2025
 9979SOL    HW130836   6.490   2.613   5.021  1.1153  1.6877 -1.1525
 9979SOL    HW230837   6.457   2.643   5.178 -1.4759 -0.4089 -1.2344
 9980SOL     OW30838   3.895   5.288   2.933  0.3804 -0.4654 -0.5617
 9980SOL    HW130839   3.816   5.268   2.992  1.8818 -0.9418  1.4013
 9980SOL    HW230840   3.950   5.360   2.974  2.1532 -1.6892 -0.6609
 9981SOL     OW30841   6.990   1.935   3.653  0.5251 -0.2950 -0.3687
 9981SOL    HW130842   6.947   2.025   3.659  0.2793 -0.4208 -0.2463
 9981SOL    HW230843   7.080   1.938   3.696 -0.1912 -0.5506  1.2149
 9982SOL     OW30844   0.068   3.453   0.256 -0.0200 -0.5752  0.6258
 9982SOL    HW130845  -0.009   3.474   0.316  0.5833 -0.4458  1.3779
 9982SOL    HW230846   0.146   3.511   0.279 -0.4417  1.1028 -1.7885
 9983SOL     OW30847   1.806   0.312   0.455 -0.2889  0.2478  0.2522
 9983SOL    HW130848   1.905   0.297   0.451 -0.4779 -0.8062 -0.8326
 9983SOL    HW230849   1.773   0.343   0.366 -1.1181 -0.5951  0.2538
 9984SOL     OW30850   2.942   5.620   5.997  0.4303 -0.3676 -0.2600
 9984SOL    HW130851   2.887   5.598   5.917 -0.3372 -0.1737  0.2013
 9984SOL    HW230852   2.934   5.717   6.017  1.0754 -0.3069 -0.2795
 9985SOL     OW30853   1.030   1.341   1.250 -0.1995  0.0603 -0.2230
 9985SOL    HW130854   1.032   1.402   1.170  0.9685 -0.1955 -0.4190
 9985SOL    HW230855   0.936   1.331   1.283 -0.4430  1.7872 -0.3185
 9986SOL     OW30856   1.820   3.945   4.793  0.4277 -0.1258 -0.3374
 9986SOL    HW130857   1.916   3.970   4.793  0.0830  1.2617 -0.1487
 9986SOL    HW230858   1.798   3.900   4.880  0.7387  0.2370 -0.0666
 9987SOL     OW30859   2.438   1.206   0.430 -0.2907 -0.2241 -0.0951
 9987SOL    HW130860   2.495   1.192   0.512  0.5290  0.8396 -0.4543
 9987SOL    HW230861   2.404   1.118   0.398 -2.2126 -0.5344  2.4619
 9988SOL     OW30862   0.424   1.273   5.501  0.1370  0.0689 -0.5080
 9988SOL    HW130863   0.391   1.325   5.421 -1.4965 -0.0317  0.0551
 9988SOL    HW230864   0.425   1.176   5.479  0.4053  0.0996 -0.6369
 9989SOL     OW30865   3.847   1.754   2.587 -0.7054 -0.2098  0.0244
 9989SOL    HW130866   3.772   1.787   2.530 -0.6050  0.8138  0.4691
 9989SOL    HW230867   3.934   1.771   2.540 -0.5252  1.9644  1.0786
 9990SOL     OW30868   1.642   3.225   5.225  0.8134  0.1099  0.0831
 9990SOL    HW130869   1.656   3.137   5.270 -1.1472 -0.4014 -0.1982
 9990SOL    HW230870   1.689   3.226   5.137 -0.8313 -1.5111 -0.8739
 9991SOL     OW30871   5.006   0.137   5.650 -0.4282  0.1296  0.1904
 9991SOL    HW130872   4.909   0.125   5.673 -0.4114 -0.2403  0.0712
 9991SOL    HW230873   5.026   0.235   5.643 -0.8192  0.2075  0.1093
 9992SOL     OW30874   6.398   5.114   4.264  0.2337  0.1981  0.5533
 9992SOL    HW130875   6.445   5.053   4.200  1.5858  1.0677  0.6694
 9992SOL    HW230876   6.465   5.174   4.309 -1.1370  2.8110 -0.6471
 9993SOL     OW30877   1.159   2.833   2.398 -0.5096 -0.0636  0.0232
 9993SOL    HW130878   1.190   2.907   2.338  1.4104 -0.9832 -0.1934
 9993SOL    HW230879   1.176   2.859   2.493  0.5740 -0.3711 -0.0721
 9994SOL     OW30880   0.615   5.005   3.434 -0.0110 -0.4425 -0.3028
 9994SOL    HW130881   0.580   4.911   3.433  0.7592 -0.7380  0.0059
 9994SOL    HW230882   0.696   5.011   3.375  0.3797 -0.1455  0.2603
 9995SOL     OW30883   0.258   6.264   5.699  0.5311 -0.1935 -0.1757
 9995SOL    HW130884   0.268   6.361   5.721 -2.1798 -0.0423  0.6855
 9995SOL    HW230885   0.213   6.217   5.775 -2.1838 -1.2143 -2.2614
 9996SOL     OW30886   5.615   6.472   2.234 -0.2544 -0.2146 -0.0759
 9996SOL    HW130887   5.625   6.570   2.251  1.0178 -0.7425  2.8321
 9996SOL    HW230888   5.705   6.431   2.221 -0.5210 -1.3340  1.3035
 9997SOL     OW30889   4.732   4.350   3.141 -0.1811 -0.3270 -0.0384
 9997SOL    HW130890   4.700   4.367   3.048  2.6249  1.0869 -0.8643
 9997SOL    HW230891   4.670   4.393   3.207 -0.5280  1.4050 -1.4330
 9998SOL     OW30892   2.251   5.111   3.150 -0.4032 -0.0599  0.4983
 9998SOL    HW130893   2.272   5.203   3.116 -1.5958  0.0554  0.0374
 9998SOL    HW230894   2.292   5.043   3.089  0.4773  0.1513  0.8352
 9999SOL     OW30895   5.766   2.305   0.638  0.1571 -0.2143  0.1738
 9999SOL    HW130896   5.720   2.246   0.703  1.0048 -1.4696 -0.3343
 9999SOL    HW230897   5.705   2.325   0.562 -1.0479  1.7292  1.5460
10000SOL     OW30898   1.713   5.690   1.791  0.2671  0.1436  0.4754
10000SOL    HW130899   1.785   5.727   1.732 -0.0721  0.5937  0.3392
10000SOL    HW230900   1.737   5.596   1.817 -0.6178 -0.9084 -2.1957
10001SOL     OW30901   2.899   0.868   3.748  0.4258  0.1638  0.8829
10001SOL    HW130902   2.835   0.869   3.825  0.2901 -0.8931  0.8017
10001SOL    HW230903   2.976   0.807   3.770 -0.7779 -2.0687 -0.6873
10002SOL     OW30904   2.554   1.726   4.334  0.4723 -0.3982  0.0925
10002SOL    HW130905   2.599   1.781   4.405  0.8580  0.4448 -0.7713
10002SOL    HW230906   2.555   1.777   4.248  0.6287 -1.6810 -0.6838
10003SOL     OW30907   1.824   4.042   1.412 -0.0244 -0.2120 -0.1514
10003SOL    HW130908   1.867   3.993   1.487  0.1106  0.6726  0.3582
10003SOL    HW230909   1.885   4.115   1.380 -0.9333  0.7578  0.2677
10004SOL     OW30910   1.873   4.556   4.992 -0.5630  0.2598 -0.4143
10004SOL    HW130911   1.855   4.648   4.956 -0.7463  0.0233 -0.9321
10004SOL    HW230912   1.892   4.562   5.090  0.2485  0.9420 -0.6026
10005SOL     OW30913   4.428   5.122   1.788 -0.4033  0.6592 -0.8192
10005SOL    HW130914   4.329   5.129   1.801 -0.3162  2.8935 -0.8507
10005SOL    HW230915   4.456   5.026   1.789 -2.2994  0.0474  1.1196
10006SOL     OW30916   5.647   4.322   1.505  0.3112 -0.0582  0.6527
10006SOL    HW130917   5.661   4.257   1.431 -0.7960 -0.3273  0.6559
10006SOL    HW230918   5.735   4.349   1.543  0.8123 -1.2168  0.3605
10007SOL     OW30919   1.151   4.069   6.328  0.2849  0.3861  0.1695
10007SOL    HW130920   1.107   3.999   6.272 -0.2144  1.0045 -0.2255
10007SOL    HW230921   1.134   4.050   6.425 -1.7405  1.1465  0.0104
10008SOL     OW30922   5.121   2.258   6.427  0.2975  0.4239 -0.0693
10008SOL    HW130923   5.147   2.221   6.516  0.8452 -0.9547 -0.7626
10008SOL    HW230924   5.105   2.356   6.434 -0.4310  0.1982  1.6999
10009SOL     OW30925   2.657   5.033   1.615 -0.3551  0.3359  0.3098
10009SOL    HW130926   2.755   5.049   1.620 -0.5477  1.4708  0.6231
10009SOL    HW230927   2.640   4.937   1.590  0.8208 -0.4908  2.4023
10010SOL     OW30928   3.396   2.025   1.627 -0.7449  0.1805 -0.2552
10010SOL    HW130929   3.417   2.062   1.717  0.8598 -1.4661  0.1143
10010SOL    HW230930   3.309   1.975   1.630  0.2308 -1.5403  0.9497
10011SOL     OW30931   6.381   6.922   6.734 -0.0466  0.4273  0.0595
10011SOL    HW130932   6.420   6.833   6.711  1.7831  0.9273  1.0146
10011SOL    HW230933   6.411   6.990   6.667 -0.4877  0.5462 -0.0199
10012SOL     OW30934   6.000   3.671   0.681 -0.3092 -0.0243  0.1734
10012SOL    HW130935   6.091   3.711   0.671 -0.4250  1.2512  3.0844
10012SOL    HW230936   5.932   3.732   0.641 -0.1181  0.6144  0.8047
10013SOL     OW30937   2.107   2.309   6.510  0.1155  0.3081 -0.7371
10013SOL    HW130938   2.100   2.292   6.412  0.0903  0.8130 -0.8230
10013SOL    HW230939   2.028   2.363   6.540  1.0909  1.8207 -0.7988
10014SOL     OW30940   4.359   6.855   2.587 -0.3908 -0.3379 -0.4554
10014SOL    HW130941   4.345   6.881   2.682 -0.3818 -0.6224 -0.3742
10014SOL    HW230942   4.342   6.757   2.577  1.0266 -0.6072 -0.4506
10015SOL     OW30943   0.152   4.254   3.719 -0.1341  0.0119  0.4254
10015SOL    HW130944   0.198   4.342   3.731 -0.1264  0.0589  0.0706
10015SOL    HW230945   0.092   4.237   3.797 -0.1090  0.3146  0.5141
10016SOL     OW30946   4.199   1.488   5.714 -0.3462 -0.5617 -0.7499
10016SOL    HW130947   4.152   1.568   5.752 -1.3287 -0.6429 -1.7493
10016SOL    HW230948   4.297   1.506   5.709 -0.3545 -0.0486  0.5474
10017SOL     OW30949   3.010   4.814   4.161 -0.5063  0.7711 -0.4675
10017SOL    HW130950   2.936   4.784   4.221  0.5095  2.4016  1.7509
10017SOL    HW230951   3.074   4.870   4.214  1.0465  1.3821 -2.8762
10018SOL     OW30952   2.545   0.598   3.947  0.4043 -0.1787 -0.3599
10018SOL    HW130953   2.528   0.632   3.855  0.0916 -0.1249 -0.2848
10018SOL    HW230954   2.459   0.591   3.996  0.4190 -1.4637 -0.4954
10019SOL     OW30955   3.769   3.116   0.620  0.1344 -0.6594 -0.1011
10019SOL    HW130956   3.754   3.196   0.679  0.8748 -0.4225 -0.2262
10019SOL    HW230957   3.741   3.033   0.668 -0.4909 -0.3469  0.0914
10020SOL     OW30958   1.255   6.742   5.188 -0.0098 -0.2957  0.3695
10020SOL    HW130959   1.336   6.694   5.153 -1.1272 -0.8901 -1.5891
10020SOL    HW230960   1.183   6.675   5.208 -0.4807  0.3220  0.7676
10021SOL     OW30961   3.068   0.559   6.559 -0.0975  0.0319  0.3864
10021SOL    HW130962   3.057   0.649   6.518 -1.5071  0.5165  1.7242
10021SOL    HW230963   2.999   0.497   6.521  0.2301 -0.2095  0.1856
10022SOL     OW30964   4.773   3.446   1.435 -0.2420 -0.0517  0.2722
10022SOL    HW130965   4.757   3.476   1.529  2.6218  1.5410  0.3642
10022SOL    HW230966   4.811   3.353   1.435 -0.4935 -0.1540  0.6774
10023SOL     OW30967   5.370   1.391   6.997  0.5314  0.8050  0.0229
10023SOL    HW130968   5.387   1.441   7.082 -0.5237  1.9537 -0.4099
10023SOL    HW230969   5.457   1.365   6.955  1.0672  0.9108  1.0504
10024SOL     OW30970   6.705   6.585   2.510 -0.3148  0.4036 -0.2761
10024SOL    HW130971   6.789   6.587   2.456  0.7930  2.8851  1.3749
10024SOL    HW230972   6.640   6.652   2.473 -0.1992  0.9295  0.4603
10025SOL     OW30973   3.218   5.599   2.112 -0.1534  0.3009  0.3396
10025SOL    HW130974   3.143   5.566   2.054  1.4196  0.9548 -2.2605
10025SOL    HW230975   3.192   5.687   2.154 -0.5587  0.9921 -1.2750
10026SOL     OW30976   6.456   4.614   2.844 -0.3990  0.0407 -0.8283
10026SOL    HW130977   6.448   4.671   2.762  0.8351  0.7304 -0.5106
10026SOL    HW230978   6.468   4.518   2.818  0.4202  0.3125 -1.4824
10027SOL     OW30979   2.548   2.331   3.070 -0.0733 -0.3162  0.8112
10027SOL    HW130980   2.511   2.422   3.048 -0.0130 -0.8891 -1.9659
10027SOL    HW230981   2.496   2.292   3.146 -1.7078  1.0599  0.4646
10028SOL     OW30982   3.952   3.314   6.580 -0.3882  0.0143 -0.7981
10028SOL    HW130983   4.035   3.364   6.554 -0.5481 -0.3798 -2.1262
10028SOL    HW230984   3.948   3.305   6.679  1.4142 -0.3762 -0.7303
10029SOL     OW30985   5.305   3.446   4.851  0.3399  0.5982 -0.1020
10029SOL    HW130986   5.260   3.529   4.818 -0.6279  0.9288  1.9360
10029SOL    HW230987   5.241   3.369   4.845  0.6489  0.3567 -0.3340
10030SOL     OW30988   6.097   0.546   0.228  0.5577 -0.2224  0.1459
10030SOL    HW130989   6.177   0.537   0.287  1.2521 -1.3823 -0.8990
10030SOL    HW230990   6.121   0.601   0.148  0.4754 -0.9932 -0.4213
10031SOL     OW30991   6.299   3.376   0.439  0.2231  0.0286 -0.1478
10031SOL    HW130992   6.323   3.383   0.536  0.7187 -0.3177 -0.2415
10031SOL    HW230993   6.314   3.282   0.408 -1.3570 -0.2436 -0.1991
10032SOL     OW30994   1.959   1.690   1.622  0.3579 -0.0882  0.0690
10032SOL    HW130995   1.917   1.763   1.569  1.3223  0.8345  0.5349
10032SOL    HW230996   1.890   1.622   1.647 -0.7134  1.0654  0.2966
10033SOL     OW30997   5.161   6.158   5.480  0.3680 -0.3361 -0.4775
10033SOL    HW130998   5.106   6.093   5.533  1.1484 -1.4370 -0.9924
10033SOL    HW230999   5.193   6.114   5.396 -0.0932  1.0994 -1.4404
10034SOL     OW31000   6.091   5.766   4.948  0.4984  0.3801 -0.0257
10034SOL    HW131001   6.000   5.729   4.966  0.1327  0.8490 -0.8744
10034SOL    HW231002   6.151   5.746   5.025 -0.1729 -0.4167  0.2977
10035SOL     OW31003   0.716   1.041   3.841  0.9512 -0.3117  0.4853
10035SOL    HW131004   0.714   1.043   3.741  3.2919 -0.7890  0.3731
10035SOL    HW231005   0.767   1.119   3.875 -1.5074  0.9737  1.4787
10036SOL     OW31006   0.974   4.848   3.597 -0.5965  0.2367 -0.3383
10036SOL    HW131007   1.012   4.931   3.557  4.5421 -1.9009 -0.7217
10036SOL    HW231008   0.936   4.869   3.687  1.8913  2.8749  0.2631
10037SOL     OW31009   0.050   6.926   1.614  0.1266 -0.0756  0.5105
10037SOL    HW131010   0.082   6.836   1.586  0.1661 -0.2240  1.0284
10037SOL    HW231011   0.127   6.989   1.618  0.3547 -0.4262  1.7297
10038SOL     OW31012   2.315   4.332   3.345 -0.0568 -0.1661 -0.3224
10038SOL    HW131013   2.227   4.361   3.308  1.1534  1.4980 -2.0254
10038SOL    HW231014   2.324   4.364   3.439 -2.6393 -3.3621  1.2434
10039SOL     OW31015   2.032   5.567   2.807  0.2358 -0.0913  0.2428
10039SOL    HW131016   2.122   5.603   2.833 -0.2716  1.4569 -0.0263
10039SOL    HW231017   1.996   5.620   2.730 -0.7705 -0.9030  0.1370
10040SOL     OW31018   4.652   4.299   4.239 -0.4597  0.0900 -0.3182
10040SOL    HW131019   4.731   4.244   4.213 -0.2327  0.0940  0.3443
10040SOL    HW231020   4.598   4.320   4.158 -0.5770 -1.1485 -0.5859
10041SOL     OW31021   0.660   3.527   1.192  0.2639 -0.5163 -0.0847
10041SOL    HW131022   0.672   3.428   1.194  0.0412 -0.5366  0.5334
10041SOL    HW231023   0.702   3.568   1.273  2.4876  0.1543 -1.5021
10042SOL     OW31024   4.444   2.149   2.188  0.3506 -0.0291  0.3038
10042SOL    HW131025   4.487   2.203   2.116  0.7553 -0.0483  0.5257
10042SOL    HW231026   4.508   2.079   2.220 -0.6418 -1.5434 -0.9163
10043SOL     OW31027   6.557   2.265   5.957 -0.1513 -0.3826 -0.0819
10043SOL    HW131028   6.563   2.357   5.995  0.3965 -0.4832  0.0811
10043SOL    HW231029   6.461   2.243   5.937 -0.4105 -0.1907  0.8945
10044SOL     OW31030   2.180   5.468   3.976  0.1235 -0.4360 -0.1410
10044SOL    HW131031   2.138   5.428   3.895 -3.9408 -1.2454  2.1100
10044SOL    HW231032   2.222   5.395   4.031 -1.7051 -0.7449  0.9046
10045SOL     OW31033   2.554   4.598   2.138 -0.6643 -0.0287  0.3656
10045SOL    HW131034   2.639   4.611   2.087 -0.2845  0.2259  1.0463
10045SOL    HW231035   2.522   4.504   2.125 -0.3099 -0.1129  0.0580
10046SOL     OW31036   4.828   3.062   0.416 -0.1180 -0.4383  0.0438
10046SOL    HW131037   4.810   3.154   0.380  1.3821 -0.0893  0.1056
10046SOL    HW231038   4.791   2.994   0.353 -1.4721  0.1873  0.1188
10047SOL     OW31039   0.737   0.016   0.202 -0.3234  0.4111  0.1449
10047SOL    HW131040   0.808   0.084   0.185  0.4441 -0.3643  0.2024
10047SOL    HW231041   0.664   0.058   0.257 -0.9508  1.8141 -1.6330
10048SOL     OW31042   6.592   2.496   6.150  0.4188  0.2866  0.0348
10048SOL    HW131043   6.655   2.561   6.190  0.2898 -0.3353  1.2846
10048SOL    HW231044   6.519   2.545   6.102  0.1135  1.0830  1.2697
10049SOL     OW31045   5.031   5.656   2.864 -0.1108  0.3488 -0.6446
10049SOL    HW131046   4.952   5.711   2.839 -0.5730 -0.3943 -0.8621
10049SOL    HW231047   5.054   5.594   2.788 -1.2480 -1.6217  0.5236
10050SOL     OW31048   6.883   6.779   3.840 -0.2951 -0.3647  0.7389
10050SOL    HW131049   6.971   6.815   3.871  0.6910 -2.4104  0.5117
10050SOL    HW231050   6.889   6.755   3.743 -1.5911  0.7914  0.3424
10051SOL     OW31051   3.292   2.764   6.511 -0.0036  0.2287 -0.0244
10051SOL    HW131052   3.200   2.729   6.496 -0.1534  1.9076 -4.5862
10051SOL    HW231053   3.292   2.863   6.502  2.1981  0.3189  0.3639
10052SOL     OW31054   0.387   6.786   0.814  0.5163 -0.6165 -0.5744
10052SOL    HW131055   0.418   6.778   0.908 -1.1400  0.8119  0.1362
10052SOL    HW231056   0.398   6.697   0.768  0.0154 -1.7400  1.3711
10053SOL     OW31057   3.881   5.655   5.308  0.0391  0.2335 -0.5354
10053SOL    HW131058   3.950   5.586   5.289 -0.5183 -0.1790 -1.1075
10053SOL    HW231059   3.923   5.733   5.353  0.5159 -0.8854  1.0388
10054SOL     OW31060   3.806   6.217   2.354  0.3316 -0.1007  0.1505
10054SOL    HW131061   3.775   6.148   2.419 -0.1391  1.8403  2.1376
10054SOL    HW231062   3.728   6.275   2.327  0.9420  0.4807 -0.4144
10055SOL     OW31063   3.825   4.739   0.467 -0.0344 -0.2323  0.0465
10055SOL    HW131064   3.733   4.754   0.501  0.5732  0.2466  1.5397
10055SOL    HW231065   3.881   4.819   0.486  0.3490  0.0777 -2.1356
10056SOL     OW31066   5.019   6.311   0.901 -0.3996  0.1116  0.7228
10056SOL    HW131067   5.060   6.401   0.886 -1.4839  0.5375  0.2632
10056SOL    HW231068   5.074   6.242   0.854 -0.6409  0.7694 -0.5657
10057SOL     OW31069   6.370   3.740   2.922  0.6449 -0.0533  0.3234
10057SOL    HW131070   6.337   3.675   2.991  1.8970 -1.0412  0.0368
10057SOL    HW231071   6.387   3.692   2.836  1.2914  0.7160  0.0081
10058SOL     OW31072   5.220   4.833   2.886 -0.1795 -0.0883 -0.1958
10058SOL    HW131073   5.227   4.733   2.883  0.5188 -0.0514  0.0596
10058SOL    HW231074   5.130   4.859   2.921 -0.3680 -0.6304 -0.2776
10059SOL     OW31075   4.502   1.210   6.370 -0.2908  0.0043 -0.1317
10059SOL    HW131076   4.403   1.227   6.367 -0.0269  1.6810 -0.5694
10059SOL    HW231077   4.550   1.287   6.328  1.0622 -2.4309 -3.4906
10060SOL     OW31078   1.367   1.347   6.234  0.3004  0.1114  0.7451
10060SOL    HW131079   1.429   1.302   6.298 -1.0120 -2.4783  0.3322
10060SOL    HW231080   1.398   1.330   6.140  1.3659  2.5972  0.5715
10061SOL     OW31081   3.292   3.227   4.932 -0.3494  0.2226 -0.5523
10061SOL    HW131082   3.267   3.299   4.867 -1.3482  0.3802 -0.0145
10061SOL    HW231083   3.213   3.168   4.948 -0.1317  0.1921  0.5135
10062SOL     OW31084   5.592   2.075   3.229  0.2495  0.8689  1.1745
10062SOL    HW131085   5.551   2.150   3.282  0.8320  0.2431  2.5693
10062SOL    HW231086   5.627   2.110   3.143  1.4954  2.4413  2.2755
10063SOL     OW31087   5.726   6.504   5.852  0.5618  0.1284 -0.9527
10063SOL    HW131088   5.810   6.507   5.797 -0.3744  1.3285 -2.4081
10063SOL    HW231089   5.690   6.597   5.863 -0.0081 -0.2500  0.5727
10064SOL     OW31090   1.436   5.264   5.336  0.3688 -0.5640  0.4591
10064SOL    HW131091   1.494   5.328   5.386 -1.4814  1.1670  0.5117
10064SOL    HW231092   1.433   5.177   5.384  2.8408 -0.7081  0.4672
10065SOL     OW31093   1.231   5.487   3.944  0.3339 -0.4242  0.4634
10065SOL    HW131094   1.235   5.413   4.012 -1.7515 -1.8137 -0.7877
10065SOL    HW231095   1.229   5.447   3.852  1.4193  1.3419 -0.3734
10066SOL     OW31096   6.988   1.391   1.384 -0.5490 -0.4872  0.2509
10066SOL    HW131097   7.069   1.333   1.387  0.2627  0.5383 -0.9191
10066SOL    HW231098   7.003   1.471   1.442 -0.5129 -0.0523 -0.3499
10067SOL     OW31099   2.592   4.677   4.807 -0.6327 -0.2493  0.2465
10067SOL    HW131100   2.583   4.776   4.798  0.8127 -0.0064  1.1667
10067SOL    HW231101   2.657   4.655   4.880  0.5048 -1.8598 -1.1651
10068SOL     OW31102   2.542   5.625   1.481  0.2627  0.6499 -0.0188
10068SOL    HW131103   2.598   5.665   1.408 -0.2600 -0.4940 -1.0913
10068SOL    HW231104   2.447   5.653   1.468  0.1478  0.3345  0.1374
10069SOL     OW31105   2.830   6.058   2.131  0.7458 -0.0192  0.0071
10069SOL    HW131106   2.871   5.982   2.181  0.8659 -0.6360 -0.9975
10069SOL    HW231107   2.786   6.023   2.048 -0.8388  0.7621  0.4720
10070SOL     OW31108   3.515   0.406   0.675  0.6687  0.4884  0.1830
10070SOL    HW131109   3.421   0.439   0.685 -0.1149 -1.4051 -0.5829
10070SOL    HW231110   3.537   0.394   0.579  0.3978 -2.4821  0.4076
10071SOL     OW31111   6.359   2.050   1.331  0.1125  0.5044 -0.3036
10071SOL    HW131112   6.386   2.146   1.340  1.3158  0.2307 -0.7723
10071SOL    HW231113   6.404   2.010   1.251  0.2008 -0.6418  0.2955
10072SOL     OW31114   4.607   6.876   0.968 -0.3598  0.1653 -0.0246
10072SOL    HW131115   4.621   6.832   1.056  0.3324  1.5992  0.6186
10072SOL    HW231116   4.693   6.918   0.937 -0.7885  0.3781 -0.9827
10073SOL     OW31117   6.215   3.343   0.019  0.4274 -1.2203 -0.1154
10073SOL    HW131118   6.286   3.318  -0.047 -0.4626  1.9005 -2.5037
10073SOL    HW231119   6.253   3.404   0.088  0.4748 -1.0409 -0.2987
10074SOL     OW31120   2.760   4.400   1.196 -0.0682  0.5229  0.3518
10074SOL    HW131121   2.781   4.456   1.115  1.8062  2.4207  2.0229
10074SOL    HW231122   2.827   4.326   1.203  1.3987  1.8981  1.4781
10075SOL     OW31123   5.769   6.857   6.860  0.7809 -0.3942 -0.2093
10075SOL    HW131124   5.744   6.936   6.915 -1.8911 -0.4038 -1.2798
10075SOL    HW231125   5.739   6.773   6.906  0.6035 -0.5526 -0.6039
10076SOL     OW31126   6.774   2.801   6.163 -0.0054  0.0132  0.3722
10076SOL    HW131127   6.729   2.794   6.252 -1.4696  0.4497 -0.3104
10076SOL    HW231128   6.723   2.748   6.095  0.6452  0.3308 -0.3831
10077SOL     OW31129   6.990   0.281   4.008 -0.2736  0.0182  0.4195
10077SOL    HW131130   7.037   0.364   4.039  0.3236 -0.3121  0.4031
10077SOL    HW231131   6.969   0.224   4.087  1.2125 -0.8051  0.2516
10078SOL     OW31132   6.094   2.892   5.247 -0.8604  0.2999  0.6454
10078SOL    HW131133   6.154   2.940   5.183 -0.1775  1.0149  1.8004
10078SOL    HW231134   6.049   2.958   5.307 -1.4653 -0.3646  0.9420
10079SOL     OW31135   6.683   0.947   3.313 -0.4313 -0.3733  0.0203
10079SOL    HW131136   6.760   0.942   3.249  0.3806  1.2108  0.8044
10079SOL    HW231137   6.718   0.938   3.407 -1.3542 -0.7053  0.3381
10080SOL     OW31138   4.769   1.404   5.068 -0.4165 -0.3018  0.4530
10080SOL    HW131139   4.678   1.418   5.029 -0.2052  0.1255  0.0969
10080SOL    HW231140   4.761   1.357   5.156 -1.1316  1.5178  1.4201
10081SOL     OW31141   6.131   0.973   2.076 -0.4528  0.0098  0.4119
10081SOL    HW131142   6.072   0.910   2.126 -0.8442 -0.4707 -0.6288
10081SOL    HW231143   6.159   1.047   2.137 -3.5220  1.2216  0.5201
10082SOL     OW31144   1.530   3.284   0.383  0.1739  0.4127  0.0154
10082SOL    HW131145   1.554   3.210   0.320  0.6422  1.2416 -0.7973
10082SOL    HW231146   1.572   3.266   0.472  0.5527 -0.1360 -0.2639
10083SOL     OW31147   1.136   4.231   5.909 -0.0708  0.4618  0.2909
10083SOL    HW131148   1.189   4.174   5.846 -1.0864 -0.9106  0.6394
10083SOL    HW231149   1.184   4.238   5.996 -0.0644 -0.0729  0.3309
10084SOL     OW31150   1.198   6.265   0.058 -0.8667 -0.1760  0.2247
10084SOL    HW131151   1.250   6.350   0.063  1.9967 -1.8489  0.9225
10084SOL    HW231152   1.112   6.275   0.108 -0.3483  2.1262  0.7313
10085SOL     OW31153   5.372   6.812   2.429  0.4097  0.0912  0.1812
10085SOL    HW131154   5.307   6.738   2.413  0.7752 -0.4381  1.0709
10085SOL    HW231155   5.373   6.835   2.526  0.9066  0.6996  0.0370
10086SOL     OW31156   3.213   4.593   6.479 -0.7028 -0.3362 -0.1391
10086SOL    HW131157   3.241   4.663   6.543 -0.3126  1.1600 -1.8750
10086SOL    HW231158   3.172   4.516   6.529 -0.2637  0.6796  1.8634
10087SOL     OW31159   4.690   6.040   0.420  0.3135  0.3623  0.0945
10087SOL    HW131160   4.715   5.950   0.456 -0.8228  0.2547  0.6711
10087SOL    HW231161   4.684   6.035   0.320  0.4026 -0.1682  0.1124
10088SOL     OW31162   0.104   4.172   5.876 -0.3134  0.3990 -0.1999
10088SOL    HW131163   0.193   4.163   5.921  0.4980  1.5220 -1.5167
10088SOL    HW231164   0.117   4.183   5.778 -2.0243 -1.4878 -0.7149
10089SOL     OW31165   4.151   0.513   1.245 -0.2752 -0.2157  0.2671
10089SOL    HW131166   4.168   0.418   1.270 -4.1481 -0.9664  0.7120
10089SOL    HW231167   4.142   0.520   1.145 -0.4228 -0.4073  0.2662
10090SOL     OW31168   4.250   4.566   0.439  0.2335  0.3640  0.5519
10090SOL    HW131169   4.247   4.666   0.451  0.2784  0.2519  1.6539
10090SOL    HW231170   4.345   4.538   0.422  0.0991  0.5834 -0.6429
10091SOL     OW31171   4.571   2.273   3.664  0.3549  0.3550 -0.5017
10091SOL    HW131172   4.611   2.365   3.669  0.4204  0.3466 -0.8766
10091SOL    HW231173   4.634   2.207   3.704  0.8874  0.2883 -1.4225
10092SOL     OW31174   5.889   4.953   5.489 -0.0587 -0.0607 -1.0052
10092SOL    HW131175   5.814   4.922   5.431 -0.0751 -0.2227 -0.8995
10092SOL    HW231176   5.857   4.962   5.583 -0.0235  0.1658 -1.0134
10093SOL     OW31177   5.680   3.108   4.165  0.3477 -0.2027 -0.0778
10093SOL    HW131178   5.655   3.169   4.091  2.6162  0.5882 -0.2618
10093SOL    HW231179   5.604   3.045   4.184 -3.3699  4.3365  2.0507
10094SOL     OW31180   5.132   6.667   2.356  1.1525  0.1391 -0.0143
10094SOL    HW131181   5.052   6.716   2.321  0.0401 -2.4039 -1.3193
10094SOL    HW231182   5.102   6.594   2.417  2.5984 -0.1146  0.4239
10095SOL     OW31183   1.863   1.652   0.857  0.2239  0.7220 -0.0045
10095SOL    HW131184   1.781   1.598   0.838 -0.7510  2.2383 -0.2635
10095SOL    HW231185   1.844   1.749   0.842  2.0164  1.1389  0.1295
10096SOL     OW31186   6.099   6.109   0.480 -0.0456 -0.0398  0.0237
10096SOL    HW131187   6.145   6.197   0.471 -2.5953  1.4603  0.7685
10096SOL    HW231188   6.080   6.091   0.577 -1.5623 -0.2609 -0.2847
10097SOL     OW31189   5.495   5.926   6.650 -0.1281  0.2486  0.2097
10097SOL    HW131190   5.537   5.847   6.604 -0.5782  0.8693 -1.3493
10097SOL    HW231191   5.494   5.910   6.749 -0.8541 -2.0181 -0.0991
10098SOL     OW31192   6.129   2.160   6.465  0.2173  0.1641  0.2873
10098SOL    HW131193   6.063   2.126   6.398 -2.0046 -0.0461  2.4278
10098SOL    HW231194   6.180   2.082   6.503  0.8905  0.1921 -0.5398
10099SOL     OW31195   1.363   2.211   3.870  0.4631 -0.8412 -0.4630
10099SOL    HW131196   1.399   2.175   3.956 -0.1312 -1.9142 -0.6486
10099SOL    HW231197   1.355   2.137   3.804 -0.8426 -0.3732 -0.8518
10100SOL     OW31198   0.126   6.145   1.234 -0.1270  0.1573  0.3878
10100SOL    HW131199   0.200   6.208   1.211 -1.4624  2.5350  2.2190
10100SOL    HW231200   0.121   6.073   1.164  3.3176  0.3425 -0.2453
10101SOL     OW31201   0.955   7.007   3.622 -0.1620  0.4515  0.1252
10101SOL    HW131202   0.902   7.091   3.620 -1.2357 -0.2230 -1.4811
10101SOL    HW231203   0.901   6.934   3.664 -1.5919 -0.8258 -3.5006
10102SOL     OW31204   4.530   5.410   6.065  0.0861  0.4373  0.3067
10102SOL    HW131205   4.556   5.348   5.990 -2.3095  1.6067 -1.6297
10102SOL    HW231206   4.549   5.366   6.152  0.5560 -2.1015 -0.9793
10103SOL     OW31207   2.801   2.616   5.315 -0.3712 -0.1222 -0.0255
10103SOL    HW131208   2.852   2.702   5.312  0.1644 -0.4475 -0.8514
10103SOL    HW231209   2.730   2.617   5.245 -1.8801  0.5342  1.4731
10104SOL     OW31210   0.402   2.106   2.239 -0.2772  0.0453 -0.2280
10104SOL    HW131211   0.501   2.095   2.239 -0.0566  1.4808 -2.2202
10104SOL    HW231212   0.361   2.039   2.177 -0.4107  0.3093 -0.4289
10105SOL     OW31213   5.835   3.392   3.994 -0.6590  0.1065  0.3441
10105SOL    HW131214   5.750   3.403   4.045 -0.0066 -0.2776  1.5665
10105SOL    HW231215   5.840   3.299   3.956 -0.7281  0.0933  0.3679
10106SOL     OW31216   3.122   6.675   2.225 -0.4722  0.1088  0.1880
10106SOL    HW131217   3.167   6.764   2.226 -1.7341  0.8969  3.7444
10106SOL    HW231218   3.179   6.609   2.177  1.2986  2.4137 -1.1150
10107SOL     OW31219   4.724   3.949   6.094 -0.1949  0.0505  0.3089
10107SOL    HW131220   4.705   3.984   6.186 -1.6509  0.9706 -0.3160
10107SOL    HW231221   4.818   3.973   6.069  0.1310  0.0365  1.4302
10108SOL     OW31222   3.739   6.966   2.480  0.6961  0.1854  0.1987
10108SOL    HW131223   3.754   6.882   2.426 -1.5099  0.8670 -1.6198
10108SOL    HW231224   3.826   6.995   2.520  2.2934 -0.9078 -2.2221
10109SOL     OW31225   0.144   5.959   1.053 -0.2635 -0.4429 -0.1757
10109SOL    HW131226   0.215   5.988   0.989 -0.0427 -0.5915 -0.0027
10109SOL    HW231227   0.162   5.864   1.081  0.1295 -0.1027  0.7647
10110SOL     OW31228   6.255   6.617   5.664  0.3414  0.1488 -0.5113
10110SOL    HW131229   6.236   6.683   5.591  1.0383  0.7142 -0.1942
10110SOL    HW231230   6.293   6.665   5.743  4.3851 -0.9248 -1.5334
10111SOL     OW31231   5.774   1.183   2.644  0.2539  0.1676 -0.0444
10111SOL    HW131232   5.734   1.263   2.598  0.9816  0.8474  0.4916
10111SOL    HW231233   5.845   1.212   2.708  0.9990 -0.9591 -0.3192
10112SOL     OW31234   4.168   0.279   3.119  0.3761  0.0294 -0.2119
10112SOL    HW131235   4.252   0.327   3.095 -0.2422  1.3324  0.1228
10112SOL    HW231236   4.177   0.240   3.211  0.7598 -0.1936 -0.3437
10113SOL     OW31237   5.839   6.872   4.316 -0.0345 -0.5736 -0.6405
10113SOL    HW131238   5.763   6.817   4.282  0.7246 -0.5415 -2.5122
10113SOL    HW231239   5.803   6.946   4.373 -1.2385 -1.6314  0.0224
10114SOL     OW31240   1.223   5.077   1.396  0.2948  0.0424 -0.3144
10114SOL    HW131241   1.311   5.033   1.380  0.6736  1.5065 -2.7160
10114SOL    HW231242   1.219   5.110   1.490  1.7757 -1.1708  0.2111
10115SOL     OW31243   0.302   5.441   2.961  0.2212  0.2881 -1.0384
10115SOL    HW131244   0.395   5.450   2.999  0.3227 -0.1339 -1.1831
10115SOL    HW231245   0.256   5.529   2.966  0.2199  0.2293  0.1048
10116SOL     OW31246   2.719   1.419   2.212  0.0883  0.1734  0.2546
10116SOL    HW131247   2.631   1.403   2.256 -0.5857 -1.1600 -1.4499
10116SOL    HW231248   2.718   1.509   2.168 -0.1620  0.4424  0.7993
10117SOL     OW31249   6.984   6.540   0.498 -0.0934  0.8616  0.1158
10117SOL    HW131250   7.052   6.553   0.426  0.4004 -2.0622 -0.0626
10117SOL    HW231251   7.030   6.530   0.587 -0.0786 -1.9186 -0.1071
10118SOL     OW31252   4.097   5.130   3.153 -0.3088 -0.1729 -0.4763
10118SOL    HW131253   4.022   5.166   3.096 -0.9051 -0.9922 -0.2281
10118SOL    HW231254   4.153   5.068   3.098  0.5807  0.9151 -0.8385
10119SOL     OW31255   2.939   5.010   1.710  0.7985 -0.1198  0.0530
10119SOL    HW131256   2.954   5.043   1.803 -0.4319 -0.5798  0.4433
10119SOL    HW231257   2.887   4.925   1.714  0.0602  0.2610 -1.0879
10120SOL     OW31258   2.415   6.193   2.648 -0.1806 -0.1079  0.0868
10120SOL    HW131259   2.369   6.273   2.610 -0.3191 -0.9467 -1.5881
10120SOL    HW231260   2.441   6.130   2.574  1.8558 -0.6246  1.1567
10121SOL     OW31261   4.851   5.484   5.500  0.4203  0.2694  0.2592
10121SOL    HW131262   4.814   5.392   5.491 -0.7061  0.7816 -0.7663
10121SOL    HW231263   4.843   5.514   5.595 -0.8957 -0.0416  0.2745
10122SOL     OW31264   2.137   0.893   3.041  0.7461 -0.2865  0.3953
10122SOL    HW131265   2.048   0.873   3.083 -0.1279 -1.9721 -2.0374
10122SOL    HW231266   2.204   0.911   3.112 -1.2225 -0.3132  2.3692
10123SOL     OW31267   0.832   5.146   2.701 -0.4409 -0.4424  0.3568
10123SOL    HW131268   0.816   5.155   2.603 -0.6412 -0.4853  0.3854
10123SOL    HW231269   0.822   5.050   2.728 -0.3533 -0.4366  0.4134
10124SOL     OW31270   0.754   5.795   4.638 -0.2619 -0.6371  0.1376
10124SOL    HW131271   0.720   5.717   4.691 -3.2103  1.0042  0.9221
10124SOL    HW231272   0.823   5.843   4.691 -0.0153 -1.4702  0.5929
10125SOL     OW31273   3.686   0.613   0.181 -0.7259  0.0770  0.1866
10125SOL    HW131274   3.650   0.695   0.225  0.2316  1.0628 -0.8422
10125SOL    HW231275   3.767   0.582   0.230 -1.1599 -0.3576  0.6517
10126SOL     OW31276   4.184   4.809   3.246 -0.7887  0.0161 -0.1069
10126SOL    HW131277   4.232   4.732   3.287  2.1948  0.9072 -1.6455
10126SOL    HW231278   4.146   4.867   3.319  0.0179 -1.0360  1.1893
10127SOL     OW31279   0.266   2.816   1.255 -0.7304  0.0952 -0.2719
10127SOL    HW131280   0.338   2.807   1.186  1.2343  0.0647  1.6474
10127SOL    HW231281   0.253   2.913   1.275 -2.2824  0.1972 -1.5863
10128SOL     OW31282   3.227   6.317   3.877  0.2427 -0.5263  0.4393
10128SOL    HW131283   3.258   6.299   3.784 -0.8412 -0.0022 -0.0497
10128SOL    HW231284   3.173   6.239   3.910 -1.4870  0.2808 -0.3488
10129SOL     OW31285   2.580   0.439   1.872  0.2426  0.0668 -1.1025
10129SOL    HW131286   2.655   0.475   1.816  0.4371 -0.4961 -1.2080
10129SOL    HW231287   2.493   0.471   1.836  0.4014  0.2555 -1.3225
10130SOL     OW31288   0.479   5.127   2.358 -0.3252 -0.1580 -0.2327
10130SOL    HW131289   0.499   5.164   2.449 -0.2959  0.5275 -0.5143
10130SOL    HW231290   0.415   5.051   2.367  1.4029 -1.6115  0.5767
10131SOL     OW31291   0.387   5.407   5.947 -0.1773  0.5470  0.7122
10131SOL    HW131292   0.404   5.502   5.920 -2.1430  0.8330  0.2906
10131SOL    HW231293   0.410   5.346   5.872  0.9127  0.6940  0.9152
10132SOL     OW31294   4.041   0.418   5.711  0.5800 -0.3300 -0.2106
10132SOL    HW131295   3.980   0.388   5.637 -0.3298 -0.1113  0.4403
10132SOL    HW231296   4.109   0.481   5.674  0.4339 -0.5911 -0.9504
10133SOL     OW31297   1.459   6.925   1.128 -0.1172 -0.5744  0.0030
10133SOL    HW131298   1.517   6.888   1.056  0.8200  2.1895 -0.7865
10133SOL    HW231299   1.512   6.986   1.186 -1.6156 -0.1588  1.0082
10134SOL     OW31300   4.443   3.920   6.060  0.2510 -0.1349 -0.3810
10134SOL    HW131301   4.525   3.975   6.045  0.4137  0.1767  1.4282
10134SOL    HW231302   4.466   3.823   6.054  0.1441 -0.0614 -2.6932
10135SOL     OW31303   1.546   0.370   0.532  0.0486  0.3499  0.4824
10135SOL    HW131304   1.481   0.300   0.501  0.1018  0.6954 -0.4372
10135SOL    HW231305   1.631   0.362   0.481 -0.4958  2.0593 -0.7759
10136SOL     OW31306   6.311   6.042   3.272  0.2787 -0.3824 -0.2628
10136SOL    HW131307   6.217   6.016   3.295  0.7436 -1.3351  0.6292
10136SOL    HW231308   6.333   6.129   3.317 -0.7031  0.7196 -1.8292
10137SOL     OW31309   1.474   3.534   3.292  0.2926  0.2507  0.1368
10137SOL    HW131310   1.426   3.479   3.360  0.1021 -0.2684 -0.4140
10137SOL    HW231311   1.414   3.607   3.259 -0.6826 -1.2421 -1.5960
10138SOL     OW31312   2.971   2.495   0.222  1.0374 -0.3477 -0.3266
10138SOL    HW131313   2.932   2.463   0.136 -0.3857 -1.3409  0.6374
10138SOL    HW231314   2.935   2.586   0.244  0.7966 -0.4264 -0.3991
10139SOL     OW31315   4.074   4.709   5.452  0.3005 -0.5385 -0.6734
10139SOL    HW131316   4.160   4.685   5.409  1.3791  1.8290 -0.0191
10139SOL    HW231317   4.087   4.721   5.550  0.8209  5.1606 -1.0615
10140SOL     OW31318   1.818   6.101   3.128 -0.3626 -0.0064 -0.3805
10140SOL    HW131319   1.857   6.126   3.039  0.7564  0.4799  0.2253
10140SOL    HW231320   1.811   6.183   3.185 -0.6777 -0.3841  0.1347
10141SOL     OW31321   5.906   0.652   1.632 -0.0420 -0.0602  0.1166
10141SOL    HW131322   5.982   0.716   1.623 -0.7660  0.6959 -0.8917
10141SOL    HW231323   5.820   0.703   1.641 -0.5991 -0.8777 -0.3969
10142SOL     OW31324   5.751   1.775   5.138 -0.2373  0.2991 -0.2647
10142SOL    HW131325   5.663   1.729   5.132  1.3614 -2.9646 -1.0037
10142SOL    HW231326   5.815   1.734   5.073  2.0284  2.1286  0.6490
10143SOL     OW31327   4.834   3.800   2.362  0.2817  0.4443 -0.1598
10143SOL    HW131328   4.801   3.723   2.308 -0.0588 -0.0116  0.6800
10143SOL    HW231329   4.782   3.882   2.339 -0.4942  0.0468  0.1489
10144SOL     OW31330   0.881   1.053   1.150  0.4509 -0.2522 -0.8399
10144SOL    HW131331   0.871   1.141   1.195  0.2979 -0.9559  0.5624
10144SOL    HW231332   0.979   1.032   1.138  0.4900 -0.0312 -0.9021
10145SOL     OW31333   1.424   4.371   5.966 -0.0368 -0.2389 -0.3917
10145SOL    HW131334   1.368   4.317   6.029  0.8282  1.5544  2.1120
10145SOL    HW231335   1.373   4.452   5.937  0.1109 -0.2783 -0.7698
10146SOL     OW31336   4.839   1.243   4.554  0.1833  0.0212  0.5951
10146SOL    HW131337   4.762   1.279   4.500  0.2060 -0.3399  0.3155
10146SOL    HW231338   4.841   1.288   4.643  0.5164  1.0650  0.0706
10147SOL     OW31339   1.249   2.684   3.860 -0.6642  0.1386  0.0502
10147SOL    HW131340   1.180   2.640   3.917  1.5645 -3.1879  0.4453
10147SOL    HW231341   1.262   2.631   3.776  1.8251  0.2108  0.2977
10148SOL     OW31342   0.251   5.161   2.186 -0.1667 -0.0652  0.4990
10148SOL    HW131343   0.197   5.180   2.268  1.0083 -1.3168  1.6084
10148SOL    HW231344   0.348   5.155   2.210  0.2119 -0.5068 -0.9817
10149SOL     OW31345   4.317   0.522   0.470  0.4096 -0.3303 -0.1767
10149SOL    HW131346   4.329   0.511   0.372 -0.2868  0.6329 -0.3852
10149SOL    HW231347   4.388   0.582   0.507  0.2129 -0.0567 -0.2373
10150SOL     OW31348   4.864   6.330   5.932 -0.4255  0.1025  0.3343
10150SOL    HW131349   4.835   6.385   6.010  0.1775 -0.3212  0.8682
10150SOL    HW231350   4.945   6.276   5.957  0.1545  0.4232 -0.7707
10151SOL     OW31351   7.007   6.046   2.386 -0.0122 -0.3504 -0.3411
10151SOL    HW131352   7.078   6.034   2.317 -0.5673 -2.2658 -0.6321
10151SOL    HW231353   7.049   6.040   2.477  0.0450 -3.5476 -0.4561
10152SOL     OW31354   6.402   1.686   3.283 -0.3537 -0.0953  0.7741
10152SOL    HW131355   6.424   1.598   3.325  0.2132  0.2826  1.2776
10152SOL    HW231356   6.486   1.731   3.252 -0.7400 -0.3042 -0.6638
10153SOL     OW31357   0.028   5.391   1.257 -0.2877 -0.2858  0.1319
10153SOL    HW131358   0.096   5.456   1.224 -0.2776 -0.4452 -0.1738
10153SOL    HW231359   0.027   5.390   1.357 -1.1797  1.1114  0.1591
10154SOL     OW31360   4.490   6.096   5.519 -0.3375  0.5524 -0.0324
10154SOL    HW131361   4.420   6.146   5.467 -0.0833  0.7156 -0.2183
10154SOL    HW231362   4.579   6.138   5.503 -0.0183 -0.3572 -0.7195
10155SOL     OW31363   6.848   5.848   2.232  0.2231  0.2782 -0.3512
10155SOL    HW131364   6.751   5.828   2.225  0.1204  1.0763 -1.5396
10155SOL    HW231365   6.866   5.893   2.320 -0.2181 -1.1264  0.4889
10156SOL     OW31366   0.210   0.619   0.451 -0.3551 -0.5492 -0.3747
10156SOL    HW131367   0.180   0.525   0.435  0.0509 -0.5837 -0.9885
10156SOL    HW231368   0.233   0.662   0.363 -1.3564  0.4099 -0.1833
10157SOL     OW31369   2.712   6.729   2.264  0.2842  0.1829 -0.1145
10157SOL    HW131370   2.672   6.719   2.173  0.1672 -0.2612 -0.0176
10157SOL    HW231371   2.744   6.640   2.297  2.5472  0.7149 -0.7112
10158SOL     OW31372   2.828   6.571   5.660  0.3021  0.2678 -0.0143
10158SOL    HW131373   2.908   6.521   5.626  0.3454  0.9509 -0.9751
10158SOL    HW231374   2.759   6.576   5.589 -0.8400 -0.7621  0.9829
10159SOL     OW31375   5.687   1.633   2.577  0.0663  0.1452 -0.2739
10159SOL    HW131376   5.621   1.589   2.516  1.3840 -0.9878 -0.9252
10159SOL    HW231377   5.701   1.727   2.548 -0.6108  0.1356 -0.6572
10160SOL     OW31378   0.373   6.231   6.983 -0.0082 -0.1538 -0.1923
10160SOL    HW131379   0.380   6.236   7.083  0.6514  0.5747 -0.2596
10160SOL    HW231380   0.278   6.243   6.956 -0.1695 -0.1684  0.3481
10161SOL     OW31381   3.257   6.654   5.018  0.2729 -0.3458 -0.0847
10161SOL    HW131382   3.233   6.578   5.078  1.3873 -1.8712 -1.4957
10161SOL    HW231383   3.284   6.733   5.074 -1.8937 -0.5572  1.4300
10162SOL     OW31384   0.097   0.617   1.700  0.3993  0.6108 -0.3413
10162SOL    HW131385   0.177   0.560   1.682  1.5531  1.8486  0.6205
10162SOL    HW231386   0.058   0.650   1.614  0.8562 -0.0829 -0.8178
10163SOL     OW31387   5.798   1.782   0.471  0.6163  0.0906  0.3749
10163SOL    HW131388   5.788   1.714   0.544  1.2117  1.1263  1.4542
10163SOL    HW231389   5.879   1.837   0.488  1.1281 -0.0645 -1.4514
10164SOL     OW31390   3.022   3.550   2.331 -0.0046  0.0394 -0.2052
10164SOL    HW131391   2.946   3.490   2.308  1.9059 -1.7433 -2.3697
10164SOL    HW231392   2.999   3.604   2.412 -3.8933  0.3699 -1.3680
10165SOL     OW31393   6.029   5.687   5.638  0.0146 -0.7124  0.8411
10165SOL    HW131394   6.070   5.775   5.661 -0.1164 -0.0048 -1.4679
10165SOL    HW231395   6.089   5.637   5.576 -1.1428 -1.0264 -0.0679
10166SOL     OW31396   2.265   2.898   2.470 -0.4166  0.3203  0.4040
10166SOL    HW131397   2.350   2.877   2.518 -0.8595 -0.7515  0.7601
10166SOL    HW231398   2.208   2.957   2.527  0.4269  1.7862 -0.1978
10167SOL     OW31399   5.727   1.791   0.998  0.1791 -0.3094  0.1006
10167SOL    HW131400   5.814   1.838   1.014  0.1451 -0.7679  1.8199
10167SOL    HW231401   5.654   1.842   1.044 -0.1493 -0.9877  0.3349
10168SOL     OW31402   0.554   0.816   2.669 -0.1876 -0.2272  0.5536
10168SOL    HW131403   0.543   0.870   2.586  1.5969 -1.6478 -0.7117
10168SOL    HW231404   0.619   0.861   2.730 -1.9149  1.0938  1.5015
10169SOL     OW31405   2.053   4.421   3.306  0.7375  0.0190 -0.1056
10169SOL    HW131406   2.028   4.348   3.242 -0.0044  0.2913 -0.1257
10169SOL    HW231407   1.998   4.414   3.389 -0.0367  1.1292 -0.5007
10170SOL     OW31408   4.763   0.250   4.752  0.4977  0.2512  0.3340
10170SOL    HW131409   4.830   0.317   4.719  1.3727  0.0708  1.6632
10170SOL    HW231410   4.812   0.168   4.784 -0.5283 -0.8932 -0.9201
10171SOL     OW31411   6.257   5.955   3.732 -0.6159  0.3064 -0.2104
10171SOL    HW131412   6.161   5.982   3.727 -0.2651  1.7854  0.4477
10171SOL    HW231413   6.263   5.857   3.747 -1.9959 -0.0294 -1.6007
10172SOL     OW31414   3.479   2.567   0.935  0.3545  0.2220  0.6487
10172SOL    HW131415   3.456   2.492   0.998  3.3417 -0.2089  1.4059
10172SOL    HW231416   3.578   2.570   0.923  0.1342  2.6321 -1.2310
10173SOL     OW31417   4.135   3.667   2.028  0.4154  0.4301 -0.0339
10173SOL    HW131418   4.084   3.610   2.093  1.9335 -1.5486 -0.4843
10173SOL    HW231419   4.227   3.683   2.063  0.8817  0.2943 -1.1761
10174SOL     OW31420   6.261   5.686   3.718  0.2980  0.5112  0.3406
10174SOL    HW131421   6.184   5.645   3.766 -0.3888  1.3519 -0.0175
10174SOL    HW231422   6.330   5.616   3.698 -0.8399 -0.4518 -0.2667
10175SOL     OW31423   4.142   3.628   1.750  0.4053  0.6809 -0.4525
10175SOL    HW131424   4.120   3.654   1.844 -3.3048 -0.0013 -0.9886
10175SOL    HW231425   4.197   3.544   1.750  2.7462  2.1002  1.0412
10176SOL     OW31426   0.203   0.358   5.568 -0.1140 -0.0980  0.0015
10176SOL    HW131427   0.109   0.323   5.567  0.1135 -0.8260  1.6810
10176SOL    HW231428   0.230   0.381   5.474 -1.6494 -0.6965 -0.6320
10177SOL     OW31429   0.632   6.785   5.108 -0.2730  0.7247  0.4870
10177SOL    HW131430   0.578   6.869   5.116  0.7771  1.3518  1.3739
10177SOL    HW231431   0.597   6.717   5.172 -0.4564  0.8736  0.5462
10178SOL     OW31432   1.170   3.989   6.611  0.1198 -0.0584  0.1692
10178SOL    HW131433   1.090   4.024   6.660  0.1291 -0.4760  0.4793
10178SOL    HW231434   1.241   4.060   6.608 -0.2534  0.3110 -0.0991
10179SOL     OW31435   4.474   1.970   1.916 -0.1466  0.1197  0.3058
10179SOL    HW131436   4.411   1.926   1.853 -1.3580  3.0581 -0.7506
10179SOL    HW231437   4.526   2.040   1.867 -0.5457  1.9729  2.3507
10180SOL     OW31438   2.932   3.186   5.545  0.7014  0.4889  0.2473
10180SOL    HW131439   3.005   3.160   5.608 -0.9806  0.5657  2.3361
10180SOL    HW231440   2.947   3.280   5.514  2.1217  0.0896 -0.3629
10181SOL     OW31441   6.847   0.095   4.944  0.1259  0.5176 -0.8256
10181SOL    HW131442   6.825   0.172   4.884  2.0416  1.5487 -0.3020
10181SOL    HW231443   6.933   0.114   4.992  0.4739 -1.8110 -0.4041
10182SOL     OW31444   6.997   1.866   1.923  0.7667  0.2334  0.2571
10182SOL    HW131445   6.984   1.786   1.865 -0.8463  0.5383  0.1544
10182SOL    HW231446   7.018   1.837   2.017  0.2642 -0.3127  0.2049
10183SOL     OW31447   0.274   5.148   0.342 -0.6976  1.0942  0.9668
10183SOL    HW131448   0.241   5.223   0.284  2.4190  1.0143 -1.1890
10183SOL    HW231449   0.247   5.060   0.302 -0.7567  1.0399  1.1237
10184SOL     OW31450   6.621   0.138   3.950  0.6605 -0.1339 -0.0803
10184SOL    HW131451   6.554   0.080   3.904 -1.7287  1.2815  1.4252
10184SOL    HW231452   6.647   0.214   3.891  1.7614 -1.2268 -1.0452
10185SOL     OW31453   5.957   6.342   4.726  0.3040  0.0982 -0.1704
10185SOL    HW131454   5.934   6.310   4.634 -3.1113 -1.1065  0.9425
10185SOL    HW231455   5.990   6.265   4.781 -1.3680 -0.1267  0.6023
10186SOL     OW31456   3.589   1.439   3.064  0.8003 -0.4836 -0.2601
10186SOL    HW131457   3.575   1.535   3.040 -0.0843 -0.0931  1.6020
10186SOL    HW231458   3.659   1.432   3.134  1.7381 -1.3512 -1.2510
10187SOL     OW31459   6.772   4.027   0.275  0.0928  0.0728  0.2464
10187SOL    HW131460   6.816   3.938   0.275 -0.7296 -0.3507  1.0909
10187SOL    HW231461   6.799   4.078   0.192  1.5603 -0.4389  0.3779
10188SOL     OW31462   6.695   3.342   0.149 -0.5050  0.6344  0.4566
10188SOL    HW131463   6.615   3.290   0.118  1.0454 -0.6429 -1.6974
10188SOL    HW231464   6.754   3.283   0.204  0.1143  0.8309  0.0139
10189SOL     OW31465   3.132   1.291   2.888  0.1744  0.2089 -0.1400
10189SOL    HW131466   3.111   1.316   2.793 -2.1947  2.5527  0.8783
10189SOL    HW231467   3.061   1.230   2.924  0.9323 -0.4806  0.2290
10190SOL     OW31468   2.873   6.951   3.740 -0.1806 -0.0196 -0.1116
10190SOL    HW131469   2.886   6.989   3.832 -2.6542 -0.9202  0.7245
10190SOL    HW231470   2.814   6.870   3.747  1.2510 -1.3265 -2.3082
10191SOL     OW31471   0.341   6.276   1.101  0.7422  0.5745 -0.1690
10191SOL    HW131472   0.437   6.262   1.127  1.0396 -0.2101 -1.5929
10191SOL    HW231473   0.337   6.342   1.026  0.2559 -0.0600 -0.7105
10192SOL     OW31474   0.916   4.352   5.835 -0.0150 -0.4559  0.2485
10192SOL    HW131475   0.991   4.292   5.862  0.0022 -1.2975 -1.5267
10192SOL    HW231476   0.911   4.357   5.735 -2.6340 -0.8228  0.2876
10193SOL     OW31477   3.602   5.347   5.323  0.2616  0.1865 -0.5508
10193SOL    HW131478   3.636   5.419   5.382 -1.8401 -0.4880  1.6235
10193SOL    HW231479   3.650   5.261   5.344 -0.1134  0.0643 -0.1804
10194SOL     OW31480   4.983   5.079   3.862  0.6782  0.1343  0.1382
10194SOL    HW131481   4.957   5.173   3.840  1.1387  0.4379  0.8685
10194SOL    HW231482   5.058   5.079   3.928  1.9473 -0.7168 -1.2230
10195SOL     OW31483   4.071   0.168   4.384 -0.3913 -0.3618 -0.0600
10195SOL    HW131484   4.140   0.202   4.320 -0.3895  1.1054  0.6722
10195SOL    HW231485   3.991   0.138   4.333  0.4509 -1.3304 -0.8728
10196SOL     OW31486   0.629   6.586   4.748  0.4185 -0.5976 -0.2277
10196SOL    HW131487   0.665   6.666   4.795  1.6243 -0.2328 -1.6685
10196SOL    HW231488   0.632   6.507   4.809  1.1642  0.0273  0.5704
10197SOL     OW31489   1.680   3.702   1.070 -0.6729 -0.3990  0.2859
10197SOL    HW131490   1.699   3.800   1.078 -0.4096 -0.5600  2.0589
10197SOL    HW231491   1.594   3.681   1.115 -0.3804 -1.0888  0.5339
10198SOL     OW31492   1.722   4.395   5.580  0.0419  0.0914 -0.1895
10198SOL    HW131493   1.654   4.339   5.627  0.0918 -0.7930 -1.1519
10198SOL    HW231494   1.800   4.411   5.641 -0.2363 -0.3612  0.2946
10199SOL     OW31495   1.066   4.114   5.487  0.5468  0.3645 -0.4695
10199SOL    HW131496   1.118   4.191   5.522 -1.1473  0.6899  1.5158
10199SOL    HW231497   1.062   4.120   5.387  2.5875  1.3767 -0.5525
10200SOL     OW31498   1.996   0.357   4.916 -0.0788  0.3209  0.4136
10200SOL    HW131499   2.078   0.326   4.868 -0.3687 -0.2666  0.2901
10200SOL    HW231500   1.940   0.413   4.854  0.2553  0.7709  0.5169
10201SOL     OW31501   1.206   1.911   1.231  0.3339  0.3913  0.3092
10201SOL    HW131502   1.193   1.963   1.316  0.1076  0.1275  0.4352
10201SOL    HW231503   1.260   1.829   1.250  0.6581  0.5583  0.1160
10202SOL     OW31504   3.881   1.673   2.092  0.0925  0.1488 -0.0026
10202SOL    HW131505   3.813   1.659   2.164 -1.1103 -0.0898 -1.1438
10202SOL    HW231506   3.856   1.753   2.038  0.4804 -0.1844 -0.6922
10203SOL     OW31507   3.358   3.522   6.941 -0.3396 -0.2857 -0.5496
10203SOL    HW131508   3.293   3.524   7.016  0.3430 -1.1862  0.0935
10203SOL    HW231509   3.331   3.588   6.871 -1.0933  0.4243  0.3888
10204SOL     OW31510   5.700   3.542   0.230  0.0856 -0.1165  0.6614
10204SOL    HW131511   5.724   3.497   0.317  0.8518 -0.3563  0.3335
10204SOL    HW231512   5.738   3.634   0.229 -1.9533  0.7918  1.5645
10205SOL     OW31513   0.007   4.196   1.008 -0.0385  0.6155 -0.2146
10205SOL    HW131514   0.083   4.190   0.944 -0.8718  1.0192 -1.2795
10205SOL    HW231515  -0.075   4.228   0.960 -1.0413 -0.3614  0.7698
10206SOL     OW31516   1.322   3.492   5.976 -0.0892 -0.4718  0.0062
10206SOL    HW131517   1.295   3.443   5.894 -1.9566  0.1893  0.1908
10206SOL    HW231518   1.263   3.466   6.052 -0.3980  1.2112  0.3775
10207SOL     OW31519   6.857   3.428   5.380 -0.4220  0.1185  0.2014
10207SOL    HW131520   6.951   3.455   5.399  0.3319 -0.7398 -1.9850
10207SOL    HW231521   6.812   3.501   5.328 -0.3292 -0.2429 -0.4012
10208SOL     OW31522   0.690   1.179   4.152  0.7361  0.6434  0.1184
10208SOL    HW131523   0.648   1.250   4.208 -1.0462 -0.1799 -0.1030
10208SOL    HW231524   0.741   1.221   4.077 -2.9314  1.8561 -1.9908
10209SOL     OW31525   6.729   3.251   2.702 -0.3161 -0.1097 -0.8798
10209SOL    HW131526   6.666   3.180   2.672 -0.3296 -0.5201  0.0882
10209SOL    HW231527   6.790   3.276   2.627 -0.8610 -0.5470 -1.4707
10210SOL     OW31528   4.257   5.608   2.098 -0.1894 -0.5229  0.0704
10210SOL    HW131529   4.293   5.645   2.184 -0.1888 -2.0512  0.7583
10210SOL    HW231530   4.275   5.673   2.024  2.0591 -0.2688  0.7610
10211SOL     OW31531   5.476   1.913   5.907  0.5247  0.5030 -0.1753
10211SOL    HW131532   5.378   1.935   5.911  0.5957  0.6540  1.5598
10211SOL    HW231533   5.529   1.996   5.925  1.0132  0.5396 -1.6564
10212SOL     OW31534   2.883   4.724   3.791 -0.1652  0.5467 -0.4116
10212SOL    HW131535   2.908   4.637   3.834  2.0418  1.0809 -0.5009
10212SOL    HW231536   2.956   4.753   3.730 -1.0715  2.2561 -0.7376
10213SOL     OW31537   3.362   5.384   2.200  0.1661 -0.4845 -0.1057
10213SOL    HW131538   3.338   5.351   2.291  1.4551  1.2050  0.9045
10213SOL    HW231539   3.312   5.468   2.180  0.0773 -0.7119 -0.8574
10214SOL     OW31540   4.027   0.960   5.554 -0.1307 -0.1225  0.3798
10214SOL    HW131541   4.087   0.920   5.485 -2.0305  0.2297 -1.5974
10214SOL    HW231542   4.074   1.036   5.600  0.8981  0.2094 -1.1496
10215SOL     OW31543   6.817   2.464   3.546 -0.1076  0.2266 -0.3487
10215SOL    HW131544   6.740   2.496   3.603  0.1038  0.1721 -0.0275
10215SOL    HW231545   6.793   2.377   3.504 -0.3657  0.3935 -0.5522
10216SOL     OW31546   3.468   5.706   4.993 -0.0680 -0.1309  0.3918
10216SOL    HW131547   3.505   5.727   5.083 -0.0648  0.4921  0.2466
10216SOL    HW231548   3.368   5.710   4.997 -0.1411 -1.5335  0.7131
10217SOL     OW31549   0.940   5.741   5.262 -0.1765  0.5743 -0.4391
10217SOL    HW131550   0.888   5.726   5.346  1.0327 -1.7886 -0.0123
10217SOL    HW231551   0.904   5.820   5.214 -2.3909  0.6157  1.1470
10218SOL     OW31552   0.251   2.279   6.505  0.1630 -0.1707  0.2230
10218SOL    HW131553   0.218   2.320   6.420 -0.8067 -1.4179 -0.0355
10218SOL    HW231554   0.284   2.186   6.487 -0.2173 -0.5199  1.2426
10219SOL     OW31555   4.958   6.012   0.694 -0.5364 -0.0874 -0.8468
10219SOL    HW131556   4.946   5.950   0.771  0.0681  0.8460  0.0230
10219SOL    HW231557   4.896   6.090   0.703  1.1924  1.2709  0.0427
10220SOL     OW31558   6.249   4.861   1.994 -0.4604 -0.3810  0.5015
10220SOL    HW131559   6.162   4.814   1.974 -0.1917 -0.8669  0.4608
10220SOL    HW231560   6.287   4.896   1.908 -0.6096 -0.1774  0.5177
10221SOL     OW31561   0.034   5.628   2.419 -0.9909 -0.4948 -0.2412
10221SOL    HW131562   0.122   5.593   2.450 -0.3955  0.3416 -0.9348
10221SOL    HW231563   0.038   5.647   2.321 -1.6107  0.5375 -0.0793
10222SOL     OW31564   3.935   5.250   4.531 -0.4565 -0.2406 -0.0350
10222SOL    HW131565   3.998   5.191   4.581  0.0142  0.5309  0.3106
10222SOL    HW231566   3.925   5.336   4.581  0.0096  0.5363 -1.2446
10223SOL     OW31567   3.027   3.430   6.747 -0.4388  0.1404  0.2140
10223SOL    HW131568   3.049   3.348   6.695 -0.4026  0.5652 -0.4472
10223SOL    HW231569   3.033   3.510   6.688 -1.6699  0.4917  0.5356
10224SOL     OW31570   6.573   1.547   0.389 -0.0959 -0.1250 -0.1195
10224SOL    HW131571   6.597   1.449   0.392  2.1037  0.3564 -0.1524
10224SOL    HW231572   6.519   1.565   0.307  2.0313 -0.8694 -1.8069
10225SOL     OW31573   1.463   1.501   5.800 -0.2278 -0.3925  0.2358
10225SOL    HW131574   1.495   1.585   5.756  1.6979 -1.2554 -0.0964
10225SOL    HW231575   1.396   1.456   5.742 -0.2975  0.2338 -0.1816
10226SOL     OW31576   4.507   2.819   1.757  0.2318  0.1809  0.3597
10226SOL    HW131577   4.503   2.849   1.661 -2.0510 -1.6157 -0.2171
10226SOL    HW231578   4.569   2.879   1.808  0.3030  2.1973 -1.8699
10227SOL     OW31579   4.662   2.644   3.979 -0.1612 -0.4230 -0.0164
10227SOL    HW131580   4.588   2.641   3.912  0.3536  0.2291 -0.6268
10227SOL    HW231581   4.684   2.551   4.008  0.2208 -0.7883 -1.4284
10228SOL     OW31582   3.412   3.457   1.443  0.4113 -0.3794 -0.4968
10228SOL    HW131583   3.326   3.500   1.415  0.5850  1.7137  1.7841
10228SOL    HW231584   3.401   3.358   1.446 -1.7204 -0.1941 -0.8705
10229SOL     OW31585   0.285   6.722   2.089  0.1454 -1.2879 -0.5033
10229SOL    HW131586   0.313   6.666   2.167  1.1443 -0.4846 -0.2729
10229SOL    HW231587   0.191   6.698   2.064 -0.0958 -1.7555  0.7654
10230SOL     OW31588   6.412   4.339   4.513 -0.2768  0.0235  0.1312
10230SOL    HW131589   6.325   4.355   4.560 -0.0469 -1.7749  1.2662
10230SOL    HW231590   6.477   4.297   4.576  1.6871  1.8996 -0.5024
10231SOL     OW31591   0.968   6.241   0.206 -0.3200  0.1542 -0.3771
10231SOL    HW131592   0.953   6.159   0.260 -0.4013 -0.7942 -1.7812
10231SOL    HW231593   0.905   6.313   0.236 -3.3356 -1.6677 -1.8820
10232SOL     OW31594   6.812   5.811   2.574 -0.6661  0.3296  0.0602
10232SOL    HW131595   6.909   5.835   2.585 -0.3536 -0.9405  0.2001
10232SOL    HW231596   6.804   5.716   2.546 -1.8773  0.5230 -0.3128
10233SOL     OW31597   4.963   6.736   6.167  0.6539 -0.4148 -0.0164
10233SOL    HW131598   5.054   6.725   6.208  0.3210 -0.7436  0.6524
10233SOL    HW231599   4.968   6.803   6.093  1.8307 -1.7797 -1.2245
10234SOL     OW31600   6.342   6.704   5.239 -0.1829  0.0114  0.5059
10234SOL    HW131601   6.430   6.744   5.264 -0.1858  0.5211 -0.2479
10234SOL    HW231602   6.285   6.774   5.195 -1.6585  0.1676  2.5517
10235SOL     OW31603   5.645   6.498   3.806  0.2191  0.1078 -0.4727
10235SOL    HW131604   5.549   6.498   3.778 -0.3127  1.2420  1.2300
10235SOL    HW231605   5.670   6.407   3.840 -0.9154  0.3562  1.1203
10236SOL     OW31606   5.880   4.084   6.598 -0.2975 -0.3063  0.4447
10236SOL    HW131607   5.799   4.101   6.655 -1.3248 -1.1182 -0.7151
10236SOL    HW231608   5.851   4.047   6.510  1.4724 -3.3459  1.0213
10237SOL     OW31609   4.741   3.550   6.299  0.4092  0.0119 -0.2909
10237SOL    HW131610   4.675   3.491   6.347 -0.8878  0.9046 -0.9154
10237SOL    HW231611   4.802   3.593   6.365 -0.2075 -0.1410  0.3935
10238SOL     OW31612   6.398   5.149   3.106 -0.2050  0.3810 -0.2376
10238SOL    HW131613   6.314   5.094   3.111 -0.1733  0.0928 -2.1430
10238SOL    HW231614   6.470   5.105   3.159 -0.8778 -0.1092  0.2755
10239SOL     OW31615   0.357   0.461   0.807  0.3472  0.7198  0.5354
10239SOL    HW131616   0.354   0.374   0.857  2.0559 -0.2626 -0.9519
10239SOL    HW231617   0.449   0.499   0.812  0.0150  1.6527 -0.1489
10240SOL     OW31618   6.815   5.318   6.395  0.5673  0.2663  0.4350
10240SOL    HW131619   6.880   5.388   6.365 -2.3310  2.2998 -1.7073
10240SOL    HW231620   6.834   5.232   6.349  1.2365  1.0574 -0.8205
10241SOL     OW31621   6.252   6.547   2.875  0.1998 -0.1631  0.0935
10241SOL    HW131622   6.177   6.613   2.869  0.3011 -0.1788 -1.7522
10241SOL    HW231623   6.326   6.585   2.929  0.0445  1.0375 -0.5192
10242SOL     OW31624   0.238   4.622   6.616 -0.6543 -0.8294 -0.4164
10242SOL    HW131625   0.188   4.671   6.687  1.4568 -0.1531  0.6977
10242SOL    HW231626   0.219   4.662   6.527  1.3594  2.4691  0.4901
10243SOL     OW31627   3.940   2.179   3.098  0.2485 -0.0370 -0.2149
10243SOL    HW131628   3.967   2.126   3.018  2.5404  0.1940  0.3529
10243SOL    HW231629   3.906   2.269   3.068 -1.6038 -0.9573 -1.0376
10244SOL     OW31630   1.433   6.911   5.245 -0.0021 -0.2261  0.2687
10244SOL    HW131631   1.492   6.908   5.164 -1.0989 -0.4257 -0.5393
10244SOL    HW231632   1.351   6.856   5.229 -1.0812  1.1562  0.8321
10245SOL     OW31633   3.322   2.598   5.682 -0.2419 -0.4932 -0.9109
10245SOL    HW131634   3.415   2.565   5.664 -0.1823 -0.2883 -0.9840
10245SOL    HW231635   3.265   2.522   5.713 -0.1489 -0.6944 -1.2332
10246SOL     OW31636   0.173   6.241   4.235  0.1246  0.1779  0.4078
10246SOL    HW131637   0.256   6.186   4.223  0.6807  0.3310  2.8881
10246SOL    HW231638   0.094   6.180   4.247  0.1991 -0.0098 -0.0576
10247SOL     OW31639   6.043   1.864   4.806 -0.0161 -0.1345 -0.2356
10247SOL    HW131640   5.998   1.920   4.736  0.6765  0.1475 -0.4700
10247SOL    HW231641   6.109   1.803   4.761  0.5179  0.1328  0.1865
10248SOL     OW31642   3.632   6.968   4.211  0.2632 -0.1582 -0.0284
10248SOL    HW131643   3.633   6.875   4.246 -0.4657 -0.0566  0.2819
10248SOL    HW231644   3.576   6.971   4.128  1.2303 -0.2154 -0.7088
10249SOL     OW31645   3.350   0.227   4.084  0.0801 -0.0195 -0.6904
10249SOL    HW131646   3.391   0.149   4.036 -0.8697 -1.5477  0.8922
10249SOL    HW231647   3.319   0.294   4.017  0.2076 -1.3473 -2.1377
10250SOL     OW31648   6.495   1.095   4.880  0.1232 -0.3838 -0.3532
10250SOL    HW131649   6.470   1.063   4.972 -0.2125  0.2181 -0.2257
10250SOL    HW231650   6.548   1.025   4.833 -0.2822 -0.9677  0.0534
10251SOL     OW31651   1.863   0.486   4.714 -0.1731 -1.0263 -0.0911
10251SOL    HW131652   1.778   0.534   4.694  1.3757  1.1922 -1.8539
10251SOL    HW231653   1.884   0.423   4.639 -0.0599 -1.3058  0.1716
10252SOL     OW31654   0.740   3.110   1.806 -0.0999 -0.4979 -0.2887
10252SOL    HW131655   0.663   3.056   1.840  0.7445 -1.4327  0.1740
10252SOL    HW231656   0.765   3.078   1.714 -1.2290  0.8364 -1.1021
10253SOL     OW31657   0.584   3.715   4.327 -0.3076  0.1100  0.4638
10253SOL    HW131658   0.645   3.732   4.249  0.6090  0.7828  1.2995
10253SOL    HW231659   0.580   3.796   4.384 -0.5931 -0.5328  1.3802
10254SOL     OW31660   4.575   1.207   4.762 -0.2247  0.3975  0.5991
10254SOL    HW131661   4.541   1.240   4.850  1.0330  1.0098  0.8943
10254SOL    HW231662   4.673   1.227   4.756 -0.2177  0.0100 -0.7855
10255SOL     OW31663   5.594   3.518   5.102 -0.5826 -0.1969 -0.2348
10255SOL    HW131664   5.670   3.458   5.129 -0.6427 -0.2084 -0.0912
10255SOL    HW231665   5.626   3.583   5.033 -0.7465 -1.0001 -1.0939
10256SOL     OW31666   1.087   2.480   0.613 -0.2313 -1.1203  0.3349
10256SOL    HW131667   1.175   2.499   0.569  0.1853 -0.2110  1.5178
10256SOL    HW231668   1.093   2.393   0.663 -0.2651 -1.4602 -0.2457
10257SOL     OW31669   2.115   2.529   2.048  0.0052 -0.0968  0.0003
10257SOL    HW131670   2.023   2.562   2.027 -1.7155 -2.5265  2.9065
10257SOL    HW231671   2.164   2.598   2.100 -0.9108  0.5236  0.0634
10258SOL     OW31672   3.209   3.919   0.538  0.1586  0.2848 -0.3437
10258SOL    HW131673   3.246   3.876   0.620  1.1178  0.1766 -0.8143
10258SOL    HW231674   3.169   3.849   0.479  0.3505  0.2372 -0.4167
10259SOL     OW31675   0.991   2.862   4.099 -0.2250 -0.1577  0.4276
10259SOL    HW131676   1.071   2.908   4.138 -0.2713  1.7421 -1.5102
10259SOL    HW231677   0.914   2.926   4.097 -1.4360 -1.5477  1.0549
10260SOL     OW31678   1.309   0.976   5.502 -0.2645  0.2484 -0.1023
10260SOL    HW131679   1.299   0.972   5.403 -2.1881  0.6614  0.0296
10260SOL    HW231680   1.379   1.043   5.526  0.0903  0.2806 -1.1625
10261SOL     OW31681   4.239   3.348   0.836  0.0900 -0.0272  0.0332
10261SOL    HW131682   4.170   3.411   0.800 -0.9108 -2.3838 -2.5134
10261SOL    HW231683   4.323   3.399   0.855 -0.8034  2.1653 -1.4203
10262SOL     OW31684   0.862   4.450   0.105  0.5407  0.1590  0.4845
10262SOL    HW131685   0.899   4.493   0.023 -1.2256  0.4320 -0.2183
10262SOL    HW231686   0.914   4.367   0.126  1.4578  0.4658 -0.4906
10263SOL     OW31687   4.003   2.029   2.353 -0.2789 -0.1118 -0.3605
10263SOL    HW131688   4.049   1.945   2.324 -0.7923 -0.5494  0.0695
10263SOL    HW231689   3.966   2.076   2.273  1.2926  0.4953 -0.7790
10264SOL     OW31690   4.875   0.243   3.566  0.1598 -0.3555 -0.4159
10264SOL    HW131691   4.884   0.149   3.599 -0.6713 -0.0001  0.9006
10264SOL    HW231692   4.890   0.246   3.467 -1.9912 -2.2380 -0.8708
10265SOL     OW31693   5.748   2.032   1.917 -0.0852 -0.2288  0.2793
10265SOL    HW131694   5.748   2.092   1.997 -1.3743  1.7472 -1.0655
10265SOL    HW231695   5.840   1.998   1.900  0.0814 -1.4056  3.0195
10266SOL     OW31696   4.107   3.332   2.966 -0.2023  0.0441 -0.6216
10266SOL    HW131697   4.070   3.365   2.879  1.7156  2.1547 -0.7626
10266SOL    HW231698   4.195   3.378   2.983 -0.1686 -0.8769  2.0844
10267SOL     OW31699   1.872   3.099   4.692 -0.3639 -0.5906  0.0927
10267SOL    HW131700   1.861   3.178   4.631 -1.1089  0.4927  1.5750
10267SOL    HW231701   1.804   3.029   4.668  0.9268 -1.2858 -1.8693
10268SOL     OW31702   4.248   6.553   5.984  0.3850 -0.1483  0.0213
10268SOL    HW131703   4.288   6.635   6.023 -0.1593 -0.1505  0.5963
10268SOL    HW231704   4.172   6.522   6.041 -0.8621  0.2091 -1.3664
10269SOL     OW31705   6.693   3.455   4.949  0.1653  0.0330  0.3007
10269SOL    HW131706   6.683   3.450   4.850 -0.3399 -0.4944  0.3761
10269SOL    HW231707   6.603   3.461   4.992  0.3656 -0.0854  0.7424
10270SOL     OW31708   0.763   5.754   5.494  0.5310  0.0999  0.2190
10270SOL    HW131709   0.816   5.815   5.551 -0.1109  0.4007  0.4961
10270SOL    HW231710   0.741   5.800   5.408  3.1504 -0.9943 -1.1759
10271SOL     OW31711   4.793   1.811   0.752  0.2729  0.2708 -0.1495
10271SOL    HW131712   4.835   1.755   0.824  0.9944  0.1238 -0.6718
10271SOL    HW231713   4.801   1.764   0.664 -1.6701 -0.1022 -0.1601
10272SOL     OW31714   4.602   0.246   6.383 -0.3240 -0.2544 -0.5618
10272SOL    HW131715   4.588   0.257   6.481 -1.3568 -0.4409 -0.6788
10272SOL    HW231716   4.619   0.150   6.362 -1.2313 -0.3886 -0.6940
10273SOL     OW31717   6.068   4.069   4.123  0.0380  0.2197 -0.9790
10273SOL    HW131718   6.123   4.080   4.040 -0.4373  0.1913 -1.3031
10273SOL    HW231719   5.971   4.069   4.099 -0.0767 -1.6534 -0.6472
10274SOL     OW31720   5.237   2.342   1.077  0.5179 -0.6633 -0.4376
10274SOL    HW131721   5.318   2.393   1.049  1.9223 -2.0574  0.8331
10274SOL    HW231722   5.196   2.298   0.996  0.4240  0.8191 -1.2356
10275SOL     OW31723   4.347   0.018   3.891 -0.2463  0.0440  0.5902
10275SOL    HW131724   4.275   0.007   3.959  1.2830  0.0817  2.3038
10275SOL    HW231725   4.416   0.081   3.926  0.0631  0.9293 -1.4903
10276SOL     OW31726   4.478   5.565   0.030  0.1113  0.2867  0.3934
10276SOL    HW131727   4.538   5.488   0.006 -1.1036 -0.6564  0.2570
10276SOL    HW231728   4.383   5.540   0.009 -0.1073  2.7342 -1.9657
10277SOL     OW31729   1.644   0.042   2.576  0.0454 -0.3617 -0.0229
10277SOL    HW131730   1.689   0.033   2.665  1.1411 -1.9827 -0.6904
10277SOL    HW231731   1.554  -0.001   2.580  1.1921 -2.9710 -0.3807
10278SOL     OW31732   4.605   4.684   6.239  0.4080 -0.4221  0.2201
10278SOL    HW131733   4.703   4.665   6.237  0.1887 -1.6375  0.2897
10278SOL    HW231734   4.554   4.598   6.238 -0.6992  0.1930 -1.5241
10279SOL     OW31735   5.033   6.061   4.035  0.2434 -0.5177  0.1362
10279SOL    HW131736   5.089   6.017   4.106  1.1427 -0.1090 -0.3100
10279SOL    HW231737   5.015   6.156   4.061  2.3788  0.3001 -1.1399
10280SOL     OW31738   5.111   3.780   0.785  0.1523  0.1073  0.6128
10280SOL    HW131739   5.076   3.710   0.723 -1.8153  0.9968  0.6406
10280SOL    HW231740   5.039   3.806   0.850  1.0853  1.5699  1.1024
10281SOL     OW31741   0.465   1.640   6.851  0.3590 -0.2796  0.6986
10281SOL    HW131742   0.391   1.699   6.818  0.4842 -0.1667  0.6219
10281SOL    HW231743   0.552   1.687   6.842  0.5581 -0.7871 -0.1347
10282SOL     OW31744   0.271   3.228   0.495  0.2418  0.1319  0.0591
10282SOL    HW131745   0.332   3.292   0.449 -0.8961  0.3026 -1.2828
10282SOL    HW231746   0.325   3.161   0.546  1.5421  0.3064 -1.0321
10283SOL     OW31747   5.917   4.074   5.146  0.6144  0.4563  0.2489
10283SOL    HW131748   5.942   4.025   5.063 -0.2827 -0.6467  0.6071
10283SOL    HW231749   5.993   4.070   5.211  0.2255 -1.3576  0.6511
10284SOL     OW31750   3.535   1.014   1.304 -0.0617  0.5095 -0.6906
10284SOL    HW131751   3.571   0.926   1.335 -0.2458  0.2478 -1.2099
10284SOL    HW231752   3.518   1.073   1.383  0.8950  0.4044 -0.3966
10285SOL     OW31753   0.014   4.661   3.466  0.2569  0.0165 -0.1107
10285SOL    HW131754  -0.045   4.741   3.479  0.2428  0.0815 -0.5820
10285SOL    HW231755  -0.029   4.582   3.509 -0.4908 -0.0767 -0.9872
10286SOL     OW31756   1.585   2.301   3.486 -0.3456 -0.3220 -0.1259
10286SOL    HW131757   1.590   2.341   3.578  0.8641  0.0761 -0.3538
10286SOL    HW231758   1.634   2.360   3.422  0.5364 -1.6280 -0.6746
10287SOL     OW31759   2.262   5.723   1.813 -0.1400  0.1418  0.2116
10287SOL    HW131760   2.247   5.634   1.769 -0.5439  0.4454 -0.2851
10287SOL    HW231761   2.173   5.768   1.829  0.1044  1.1445 -1.0216
10288SOL     OW31762   0.369   5.055   2.825  0.2001  0.2590 -0.3309
10288SOL    HW131763   0.442   4.990   2.805 -0.3567 -0.5254  0.1104
10288SOL    HW231764   0.363   5.122   2.751 -0.9730 -1.7908 -2.2162
10289SOL     OW31765   2.277   4.691   5.072 -0.3139 -0.4480  0.5541
10289SOL    HW131766   2.367   4.647   5.068 -0.7302 -1.2768  0.0621
10289SOL    HW231767   2.206   4.623   5.054 -0.9564  0.5133 -0.7049
10290SOL     OW31768   3.997   3.904   2.501 -0.0062  0.2217 -0.2936
10290SOL    HW131769   3.924   3.946   2.555  1.4353 -1.2132  3.0650
10290SOL    HW231770   3.969   3.901   2.405 -4.7869 -1.1462  0.8470
10291SOL     OW31771   2.414   6.087   1.593 -0.1389  0.5258  0.4931
10291SOL    HW131772   2.449   6.017   1.656 -0.3261  0.3438  0.3963
10291SOL    HW231773   2.394   6.045   1.504  0.7563  0.9130  0.1021
10292SOL     OW31774   3.035   5.515   2.706 -0.4046  0.1647  0.7981
10292SOL    HW131775   3.098   5.583   2.743  0.7580 -1.7482  2.5336
10292SOL    HW231776   2.957   5.504   2.768  0.3174 -1.3112  1.4926
10293SOL     OW31777   6.009   4.702   1.984  0.0128  0.0048 -0.0921
10293SOL    HW131778   5.962   4.658   2.061 -1.3062 -0.3556 -1.0528
10293SOL    HW231779   5.942   4.720   1.911  1.0704  1.0778 -0.8302
10294SOL     OW31780   4.140   6.318   5.564  0.3903  0.1551  0.1290
10294SOL    HW131781   4.121   6.404   5.517 -1.5335  0.1938  0.8876
10294SOL    HW231782   4.115   6.326   5.660  0.9670 -1.0063  0.3905
10295SOL     OW31783   2.269   2.405   4.992 -0.3796  0.0842  0.1228
10295SOL    HW131784   2.323   2.468   4.936  0.5014  0.0869  0.9579
10295SOL    HW231785   2.318   2.384   5.076 -1.0866 -0.9851  0.2897
10296SOL     OW31786   2.156   1.249   3.997  0.3106  0.5745  0.3304
10296SOL    HW131787   2.176   1.309   3.919  1.2470  0.5561  0.5373
10296SOL    HW231788   2.087   1.292   4.055  0.8349  1.3931  0.3785
10297SOL     OW31789   5.023   3.059   6.625 -0.2067  0.4897  0.0682
10297SOL    HW131790   4.976   3.113   6.555 -0.1724  3.9145  2.4076
10297SOL    HW231791   5.118   3.088   6.631  0.3286 -1.2346  0.1539
10298SOL     OW31792   5.336   1.153   3.184 -0.3240 -0.1886 -0.3905
10298SOL    HW131793   5.298   1.245   3.175 -1.4396 -0.5953 -0.1024
10298SOL    HW231794   5.267   1.093   3.224  0.4705 -1.0990 -0.3511
10299SOL     OW31795   0.625   1.866   3.063 -0.2726  0.1151  0.3293
10299SOL    HW131796   0.530   1.877   3.091 -0.4230 -0.1936 -0.0476
10299SOL    HW231797   0.637   1.776   3.020  0.0686  0.3680 -0.1102
10300SOL     OW31798   6.338   6.493   3.823 -0.4505  0.2974 -0.5743
10300SOL    HW131799   6.371   6.586   3.805  1.2571 -0.3706 -1.0412
10300SOL    HW231800   6.407   6.442   3.874 -2.2590 -0.0777  1.7042
10301SOL     OW31801   3.299   5.142   5.381 -0.3527  0.1068 -0.3152
10301SOL    HW131802   3.227   5.079   5.409 -1.8043  1.4010 -0.9622
10301SOL    HW231803   3.349   5.104   5.304  0.3818 -1.2731  0.8057
10302SOL     OW31804   6.097   2.820   5.614 -0.3745  0.0316 -0.0389
10302SOL    HW131805   6.071   2.868   5.698 -0.7165 -0.5914  0.2193
10302SOL    HW231806   6.098   2.722   5.631  1.4362 -0.0092 -0.2588
10303SOL     OW31807   0.287   0.598   2.410 -0.7010 -0.0400 -0.3017
10303SOL    HW131808   0.191   0.596   2.441 -1.1261  2.0336 -1.2805
10303SOL    HW231809   0.347   0.587   2.489 -1.7518  0.2014  0.5711
10304SOL     OW31810   5.111   2.411   1.686 -0.0949 -0.1748  0.2421
10304SOL    HW131811   5.087   2.318   1.714 -1.0091 -0.2608 -0.7380
10304SOL    HW231812   5.034   2.451   1.635  0.4075  1.0035  0.3754
10305SOL     OW31813   3.957   4.043   6.100  0.2309  0.4489 -0.3862
10305SOL    HW131814   3.913   4.127   6.132 -1.8629 -0.3522 -0.9474
10305SOL    HW231815   3.926   4.023   6.007  0.1872 -1.2477 -0.0538
10306SOL     OW31816   2.764   0.815   6.920 -0.1319 -0.3530  0.5710
10306SOL    HW131817   2.789   0.880   6.848 -1.4860 -0.3560  0.0670
10306SOL    HW231818   2.675   0.839   6.958  0.5287 -0.3868  2.2366
10307SOL     OW31819   6.729   3.771   4.478 -0.0880 -0.1912 -0.5014
10307SOL    HW131820   6.815   3.809   4.511 -0.8192 -0.8435  2.4975
10307SOL    HW231821   6.662   3.770   4.553 -1.9847 -1.8244 -2.0875
10308SOL     OW31822   1.936   4.594   0.205  0.1018 -0.2853  0.2741
10308SOL    HW131823   1.994   4.635   0.134 -0.2197 -1.1304 -0.4997
10308SOL    HW231824   1.889   4.666   0.256  0.4835  0.3457 -0.2500
10309SOL     OW31825   0.905   4.385   5.110  0.5140  0.4817 -0.8163
10309SOL    HW131826   0.966   4.331   5.167 -0.5549 -1.0822 -1.0738
10309SOL    HW231827   0.881   4.470   5.157  2.0232  0.6329 -0.2850
10310SOL     OW31828   2.926   6.305   2.234  0.2967  0.4643  0.0175
10310SOL    HW131829   2.890   6.224   2.186  0.9857  0.3682 -0.3522
10310SOL    HW231830   3.024   6.313   2.215  0.5526  0.5026  1.3211
10311SOL     OW31831   0.723   4.729   0.422  0.6455  0.0217 -0.0132
10311SOL    HW131832   0.628   4.743   0.394  0.2278 -0.9335  0.8874
10311SOL    HW231833   0.736   4.634   0.451  1.9615  0.0586 -0.4392
10312SOL     OW31834   1.686   0.994   6.638 -0.5559 -0.4087  0.4475
10312SOL    HW131835   1.665   0.902   6.672 -2.0899 -0.1699  0.2181
10312SOL    HW231836   1.646   1.062   6.700  0.3939  0.1104  0.5065
10313SOL     OW31837   4.212   5.580   3.599  0.3086  0.2806 -0.7955
10313SOL    HW131838   4.173   5.672   3.599  0.5173  0.4517  2.1137
10313SOL    HW231839   4.271   5.568   3.679  2.7729 -1.4229 -2.7073
10314SOL     OW31840   6.423   2.267   6.295 -0.1339  0.5897 -0.1053
10314SOL    HW131841   6.491   2.313   6.239 -0.0341  0.5153 -0.0465
10314SOL    HW231842   6.337   2.317   6.291 -0.9247 -0.8327 -2.4461
10315SOL     OW31843   0.329   6.240   1.693  0.2352  0.1087  0.6133
10315SOL    HW131844   0.311   6.210   1.600 -0.7192  1.3306  0.3755
10315SOL    HW231845   0.294   6.332   1.706 -0.0899 -0.2118  2.3268
10316SOL     OW31846   3.748   1.219   6.309  0.2026 -0.6734 -0.0770
10316SOL    HW131847   3.722   1.122   6.308  0.2240 -0.7663  2.3158
10316SOL    HW231848   3.725   1.259   6.397 -1.0853  1.9228 -1.4852
10317SOL     OW31849   2.223   2.595   3.883  0.2282  0.0143 -0.0174
10317SOL    HW131850   2.195   2.517   3.939  1.1799 -0.1648  0.2344
10317SOL    HW231851   2.143   2.649   3.857 -0.6439 -1.8370 -1.3915
10318SOL     OW31852   5.358   1.538   4.177 -0.7683 -0.0584  0.0616
10318SOL    HW131853   5.301   1.519   4.257  0.9924  0.5717  1.5440
10318SOL    HW231854   5.384   1.635   4.177  0.8871 -0.4693 -0.1310
10319SOL     OW31855   1.846   2.810   0.214  0.1230  0.2426  0.3853
10319SOL    HW131856   1.817   2.903   0.192  1.9561  1.0074  0.9724
10319SOL    HW231857   1.926   2.814   0.273 -1.2905 -1.7157  2.6084
10320SOL     OW31858   3.139   3.193   0.771  0.0452  0.5550  0.0469
10320SOL    HW131859   3.050   3.226   0.801 -1.0859 -2.1404 -0.0995
10320SOL    HW231860   3.170   3.247   0.693 -1.9977  0.7890 -0.6448
10321SOL     OW31861   6.536   2.955   3.221  0.1415  0.4049 -0.0301
10321SOL    HW131862   6.482   3.019   3.167 -1.7913 -0.1586  1.1507
10321SOL    HW231863   6.494   2.865   3.218  1.2861 -0.1796  0.5753
10322SOL     OW31864   5.167   0.399   0.419  0.6556  0.5993 -0.6371
10322SOL    HW131865   5.181   0.331   0.491  0.5002  0.5415 -0.6615
10322SOL    HW231866   5.069   0.405   0.396  0.2875  2.5823  1.1066
10323SOL     OW31867   3.945   3.010   1.868  0.3867 -0.3893  0.8344
10323SOL    HW131868   3.945   3.089   1.929  2.0749 -0.0744  0.4527
10323SOL    HW231869   3.854   2.968   1.869 -0.1587  0.7482  2.0674
10324SOL     OW31870   2.386   6.438   6.791 -0.3070  0.5057 -0.2610
10324SOL    HW131871   2.443   6.401   6.864 -2.0655 -0.8750  0.4843
10324SOL    HW231872   2.404   6.536   6.780  1.2516  0.3727  0.7783
10325SOL     OW31873   2.822   4.019   0.645  0.1095  0.2000  0.6861
10325SOL    HW131874   2.796   3.932   0.603  1.1852  0.8899 -1.5528
10325SOL    HW231875   2.744   4.055   0.696 -0.8829 -1.2740  0.2909
10326SOL     OW31876   1.382   6.481   0.068  0.4339 -0.9744 -0.3524
10326SOL    HW131877   1.441   6.523   0.136  0.0725 -2.0094  0.6422
10326SOL    HW231878   1.431   6.472  -0.019  0.8484  0.5092 -0.2951
10327SOL     OW31879   1.210   5.630   0.113 -0.0821 -0.3494 -0.2467
10327SOL    HW131880   1.247   5.640   0.206 -1.3406  2.3062  0.0604
10327SOL    HW231881   1.111   5.646   0.115 -0.5507 -2.5957 -1.7477
10328SOL     OW31882   3.318   5.388   6.747  0.2306  0.0596  0.3030
10328SOL    HW131883   3.325   5.435   6.659  3.2062 -3.6646 -1.7416
10328SOL    HW231884   3.222   5.365   6.766 -0.4108  0.3279 -2.3267
10329SOL     OW31885   3.176   1.467   1.383 -0.2630  0.2902 -0.3325
10329SOL    HW131886   3.139   1.502   1.469 -1.1092  1.4387 -1.1417
10329SOL    HW231887   3.247   1.529   1.349  0.2655 -0.3055 -0.3338
10330SOL     OW31888   1.045   0.130   4.724  0.1051  0.0819 -0.6888
10330SOL    HW131889   1.014   0.055   4.666 -0.4908  0.5116 -0.9259
10330SOL    HW231890   1.130   0.168   4.686  1.2905 -1.4649  0.2787
10331SOL     OW31891   3.468   1.561   0.701 -0.0207 -0.9247 -0.1943
10331SOL    HW131892   3.394   1.564   0.769  0.5017 -0.0010  0.3539
10331SOL    HW231893   3.430   1.560   0.609 -0.7573  2.8532 -0.0581
10332SOL     OW31894   5.288   4.009   1.068  0.6005  0.6720 -0.0425
10332SOL    HW131895   5.342   3.939   1.020  0.5107  0.4835  0.1310
10332SOL    HW231896   5.221   3.964   1.128  0.6993  0.9070  0.2449
10333SOL     OW31897   0.617   1.874   4.870  0.8001 -0.1318  0.7382
10333SOL    HW131898   0.598   1.793   4.814  0.2411 -1.3892  2.6508
10333SOL    HW231899   0.569   1.952   4.831  1.7590 -0.5522 -1.4466
10334SOL     OW31900   3.611   1.603   6.649  0.3199  0.0295 -0.2971
10334SOL    HW131901   3.694   1.636   6.694 -0.1198 -1.1960  1.5006
10334SOL    HW231902   3.531   1.635   6.699 -0.1579 -2.0663  0.3436
10335SOL     OW31903   5.228   2.648   3.368 -0.7190  0.8231 -0.3450
10335SOL    HW131904   5.135   2.682   3.385 -0.8400 -0.2738  1.4065
10335SOL    HW231905   5.292   2.695   3.428 -0.3998  0.3124 -0.2783
10336SOL     OW31906   3.419   1.134   5.092 -0.0594  0.1185  0.1609
10336SOL    HW131907   3.402   1.228   5.123 -0.2065 -0.3047  1.4141
10336SOL    HW231908   3.481   1.089   5.156 -0.1620 -0.7115 -0.3165
10337SOL     OW31909   3.874   0.293   6.641 -0.0405  0.0334  0.5194
10337SOL    HW131910   3.914   0.337   6.721  0.8842 -2.6069  1.6167
10337SOL    HW231911   3.785   0.253   6.665  0.4778 -1.2263  0.4226
10338SOL     OW31912   1.448   2.401   5.231 -0.2870  0.1552  0.2012
10338SOL    HW131913   1.430   2.493   5.263  0.5839  0.4199 -0.0561
10338SOL    HW231914   1.521   2.360   5.285 -0.5106 -0.3023  0.1635
10339SOL     OW31915   0.766   5.424   6.145 -0.5002 -0.2440  0.3097
10339SOL    HW131916   0.827   5.368   6.201 -0.5150 -1.8538 -1.2320
10339SOL    HW231917   0.782   5.521   6.167  0.7607 -0.7301  1.7701
10340SOL     OW31918   1.050   6.914   1.003 -0.5650 -0.4040  0.4640
10340SOL    HW131919   1.020   6.962   1.085  1.7564 -0.1588  1.2548
10340SOL    HW231920   1.043   6.976   0.924  1.0065  0.8197  1.2164
10341SOL     OW31921   2.816   1.612   4.518 -0.1328 -0.1626  0.6061
10341SOL    HW131922   2.807   1.542   4.447  1.9707  1.0185 -0.9472
10341SOL    HW231923   2.826   1.702   4.474 -0.1865  0.8035  2.4772
10342SOL     OW31924   1.449   3.286   6.341  0.7436  0.2598  0.3241
10342SOL    HW131925   1.366   3.318   6.295  1.5892 -1.0579 -2.2506
10342SOL    HW231926   1.529   3.329   6.300  1.5998 -1.8379 -0.3015
10343SOL     OW31927   6.424   3.694   5.763  0.3060 -0.4047  0.0739
10343SOL    HW131928   6.497   3.689   5.831  0.3207  0.6629  0.1583
10343SOL    HW231929   6.413   3.605   5.719  1.2100 -0.7500  0.5182
10344SOL     OW31930   1.010   3.660   4.603 -0.1458 -0.0825 -0.2340
10344SOL    HW131931   1.033   3.574   4.558 -0.2682  1.4380 -3.5221
10344SOL    HW231932   0.915   3.683   4.583  0.2676  1.4218 -0.5881
10345SOL     OW31933   6.345   0.325   4.015  0.2936  0.6660  0.3701
10345SOL    HW131934   6.345   0.259   4.090 -2.2576  0.9859  0.7339
10345SOL    HW231935   6.322   0.279   3.929  0.8763  0.6927  0.1966
10346SOL     OW31936   5.501   0.542   0.901  0.1323  0.5038  0.1010
10346SOL    HW131937   5.474   0.448   0.879  0.8452  0.2298  0.3713
10346SOL    HW231938   5.585   0.564   0.851  0.2854  0.7930  0.4856
10347SOL     OW31939   4.441   0.014   5.056  0.0443 -0.2831 -0.2281
10347SOL    HW131940   4.485  -0.029   5.135  0.6638 -1.6431 -1.2739
10347SOL    HW231941   4.400  -0.057   4.998 -0.7531  0.7220 -0.9163
10348SOL     OW31942   6.899   3.101   3.284  0.3003 -0.0840  0.1814
10348SOL    HW131943   6.896   3.177   3.219 -0.8802 -0.7429 -0.5719
10348SOL    HW231944   6.932   3.134   3.372  3.2866  0.5873 -1.0530
10349SOL     OW31945   5.025   3.450   3.648 -0.0574  0.0840  0.7091
10349SOL    HW131946   5.000   3.393   3.726  0.8029  0.3389  1.1842
10349SOL    HW231947   4.973   3.535   3.651 -1.0400 -0.4853  0.2247
10350SOL     OW31948   0.175   3.367   5.720 -0.0571 -0.5469  0.3846
10350SOL    HW131949   0.245   3.301   5.747  0.5130 -0.2301 -0.3023
10350SOL    HW231950   0.084   3.327   5.736  0.2794 -1.4652  0.0471
10351SOL     OW31951   5.453   2.443   0.040  0.3151 -0.6824 -0.0560
10351SOL    HW131952   5.528   2.394  -0.005 -0.2362 -2.5455  0.9498
10351SOL    HW231953   5.476   2.458   0.136  0.2638  0.6611 -0.2326
10352SOL     OW31954   6.435   1.059   5.152  0.0659 -0.2099 -0.3685
10352SOL    HW131955   6.344   1.031   5.184  0.2457 -0.5779 -0.1792
10352SOL    HW231956   6.451   1.154   5.177 -1.4051  0.7988 -2.8244
10353SOL     OW31957   4.439   6.327   1.849 -0.2859  0.6992 -0.0122
10353SOL    HW131958   4.387   6.298   1.770  0.1798 -0.4431  0.0745
10353SOL    HW231959   4.383   6.319   1.932 -0.3010  0.4777 -0.0448
10354SOL     OW31960   2.492   5.336   3.289  0.4448 -0.4886 -0.6161
10354SOL    HW131961   2.408   5.342   3.235 -0.5343  1.4078  0.9868
10354SOL    HW231962   2.540   5.424   3.283  0.1921 -0.1463  1.7046
10355SOL     OW31963   6.673   6.181   1.061  0.4171  0.2835 -0.2168
10355SOL    HW131964   6.673   6.235   0.977 -1.1733  2.3403  1.0212
10355SOL    HW231965   6.580   6.151   1.083  0.7144  0.2084  1.0597
10356SOL     OW31966   3.953   6.395   6.167 -0.6997  0.1900 -0.2729
10356SOL    HW131967   3.953   6.336   6.247 -0.5146 -1.0491 -1.1456
10356SOL    HW231968   3.937   6.490   6.194  0.2270 -0.0720  1.3060
10357SOL     OW31969   6.724   1.026   6.999  0.4791  0.2092  0.9173
10357SOL    HW131970   6.788   0.954   6.970 -0.8393 -0.7121  0.2303
10357SOL    HW231971   6.766   1.116   6.984  0.4622 -0.2284 -2.5462
10358SOL     OW31972   1.100   0.736   6.423 -0.5073  0.1613 -0.2902
10358SOL    HW131973   1.123   0.664   6.357  0.8114  1.4813 -1.3254
10358SOL    HW231974   1.045   0.806   6.377 -1.3177  0.1121  0.5727
10359SOL     OW31975   3.369   1.392   5.195  0.0444  0.1780  0.0180
10359SOL    HW131976   3.370   1.484   5.235  1.0349  0.7212 -1.1954
10359SOL    HW231977   3.299   1.387   5.123 -0.9833 -0.4704  1.0222
10360SOL     OW31978   6.529   0.489   3.897 -0.5733  0.8635 -0.2449
10360SOL    HW131979   6.468   0.423   3.942 -0.1287 -0.6922 -1.8338
10360SOL    HW231980   6.622   0.454   3.896 -0.8292 -0.1317 -3.9219
10361SOL     OW31981   1.956   4.258   4.003 -0.0028 -0.2061 -0.3975
10361SOL    HW131982   1.902   4.328   4.051  0.7259  0.7082 -0.8808
10361SOL    HW231983   2.027   4.224   4.064  1.8465  1.9870 -1.1849
10362SOL     OW31984   4.649   6.506   4.854 -0.5218 -0.1749  0.5890
10362SOL    HW131985   4.603   6.577   4.801  1.1085  0.3732 -0.1613
10362SOL    HW231986   4.610   6.503   4.947 -0.5216  1.8122  0.6914
10363SOL     OW31987   5.196   1.387   3.172 -0.2738  0.0989  0.3937
10363SOL    HW131988   5.101   1.354   3.180 -0.0202 -0.5015  1.0860
10363SOL    HW231989   5.206   1.471   3.225 -1.4620  2.6278 -3.0671
10364SOL     OW31990   6.908   6.896   0.809  0.0681 -0.3243  0.7867
10364SOL    HW131991   6.820   6.848   0.802 -0.4975  0.8802 -0.9090
10364SOL    HW231992   6.892   6.994   0.810  1.4358 -0.0273 -1.1986
10365SOL     OW31993   2.399   1.367   6.660  0.4118  0.0626 -0.0244
10365SOL    HW131994   2.312   1.322   6.640 -0.0123  0.3488  1.1172
10365SOL    HW231995   2.460   1.302   6.706 -0.4134  0.7530  2.1618
10366SOL     OW31996   2.372   6.805   4.415 -0.3030  0.2835 -0.0569
10366SOL    HW131997   2.422   6.733   4.367 -2.0753 -1.8983  1.1867
10366SOL    HW231998   2.408   6.815   4.508 -0.9152  0.0546  0.2080
10367SOL     OW31999   3.881   4.706   5.272 -0.1627 -0.1794 -0.3021
10367SOL    HW132000   3.917   4.767   5.201 -0.3557  0.5848  0.2396
10367SOL    HW232001   3.943   4.706   5.351 -0.1310 -0.7387 -0.3230
10368SOL     OW32002   2.614   1.189   6.506  0.6913 -0.0419 -0.0966
10368SOL    HW132003   2.607   1.209   6.603  0.1196 -2.6915  0.4882
10368SOL    HW232004   2.684   1.119   6.491 -1.4617 -2.1415 -1.0835
10369SOL     OW32005   3.152   3.600   1.425  0.0801  0.1822  0.5877
10369SOL    HW132006   3.150   3.698   1.406 -1.0533  0.1278  0.3407
10369SOL    HW232007   3.100   3.581   1.509  0.5077 -0.1872  0.7768
10370SOL     OW32008   1.359   6.324   0.309  0.0816  0.1102 -0.4235
10370SOL    HW132009   1.372   6.381   0.228 -1.3043 -0.0330 -0.7641
10370SOL    HW232010   1.262   6.313   0.327  0.3088 -1.9096 -0.1899
10371SOL     OW32011   5.372   4.987   3.096  0.5052 -0.3032  0.4371
10371SOL    HW132012   5.335   4.964   3.006 -1.6766  0.8378  0.9705
10371SOL    HW232013   5.382   5.086   3.104 -1.1899 -0.2022  2.0558
10372SOL     OW32014   1.106   2.400   1.098  0.0457  0.6687 -0.0654
10372SOL    HW132015   1.051   2.410   1.181  1.6833  0.4007  1.1168
10372SOL    HW232016   1.192   2.450   1.110  0.4636  0.3184 -1.4731
10373SOL     OW32017   2.712   6.434   0.762 -0.6713 -0.3524 -0.0666
10373SOL    HW132018   2.793   6.383   0.792 -0.1739  0.1827 -0.4872
10373SOL    HW232019   2.631   6.378   0.777 -0.3844 -0.3442  1.7136
10374SOL     OW32020   4.160   2.780   1.719 -0.1568 -0.5784  0.5214
10374SOL    HW132021   4.257   2.788   1.740  0.4753  0.0744 -2.1851
10374SOL    HW232022   4.112   2.862   1.750  0.1295 -0.9300  1.9264
10375SOL     OW32023   6.057   1.082   1.547  0.1895  0.3589 -0.1222
10375SOL    HW132024   6.005   1.160   1.514  0.8260  0.6327 -0.4868
10375SOL    HW232025   6.068   1.089   1.647 -1.0682 -0.0735  0.0625
10376SOL     OW32026   3.810   6.857   5.111  0.4727  0.1472 -0.2142
10376SOL    HW132027   3.738   6.841   5.043  2.6890 -0.2860 -2.5972
10376SOL    HW232028   3.795   6.946   5.155 -0.8826  0.5583 -1.4566
10377SOL     OW32029   5.335   5.976   4.725 -0.3805 -0.5042 -0.0021
10377SOL    HW132030   5.424   6.006   4.691 -0.6481  1.1273  0.6313
10377SOL    HW232031   5.263   6.031   4.682 -0.8263  0.5003  1.9421
10378SOL     OW32032   6.138   1.287   2.702 -0.2049  0.5850 -0.0190
10378SOL    HW132033   6.069   1.317   2.768 -2.6086 -1.5940 -1.3924
10378SOL    HW232034   6.179   1.202   2.732  0.5297  0.8847 -0.1451
10379SOL     OW32035   0.294   0.878   3.936 -0.1344  0.2735 -0.2384
10379SOL    HW132036   0.340   0.806   3.884 -1.8797 -1.2880  0.2476
10379SOL    HW232037   0.351   0.959   3.939  2.6906 -1.6066  0.6056
10380SOL     OW32038   5.399   3.187   4.385 -0.4073 -0.1328 -0.0073
10380SOL    HW132039   5.388   3.232   4.474 -1.2474 -0.7020  0.1902
10380SOL    HW232040   5.406   3.088   4.397 -3.8142 -0.5941 -0.7004
10381SOL     OW32041   6.457   4.385   6.329  0.4159 -0.2852 -0.2946
10381SOL    HW132042   6.432   4.299   6.284 -0.5089 -0.3714  0.3698
10381SOL    HW232043   6.388   4.408   6.397  1.4670  0.1845  0.6295
10382SOL     OW32044   6.201   7.010   0.855  0.8950  0.5477  0.3220
10382SOL    HW132045   6.110   7.007   0.897  0.7569  0.2330  0.0114
10382SOL    HW232046   6.259   6.939   0.896  0.9103  0.5642  0.3287
10383SOL     OW32047   3.628   3.998   6.354 -0.1603  0.0491 -0.8247
10383SOL    HW132048   3.531   4.017   6.369  0.1483  1.4239 -0.4283
10383SOL    HW232049   3.681   4.034   6.430  0.9290  1.9947 -2.4223
10384SOL     OW32050   2.912   0.366   5.436  0.6761 -0.2000  0.1425
10384SOL    HW132051   2.819   0.355   5.470 -1.0729  0.4481 -3.8236
10384SOL    HW232052   2.920   0.453   5.387  3.7348  0.2123  1.0999
10385SOL     OW32053   4.883   2.664   2.990  0.6442  0.1406  0.2327
10385SOL    HW132054   4.826   2.583   3.002  1.3482 -0.3673  0.2147
10385SOL    HW232055   4.959   2.643   2.929  0.7170  0.8814  0.0565
10386SOL     OW32056   1.933   2.791   2.374  0.0880  0.3180  0.0810
10386SOL    HW132057   1.954   2.748   2.462 -0.5306  0.3039  0.2236
10386SOL    HW232058   2.011   2.781   2.313  1.0292  1.4188  1.0461
10387SOL     OW32059   5.367   3.936   3.673  0.3113  0.5937  0.9765
10387SOL    HW132060   5.372   3.839   3.697 -0.0125 -0.1413 -1.5287
10387SOL    HW232061   5.271   3.964   3.665  0.3969  0.8799  0.9210
10388SOL     OW32062   4.367   0.984   6.431 -0.4867 -0.3022  0.6497
10388SOL    HW132063   4.352   0.946   6.340 -1.8750  1.7626 -0.0450
10388SOL    HW232064   4.437   1.055   6.427 -1.0674  0.3073  1.0250
10389SOL     OW32065   2.337   1.269   5.099 -0.1846  0.4034 -0.1619
10389SOL    HW132066   2.297   1.185   5.136 -0.5878  0.0439 -1.3670
10389SOL    HW232067   2.401   1.307   5.165  0.8509 -1.4625 -0.0126
10390SOL     OW32068   6.413   3.791   4.500 -0.3554 -0.2208  0.4043
10390SOL    HW132069   6.361   3.869   4.535 -0.1730 -0.7309  1.8996
10390SOL    HW232070   6.362   3.707   4.517 -0.0058 -0.5392 -0.0909
10391SOL     OW32071   5.847   1.309   4.313 -0.4334  0.3085  0.0612
10391SOL    HW132072   5.814   1.215   4.299  1.2335 -0.3650  0.4576
10391SOL    HW232073   5.896   1.339   4.231  1.2889 -0.1722  0.8724
10392SOL     OW32074   6.574   3.402   3.292 -0.0474  0.3016 -0.5082
10392SOL    HW132075   6.584   3.394   3.192  1.0398 -0.0376 -0.3893
10392SOL    HW232076   6.630   3.478   3.325 -0.2550  0.2919 -0.1330
10393SOL     OW32077   3.667   1.778   2.383 -0.6401  0.6788  0.1115
10393SOL    HW132078   3.597   1.797   2.314 -0.9841  1.9680  0.7781
10393SOL    HW232079   3.695   1.682   2.377 -2.4877  0.1173 -0.1422
10394SOL     OW32080   3.681   5.934   6.680  0.2249  0.0145  0.4581
10394SOL    HW132081   3.650   5.976   6.766  1.2891 -0.3976  1.0560
10394SOL    HW232082   3.720   5.844   6.699 -0.2466 -0.4249 -0.5709
10395SOL     OW32083   5.883   6.746   1.249  0.2286  0.1489  0.6236
10395SOL    HW132084   5.828   6.770   1.169  0.7235  1.2755  0.6107
10395SOL    HW232085   5.861   6.652   1.277  1.1206 -0.8621 -1.7418
10396SOL     OW32086   0.542   6.577   3.679 -0.3123  0.0650 -0.2662
10396SOL    HW132087   0.448   6.571   3.712 -0.2816 -2.3772 -0.4871
10396SOL    HW232088   0.602   6.521   3.736  1.0585  1.6099 -0.1089
10397SOL     OW32089   2.167   5.548   0.981  0.6703 -0.0452  0.2350
10397SOL    HW132090   2.175   5.631   1.038  1.4091  0.4213 -0.5225
10397SOL    HW232091   2.145   5.574   0.887 -2.3708 -0.8943  0.5916
10398SOL     OW32092   1.071   2.438   1.796 -0.1068 -0.5575 -0.1255
10398SOL    HW132093   1.029   2.347   1.804 -0.1502 -0.4264  1.3568
10398SOL    HW232094   1.166   2.434   1.828 -1.2823  0.7129  4.1174
10399SOL     OW32095   6.502   1.947   1.134 -0.0828 -0.2716  0.0039
10399SOL    HW132096   6.560   2.028   1.135 -0.5509  0.0721  0.2879
10399SOL    HW232097   6.443   1.949   1.053 -1.8516  0.9830  1.2355
10400SOL     OW32098   2.453   2.516   6.095  0.3965  0.0521  0.8921
10400SOL    HW132099   2.527   2.580   6.076  0.0653  0.1802 -0.0168
10400SOL    HW232100   2.475   2.463   6.177  1.2161  0.4991  0.9711
10401SOL     OW32101   5.091   3.412   2.683 -0.9152 -0.4359 -0.4864
10401SOL    HW132102   5.189   3.427   2.672 -1.1719  2.8411  0.5753
10401SOL    HW232103   5.059   3.348   2.613  1.7986 -0.8258 -1.4752
10402SOL     OW32104   4.086   3.610   5.417  0.5245 -0.5870  0.2839
10402SOL    HW132105   4.171   3.608   5.364  1.5424  0.1854  1.8129
10402SOL    HW232106   4.066   3.518   5.450  1.4895 -0.5596  0.9799
10403SOL     OW32107   6.323   2.978   1.915  0.6065 -0.1310  0.2492
10403SOL    HW132108   6.389   2.931   1.975  0.4819 -0.6969 -0.0443
10403SOL    HW232109   6.231   2.944   1.934  0.1012  2.0896  2.0509
10404SOL     OW32110   6.483   0.257   0.685  0.2211  0.2372  0.2890
10404SOL    HW132111   6.558   0.291   0.629  0.3037 -2.5501 -1.5186
10404SOL    HW232112   6.396   0.278   0.641  0.0453  1.1976  1.0528
10405SOL     OW32113   5.000   0.419   5.609 -0.3924 -0.2998  0.7949
10405SOL    HW132114   5.027   0.491   5.545 -0.1095 -0.7757  0.3736
10405SOL    HW232115   4.909   0.440   5.646  0.1082  0.8005  1.4666
10406SOL     OW32116   0.557   2.544   1.777 -0.7434  0.0186 -0.3744
10406SOL    HW132117   0.557   2.570   1.681  1.1937 -0.7895 -0.6297
10406SOL    HW232118   0.648   2.559   1.816 -1.6009  0.7698  1.4862
10407SOL     OW32119   3.861   4.659   6.527  0.3415  0.3508  0.4690
10407SOL    HW132120   3.838   4.698   6.438 -0.0786  1.1799  0.9327
10407SOL    HW232121   3.796   4.691   6.596  1.7189  1.1877  1.4387
10408SOL     OW32122   4.342   2.330   5.275 -0.1713  0.2199  0.3486
10408SOL    HW132123   4.350   2.413   5.329 -0.7854  2.2910 -2.5063
10408SOL    HW232124   4.282   2.346   5.197 -0.2410 -2.9048 -0.3842
10409SOL     OW32125   0.431   5.386   1.643 -0.5791  0.0573 -0.2553
10409SOL    HW132126   0.411   5.407   1.739 -0.3489 -0.9654  0.0237
10409SOL    HW232127   0.355   5.415   1.586 -1.6958 -1.3154  0.4906
10410SOL     OW32128   2.454   4.566   5.695 -0.2617 -0.1451 -0.1844
10410SOL    HW132129   2.416   4.558   5.602 -0.8135  0.4494 -0.0175
10410SOL    HW232130   2.517   4.644   5.698  2.7258 -2.3534 -1.0191
10411SOL     OW32131   4.799   5.895   4.081  0.1790 -0.3092 -0.0393
10411SOL    HW132132   4.752   5.972   4.123 -1.3650 -1.1366 -0.1621
10411SOL    HW232133   4.864   5.929   4.013 -0.1527  0.8885  0.2134
10412SOL     OW32134   1.816   1.987   0.239 -0.4188  0.2299  0.3406
10412SOL    HW132135   1.776   1.976   0.148 -0.4382 -0.9541  0.4675
10412SOL    HW232136   1.906   1.944   0.241  0.3223  1.7227  0.4311
10413SOL     OW32137   2.386   2.617   0.376  0.3282 -0.3948  0.1082
10413SOL    HW132138   2.310   2.587   0.319  1.4187  1.0135 -2.2336
10413SOL    HW232139   2.440   2.537   0.404 -1.0424 -1.2417  0.4154
10414SOL     OW32140   3.567   1.887   5.583 -0.3494  0.1299 -0.0732
10414SOL    HW132141   3.576   1.974   5.632 -0.8427 -0.3109  0.8060
10414SOL    HW232142   3.478   1.847   5.601 -0.7218  0.1650 -1.6938
10415SOL     OW32143   2.585   5.887   4.538  0.0749 -0.0751  0.3090
10415SOL    HW132144   2.586   5.975   4.490  0.8471  0.6684  1.5911
10415SOL    HW232145   2.498   5.876   4.586  0.6009  0.8225  1.5266
10416SOL     OW32146   3.751   4.805   6.298  0.1533  0.0678  0.5086
10416SOL    HW132147   3.672   4.754   6.332  1.5416 -2.4107  0.2270
10416SOL    HW232148   3.738   4.828   6.201 -0.1539 -0.5041  0.4124
10417SOL     OW32149   4.038   2.759   6.065  0.3989  0.0616 -0.5625
10417SOL    HW132150   3.980   2.824   6.016 -0.9336  0.1570  1.0400
10417SOL    HW232151   4.080   2.805   6.144 -0.0770 -0.8410  0.2393
10418SOL     OW32152   6.054   1.460   4.740 -0.1205  0.0069 -0.0387
10418SOL    HW132153   6.106   1.545   4.755  0.4257 -0.3126 -0.0837
10418SOL    HW232154   6.091   1.387   4.797 -0.2466 -0.3348 -0.3855
10419SOL     OW32155   6.287   0.124   6.524  0.3145 -0.1584 -0.1539
10419SOL    HW132156   6.243   0.202   6.569  0.2569 -1.2107  1.7276
10419SOL    HW232157   6.356   0.157   6.461 -0.7825  1.4484 -0.5832
10420SOL     OW32158   0.555   1.139   1.666  0.5768  0.0015  0.1460
10420SOL    HW132159   0.495   1.119   1.588 -0.1779  0.1079  0.6976
10420SOL    HW232160   0.650   1.136   1.635  0.4029 -2.0737 -0.3306
10421SOL     OW32161   1.071   5.845   0.442  0.0498 -0.0274  0.4207
10421SOL    HW132162   1.150   5.882   0.393  1.2778 -0.6297  1.8598
10421SOL    HW232163   1.100   5.768   0.499 -1.5219 -0.0617  1.2334
10422SOL     OW32164   6.438   5.423   5.537 -0.2479 -0.4819 -0.6240
10422SOL    HW132165   6.414   5.352   5.471  1.2555 -0.6354 -1.0500
10422SOL    HW232166   6.397   5.401   5.626 -0.0163 -1.7654 -0.8124
10423SOL     OW32167   4.535   0.117   1.696 -0.2100  0.0164  0.5666
10423SOL    HW132168   4.540   0.110   1.796  3.4900 -0.2537  0.5254
10423SOL    HW232169   4.594   0.192   1.666 -0.5178 -0.5112 -1.4639
10424SOL     OW32170   0.937   1.778   2.305 -0.4691  0.2898  0.1686
10424SOL    HW132171   1.027   1.749   2.336 -0.3307  1.6799  1.1361
10424SOL    HW232172   0.945   1.832   2.222 -0.3581  0.8849  0.5664
10425SOL     OW32173   6.377   2.128   2.615 -0.0343 -0.2656  0.2092
10425SOL    HW132174   6.354   2.153   2.521 -0.4542 -0.5243  0.2432
10425SOL    HW232175   6.465   2.080   2.615 -0.4427 -1.0335 -0.1583
10426SOL     OW32176   0.443   6.544   1.019  0.2799 -0.1896  0.0540
10426SOL    HW132177   0.347   6.574   1.014  0.4399  0.2443 -0.5496
10426SOL    HW232178   0.484   6.577   1.103 -0.5702 -1.8055  1.1504
10427SOL     OW32179   3.055   0.466   0.975  0.3289  0.2012  0.3090
10427SOL    HW132180   2.981   0.478   1.041  0.4874  0.6659  0.4023
10427SOL    HW232181   3.099   0.554   0.957  0.7192 -0.0355  0.0893
10428SOL     OW32182   5.351   4.724   5.332  0.1563  0.1505  0.1602
10428SOL    HW132183   5.421   4.796   5.329 -0.6831  1.0267  0.8514
10428SOL    HW232184   5.349   4.683   5.423 -0.6457  0.5944  0.3619
10429SOL     OW32185   4.471   0.004   3.399 -0.0686  0.3703  0.0387
10429SOL    HW132186   4.480  -0.077   3.458 -0.5839  0.6511  0.5183
10429SOL    HW232187   4.383   0.000   3.351  0.1633  0.3576 -0.3907
10430SOL     OW32188   2.111   3.523   0.544 -0.2467 -0.1447  0.2638
10430SOL    HW132189   2.110   3.443   0.485  0.7521 -0.1686  0.2647
10430SOL    HW232190   2.123   3.605   0.488  0.7880 -0.1746  0.4286
10431SOL     OW32191   5.893   6.088   1.228 -0.2753 -0.2972 -0.9291
10431SOL    HW132192   5.944   6.152   1.285 -0.6589 -1.8744  1.3232
10431SOL    HW232193   5.795   6.105   1.237 -0.3767 -1.1113 -0.3793
10432SOL     OW32194   5.038   1.338   5.433 -0.1028  0.4517 -0.0578
10432SOL    HW132195   4.939   1.350   5.430 -0.2697 -1.0231 -1.3500
10432SOL    HW232196   5.077   1.361   5.344  0.3929 -1.2898 -0.3303
10433SOL     OW32197   6.354   6.870   6.326 -0.1643 -0.0395 -0.3124
10433SOL    HW132198   6.402   6.782   6.330  1.5681  0.9134  1.0357
10433SOL    HW232199   6.285   6.873   6.398 -2.6338 -1.5400 -2.4560
10434SOL     OW32200   3.529   1.660   1.060 -0.1933  0.0498  0.1568
10434SOL    HW132201   3.525   1.732   1.129  1.0337  1.7025 -1.3923
10434SOL    HW232202   3.618   1.664   1.014 -0.1333 -2.4322 -0.0531
10435SOL     OW32203   6.936   5.465   6.688 -0.1858  0.2228  0.7938
10435SOL    HW132204   7.003   5.410   6.638  1.4873  2.2827  0.6805
10435SOL    HW232205   6.874   5.509   6.623  0.5222  1.0338  0.6524
10436SOL     OW32206   6.882   2.073   2.312  0.4845  0.4274 -0.2323
10436SOL    HW132207   6.791   2.092   2.272 -0.0892  1.3784  1.4457
10436SOL    HW232208   6.898   2.134   2.389  1.5932 -1.2966  0.9671
10437SOL     OW32209   1.880   6.508   5.537  0.0384  0.0856  0.3046
10437SOL    HW132210   1.807   6.472   5.595  0.3691 -1.2008 -0.0450
10437SOL    HW232211   1.964   6.517   5.590  0.0612 -0.0593  0.2938
10438SOL     OW32212   6.975   4.427   2.344  0.0419  0.3967  0.5580
10438SOL    HW132213   7.037   4.465   2.412  2.2330 -1.5250 -0.2554
10438SOL    HW232214   6.984   4.479   2.258 -1.3774  1.6565  1.1128
10439SOL     OW32215   6.451   7.018   0.614  0.2018 -0.1439 -0.5041
10439SOL    HW132216   6.457   7.113   0.643 -1.4993 -0.4099  0.8540
10439SOL    HW232217   6.356   6.995   0.593  0.4323 -1.7662  0.0842
10440SOL     OW32218   0.356   4.875   0.048  0.6015 -0.5839 -0.7387
10440SOL    HW132219   0.444   4.850   0.008  0.5223  1.5152 -2.3986
10440SOL    HW232220   0.358   4.971   0.077 -0.8404 -0.7573  0.0395
10441SOL     OW32221   5.870   4.826   6.760 -0.0988 -0.1469 -0.8945
10441SOL    HW132222   5.916   4.901   6.806 -0.9075 -0.8638  1.1754
10441SOL    HW232223   5.818   4.861   6.682  0.8104  1.1765 -0.9449
10442SOL     OW32224   5.560   5.556   6.025 -0.6222 -0.4815 -0.0467
10442SOL    HW132225   5.510   5.477   6.060  0.2829 -1.0419  0.0253
10442SOL    HW232226   5.570   5.548   5.925 -0.0442 -0.7604  0.0267
10443SOL     OW32227   6.151   6.211   5.467  0.6628 -0.7786 -0.2715
10443SOL    HW132228   6.251   6.209   5.465  0.8145  2.2747 -0.8917
10443SOL    HW232229   6.114   6.159   5.389  1.9269  0.6696 -1.9139
10444SOL     OW32230   1.298   5.843   1.313  0.6863  0.0422  0.5707
10444SOL    HW132231   1.234   5.830   1.238  0.0314 -0.3556  1.1848
10444SOL    HW232232   1.357   5.763   1.321  0.0129 -0.4026  1.1745
10445SOL     OW32233   2.390   6.391   5.367 -0.1140 -0.3566  0.0467
10445SOL    HW132234   2.343   6.309   5.398 -1.3013  0.1066 -0.4720
10445SOL    HW232235   2.332   6.471   5.382  1.6343  0.6536  2.0656
10446SOL     OW32236   6.743   0.843   1.503 -0.2289 -0.5948 -0.3700
10446SOL    HW132237   6.794   0.892   1.573  1.1170 -1.5032 -0.6766
10446SOL    HW232238   6.721   0.905   1.427 -0.4865  0.0509  0.2261
10447SOL     OW32239   1.093   2.194   5.021  0.0463 -0.2994 -0.7938
10447SOL    HW132240   1.154   2.135   5.074  1.3543  0.1219 -1.7499
10447SOL    HW232241   1.144   2.233   4.944 -1.3941  0.2668 -1.5039
10448SOL     OW32242   5.665   4.881   1.272  0.0320  0.0880 -0.0290
10448SOL    HW132243   5.713   4.837   1.347  0.2362  0.7797  0.2499
10448SOL    HW232244   5.578   4.917   1.304 -0.0913 -0.0200 -0.2349
10449SOL     OW32245   1.057   5.663   0.768  1.1125 -0.0382 -0.9483
10449SOL    HW132246   1.061   5.616   0.679  1.2417  0.4748 -1.2166
10449SOL    HW232247   1.099   5.605   0.838  3.6058  0.6883 -1.7207
10450SOL     OW32248   1.534   0.260   1.192 -0.1861 -0.3611 -0.3577
10450SOL    HW132249   1.604   0.316   1.148 -0.8080 -1.1400 -2.4356
10450SOL    HW232250   1.485   0.316   1.259  0.2127  1.1414 -1.2698
10451SOL     OW32251   2.290   2.007   1.458 -0.0963  0.3382 -0.2045
10451SOL    HW132252   2.305   2.013   1.557  0.5349  0.7653 -0.3167
10451SOL    HW232253   2.311   1.915   1.427  0.6857  0.4676 -0.0847
10452SOL     OW32254   6.474   5.924   0.840  0.0298 -0.8462  0.2228
10452SOL    HW132255   6.438   6.017   0.829 -1.1084 -1.1844  0.8652
10452SOL    HW232256   6.520   5.896   0.756 -1.0593 -0.3039 -0.5764
10453SOL     OW32257   2.332   6.005   4.218  0.5310 -0.3395  0.3181
10453SOL    HW132258   2.399   6.013   4.144  0.5605 -0.2535  0.3540
10453SOL    HW232259   2.377   6.021   4.306 -0.0261  2.3567  0.1901
10454SOL     OW32260   0.513   0.956   0.255 -0.0224 -0.1222 -0.4314
10454SOL    HW132261   0.540   0.863   0.279  1.9697  0.9431  2.0105
10454SOL    HW232262   0.593   1.006   0.222 -1.0535  0.7729 -1.6684
10455SOL     OW32263   3.195   5.339   2.900  0.2639  0.3076  0.1965
10455SOL    HW132264   3.110   5.357   2.849 -1.2345 -0.7186  2.1997
10455SOL    HW232265   3.216   5.241   2.895  1.5456  0.5927 -0.5216
10456SOL     OW32266   0.867   2.373   6.026 -0.4612 -0.1548  0.2661
10456SOL    HW132267   0.819   2.446   5.978  0.5239 -0.4199 -1.1912
10456SOL    HW232268   0.911   2.410   6.108  1.9131  1.4810 -1.5984
10457SOL     OW32269   1.993   1.639   6.735 -0.1770  0.0120 -0.2464
10457SOL    HW132270   2.068   1.632   6.669 -0.7128  0.3941 -0.9104
10457SOL    HW232271   1.937   1.719   6.714 -0.7639 -0.2575  0.2502
10458SOL     OW32272   2.544   1.059   3.776  0.1666 -0.0641  0.6575
10458SOL    HW132273   2.584   1.024   3.691  1.0159 -0.3892  1.1755
10458SOL    HW232274   2.478   1.130   3.755  1.6780  1.1487 -0.1969
10459SOL     OW32275   6.791   2.264   5.812 -0.5009  0.3144 -0.2516
10459SOL    HW132276   6.867   2.201   5.826 -0.6326  0.2410  0.1385
10459SOL    HW232277   6.711   2.232   5.863 -0.8547  0.2823 -0.8176
10460SOL     OW32278   6.360   3.358   4.684 -0.1085 -0.2124 -0.2244
10460SOL    HW132279   6.376   3.428   4.754 -0.8155 -1.5838  1.3662
10460SOL    HW232280   6.402   3.272   4.712 -2.0230 -1.3105 -0.5119
10461SOL     OW32281   5.856   4.685   0.865 -0.5919 -0.0106  0.4079
10461SOL    HW132282   5.781   4.752   0.867 -0.4320  0.1479  1.6779
10461SOL    HW232283   5.820   4.594   0.886 -0.7361 -0.2793 -0.9020
10462SOL     OW32284   2.417   1.653   3.487 -0.4181  0.2169 -0.2026
10462SOL    HW132285   2.388   1.701   3.404 -0.6999  1.4256  0.5752
10462SOL    HW232286   2.364   1.570   3.498 -3.1632  1.9818  0.7847
10463SOL     OW32287   2.661   0.210   6.708  0.2789  0.0362 -0.6447
10463SOL    HW132288   2.746   0.159   6.720  1.0994  0.4782 -3.7300
10463SOL    HW232289   2.591   0.173   6.768  2.3491 -0.9995  1.2686
10464SOL     OW32290   2.943   3.841   6.307 -0.6310  0.1602  0.9246
10464SOL    HW132291   2.878   3.917   6.297  0.2648  0.8267 -0.0311
10464SOL    HW232292   2.917   3.766   6.246 -0.4502  0.4728  0.4579
10465SOL     OW32293   6.369   4.622   2.192 -0.4916 -0.2223  0.0708
10465SOL    HW132294   6.368   4.664   2.102 -1.2244  0.0003  0.1817
10465SOL    HW232295   6.283   4.575   2.209 -0.5240  0.0880  0.8181
10466SOL     OW32296   2.542   0.027   4.654  0.2499  0.5776 -0.5068
10466SOL    HW132297   2.572   0.073   4.738  0.8212  1.3629 -1.1301
10466SOL    HW232298   2.463   0.075   4.616 -2.8857 -2.2177  1.8390
10467SOL     OW32299   5.668   3.961   5.176  0.1756 -0.0752  0.2291
10467SOL    HW132300   5.760   3.989   5.150 -0.6942  1.3037 -1.5846
10467SOL    HW232301   5.608   3.965   5.096 -1.5398 -0.6307  1.4313
10468SOL     OW32302   6.108   5.132   2.798  0.6732 -0.2922  0.1048
10468SOL    HW132303   6.119   5.147   2.700  1.2596  0.2379  0.2488
10468SOL    HW232304   6.056   5.048   2.813  0.3886 -0.2579 -0.6602
10469SOL     OW32305   1.673   4.335   6.207  0.1564  1.2738  0.4904
10469SOL    HW132306   1.763   4.296   6.225 -0.3982 -1.3059 -1.6451
10469SOL    HW232307   1.679   4.399   6.130  0.2726  1.7614  0.8980
10470SOL     OW32308   6.397   4.101   4.777 -0.4580  0.0665  0.1471
10470SOL    HW132309   6.344   4.034   4.830  0.8026 -2.9704 -2.1184
10470SOL    HW232310   6.339   4.137   4.703 -0.4394 -0.4412 -0.1200
10471SOL     OW32311   2.261   3.242   1.269 -0.0259  0.4143  0.1348
10471SOL    HW132312   2.292   3.215   1.360  0.4078 -1.4051 -0.5213
10471SOL    HW232313   2.329   3.214   1.201 -0.7265  1.0132 -0.8319
10472SOL     OW32314   3.290   6.270   2.536  0.4924  0.1939 -0.5315
10472SOL    HW132315   3.199   6.293   2.569  0.4046 -0.9029  0.0217
10472SOL    HW232316   3.355   6.342   2.563 -0.3927  1.6424 -2.0284
10473SOL     OW32317   5.255   6.001   2.219  0.0010 -0.6559  0.2948
10473SOL    HW132318   5.201   5.969   2.141 -1.0758  2.0655 -0.1900
10473SOL    HW232319   5.352   5.979   2.204 -0.0086  0.6126 -2.3747
10474SOL     OW32320   0.500   0.603   0.454 -0.0210  0.1664  0.2674
10474SOL    HW132321   0.531   0.631   0.545 -0.6813 -0.3450  0.6566
10474SOL    HW232322   0.401   0.613   0.448  0.0592  0.6041 -0.5488
10475SOL     OW32323   6.628   3.554   1.841  0.2999  0.2779  0.2800
10475SOL    HW132324   6.717   3.563   1.794  0.9087 -1.2409  1.0502
10475SOL    HW232325   6.565   3.505   1.781 -0.2506  1.8951 -0.5136
10476SOL     OW32326   6.141   0.287   1.592 -0.4730  0.5965 -0.3801
10476SOL    HW132327   6.207   0.336   1.534  0.0431 -0.6573 -0.8810
10476SOL    HW232328   6.081   0.354   1.637  2.1300  1.9610  1.3881
10477SOL     OW32329   5.261   0.296   4.829 -0.6582 -0.0649 -0.1848
10477SOL    HW132330   5.352   0.296   4.788  0.2915 -1.5770  1.7606
10477SOL    HW232331   5.211   0.214   4.800 -0.8614  0.0293 -0.1027
10478SOL     OW32332   1.619   4.063   5.438  0.2983  0.4961 -0.6360
10478SOL    HW132333   1.600   4.115   5.355  2.4557 -0.5757 -1.8812
10478SOL    HW232334   1.718   4.048   5.446  0.0625 -0.2808  1.6264
10479SOL     OW32335   6.384   1.757   2.219 -0.2941 -0.1571  0.4860
10479SOL    HW132336   6.378   1.765   2.120  2.1308 -0.6802  0.2461
10479SOL    HW232337   6.300   1.793   2.260 -0.3360  2.4545 -1.6297
10480SOL     OW32338   1.464   2.179   4.720 -0.3929 -0.0096  0.2421
10480SOL    HW132339   1.447   2.095   4.772  2.1133 -0.2847  0.7012
10480SOL    HW232340   1.531   2.235   4.767  0.9999  0.3560 -2.0079
10481SOL     OW32341   4.089   3.798   0.903 -0.3773  0.2687 -0.6394
10481SOL    HW132342   4.105   3.866   0.831  2.9058 -0.9701 -1.2216
10481SOL    HW232343   4.140   3.823   0.985 -1.8921  0.2262  0.3518
10482SOL     OW32344   4.031   5.606   1.758  0.6907 -0.1290 -0.0769
10482SOL    HW132345   4.065   5.543   1.688 -1.1628  0.1365 -1.2932
10482SOL    HW232346   3.961   5.559   1.813 -0.0393  0.5714 -0.3938
10483SOL     OW32347   3.511   5.781   4.514 -0.3315 -0.0565  0.3193
10483SOL    HW132348   3.603   5.742   4.511  0.1023  0.9646 -1.7113
10483SOL    HW232349   3.478   5.795   4.420 -1.8937  1.1112  0.9999
10484SOL     OW32350   5.983   3.307   2.976  0.0543 -0.1791  0.5179
10484SOL    HW132351   6.074   3.266   2.970 -0.6836 -1.6923 -1.2513
10484SOL    HW232352   5.985   3.399   2.936  0.7461 -0.2879  0.2910
10485SOL     OW32353   1.869   1.016   3.754  0.6187  0.2599  0.8651
10485SOL    HW132354   1.884   1.112   3.728 -1.3309  0.2593 -0.4715
10485SOL    HW232355   1.953   0.964   3.739  1.5881  1.6465  1.2073
10486SOL     OW32356   5.292   2.994   2.224 -0.6000  0.1201 -0.7902
10486SOL    HW132357   5.350   2.940   2.163 -0.5461  0.1900 -0.8018
10486SOL    HW232358   5.231   3.052   2.169 -0.0327  0.7382 -0.7839
10487SOL     OW32359   2.769   1.085   5.677 -0.0629  0.0939 -0.4711
10487SOL    HW132360   2.733   1.014   5.738  1.0509 -0.6250 -0.6260
10487SOL    HW232361   2.804   1.161   5.731 -0.5863  0.2014 -0.2783
10488SOL     OW32362   3.316   2.887   3.324 -0.3102 -0.0539 -0.3411
10488SOL    HW132363   3.400   2.914   3.370 -1.6756 -0.6840  2.7934
10488SOL    HW232364   3.267   2.820   3.380 -2.1500 -0.9482 -2.8084
10489SOL     OW32365   4.252   1.389   2.701 -0.5505  0.6494 -0.2978
10489SOL    HW132366   4.174   1.333   2.673 -0.1963 -0.3270  0.6014
10489SOL    HW232367   4.332   1.363   2.647 -0.2544 -0.1082  0.4916
10490SOL     OW32368   1.245   4.303   0.310  0.1558 -0.2583 -0.2536
10490SOL    HW132369   1.222   4.275   0.217  0.6006  0.2101 -0.5101
10490SOL    HW232370   1.170   4.358   0.347  0.2954  0.1843 -0.6165
10491SOL     OW32371   5.645   4.187   3.350 -0.4110 -0.0866  0.5023
10491SOL    HW132372   5.627   4.151   3.259  2.1404 -1.4267  0.4405
10491SOL    HW232373   5.638   4.114   3.417  0.9869  0.1155  0.9030
10492SOL     OW32374   2.612   5.088   0.622  0.5492  0.3701 -0.3776
10492SOL    HW132375   2.707   5.092   0.591  0.3948  1.8439 -0.7503
10492SOL    HW232376   2.593   5.167   0.680  0.4107 -1.5878  2.3947
10493SOL     OW32377   5.079   4.184   1.280  0.2666 -0.3853  0.0995
10493SOL    HW132378   5.032   4.098   1.259 -0.7230  0.3920 -1.0430
10493SOL    HW232379   5.068   4.205   1.377 -4.0767  0.9876 -0.4551
10494SOL     OW32380   1.611   1.888   3.015 -0.0988 -0.2034 -0.0223
10494SOL    HW132381   1.670   1.813   3.045  2.2963  1.4035 -0.4034
10494SOL    HW232382   1.651   1.931   2.934 -1.3808  1.5241  0.2104
10495SOL     OW32383   1.680   2.883   4.828 -0.4618  0.2684 -0.2734
10495SOL    HW132384   1.630   2.958   4.871 -1.1688  0.1379 -0.8481
10495SOL    HW232385   1.622   2.801   4.828  0.6912 -0.6067  1.3498
10496SOL     OW32386   2.660   5.441   5.022  0.5103 -0.0091 -0.3168
10496SOL    HW132387   2.637   5.531   4.986  1.4429 -0.0910 -1.1620
10496SOL    HW232388   2.576   5.389   5.038 -0.0989  1.3312  1.1046
10497SOL     OW32389   5.313   4.632   5.632  1.0218  0.0348 -0.0205
10497SOL    HW132390   5.384   4.667   5.693  0.0568 -0.7475  1.6478
10497SOL    HW232391   5.263   4.559   5.679 -1.2705  0.9728 -0.8715
10498SOL     OW32392   6.673   0.930   4.694  0.1206 -0.3048 -0.3522
10498SOL    HW132393   6.768   0.930   4.663  0.7505 -1.1807  1.4444
10498SOL    HW232394   6.634   0.838   4.683 -0.4988  0.0159 -0.9522
10499SOL     OW32395   5.013   3.806   5.897  0.0641 -0.7694  0.1229
10499SOL    HW132396   5.061   3.726   5.934  3.2193  0.3165 -1.2638
10499SOL    HW232397   5.003   3.875   5.968  0.4011 -1.1120  0.5117
10500SOL     OW32398   4.857   6.368   0.662 -0.0819 -0.4616 -0.0014
10500SOL    HW132399   4.906   6.350   0.748 -1.0665  1.0631  0.9171
10500SOL    HW232400   4.779   6.306   0.656  0.9762 -1.7795 -0.6840
10501SOL     OW32401   2.627   5.663   7.010  0.3404  0.0922  0.1914
10501SOL    HW132402   2.715   5.681   6.967  1.3680  1.4482  2.6581
10501SOL    HW232403   2.591   5.747   7.049 -1.0962 -0.8272  0.9565
10502SOL     OW32404   0.582   5.035   1.125 -0.0601  0.2220  0.4316
10502SOL    HW132405   0.525   5.000   1.199 -0.5859 -2.4459 -1.1055
10502SOL    HW232406   0.665   5.075   1.163 -0.3733 -0.9502  2.4929
10503SOL     OW32407   1.741   4.704   6.437 -0.3282 -0.2998  0.4899
10503SOL    HW132408   1.658   4.648   6.436 -0.2265 -0.5647 -2.7772
10503SOL    HW232409   1.786   4.698   6.348  2.0531  1.5765  1.4758
10504SOL     OW32410   1.366   5.629   1.041  0.5715 -0.6656 -0.0614
10504SOL    HW132411   1.267   5.620   1.032  0.1097  1.8535  1.3661
10504SOL    HW232412   1.392   5.622   1.138  1.2260  2.1181  0.0641
10505SOL     OW32413   0.455   6.809   6.910  0.4897  0.6401  0.5779
10505SOL    HW132414   0.515   6.769   6.979  0.5014  0.5707  0.5273
10505SOL    HW232415   0.381   6.746   6.889 -1.4435  1.9639  2.9638
10506SOL     OW32416   2.368   6.119   6.552  0.3620 -0.4806  0.1037
10506SOL    HW132417   2.291   6.176   6.580  0.5388 -0.2217  0.0595
10506SOL    HW232418   2.450   6.145   6.604  0.3957 -0.8248  0.2258
10507SOL     OW32419   6.194   4.587   6.271  0.4810  0.4425  0.1532
10507SOL    HW132420   6.172   4.548   6.182 -0.2488  0.6419  0.2416
10507SOL    HW232421   6.292   4.573   6.290  0.9967  1.7505 -1.3467
10508SOL     OW32422   2.722   6.689   0.618 -0.2459 -0.0562 -0.2195
10508SOL    HW132423   2.724   6.753   0.696  0.4592  0.5887 -0.7450
10508SOL    HW232424   2.714   6.596   0.652 -2.2675  0.3432  0.5398
10509SOL     OW32425   2.218   0.962   4.775  0.1238  0.3090 -0.2498
10509SOL    HW132426   2.283   1.035   4.794  1.1979 -0.2534 -1.5576
10509SOL    HW232427   2.202   0.909   4.858 -0.4898  1.8504  0.6580
10510SOL     OW32428   2.677   4.676   3.437 -0.2872 -0.6497  0.4214
10510SOL    HW132429   2.617   4.605   3.400 -0.7387 -0.3105  0.5032
10510SOL    HW232430   2.698   4.742   3.366  0.0661 -0.8153  0.3688
10511SOL     OW32431   7.019   6.860   4.781 -0.2861 -0.1911  0.5270
10511SOL    HW132432   7.006   6.884   4.685 -0.5696  1.1817  0.8789
10511SOL    HW232433   7.038   6.762   4.789  2.8321  0.1481 -1.1982
10512SOL     OW32434   2.490   1.898   2.984  0.0538  0.0467 -0.0630
10512SOL    HW132435   2.513   1.965   2.914 -0.5518  0.0330 -0.2793
10512SOL    HW232436   2.436   1.942   3.056 -4.1413 -0.9887 -2.2647
10513SOL     OW32437   0.316   2.622   2.458  0.7072 -0.4455 -0.3786
10513SOL    HW132438   0.408   2.625   2.497  1.3951  0.9312 -1.9759
10513SOL    HW232439   0.308   2.543   2.397 -0.1160 -2.1410  1.7833
10514SOL     OW32440   5.059   2.915   5.817  0.0071  0.0872 -0.2081
10514SOL    HW132441   5.018   2.986   5.874  0.1513 -0.2655  0.3420
10514SOL    HW232442   4.992   2.881   5.752 -0.4581 -0.2152  0.4252
10515SOL     OW32443   1.556   5.088   6.418  0.1324  0.1417  0.3189
10515SOL    HW132444   1.606   5.023   6.476  1.4778 -1.2088 -2.1600
10515SOL    HW232445   1.458   5.070   6.424  0.4291 -1.7505  0.2217
10516SOL     OW32446   5.643   0.164   5.265  0.0700  0.1887 -0.1039
10516SOL    HW132447   5.565   0.200   5.214 -0.3883  0.3131  0.6627
10516SOL    HW232448   5.610   0.120   5.348  0.7475 -0.6407 -0.2666
10517SOL     OW32449   0.934   4.514   3.781  0.2493 -1.1066  0.3569
10517SOL    HW132450   0.939   4.512   3.681  0.1276 -0.4299  0.3332
10517SOL    HW232451   1.012   4.566   3.817 -0.8097  0.4197  0.5093
10518SOL     OW32452   5.745   2.814   5.859 -0.4632  0.1049  0.1040
10518SOL    HW132453   5.646   2.830   5.862 -0.5700 -0.5783  0.3215
10518SOL    HW232454   5.763   2.716   5.856  0.1397  0.2325 -2.7427
10519SOL     OW32455   0.635   0.071   6.604  0.0356 -0.1923 -0.3740
10519SOL    HW132456   0.727   0.108   6.618  1.3058 -1.5683 -4.0200
10519SOL    HW232457   0.598   0.042   6.692  4.2928 -2.2132  1.0592
10520SOL     OW32458   1.522   6.669   3.083  0.3946 -0.1107  0.3356
10520SOL    HW132459   1.620   6.685   3.075  0.1705  1.6538  0.6982
10520SOL    HW232460   1.503   6.616   3.166  1.0198 -0.2650  0.3813
10521SOL     OW32461   4.616   0.206   0.822  0.1447  0.1090 -0.2185
10521SOL    HW132462   4.545   0.244   0.763  0.0474 -0.1310 -0.2569
10521SOL    HW232463   4.639   0.113   0.792  0.7395  0.3211 -0.4312
10522SOL     OW32464   2.717   2.395   3.304  1.0206 -0.4234  0.2364
10522SOL    HW132465   2.734   2.398   3.205  1.3585 -0.1386  0.3006
10522SOL    HW232466   2.640   2.454   3.327 -0.3128 -1.9712 -0.1013
10523SOL     OW32467   3.490   1.375   3.824  0.0088  0.0692  0.6342
10523SOL    HW132468   3.543   1.445   3.776  0.2152  0.9855  2.1404
10523SOL    HW232469   3.405   1.415   3.858  0.0792 -0.4340  1.4244
10524SOL     OW32470   4.165   6.031   5.586  0.8090  0.2662 -0.0286
10524SOL    HW132471   4.101   6.002   5.657 -0.4504  0.5678 -1.0167
10524SOL    HW232472   4.164   6.130   5.579  2.0917  0.3380  0.5714
10525SOL     OW32473   4.568   6.756   5.616 -0.1520 -0.2161 -0.0130
10525SOL    HW132474   4.519   6.685   5.565  0.2660 -0.0902 -0.5973
10525SOL    HW232475   4.530   6.846   5.593  0.2301 -0.1342 -0.3269
10526SOL     OW32476   4.231   5.331   1.875 -0.0685 -0.0272  0.4236
10526SOL    HW132477   4.185   5.352   1.789 -2.4482  1.4280  1.9179
10526SOL    HW232478   4.327   5.358   1.869  0.2384 -1.3849 -2.2074
10527SOL     OW32479   4.971   6.875   5.902  0.6307  0.5443 -0.3752
10527SOL    HW132480   5.056   6.824   5.917  0.7640  1.0729  0.7131
10527SOL    HW232481   4.933   6.848   5.813  1.2387 -0.6698 -0.3022
10528SOL     OW32482   5.982   3.002   3.099 -0.5179  0.2140  0.3199
10528SOL    HW132483   6.028   3.077   3.052  0.2033 -1.1302 -1.1916
10528SOL    HW232484   5.914   3.040   3.163 -1.2835  2.1332 -1.5111
10529SOL     OW32485   6.518   6.394   4.005  0.0279  0.5475  0.6283
10529SOL    HW132486   6.577   6.322   4.042  0.7617  0.2178 -1.0770
10529SOL    HW232487   6.572   6.458   3.952 -1.0726  0.4138 -0.7270
10530SOL     OW32488   5.293   4.678   6.895  0.8182 -0.3043 -0.1538
10530SOL    HW132489   5.378   4.683   6.844  1.5536  1.0117  1.1172
10530SOL    HW232490   5.282   4.761   6.950 -1.3017 -0.4295 -0.2896
10531SOL     OW32491   5.306   5.917   0.609  0.1188 -0.0570 -0.0330
10531SOL    HW132492   5.273   5.851   0.540 -0.0123  0.5944 -0.6012
10531SOL    HW232493   5.318   5.870   0.696  1.2463 -1.1333 -0.7299
10532SOL     OW32494   6.566   0.350   4.379 -0.2934  0.3579 -0.3478
10532SOL    HW132495   6.606   0.307   4.460 -2.1619 -0.1679  0.3390
10532SOL    HW232496   6.470   0.371   4.396 -0.5058  1.0155 -2.1437
10533SOL     OW32497   0.971   4.035   1.423  0.0798  0.0920 -0.0237
10533SOL    HW132498   0.881   4.077   1.434  0.3874  0.3009  2.3286
10533SOL    HW232499   0.982   4.001   1.330 -1.4919  2.1978 -1.0484
10534SOL     OW32500   5.132   0.392   6.550 -0.8654 -0.6962 -0.5212
10534SOL    HW132501   5.049   0.391   6.494 -1.0513  1.2807 -0.3358
10534SOL    HW232502   5.198   0.457   6.512  0.1290 -1.3513  0.0235
10535SOL     OW32503   1.132   1.221   4.706  0.0085  0.2933  0.1294
10535SOL    HW132504   1.065   1.265   4.766 -0.8730 -0.1639 -0.4920
10535SOL    HW232505   1.167   1.288   4.641 -0.6612  0.3012 -0.2362
10536SOL     OW32506   0.786   6.183   0.602  0.3648 -0.0039 -0.5543
10536SOL    HW132507   0.734   6.128   0.537  1.4789  0.5143 -1.9428
10536SOL    HW232508   0.776   6.144   0.694  1.6438 -2.9942 -1.5310
10537SOL     OW32509   4.994   6.369   5.452  0.7953 -0.0374  0.5860
10537SOL    HW132510   5.064   6.298   5.462  0.1718 -0.5929  1.0627
10537SOL    HW232511   5.032   6.445   5.400  0.9491 -1.4810 -1.5871
10538SOL     OW32512   5.631   3.369   6.304  0.2875  0.2567  0.1339
10538SOL    HW132513   5.699   3.441   6.291  0.8627 -0.1750  0.7072
10538SOL    HW232514   5.590   3.377   6.395  1.4914 -1.0717  0.8254
10539SOL     OW32515   7.000   6.464   0.980  0.3825 -0.4339  0.8527
10539SOL    HW132516   6.992   6.397   1.054 -2.1299 -0.4025  0.6812
10539SOL    HW232517   6.929   6.534   0.991 -0.3921 -0.7074 -1.8671
10540SOL     OW32518   4.191   4.974   2.122 -0.5701 -0.4849  0.3588
10540SOL    HW132519   4.199   5.042   2.195 -0.9247 -1.5624  1.4365
10540SOL    HW232520   4.214   5.016   2.034 -0.3826  0.9060  1.0506
10541SOL     OW32521   4.807   4.499   1.013 -0.1266  0.1170  0.0202
10541SOL    HW132522   4.756   4.573   1.056  1.2533  1.2935 -0.2823
10541SOL    HW232523   4.744   4.424   0.990 -1.0687 -0.2153  3.1884
10542SOL     OW32524   5.952   1.040   3.744 -0.1405 -0.3882  0.0715
10542SOL    HW132525   5.934   1.105   3.819 -0.6383  2.0622 -2.0335
10542SOL    HW232526   5.870   0.987   3.725 -1.1480  1.4190 -0.8934
10543SOL     OW32527   5.202   5.646   0.528  0.1702  0.0500 -0.0578
10543SOL    HW132528   5.166   5.612   0.615 -0.2881  1.0913  0.1663
10543SOL    HW232529   5.136   5.630   0.456  0.5431 -0.7979 -0.2268
10544SOL     OW32530   1.315   4.004   5.919 -1.0273 -0.1986  0.9571
10544SOL    HW132531   1.290   3.910   5.896  0.1981 -0.6792  1.5355
10544SOL    HW232532   1.367   4.045   5.844 -0.3875 -0.4444  1.2667
10545SOL     OW32533   6.667   0.234   3.396  0.3608 -0.1527 -0.0016
10545SOL    HW132534   6.714   0.219   3.483 -0.6573  1.2170  0.8193
10545SOL    HW232535   6.573   0.200   3.402 -0.0825  0.9952 -0.1459
10546SOL     OW32536   1.760   3.594   4.664  0.0727  0.5031 -0.2607
10546SOL    HW132537   1.838   3.582   4.726  1.0988  2.6495 -1.0417
10546SOL    HW232538   1.772   3.535   4.584 -0.6393 -1.3568  0.9329
10547SOL     OW32539   1.811   6.616   2.753  0.1544 -0.2468 -0.4477
10547SOL    HW132540   1.830   6.581   2.662  0.1587  0.5974 -0.7777
10547SOL    HW232541   1.719   6.657   2.755  0.5287  0.6162 -0.3451
10548SOL     OW32542   2.700   5.433   6.237 -0.2523  0.0235  0.3127
10548SOL    HW132543   2.768   5.506   6.243  0.4316 -0.4186 -1.5141
10548SOL    HW232544   2.743   5.350   6.199 -1.0179 -1.3438  2.2507
10549SOL     OW32545   5.939   6.825   0.377  0.1246 -0.6344 -0.0944
10549SOL    HW132546   5.990   6.865   0.454  1.7875 -0.5796 -1.1648
10549SOL    HW232547   5.910   6.733   0.402  0.3206 -0.4865  0.7352
10550SOL     OW32548   1.931   1.923   5.741 -0.2953 -0.1287 -0.0514
10550SOL    HW132549   1.949   1.941   5.644 -0.2254  0.6588  0.1035
10550SOL    HW232550   1.906   1.827   5.753  1.0267 -0.5684 -0.6635
10551SOL     OW32551   2.733   6.085   1.351  0.2226 -0.2314 -0.3088
10551SOL    HW132552   2.828   6.063   1.328  0.6503  0.1246  1.0087
10551SOL    HW232553   2.717   6.183   1.336 -0.4383 -0.5916 -2.1148
10552SOL     OW32554   1.624   6.964   4.538 -0.8384  0.5353 -0.0737
10552SOL    HW132555   1.640   7.060   4.560  0.7273  0.5782 -1.2397
10552SOL    HW232556   1.711   6.917   4.530 -1.5678 -0.8544 -0.1273
10553SOL     OW32557   0.431   1.047   4.395 -0.0774  0.3341 -0.2749
10553SOL    HW132558   0.361   1.076   4.329  1.6373 -1.2718 -3.0071
10553SOL    HW232559   0.439   0.947   4.393  1.9594  0.4407  0.2678
10554SOL     OW32560   5.529   3.917   6.105  0.2571  0.1058  0.7657
10554SOL    HW132561   5.478   3.857   6.043  0.2710 -0.6857  1.5019
10554SOL    HW232562   5.626   3.896   6.098  0.4266  1.1065 -0.0924
10555SOL     OW32563   5.517   6.293   2.053 -0.5230 -0.4597 -0.3658
10555SOL    HW132564   5.541   6.369   2.113  0.2228 -1.0747  0.1203
10555SOL    HW232565   5.417   6.283   2.050 -0.5976  0.0848  0.1182
10556SOL     OW32566   4.883   5.756   2.024 -0.0238 -0.6036  0.3071
10556SOL    HW132567   4.973   5.798   2.014 -0.1904 -0.7346 -2.4778
10556SOL    HW232568   4.816   5.826   2.049  0.5646 -0.1811  0.7202
10557SOL     OW32569   0.898   4.568   2.963 -0.6216 -0.1083  0.6615
10557SOL    HW132570   0.896   4.638   2.891 -4.7292  0.8887  1.5019
10557SOL    HW232571   0.955   4.600   3.039  1.8486 -0.1491 -1.0493
10558SOL     OW32572   2.618   1.278   5.290 -0.0933  0.3603 -0.1259
10558SOL    HW132573   2.681   1.249   5.218  0.5794  1.5112 -0.0206
10558SOL    HW232574   2.670   1.309   5.370 -0.8075  0.5617  0.2719
10559SOL     OW32575   0.798   0.065   4.835  0.5112 -0.9449  0.3046
10559SOL    HW132576   0.790  -0.035   4.837 -0.4781 -0.8689  1.3412
10559SOL    HW232577   0.890   0.090   4.806  0.3528 -2.1273 -1.4060
10560SOL     OW32578   4.954   3.637   2.826  0.1541  0.2864 -0.0708
10560SOL    HW132579   4.923   3.561   2.770 -2.3266  1.1798 -0.0379
10560SOL    HW232580   4.983   3.713   2.767 -1.8122  0.9761 -0.2211
10561SOL     OW32581   6.750   6.204   1.484 -0.3870 -0.0832 -0.3719
10561SOL    HW132582   6.779   6.198   1.579  0.9004  2.3044 -0.5359
10561SOL    HW232583   6.770   6.118   1.437 -0.1952 -0.9687  1.2722
10562SOL     OW32584   0.739   0.785   4.876  0.1356  0.0089  0.5444
10562SOL    HW132585   0.744   0.862   4.940 -1.3415  0.5749  0.0124
10562SOL    HW232586   0.705   0.817   4.788  1.0223 -0.9846 -0.1887
10563SOL     OW32587   2.407   4.202   6.206  0.1443 -0.6871 -0.4138
10563SOL    HW132588   2.505   4.216   6.197  0.1536  0.2179  0.7859
10563SOL    HW232589   2.365   4.285   6.242 -0.8804 -1.4584  0.2235
10564SOL     OW32590   0.626   1.501   0.078 -0.4254 -0.2424 -0.0601
10564SOL    HW132591   0.670   1.445   0.147  0.1685  1.4232  0.9756
10564SOL    HW232592   0.528   1.478   0.072 -0.3929 -0.6885  1.0288
10565SOL     OW32593   0.451   2.919   1.605  0.1482  0.7243  0.3467
10565SOL    HW132594   0.466   2.824   1.578 -0.4844 -0.4352  3.5549
10565SOL    HW232595   0.491   2.934   1.695 -1.9224  2.7633  1.0185
10566SOL     OW32596   3.145   5.629   4.479  0.9600 -0.3155 -0.3875
10566SOL    HW132597   3.118   5.542   4.437 -0.5166  0.8887 -2.0482
10566SOL    HW232598   3.146   5.618   4.579 -0.2753 -1.9591 -0.5096
10567SOL     OW32599   5.324   6.593   5.759  0.2552 -0.1755  0.3943
10567SOL    HW132600   5.394   6.657   5.727 -0.0578 -0.3460 -0.6822
10567SOL    HW232601   5.316   6.517   5.694 -1.1883  0.0385  0.2874
10568SOL     OW32602   1.775   6.102   4.918 -0.5125  0.1508 -0.1781
10568SOL    HW132603   1.740   6.144   5.002 -0.9274  2.0680 -1.2582
10568SOL    HW232604   1.705   6.105   4.847 -0.0447 -1.1289 -0.7234
10569SOL     OW32605   3.529   5.247   2.052  0.0426  0.1407  0.0941
10569SOL    HW132606   3.581   5.195   2.121  0.2091 -0.7656 -0.6840
10569SOL    HW232607   3.448   5.287   2.095  1.1639  1.2649  1.2485
10570SOL     OW32608   0.261   3.262   2.067  0.3030 -0.1270 -0.6166
10570SOL    HW132609   0.166   3.269   2.097  0.8863  0.6895  1.1667
10570SOL    HW232610   0.291   3.167   2.072  0.4689  0.0022  1.8555
10571SOL     OW32611   2.135   6.051   1.113 -0.2172  0.1341  0.0771
10571SOL    HW132612   2.135   6.117   1.037 -2.1519  0.5833  0.4111
10571SOL    HW232613   2.049   6.060   1.164  0.8391 -0.4941  2.0454
10572SOL     OW32614   5.587   2.672   2.497  0.0608 -0.3691 -0.1994
10572SOL    HW132615   5.596   2.662   2.596  1.6259 -0.5175 -0.3332
10572SOL    HW232616   5.564   2.767   2.475  2.9558  0.4980  0.1746
10573SOL     OW32617   3.418   1.106   1.950  0.1843 -0.3778  0.4185
10573SOL    HW132618   3.509   1.073   1.925  0.2285 -0.0635  0.1543
10573SOL    HW232619   3.349   1.057   1.897  0.3405  1.1249 -1.2623
10574SOL     OW32620   6.270   1.477   4.514  0.0190  0.0228 -1.0340
10574SOL    HW132621   6.346   1.419   4.546 -0.7252 -1.2679 -1.5289
10574SOL    HW232622   6.186   1.424   4.514 -1.0364  1.6279  0.1140
10575SOL     OW32623   3.223   0.327   3.829 -0.0779  0.3271  0.2151
10575SOL    HW132624   3.140   0.379   3.846  0.7913  1.9259 -0.3055
10575SOL    HW232625   3.211   0.270   3.747 -0.8532  0.0637  0.5047
10576SOL     OW32626   3.816   3.262   4.685 -0.5564 -0.1251 -0.2660
10576SOL    HW132627   3.780   3.348   4.649 -2.8446 -1.0044 -0.2502
10576SOL    HW232628   3.859   3.210   4.611  1.2964  1.1791 -0.1808
10577SOL     OW32629   2.552   5.040   5.567 -0.2746 -0.4952  0.3708
10577SOL    HW132630   2.554   5.086   5.656  1.4429  2.1447 -0.8976
10577SOL    HW232631   2.520   4.946   5.579 -1.7542  0.2690  3.4878
10578SOL     OW32632   6.810   0.096   0.438  0.7362 -0.0795  0.1453
10578SOL    HW132633   6.899   0.061   0.466  0.1664 -0.8313  1.0767
10578SOL    HW232634   6.745   0.021   0.431 -0.5894  0.7396  2.4357
10579SOL     OW32635   5.949   5.398   6.755  0.1494 -0.2791  0.5778
10579SOL    HW132636   5.904   5.436   6.835  0.0726 -0.3141  0.5524
10579SOL    HW232637   5.965   5.470   6.688 -2.8446 -0.7203 -0.8254
10580SOL     OW32638   0.961   1.554   5.762 -0.3541  0.5416 -0.4133
10580SOL    HW132639   0.946   1.575   5.859  1.9465  0.5539  0.0109
10580SOL    HW232640   0.902   1.478   5.735 -1.2450  0.7228  0.9088
10581SOL     OW32641   6.297   4.511   3.714 -0.1948  0.9648 -0.0396
10581SOL    HW132642   6.213   4.543   3.670 -0.5229 -2.2422 -2.1125
10581SOL    HW232643   6.274   4.445   3.785  0.5331  2.8752  2.0709
10582SOL     OW32644   4.002   5.623   0.313 -0.0175  0.0337 -0.1235
10582SOL    HW132645   3.960   5.554   0.253  1.0929 -1.1424  0.3923
10582SOL    HW232646   4.016   5.707   0.261  0.3039 -0.7348 -1.3437
10583SOL     OW32647   6.885   6.665   2.763  0.4167 -0.5281 -0.2796
10583SOL    HW132648   6.885   6.759   2.729  0.5453 -1.0909 -1.9278
10583SOL    HW232649   6.972   6.622   2.743  0.2309 -1.1201  0.1549
10584SOL     OW32650   3.422   6.140   1.633  0.0059  0.4780  0.5872
10584SOL    HW132651   3.509   6.184   1.654 -0.2292  0.7551  0.9927
10584SOL    HW232652   3.436   6.042   1.619  0.3354  0.4778  0.9169
10585SOL     OW32653   0.165   5.895   4.250 -0.0168  0.1204  0.6331
10585SOL    HW132654   0.218   5.935   4.175 -0.7427 -1.4796 -0.7951
10585SOL    HW232655   0.067   5.901   4.229 -0.2021 -1.0627  1.0725
10586SOL     OW32656   0.637   3.480   4.803  0.0729  0.3968 -0.1099
10586SOL    HW132657   0.634   3.578   4.781  0.2379  0.1919 -1.1196
10586SOL    HW232658   0.591   3.429   4.730  2.2603 -0.4692 -0.9812
10587SOL     OW32659   0.449   4.980   5.927 -0.3500  1.1631  0.2492
10587SOL    HW132660   0.373   5.045   5.934  1.3754  3.0981  2.0659
10587SOL    HW232661   0.529   5.026   5.890  0.1937 -0.6950 -1.0678
10588SOL     OW32662   2.919   4.767   2.141 -0.3367  0.0291  0.0002
10588SOL    HW132663   2.882   4.707   2.070  1.0137  0.2854 -0.9828
10588SOL    HW232664   2.931   4.716   2.226 -1.5759 -0.4063 -0.0768
10589SOL     OW32665   3.128   5.047   0.838 -0.0282  0.0640 -0.2011
10589SOL    HW132666   3.066   5.125   0.839  0.5041  0.4855  0.1534
10589SOL    HW232667   3.173   5.041   0.749  0.5047  0.6182  0.0284
10590SOL     OW32668   2.186   6.254   6.681  0.5600 -0.0503 -0.3388
10590SOL    HW132669   2.272   6.291   6.716 -0.3881  1.0036  1.0090
10590SOL    HW232670   2.115   6.325   6.685 -1.0542 -1.6275  1.2994
10591SOL     OW32671   1.270   0.888   2.745 -0.0503  0.7652 -0.4006
10591SOL    HW132672   1.367   0.866   2.758 -0.0306  0.8656 -0.3789
10591SOL    HW232673   1.215   0.833   2.808 -0.0683  0.0952 -0.9881
10592SOL     OW32674   4.001   6.999   5.737  0.1868  0.3804 -0.3323
10592SOL    HW132675   3.915   6.986   5.687  0.0810 -0.8082  0.1290
10592SOL    HW232676   4.078   6.972   5.678  0.0936 -0.5318 -0.0618
10593SOL     OW32677   6.067   4.829   2.868  0.0289 -0.4627 -0.2902
10593SOL    HW132678   6.117   4.745   2.891  0.6956 -0.4850 -1.6626
10593SOL    HW232679   6.073   4.894   2.943  1.5527 -0.7437 -0.1385
10594SOL     OW32680   1.315   0.199   4.643  0.3982 -0.2564  0.7149
10594SOL    HW132681   1.339   0.296   4.639  1.5885 -0.5704 -0.7057
10594SOL    HW232682   1.382   0.150   4.700  0.3107 -0.3757  0.7163
10595SOL     OW32683   4.416   1.394   5.205 -0.3138  0.4243 -0.0434
10595SOL    HW132684   4.453   1.487   5.204 -0.8557  0.6537  0.5892
10595SOL    HW232685   4.453   1.345   5.284 -0.3300  0.2252 -0.1595
10596SOL     OW32686   3.713   6.613   6.122 -0.4018  0.1519  0.1792
10596SOL    HW132687   3.790   6.661   6.164 -0.7000  0.7495  0.0541
10596SOL    HW232688   3.740   6.581   6.031 -0.7281  1.6256 -0.4714
10597SOL     OW32689   5.188   1.577   5.800  0.6691 -0.6563  0.2132
10597SOL    HW132690   5.233   1.544   5.717 -1.3538  0.6796 -1.5260
10597SOL    HW232691   5.208   1.674   5.813 -2.0105  0.1682 -0.9943
10598SOL     OW32692   0.664   0.047   1.209 -0.3853 -0.1122 -0.1217
10598SOL    HW132693   0.738   0.066   1.273  0.1425 -1.2848 -0.3632
10598SOL    HW232694   0.657   0.122   1.143  2.2623 -1.0677 -1.6391
10599SOL     OW32695   2.817   4.919   6.896  0.3005  0.3533  0.1495
10599SOL    HW132696   2.818   4.900   6.798  2.9138  0.1675  0.1646
10599SOL    HW232697   2.728   4.958   6.920 -1.5841 -2.4123 -1.6753
10600SOL     OW32698   1.078   5.894   3.734  0.5993  1.0565 -0.0667
10600SOL    HW132699   1.153   5.829   3.743  1.7588  2.4176  0.5093
10600SOL    HW232700   1.060   5.938   3.822 -2.7386 -1.1356  0.5043
10601SOL     OW32701   6.159   0.008   0.567 -0.8157  0.3577  0.3673
10601SOL    HW132702   6.120   0.088   0.521 -0.7059 -0.2455 -0.8089
10601SOL    HW232703   6.140   0.014   0.665 -1.2256  1.5794  0.2360
10602SOL     OW32704   2.731   2.387   4.368 -0.6337  0.5186  0.3491
10602SOL    HW132705   2.736   2.301   4.419 -0.1620 -0.1295 -0.7326
10602SOL    HW232706   2.651   2.439   4.396  0.6721  1.1629  3.1831
10603SOL     OW32707   6.431   6.756   3.783 -0.4041  0.1377 -0.3319
10603SOL    HW132708   6.399   6.827   3.846  0.2654 -0.7025  1.0067
10603SOL    HW232709   6.453   6.798   3.695  1.6996  1.9740  0.9321
10604SOL     OW32710   0.522   6.532   0.447 -0.0579  0.4206  0.2355
10604SOL    HW132711   0.448   6.586   0.486 -0.0420  1.0244 -0.5375
10604SOL    HW232712   0.512   6.437   0.473 -2.0111  0.1925 -1.1180
10605SOL     OW32713   0.840   0.367   0.714 -0.5807  0.3686  0.7462
10605SOL    HW132714   0.841   0.329   0.622 -2.3280  0.5304  0.6233
10605SOL    HW232715   0.906   0.319   0.771  1.1159  0.7953 -0.7654
10606SOL     OW32716   4.694   5.324   3.637  0.2361 -0.1709  0.3095
10606SOL    HW132717   4.601   5.295   3.659  0.1338 -0.2928 -0.2474
10606SOL    HW232718   4.692   5.418   3.602  0.2244 -0.4246 -0.3868
10607SOL     OW32719   6.769   2.437   3.106  0.6113  0.2398 -0.3738
10607SOL    HW132720   6.821   2.483   3.178 -1.0595  1.5099  0.0858
10607SOL    HW232721   6.680   2.410   3.141 -0.2725  0.9314 -1.9581
10608SOL     OW32722   3.484   3.844   6.163  0.3125  0.1162  0.4231
10608SOL    HW132723   3.513   3.913   6.229 -0.1518  2.4312 -1.6406
10608SOL    HW232724   3.564   3.809   6.113  0.5983 -1.2379  1.7582
10609SOL     OW32725   3.498   0.231   1.750 -0.2029  0.2034  0.0283
10609SOL    HW132726   3.530   0.295   1.820  0.3038  0.6628 -0.6070
10609SOL    HW232727   3.400   0.244   1.735  0.3302  2.7357 -1.9604
10610SOL     OW32728   0.352   0.218   5.754 -0.3230 -0.0591  0.1275
10610SOL    HW132729   0.325   0.301   5.705 -0.9861 -0.6828 -0.5926
10610SOL    HW232730   0.320   0.138   5.703  1.0947 -0.7833  0.3359
10611SOL     OW32731   5.515   4.231   2.940 -0.1666 -0.2948 -0.1471
10611SOL    HW132732   5.548   4.186   2.857  1.0225  3.8760 -2.2241
10611SOL    HW232733   5.415   4.241   2.936 -0.2179 -0.9657 -0.5863
10612SOL     OW32734   1.548   5.783   0.733  0.2034  0.4688 -0.4183
10612SOL    HW132735   1.515   5.689   0.725  1.8102 -0.3985  2.0584
10612SOL    HW232736   1.648   5.783   0.735  0.2885  2.4349 -1.9421
10613SOL     OW32737   4.745   2.407   3.253 -0.9787 -0.2755  0.4952
10613SOL    HW132738   4.650   2.379   3.270 -0.5697 -1.6132  0.7522
10613SOL    HW232739   4.761   2.411   3.154 -1.3070 -0.0337  0.4518
10614SOL     OW32740   4.599   2.141   6.464  0.3733 -0.2048  0.0137
10614SOL    HW132741   4.607   2.231   6.507  0.2485 -0.7824  1.2877
10614SOL    HW232742   4.547   2.080   6.523  1.3916 -1.4384 -0.3176
10615SOL     OW32743   6.456   4.313   0.610 -0.2922 -0.3602 -0.0099
10615SOL    HW132744   6.458   4.254   0.529  2.8030 -1.7765  0.9297
10615SOL    HW232745   6.468   4.257   0.692 -0.2936  1.3199  1.1905
10616SOL     OW32746   2.126   2.376   0.616 -0.2521 -0.2079  0.1964
10616SOL    HW132747   2.106   2.346   0.709  0.7851  1.0151  0.8463
10616SOL    HW232748   2.222   2.356   0.594 -0.7603 -1.4762 -1.0326
10617SOL     OW32749   2.765   1.828   0.015  0.1172 -0.5440 -0.0299
10617SOL    HW132750   2.799   1.762   0.082 -1.4590 -0.4910  0.8972
10617SOL    HW232751   2.665   1.823   0.012  0.1375 -0.4224 -2.2937
10618SOL     OW32752   6.540   6.168   2.206 -0.8847  0.5941 -0.4122
10618SOL    HW132753   6.579   6.127   2.123  0.1230  1.1359 -0.2268
10618SOL    HW232754   6.612   6.178   2.275 -1.2053  2.1649 -0.2653
10619SOL     OW32755   6.604   6.236   0.176 -0.2729  0.2155  0.1353
10619SOL    HW132756   6.625   6.292   0.095  0.2459  0.6410  0.5577
10619SOL    HW232757   6.625   6.140   0.156  0.2796  0.3784 -0.0969
10620SOL     OW32758   1.805   6.444   3.173  0.2394 -0.0456 -0.0412
10620SOL    HW132759   1.839   6.399   3.090 -0.1912  0.0350 -0.2666
10620SOL    HW232760   1.882   6.478   3.226  0.5339 -0.3494 -0.2659
10621SOL     OW32761   4.907   3.841   0.363 -0.0367 -0.0939 -0.3479
10621SOL    HW132762   4.913   3.760   0.421 -0.3212 -0.7988 -1.2764
10621SOL    HW232763   4.994   3.891   0.367  0.0330 -0.2684  0.4730
10622SOL     OW32764   0.446   4.855   3.754 -0.0807 -0.4261 -0.0993
10622SOL    HW132765   0.474   4.800   3.834 -2.9698 -0.6864  0.8478
10622SOL    HW232766   0.513   4.928   3.740  0.7229 -0.5666  2.3571
10623SOL     OW32767   1.223   3.898   5.578 -1.0468 -0.5085  0.1133
10623SOL    HW132768   1.167   3.976   5.549 -1.0564 -1.0342 -1.3261
10623SOL    HW232769   1.249   3.910   5.674  1.1873  2.6565 -0.7094
10624SOL     OW32770   1.776   0.801   3.558 -0.4040  0.4811 -0.0458
10624SOL    HW132771   1.790   0.804   3.657  0.5437  1.8959 -0.1905
10624SOL    HW232772   1.707   0.732   3.536  1.5395 -2.1061  1.3486
10625SOL     OW32773   5.372   1.536   4.815  0.2359 -0.0680 -0.0188
10625SOL    HW132774   5.372   1.487   4.903 -1.2730  0.0032  0.0450
10625SOL    HW232775   5.315   1.487   4.750  0.8525  0.2144 -0.7901
10626SOL     OW32776   2.984   6.320   3.290  0.2877  0.0286  0.4060
10626SOL    HW132777   3.074   6.301   3.250  0.6151  0.8002  0.7689
10626SOL    HW232778   2.913   6.293   3.224  0.7725 -0.6396  0.1400
10627SOL     OW32779   3.874   4.957   3.868  0.2416 -0.0971  0.3521
10627SOL    HW132780   3.953   4.900   3.892  0.0932  0.4957  2.4502
10627SOL    HW232781   3.811   4.960   3.946 -1.2862  0.4021 -0.8682
10628SOL     OW32782   6.383   6.293   1.646  0.0116 -0.0690 -1.2200
10628SOL    HW132783   6.363   6.201   1.679  1.2446 -0.0499 -0.3495
10628SOL    HW232784   6.414   6.350   1.722  1.0893  0.5117 -2.0654
10629SOL     OW32785   0.149   2.064   4.802 -0.2197  0.1694 -0.3074
10629SOL    HW132786   0.184   2.120   4.878 -0.7892 -0.5265  0.4845
10629SOL    HW232787   0.082   2.118   4.750 -1.0767  0.1118  0.6987
10630SOL     OW32788   1.166   2.166   5.495 -0.4716  0.0018  0.1800
10630SOL    HW132789   1.177   2.227   5.574  0.0068 -0.7965  0.7398
10630SOL    HW232790   1.072   2.173   5.461 -0.3783  1.1937  0.1084
10631SOL     OW32791   1.605   2.202   6.396 -0.2362  0.3194 -0.2439
10631SOL    HW132792   1.650   2.114   6.408 -0.1361  0.4101  0.0413
10631SOL    HW232793   1.663   2.263   6.341  0.0618  0.4892  0.2518
10632SOL     OW32794   5.909   3.613   5.275  0.0172  0.4470 -0.5815
10632SOL    HW132795   5.923   3.709   5.297  1.3784 -0.3638  2.6693
10632SOL    HW232796   5.811   3.591   5.279 -0.1854  1.4151 -0.0660
10633SOL     OW32797   3.679   4.992   4.665 -0.2448 -0.2564 -0.3664
10633SOL    HW132798   3.655   5.088   4.647  0.4662  0.1871  0.9328
10633SOL    HW232799   3.722   4.953   4.584 -1.6877  0.1228 -1.3546
10634SOL     OW32800   0.581   1.967   1.782 -0.2682 -0.0607 -0.3947
10634SOL    HW132801   0.593   1.973   1.881 -0.2965  0.3081 -0.4117
10634SOL    HW232802   0.649   1.905   1.744 -0.3465 -0.3114 -0.1260
10635SOL     OW32803   6.084   5.215   1.215 -1.0962 -0.6899  0.0459
10635SOL    HW132804   6.108   5.284   1.146 -0.5241 -1.5725 -0.6672
10635SOL    HW232805   5.987   5.223   1.239 -1.0756  0.2326 -0.1715
10636SOL     OW32806   2.578   1.227   2.599  0.1879 -0.4542  0.0519
10636SOL    HW132807   2.564   1.270   2.688  0.9415  0.7095 -0.3571
10636SOL    HW232808   2.631   1.289   2.540 -0.6389 -1.0243 -1.3472
10637SOL     OW32809   5.147   3.988   0.398 -0.4750 -0.4326  0.2790
10637SOL    HW132810   5.207   4.029   0.330 -0.7487 -1.3375 -0.5401
10637SOL    HW232811   5.137   4.050   0.477 -2.3489  1.9400 -1.6648
10638SOL     OW32812   3.754   5.766   4.103 -0.2447 -0.3221  0.1194
10638SOL    HW132813   3.773   5.779   4.006  2.3843 -0.4293  0.5455
10638SOL    HW232814   3.840   5.757   4.153 -1.4451  1.2214  2.6908
10639SOL     OW32815   0.578   2.617   3.011  0.6915 -0.0533  0.2621
10639SOL    HW132816   0.647   2.639   2.942  0.3446  4.1518  0.9717
10639SOL    HW232817   0.620   2.616   3.101  0.2807 -0.4418  0.4546
10640SOL     OW32818   3.468   6.668   3.973  0.2576  0.3630  0.2552
10640SOL    HW132819   3.407   6.642   3.899  0.1153  2.5537 -0.4758
10640SOL    HW232820   3.435   6.628   4.059 -0.5555 -0.8090 -0.5774
10641SOL     OW32821   0.215   0.830   6.603  0.1430 -0.3114 -0.7688
10641SOL    HW132822   0.229   0.731   6.595  0.4093 -0.2769 -0.7221
10641SOL    HW232823   0.217   0.856   6.699  1.6796 -0.0259 -0.8599
10642SOL     OW32824   5.309   1.366   2.580 -0.4980 -0.2142  0.6626
10642SOL    HW132825   5.389   1.370   2.640 -0.9004 -1.1866  1.2950
10642SOL    HW232826   5.260   1.454   2.584  0.2461  0.2069  0.6676
10643SOL     OW32827   6.063   2.600   2.262 -0.3468  0.4046  0.0957
10643SOL    HW132828   5.966   2.577   2.269  0.0588 -1.0675  1.5675
10643SOL    HW232829   6.118   2.524   2.295  1.3267  1.2819 -0.5239
10644SOL     OW32830   4.781   5.366   2.049 -0.8576 -0.0012  1.1307
10644SOL    HW132831   4.785   5.286   1.990 -0.8763 -0.3599  1.6076
10644SOL    HW232832   4.705   5.425   2.020  0.6858  1.1371 -0.8039
10645SOL     OW32833   0.879   3.105   5.811  0.2199  0.1716 -0.2836
10645SOL    HW132834   0.930   3.111   5.725 -1.1426 -1.0184 -1.2092
10645SOL    HW232835   0.876   3.010   5.842 -1.0739  0.2836 -0.0334
10646SOL     OW32836   0.313   3.588   0.308  0.4099 -0.3073  0.0792
10646SOL    HW132837   0.402   3.547   0.287  0.7200  1.3334 -2.1588
10646SOL    HW232838   0.326   3.665   0.372  0.8879  0.9282 -1.4400
10647SOL     OW32839   0.915   4.596   6.604 -0.2657 -0.0063  0.6529
10647SOL    HW132840   0.881   4.573   6.513  2.7129  3.1518 -1.5038
10647SOL    HW232841   1.008   4.564   6.614  0.1041  1.3109  1.8222
10648SOL     OW32842   2.067   0.264   0.405  0.1909 -0.1852  0.0248
10648SOL    HW132843   2.123   0.210   0.467  0.2041 -1.3372 -0.9557
10648SOL    HW232844   2.100   0.359   0.404  2.2222 -0.8426 -0.5903
10649SOL     OW32845   6.166   4.672   4.416 -0.3022  0.3644 -0.1514
10649SOL    HW132846   6.187   4.717   4.504  0.7494 -1.0415  0.3535
10649SOL    HW232847   6.237   4.695   4.350 -1.3791  1.8643 -0.8501
10650SOL     OW32848   6.108   1.786   5.988 -0.1292  1.0441 -0.1613
10650SOL    HW132849   6.117   1.692   5.953  0.3788  0.6528  0.9759
10650SOL    HW232850   6.038   1.834   5.936 -0.3884  0.0350 -0.7734
10651SOL     OW32851   2.943   3.885   0.927 -0.3444 -0.7118  0.3833
10651SOL    HW132852   2.979   3.886   0.834 -0.4068 -0.4950  0.3597
10651SOL    HW232853   2.923   3.979   0.956 -0.5121 -0.7946  0.5411
10652SOL     OW32854   6.691   2.585   2.871  0.2860  0.5361  0.0337
10652SOL    HW132855   6.700   2.515   2.800 -1.0951  0.6152 -0.2332
10652SOL    HW232856   6.707   2.543   2.960  0.4282  0.0911 -0.1970
10653SOL     OW32857   3.714   1.116   0.127  0.1369 -0.6244 -0.1790
10653SOL    HW132858   3.752   1.153   0.212 -1.1093 -2.0190  1.0596
10653SOL    HW232859   3.623   1.078   0.145  0.4926 -2.4335 -1.7656
10654SOL     OW32860   2.192   6.137   3.460  0.1623  0.4428  0.4815
10654SOL    HW132861   2.271   6.141   3.399 -0.4018 -1.5382 -0.4633
10654SOL    HW232862   2.147   6.048   3.450 -0.5306  0.4156  3.0837
10655SOL     OW32863   4.889   1.006   2.149  0.0086  0.4438 -0.3765
10655SOL    HW132864   4.837   0.938   2.097  0.9668 -0.8882  0.3424
10655SOL    HW232865   4.859   1.006   2.244  0.3132  0.7102 -0.2768
10656SOL     OW32866   6.743   1.815   3.625  0.1570  0.0847 -0.3169
10656SOL    HW132867   6.700   1.859   3.546 -1.1444 -0.4593  0.0566
10656SOL    HW232868   6.835   1.851   3.637 -0.1267  1.1992 -1.2453
10657SOL     OW32869   6.276   0.127   5.087  0.1335  0.1211 -0.0718
10657SOL    HW132870   6.256   0.218   5.051  1.0530  0.3002 -0.1696
10657SOL    HW232871   6.375   0.116   5.096  0.0091 -0.6829  0.4365
10658SOL     OW32872   5.284   2.658   5.836 -0.2270  0.5040  0.5247
10658SOL    HW132873   5.186   2.679   5.835 -0.4492 -0.4630  0.5063
10658SOL    HW232874   5.300   2.576   5.891  0.5230  0.4276  0.2058
10659SOL     OW32875   4.680   6.166   6.804 -0.5734  0.5393 -0.0633
10659SOL    HW132876   4.762   6.112   6.787 -0.9009 -0.0515  0.2282
10659SOL    HW232877   4.665   6.228   6.727 -1.1870 -1.0287 -1.2533
10660SOL     OW32878   2.774   3.831   0.433  0.1174 -0.5062 -0.1134
10660SOL    HW132879   2.732   3.853   0.345  0.6416 -1.8772 -0.7497
10660SOL    HW232880   2.872   3.815   0.420  0.6765  1.5052  1.1449
10661SOL     OW32881   3.436   4.037   1.257 -0.0566  0.0512 -0.6126
10661SOL    HW132882   3.416   3.951   1.304 -1.6397  0.7900  0.1142
10661SOL    HW232883   3.481   4.100   1.321 -0.4994  0.3817 -0.6202
10662SOL     OW32884   0.017   1.445   6.976  0.2774 -0.5079  0.9981
10662SOL    HW132885   0.095   1.397   6.935 -0.4698 -0.7484 -0.2044
10662SOL    HW232886   0.047   1.533   7.012  0.5875  0.9738 -2.4592
10663SOL     OW32887   5.631   4.419   6.512 -0.0611  0.2515  0.3420
10663SOL    HW132888   5.648   4.513   6.482  0.6517 -0.1340 -0.5220
10663SOL    HW232889   5.709   4.388   6.567  0.7769 -0.5428 -1.1985
10664SOL     OW32890   4.940   5.221   5.821  0.3574  0.2090  0.0620
10664SOL    HW132891   4.899   5.148   5.768 -1.4587 -0.0408  1.7058
10664SOL    HW232892   4.945   5.194   5.917  0.3485  1.9467  0.5845
10665SOL     OW32893   2.347   6.316   4.610 -0.0923 -0.2027  0.1185
10665SOL    HW132894   2.270   6.255   4.628  0.6676 -0.8956  1.1499
10665SOL    HW232895   2.384   6.350   4.696 -0.5161  1.7836 -0.4363
10666SOL     OW32896   3.029   3.749   0.380 -0.3274  0.2582  0.4262
10666SOL    HW132897   3.081   3.671   0.417 -1.4247  0.1697  1.9092
10666SOL    HW232898   3.011   3.734   0.283  0.1978 -0.9357  0.4930
10667SOL     OW32899   5.691   5.260   6.959  0.5666 -0.3240 -0.3012
10667SOL    HW132900   5.593   5.272   6.939  0.5672  0.3233  0.0472
10667SOL    HW232901   5.716   5.319   7.036  1.2141 -0.5507 -0.3371
10668SOL     OW32902   0.815   5.446   3.858  0.1513 -0.9797 -0.8540
10668SOL    HW132903   0.890   5.498   3.816 -0.8010 -0.3433 -1.8345
10668SOL    HW232904   0.777   5.382   3.791 -1.0274 -0.3458 -0.8269
10669SOL     OW32905   2.295   0.221   1.185 -0.7939 -0.2115 -0.1167
10669SOL    HW132906   2.296   0.123   1.165 -1.6272 -0.3890  0.6315
10669SOL    HW232907   2.294   0.272   1.099 -1.0101 -0.8703 -0.5207
10670SOL     OW32908   4.657   5.709   0.201 -0.3681  0.6196  0.2922
10670SOL    HW132909   4.615   5.673   0.118 -2.3104  0.7261  1.1920
10670SOL    HW232910   4.667   5.635   0.268  2.5748  0.1838 -0.4811
10671SOL     OW32911   3.942   6.513   2.076  0.0708  0.2785  0.2399
10671SOL    HW132912   4.022   6.558   2.036  0.3834  0.6748  1.2910
10671SOL    HW232913   3.938   6.532   2.174 -2.5082  2.1399 -0.1027
10672SOL     OW32914   3.155   2.143   3.455 -0.4101 -0.6509 -0.2877
10672SOL    HW132915   3.186   2.180   3.367  2.4420 -0.4261  0.7308
10672SOL    HW232916   3.091   2.208   3.497  0.1001  0.4063 -1.0856
10673SOL     OW32917   6.485   0.947   2.031  0.0046 -0.2896 -0.5002
10673SOL    HW132918   6.483   0.847   2.022 -0.5351 -0.5550  1.7928
10673SOL    HW232919   6.405   0.977   2.083 -0.1748  1.4385 -1.6923
10674SOL     OW32920   1.537   6.158   4.003  0.1138  0.0451 -0.2071
10674SOL    HW132921   1.540   6.095   3.925  0.4520  0.6324 -0.6749
10674SOL    HW232922   1.444   6.164   4.038  0.0552 -0.6132 -0.2434
10675SOL     OW32923   0.478   0.150   3.283  0.3440 -0.5953 -0.2482
10675SOL    HW132924   0.544   0.189   3.347  0.6272  0.3034 -1.0580
10675SOL    HW232925   0.426   0.223   3.239  0.1901 -1.1759 -1.0742
10676SOL     OW32926   0.853   5.361   1.194 -1.0401  0.1363 -0.0073
10676SOL    HW132927   0.924   5.292   1.207 -1.2748  0.1891  1.8601
10676SOL    HW232928   0.780   5.324   1.136 -0.0539 -0.3232 -0.9781
10677SOL     OW32929   3.536   2.534   1.484  0.4006 -0.0620 -0.0445
10677SOL    HW132930   3.629   2.545   1.449  0.0084 -1.6513 -1.7271
10677SOL    HW232931   3.533   2.564   1.579  1.9592  2.7073 -0.7304
10678SOL     OW32932   4.425   0.791   2.932 -0.2905 -0.0061  0.1719
10678SOL    HW132933   4.423   0.891   2.933  0.0613  0.0009  0.4544
10678SOL    HW232934   4.428   0.759   2.837  1.5575  0.3145  0.0705
10679SOL     OW32935   5.999   3.665   1.544  0.0358 -0.1406 -0.5592
10679SOL    HW132936   6.072   3.630   1.603  0.1466  1.7608  0.5300
10679SOL    HW232937   5.916   3.677   1.598 -0.7863 -1.2108 -1.5308
10680SOL     OW32938   3.919   0.325   5.482  0.5064  0.4494  0.0110
10680SOL    HW132939   3.979   0.253   5.447 -1.8047 -2.0193  0.7724
10680SOL    HW232940   3.865   0.364   5.407 -0.2248 -0.6353 -0.0432
10681SOL     OW32941   4.990   2.244   3.280  0.0272 -0.4952  0.0230
10681SOL    HW132942   4.940   2.158   3.274 -0.4806 -0.1861 -0.2646
10681SOL    HW232943   4.936   2.311   3.330 -1.6699  1.0500 -3.5183
10682SOL     OW32944   1.124   6.574   0.128  0.7288 -0.1628  0.7619
10682SOL    HW132945   1.123   6.571   0.228  1.6801  1.8628  0.8843
10682SOL    HW232946   1.218   6.561   0.095  0.6295  0.3889  0.2312
10683SOL     OW32947   0.538   5.227   2.657  0.4365  0.1332  0.0642
10683SOL    HW132948   0.636   5.213   2.664  0.9689  1.6379 -2.8558
10683SOL    HW232949   0.510   5.302   2.718  1.3383  0.5476 -0.0153
10684SOL     OW32950   5.922   0.666   1.141  1.1289 -0.1960 -0.2325
10684SOL    HW132951   6.010   0.657   1.095  0.8211  2.5389 -1.5374
10684SOL    HW232952   5.884   0.757   1.124 -2.1173 -1.3672 -0.0043
10685SOL     OW32953   5.964   2.986   6.906  0.0397  0.4347  0.8039
10685SOL    HW132954   6.062   3.003   6.920  0.5834 -0.0927 -1.9494
10685SOL    HW232955   5.946   2.966   6.810 -2.9447  1.5014  1.0156
10686SOL     OW32956   3.953   3.497   5.899 -0.4729  0.4549 -0.3450
10686SOL    HW132957   3.919   3.555   5.825  0.5219  0.7786 -0.5618
10686SOL    HW232958   4.041   3.459   5.873 -0.5128 -0.1164  0.3370
10687SOL     OW32959   3.089   0.486   1.931  0.0867  0.4291  0.4423
10687SOL    HW132960   3.165   0.492   1.867 -0.8655  0.0377 -0.7624
10687SOL    HW232961   3.123   0.501   2.024  1.6137  0.3282 -0.0624
10688SOL     OW32962   2.211   1.380   6.055  0.2307 -0.3100  0.3242
10688SOL    HW132963   2.307   1.356   6.066 -0.1311 -1.9462  0.1087
10688SOL    HW232964   2.170   1.325   5.982 -0.8344  0.4900  0.2818
10689SOL     OW32965   3.157   6.213   1.573  0.0999  0.0346 -0.0975
10689SOL    HW132966   3.235   6.164   1.612 -0.1146 -1.7955 -1.8050
10689SOL    HW232967   3.077   6.152   1.571 -0.2553  0.4870 -2.0564
10690SOL     OW32968   3.070   5.974   5.568  0.0152  0.2751  0.5160
10690SOL    HW132969   3.038   5.999   5.660 -0.2132 -1.3921  0.9203
10690SOL    HW232970   3.097   5.878   5.567  0.0041  0.2560 -1.1778
10691SOL     OW32971   3.750   1.655   5.592 -0.3202  0.5580 -0.0238
10691SOL    HW132972   3.752   1.599   5.675  0.1050  0.3680 -0.1597
10691SOL    HW232973   3.695   1.737   5.608 -0.3062  0.4812  0.4216
10692SOL     OW32974   6.810   1.705   0.138  0.5711 -0.3339 -0.1799
10692SOL    HW132975   6.850   1.758   0.212  0.8015  0.8575 -1.1108
10692SOL    HW232976   6.727   1.659   0.170  0.7907 -0.0327  0.8569
10693SOL     OW32977   2.198   1.734   1.737  0.4939 -0.4129 -0.3097
10693SOL    HW132978   2.102   1.740   1.711  0.9122  0.3990 -1.8217
10693SOL    HW232979   2.246   1.671   1.677  1.2465  0.5357 -0.7423
10694SOL     OW32980   6.685   2.701   5.522  0.0445  0.1757 -0.1773
10694SOL    HW132981   6.710   2.646   5.442  2.4648 -0.2931  0.8123
10694SOL    HW232982   6.665   2.640   5.599 -1.3712  0.6432 -0.1520
10695SOL     OW32983   2.339   1.973   4.216  0.1019  0.0323 -0.2398
10695SOL    HW132984   2.353   1.990   4.314  1.1130 -1.6185 -0.0520
10695SOL    HW232985   2.350   2.058   4.165  0.1458  0.8055  1.0220
10696SOL     OW32986   5.348   1.498   6.213  0.4687 -0.3313 -0.2805
10696SOL    HW132987   5.407   1.481   6.292 -1.4278 -0.3428  1.1788
10696SOL    HW232988   5.336   1.597   6.201 -1.8376 -0.3115  1.5315
10697SOL     OW32989   5.118   3.947   1.573 -0.1147 -0.0648  0.3910
10697SOL    HW132990   5.031   3.987   1.543  0.1357 -1.1189 -1.9294
10697SOL    HW232991   5.115   3.848   1.561  0.7550 -0.3345  2.1204
10698SOL     OW32992   4.215   5.300   6.106  0.0784 -0.5170  0.4598
10698SOL    HW132993   4.218   5.217   6.161  0.7790 -0.3002  0.7699
10698SOL    HW232994   4.298   5.354   6.123  0.6837 -0.8010 -1.3703
10699SOL     OW32995   0.291   1.275   2.178  0.1790 -0.4480 -0.0735
10699SOL    HW132996   0.294   1.283   2.079  0.5333  1.2479  0.0459
10699SOL    HW232997   0.367   1.216   2.209  1.8498  1.3094 -0.6389
10700SOL     OW32998   0.549   2.409   6.058  0.1021  0.0255 -1.1187
10700SOL    HW132999   0.598   2.408   6.146  0.4386 -1.1913 -1.2911
10700SOL    HW233000   0.516   2.317   6.038  0.9134  0.0568 -2.7464
10701SOL     OW33001   3.717   1.150   4.920 -0.0771 -0.5872 -0.0004
10701SOL    HW133002   3.754   1.096   4.996 -0.6978 -2.9620 -1.2816
10701SOL    HW233003   3.618   1.139   4.917 -0.5845  2.6875  1.1258
10702SOL     OW33004   0.513   6.029   0.434 -0.1403 -0.1069  0.4120
10702SOL    HW133005   0.578   6.060   0.365 -0.2215 -1.6259 -0.3848
10702SOL    HW233006   0.433   5.989   0.389 -2.0729  2.4351  1.3448
10703SOL     OW33007   3.422   4.332   5.648  0.1337  0.2339  0.5992
10703SOL    HW133008   3.447   4.260   5.583  0.2799  1.5323 -0.8436
10703SOL    HW233009   3.323   4.345   5.648 -0.0300 -0.8299  1.8468
10704SOL     OW33010   2.733   0.131   2.094  0.4584  0.2170  0.5328
10704SOL    HW133011   2.809   0.069   2.112 -0.1727 -0.8066 -0.2296
10704SOL    HW233012   2.661   0.083   2.043 -0.7857  1.1076  1.3766
10705SOL     OW33013   0.151   5.208   1.690 -0.6837  0.2994 -0.1478
10705SOL    HW133014   0.125   5.195   1.786  0.5328  1.0795  0.3105
10705SOL    HW233015   0.199   5.128   1.657  0.7165  0.8207  0.5501
10706SOL     OW33016   3.625   3.848   3.450 -0.4033  0.0229 -0.4513
10706SOL    HW133017   3.597   3.769   3.506  0.0094  1.3548  1.7486
10706SOL    HW233018   3.710   3.826   3.402 -0.5152 -1.0049 -0.2082
10707SOL     OW33019   2.954   3.331   0.948  0.3390  0.0260  1.0954
10707SOL    HW133020   2.939   3.427   0.922  2.6640 -0.1426 -1.2205
10707SOL    HW233021   2.887   3.273   0.902  1.2017  0.2528 -0.5320
10708SOL     OW33022   5.755   5.201   1.628  0.3673 -0.4856 -0.1032
10708SOL    HW133023   5.692   5.275   1.602  2.0559  0.3323 -2.1074
10708SOL    HW233024   5.774   5.207   1.726 -2.0904 -0.3613  0.4558
10709SOL     OW33025   4.334   1.641   5.435  0.6367 -0.2341 -0.1311
10709SOL    HW133026   4.416   1.617   5.382  1.0274  0.3211  0.2196
10709SOL    HW233027   4.252   1.611   5.384  1.0648 -1.2414 -0.2472
10710SOL     OW33028   4.897   5.868   1.536 -0.6438 -0.2912 -0.0867
10710SOL    HW133029   4.919   5.902   1.444 -0.6319 -0.1025 -0.0156
10710SOL    HW233030   4.878   5.946   1.596 -3.1742 -0.4551 -0.5578
10711SOL     OW33031   1.739   5.147   2.244 -0.9873 -0.1086 -0.3292
10711SOL    HW133032   1.652   5.097   2.242 -0.1354 -1.6973  0.2376
10711SOL    HW233033   1.761   5.170   2.339 -0.9192  0.5586 -0.5031
10712SOL     OW33034   6.020   6.084   0.212 -0.3538 -0.8523  0.2366
10712SOL    HW133035   6.106   6.063   0.165 -0.2327 -1.2649  0.6365
10712SOL    HW233036   6.020   6.040   0.301 -0.3688  0.3269  0.8384
10713SOL     OW33037   4.340   6.548   2.198 -0.0856 -0.1204  0.5236
10713SOL    HW133038   4.415   6.567   2.134  0.2346 -2.8435 -0.0407
10713SOL    HW233039   4.284   6.473   2.162 -2.0338  0.6474  1.8005
10714SOL     OW33040   4.048   4.839   5.085  0.3640 -0.1268 -0.4331
10714SOL    HW133041   3.985   4.862   5.011 -0.3773 -3.0595 -0.8238
10714SOL    HW233042   4.132   4.802   5.047  0.4864 -0.4897  0.1798
10715SOL     OW33043   3.797   0.242   1.285 -0.7028 -0.0621 -0.5909
10715SOL    HW133044   3.764   0.327   1.244 -1.0000  0.3194  0.4039
10715SOL    HW233045   3.782   0.166   1.221  1.0186  0.8475 -2.1408
10716SOL     OW33046   1.861   6.052   6.918  0.0276 -0.6432 -0.4176
10716SOL    HW133047   1.866   6.069   6.820 -3.0011  0.5555 -0.4936
10716SOL    HW233048   1.766   6.036   6.944  0.5665  0.1990  2.4826
10717SOL     OW33049   5.974   5.724   2.198  0.1952  0.7374  0.4011
10717SOL    HW133050   5.943   5.813   2.164 -2.4317  0.5694  2.0774
10717SOL    HW233051   5.918   5.651   2.159 -1.2764  0.3519  2.9694
10718SOL     OW33052   5.868   5.377   5.128  0.5329 -0.5257  0.1217
10718SOL    HW133053   5.837   5.401   5.036  1.5385 -1.7355 -0.5714
10718SOL    HW233054   5.822   5.294   5.158 -0.0829  0.0788  0.8971
10719SOL     OW33055   6.344   4.276   1.293  0.1534  0.1528 -0.2252
10719SOL    HW133056   6.322   4.355   1.235  2.0989 -0.6787 -2.2329
10719SOL    HW233057   6.405   4.214   1.244 -2.1954 -3.2610  0.8026
10720SOL     OW33058   2.643   0.668   5.760 -0.4082 -0.1625 -0.3947
10720SOL    HW133059   2.649   0.572   5.786  1.6517 -0.3250 -1.2517
10720SOL    HW233060   2.550   0.690   5.732 -1.2160 -1.5402  1.1065
10721SOL     OW33061   4.408   4.571   6.835 -0.4054 -0.1075  0.1564
10721SOL    HW133062   4.363   4.631   6.769 -0.9167  0.7409  1.2435
10721SOL    HW233063   4.340   4.531   6.896  0.0607 -0.8846  0.1851
10722SOL     OW33064   5.694   4.400   3.089  0.1655 -0.5629  0.5386
10722SOL    HW133065   5.625   4.358   3.029  0.5135 -0.0378 -0.2442
10722SOL    HW233066   5.743   4.328   3.139 -1.1077 -0.9322  1.2991
10723SOL     OW33067   6.316   1.659   4.080  0.2892  0.0613 -0.0190
10723SOL    HW133068   6.332   1.698   4.171  1.2619 -0.2700 -0.0396
10723SOL    HW233069   6.359   1.569   4.075 -1.4068 -0.7771 -0.1749
10724SOL     OW33070   3.231   6.439   2.076  0.3208 -0.3248  0.2381
10724SOL    HW133071   3.274   6.452   1.987 -0.5816 -2.1762 -0.5088
10724SOL    HW233072   3.295   6.391   2.137  0.4389 -0.2651  0.1616
10725SOL     OW33073   1.167   2.602   4.362  0.3350  0.0607 -0.0966
10725SOL    HW133074   1.266   2.588   4.350  0.0823 -1.3632 -0.7770
10725SOL    HW233075   1.151   2.654   4.446  1.6081 -1.1610  0.9599
10726SOL     OW33076   3.888   1.283   0.809  0.0704  0.2049 -0.0373
10726SOL    HW133077   3.966   1.311   0.753  1.1540  1.0260  1.7731
10726SOL    HW233078   3.862   1.189   0.788  2.6318 -0.6715  0.4409
10727SOL     OW33079   1.393   2.093   6.217  0.7465 -0.1589  0.6147
10727SOL    HW133080   1.456   2.118   6.290 -0.1131  0.1022  1.2826
10727SOL    HW233081   1.365   2.175   6.167  1.9712 -0.4167 -0.5810
10728SOL     OW33082   3.340   0.234   6.709 -0.7418  0.1986 -0.0417
10728SOL    HW133083   3.335   0.333   6.691 -0.2000  0.1791 -0.3295
10728SOL    HW233084   3.409   0.193   6.649 -1.4607 -0.4730 -0.4206
10729SOL     OW33085   4.538   4.187   0.476 -0.2591  0.2565  0.1329
10729SOL    HW133086   4.614   4.178   0.412 -0.3714 -1.8639  0.2252
10729SOL    HW233087   4.454   4.154   0.432 -0.8768  1.3383  0.4710
10730SOL     OW33088   3.460   4.184   0.752 -0.2891 -0.1729  0.4665
10730SOL    HW133089   3.394   4.254   0.722  0.2026  0.1706  0.1618
10730SOL    HW233090   3.550   4.227   0.765  0.3559 -0.9704 -1.0504
10731SOL     OW33091   5.521   1.248   6.831 -0.3164  0.0541  0.3577
10731SOL    HW133092   5.620   1.233   6.834 -0.5823 -1.9488  0.8243
10731SOL    HW233093   5.486   1.224   6.740 -0.4198  0.4791  0.2823
10732SOL     OW33094   6.458   0.670   1.978 -0.2754  0.3162  0.3632
10732SOL    HW133095   6.526   0.657   1.906  0.7079 -0.7480  1.4355
10732SOL    HW233096   6.376   0.618   1.956 -0.8649  1.7781 -1.0479
10733SOL     OW33097   2.094   2.635   5.003  0.1225  0.1211  0.2035
10733SOL    HW133098   2.018   2.608   5.062  0.4333  0.9078  0.9941
10733SOL    HW233099   2.164   2.563   5.003 -0.2690 -0.2613  0.0984
10734SOL     OW33100   6.495   5.612   2.342  0.2170 -0.0544  0.0491
10734SOL    HW133101   6.519   5.682   2.274  0.1213 -0.6026 -0.5524
10734SOL    HW233102   6.457   5.657   2.423  0.5003  0.6177 -0.1806
10735SOL     OW33103   0.489   5.306   3.176  0.1904  0.9218  0.8268
10735SOL    HW133104   0.500   5.213   3.140 -1.7337  0.6790  0.7928
10735SOL    HW233105   0.427   5.305   3.254  0.4824  2.1378  1.0958
10736SOL     OW33106   3.695   3.056   6.603  0.3090  0.0762  0.4229
10736SOL    HW133107   3.785   3.013   6.609 -0.1704 -1.0344 -0.1531
10736SOL    HW233108   3.666   3.083   6.695  0.7526 -0.5661  0.7643
10737SOL     OW33109   0.342   3.881   3.046  0.8749 -0.3985 -0.3603
10737SOL    HW133110   0.394   3.809   3.092  1.8874 -0.5740 -1.7175
10737SOL    HW233111   0.306   3.845   2.960 -0.8091 -0.0228  0.1517
10738SOL     OW33112   0.730   5.567   5.680 -0.3495  0.0762 -0.1260
10738SOL    HW133113   0.735   5.636   5.608 -2.0938 -0.0254 -0.3891
10738SOL    HW233114   0.668   5.598   5.752  0.2325 -0.4565  0.6214
10739SOL     OW33115   5.406   3.739   1.606  0.0330 -0.4520 -0.5351
10739SOL    HW133116   5.402   3.650   1.650 -1.5393 -0.7829 -1.2626
10739SOL    HW233117   5.381   3.730   1.510  2.0683  0.4605 -1.2048
10740SOL     OW33118   0.831   1.179   2.652 -0.2158 -0.2102  0.1404
10740SOL    HW133119   0.860   1.138   2.738  0.5597  2.9172  1.5047
10740SOL    HW233120   0.909   1.191   2.592 -0.2530  0.1362  0.1581
10741SOL     OW33121   4.487   2.375   0.255 -0.6143 -0.2104 -0.4139
10741SOL    HW133122   4.446   2.293   0.294 -0.8896  1.0877  2.2393
10741SOL    HW233123   4.505   2.360   0.158 -2.5293 -2.6498 -0.4930
10742SOL     OW33124   1.065   0.443   3.007  0.2494 -0.5260  0.5323
10742SOL    HW133125   0.967   0.448   2.988  0.3381 -0.8723 -0.0359
10742SOL    HW233126   1.080   0.398   3.095 -0.0978 -0.4284  0.6437
10743SOL     OW33127   2.150   4.548   6.620 -0.9445 -0.0438  0.2280
10743SOL    HW133128   2.178   4.580   6.710  0.9207  0.8784 -0.6076
10743SOL    HW233129   2.053   4.568   6.605 -1.2876 -0.2467  2.0173
10744SOL     OW33130   4.200   3.402   5.827 -0.4850  0.0989  0.0883
10744SOL    HW133131   4.228   3.314   5.790 -1.2808 -0.1773  0.1204
10744SOL    HW233132   4.279   3.448   5.869 -0.1302 -0.7346  0.3490
10745SOL     OW33133   4.258   0.470   4.190 -0.2774  0.0297 -0.1238
10745SOL    HW133134   4.335   0.535   4.188 -0.8407  0.7376  0.6714
10745SOL    HW233135   4.177   0.514   4.151 -0.1720 -0.8798 -1.4148
10746SOL     OW33136   6.553   5.147   5.164 -0.6551  0.1886 -0.6124
10746SOL    HW133137   6.626   5.124   5.228 -0.9591 -0.4990 -0.5007
10746SOL    HW233138   6.544   5.246   5.158 -0.5720  0.2625  0.3426
10747SOL     OW33139   4.023   5.108   1.004 -0.1723  0.0851 -0.1238
10747SOL    HW133140   4.054   5.164   1.081 -1.2776  0.4025  0.1104
10747SOL    HW233141   4.093   5.040   0.983  0.1330 -0.0567  1.2151
10748SOL     OW33142   3.978   5.664   0.584  0.0194 -0.3924  0.4304
10748SOL    HW133143   3.994   5.576   0.627  3.0347  0.5714  1.5354
10748SOL    HW233144   4.006   5.661   0.488 -2.4787 -1.3074 -0.3360
10749SOL     OW33145   5.220   6.308   3.942 -0.0263 -0.5847  0.3564
10749SOL    HW133146   5.292   6.239   3.937 -1.0418 -1.9084  2.5136
10749SOL    HW233147   5.166   6.294   4.025 -2.2358  0.9046 -0.7305
10750SOL     OW33148   6.459   4.690   4.013  0.3106 -0.1186 -0.2695
10750SOL    HW133149   6.490   4.601   4.044 -2.2224 -1.3520 -1.0402
10750SOL    HW233150   6.458   4.692   3.913 -3.7436 -0.9287 -0.3875
10751SOL     OW33151   6.415   2.760   5.445 -0.2647 -0.0732  0.5583
10751SOL    HW133152   6.512   2.765   5.422 -0.3705  2.7887  0.3118
10751SOL    HW233153   6.361   2.761   5.361 -0.5274 -1.0396  0.7107
10752SOL     OW33154   1.708   4.789   1.953 -0.5110 -0.2270 -0.0368
10752SOL    HW133155   1.625   4.752   1.994 -0.0787 -1.1993 -0.0070
10752SOL    HW233156   1.785   4.730   1.975 -0.0559 -0.1197 -1.2682
10753SOL     OW33157   2.346   0.785   6.331  0.4474 -0.1113 -0.0877
10753SOL    HW133158   2.429   0.813   6.377  0.5505 -2.4815  1.3737
10753SOL    HW233159   2.267   0.800   6.392 -0.0616  1.0103 -0.9913
10754SOL     OW33160   5.624   2.307   5.313  0.4822  0.0674 -0.1920
10754SOL    HW133161   5.653   2.399   5.287 -1.2109  0.8806  0.6442
10754SOL    HW233162   5.526   2.307   5.332  0.9414 -1.1954  2.7538
10755SOL     OW33163   3.113   1.631   5.539  0.0287  0.4755 -0.3452
10755SOL    HW133164   3.046   1.606   5.469 -0.5088  0.4324  0.1674
10755SOL    HW233165   3.157   1.548   5.574 -0.7366  0.3524  0.3631
10756SOL     OW33166   5.844   5.323   2.923 -0.1389  0.5357 -0.6578
10756SOL    HW133167   5.811   5.246   2.870  0.8858 -0.0425 -0.4836
10756SOL    HW233168   5.770   5.388   2.938 -1.1341 -0.6371 -0.3935
10757SOL     OW33169   4.755   1.915   6.088  0.4321 -0.6097 -0.0686
10757SOL    HW133170   4.699   1.845   6.133  0.7531  0.4136  2.0585
10757SOL    HW233171   4.721   1.930   5.996 -3.1770  0.3063  1.2400
10758SOL     OW33172   5.752   4.356   1.850 -0.1329  0.1812  0.2682
10758SOL    HW133173   5.707   4.286   1.795 -0.1092  0.2539  0.1553
10758SOL    HW233174   5.848   4.330   1.864  0.3290  0.9879 -1.1763
10759SOL     OW33175   3.403   3.260   6.677 -0.1925  0.2976 -0.3317
10759SOL    HW133176   3.469   3.188   6.699 -2.5927 -2.2954 -0.9168
10759SOL    HW233177   3.405   3.331   6.747  0.7197 -1.5189  1.5768
10760SOL     OW33178   3.678   0.015   7.009  0.1827 -0.3512 -0.5438
10760SOL    HW133179   3.751   0.052   7.066 -0.8158 -0.2732  0.7287
10760SOL    HW233180   3.686  -0.084   7.004  0.4100 -0.3375 -0.4515
10761SOL     OW33181   6.267   6.533   6.109  0.3043  0.2810 -0.4049
10761SOL    HW133182   6.204   6.471   6.063  1.2976 -1.4270  0.4314
10761SOL    HW233183   6.346   6.482   6.143 -0.0233  1.5206  2.5954
10762SOL     OW33184   0.315   1.157   3.722 -0.2609 -0.0631 -0.3573
10762SOL    HW133185   0.379   1.158   3.799 -0.1591 -0.9887 -0.4149
10762SOL    HW233186   0.354   1.207   3.645 -0.1861  0.5167  0.0536
10763SOL     OW33187   2.941   3.990   1.428 -0.3338  0.3537 -0.4108
10763SOL    HW133188   3.008   4.058   1.459  2.4873 -2.4605  0.1805
10763SOL    HW233189   2.910   3.936   1.506 -1.1737 -0.1984 -1.1038
10764SOL     OW33190   1.559   1.260   2.273 -0.5680 -0.1101 -0.4706
10764SOL    HW133191   1.594   1.189   2.212 -1.5975  0.5663 -1.8936
10764SOL    HW233192   1.510   1.216   2.349  1.0118 -0.9674  0.0948
10765SOL     OW33193   2.333   0.952   3.521 -0.0537 -0.9102  0.1042
10765SOL    HW133194   2.420   0.905   3.509  0.4756  0.2355 -0.6233
10765SOL    HW233195   2.348   1.042   3.562 -1.0401 -1.2700  1.3244
10766SOL     OW33196   3.762   3.355   5.521 -0.1774 -0.5430 -0.1312
10766SOL    HW133197   3.709   3.356   5.606 -1.2424  0.2384 -0.7750
10766SOL    HW233198   3.858   3.334   5.542 -0.4450 -0.5135  1.2372
10767SOL     OW33199   2.497   5.160   1.012 -0.0065  0.2340 -0.2528
10767SOL    HW133200   2.452   5.099   1.077  2.0733 -0.2203  0.8579
10767SOL    HW233201   2.493   5.254   1.046  1.0061  0.0080  0.5262
10768SOL     OW33202   6.514   6.889   1.273  0.0388 -0.3955 -0.0779
10768SOL    HW133203   6.594   6.875   1.331 -0.0942 -0.3826  0.1091
10768SOL    HW233204   6.466   6.802   1.260  0.5797 -0.5840 -0.9240
10769SOL     OW33205   0.202   2.708   3.504  0.5040 -0.3000 -0.8953
10769SOL    HW133206   0.142   2.645   3.553  1.2268 -1.8358 -1.9155
10769SOL    HW233207   0.174   2.712   3.408  0.4488  1.0013 -0.8512
10770SOL     OW33208   6.467   1.404   6.443 -0.2511 -0.2032 -0.2486
10770SOL    HW133209   6.506   1.314   6.425 -1.6220 -0.7763 -0.4623
10770SOL    HW233210   6.463   1.456   6.357  1.2580  0.3894  0.0036
10771SOL     OW33211   4.983   1.404   1.834 -0.4161 -0.0274 -0.4000
10771SOL    HW133212   5.074   1.364   1.849 -0.7842 -0.4040  0.9566
10771SOL    HW233213   4.994   1.499   1.803  0.4482 -0.7611 -2.5778
10772SOL     OW33214   3.395   0.734   2.401 -0.8492  0.3877 -0.6943
10772SOL    HW133215   3.470   0.704   2.460 -0.8232  0.3312 -0.7569
10772SOL    HW233216   3.308   0.704   2.441 -1.0300  2.4761  0.6572
10773SOL     OW33217   3.152   6.972   2.529 -0.3647 -0.2599 -0.0704
10773SOL    HW133218   3.205   7.036   2.584  0.1653  0.5849 -1.5063
10773SOL    HW233219   3.109   6.904   2.589 -0.1579  0.8513  1.3901
10774SOL     OW33220   1.238   4.612   3.818  0.4445  0.2801 -0.2823
10774SOL    HW133221   1.224   4.599   3.720  2.6984 -0.3296 -0.5768
10774SOL    HW233222   1.336   4.606   3.839  0.1809  2.0682  1.7804
10775SOL     OW33223   0.520   4.868   2.677  0.0096 -1.0917  0.4741
10775SOL    HW133224   0.595   4.892   2.615 -0.8081  1.9948  0.4770
10775SOL    HW233225   0.517   4.769   2.691  2.2541 -1.5636 -1.7784
10776SOL     OW33226   0.071   2.586   0.779  0.1388 -0.1765 -0.3648
10776SOL    HW133227   0.146   2.540   0.826  0.6226  2.2334  1.3911
10776SOL    HW233228   0.107   2.642   0.705 -0.0478  0.0937 -0.2540
10777SOL     OW33229   0.614   2.031   1.486 -0.2870  0.0437 -0.1894
10777SOL    HW133230   0.597   2.020   1.583  0.3360 -1.9922 -0.2510
10777SOL    HW233231   0.566   1.959   1.435  3.2721 -2.0889 -0.8703
10778SOL     OW33232   6.543   6.191   3.442  0.2199 -0.3190 -0.1234
10778SOL    HW133233   6.455   6.184   3.489 -0.6627 -2.7076 -1.9239
10778SOL    HW233234   6.596   6.108   3.458 -0.0643 -1.1760 -3.0535
10779SOL     OW33235   4.746   0.836   1.980  0.0247  0.2237  0.0649
10779SOL    HW133236   4.814   0.811   1.910 -0.3849 -0.6036 -0.0454
10779SOL    HW233237   4.699   0.754   2.011 -0.9001  0.7856  0.1721
10780SOL     OW33238   1.388   4.988   6.070 -0.2173  0.5320 -0.2194
10780SOL    HW133239   1.412   5.061   6.006  0.3841  0.6159  0.0928
10780SOL    HW233240   1.299   4.950   6.046  0.0186  0.5360 -1.1364
10781SOL     OW33241   5.139   0.022   4.803  0.1319  0.4543  0.3119
10781SOL    HW133242   5.234  -0.009   4.804  0.6791  2.0123  1.9453
10781SOL    HW233243   5.091  -0.012   4.883 -0.3486  0.6558  0.1181
10782SOL     OW33244   5.763   2.833   6.155 -0.2361 -0.2159 -0.4766
10782SOL    HW133245   5.803   2.858   6.067 -0.5070  0.7721 -0.3261
10782SOL    HW233246   5.666   2.858   6.156 -0.0007  0.7536  0.4628
10783SOL     OW33247   6.257   4.875   3.165  0.4670  0.3065  0.4072
10783SOL    HW133248   6.334   4.823   3.129  0.3772 -1.1862  2.1809
10783SOL    HW233249   6.205   4.817   3.228 -2.1240  1.2508 -0.6979
10784SOL     OW33250   4.815   6.120   2.488 -0.2563  0.2854 -0.4316
10784SOL    HW133251   4.866   6.207   2.487  1.3178 -0.5986 -0.0557
10784SOL    HW233252   4.865   6.053   2.543 -0.3257 -1.5413 -2.4888
10785SOL     OW33253   5.287   6.573   4.689  0.0835  0.0077 -0.0245
10785SOL    HW133254   5.289   6.622   4.602 -0.8076 -1.1883 -0.7300
10785SOL    HW233255   5.376   6.583   4.733 -0.4013  3.3472  0.5147
10786SOL     OW33256   5.525   0.399   0.228 -1.0331  0.1320 -0.3138
10786SOL    HW133257   5.537   0.327   0.296  0.4151 -1.7436 -2.4168
10786SOL    HW233258   5.443   0.380   0.174 -0.2098 -0.4381 -1.3955
10787SOL     OW33259   0.728   3.065   6.748 -0.7824 -0.1317 -0.1281
10787SOL    HW133260   0.693   3.032   6.661  0.6875 -1.1184 -0.3882
10787SOL    HW233261   0.800   3.004   6.780 -1.8882 -0.2751  2.2351
10788SOL     OW33262   0.664   3.896   5.975 -0.6996  0.2892  0.0500
10788SOL    HW133263   0.703   3.952   5.902 -0.9421  1.0574  0.4974
10788SOL    HW233264   0.730   3.886   6.049 -1.0966  1.0608  0.5280
10789SOL     OW33265   0.795   0.492   2.631 -0.1856  0.3882 -0.1826
10789SOL    HW133266   0.745   0.556   2.690 -0.0457  0.2246  0.1083
10789SOL    HW233267   0.746   0.405   2.627 -0.1318  0.3593 -0.2166
10790SOL     OW33268   3.609   3.563   1.288  0.4813 -0.3032  0.2739
10790SOL    HW133269   3.543   3.500   1.327  0.6972 -0.8060 -0.1545
10790SOL    HW233270   3.700   3.542   1.324  0.5274 -0.1153  0.2691
10791SOL     OW33271   6.150   0.077   1.198 -0.3659  0.0031 -0.1827
10791SOL    HW133272   6.106   0.126   1.122 -0.6918 -1.2520 -0.8347
10791SOL    HW233273   6.144  -0.022   1.181  1.0170 -0.2495  0.6672
10792SOL     OW33274   7.008   4.087   1.279  0.0043 -0.1102 -0.0704
10792SOL    HW133275   6.969   3.995   1.272  2.3504 -1.1909 -0.2138
10792SOL    HW233276   7.006   4.131   1.189 -1.5463  0.2014  0.0916
10793SOL     OW33277   6.079   0.057   3.883 -0.2662 -0.2149  0.0578
10793SOL    HW133278   6.018   0.027   3.809  0.3155 -1.5359  0.1011
10793SOL    HW233279   6.029   0.057   3.969 -0.3001 -1.0247  0.0465
10794SOL     OW33280   3.149   6.631   6.241 -0.3839 -0.3798  0.1879
10794SOL    HW133281   3.228   6.576   6.213 -1.0685 -1.4377  0.2815
10794SOL    HW233282   3.066   6.576   6.234 -1.0062  0.4306  0.9643
10795SOL     OW33283   2.017   0.637   0.189  0.2067  0.2807 -0.2186
10795SOL    HW133284   2.073   0.561   0.156 -1.3007 -0.0158 -2.2362
10795SOL    HW233285   2.022   0.640   0.289  2.3116 -0.8534 -0.2239
10796SOL     OW33286   6.651   0.700   4.021  0.6347 -0.3066  0.6185
10796SOL    HW133287   6.584   0.642   3.974 -1.1533  2.7477 -0.9667
10796SOL    HW233288   6.629   0.703   4.118  0.3551 -1.7007  0.6235
10797SOL     OW33289   6.247   0.454   2.695  0.7587 -0.1254 -0.3835
10797SOL    HW133290   6.301   0.426   2.774 -1.7737  0.0552  1.5456
10797SOL    HW233291   6.244   0.380   2.629  1.9638 -0.7318  0.1999
10798SOL     OW33292   0.351   6.051   5.537  0.4694 -0.0963  0.2701
10798SOL    HW133293   0.350   6.146   5.567  2.0370  0.1741 -0.4628
10798SOL    HW233294   0.335   5.991   5.615  0.8361  0.7236  0.9861
10799SOL     OW33295   5.621   3.581   3.847  0.0700  0.6591 -0.2970
10799SOL    HW133296   5.678   3.499   3.838  0.3258  0.8833 -0.6911
10799SOL    HW233297   5.679   3.661   3.859 -0.1832  0.7764  0.1754
10800SOL     OW33298   4.812   1.688   5.203  0.2003  0.2716 -0.0814
10800SOL    HW133299   4.860   1.617   5.152  0.6823  0.6744 -0.1856
10800SOL    HW233300   4.877   1.740   5.258 -0.3939 -0.6156  1.5167
10801SOL     OW33301   1.549   4.134   3.554 -0.5391 -0.0518 -0.0708
10801SOL    HW133302   1.511   4.227   3.553 -0.8539 -0.0749  2.8284
10801SOL    HW233303   1.628   4.130   3.493 -2.4607  1.1611 -2.8875
10802SOL     OW33304   4.938   0.562   3.595  0.5940  0.0966 -0.3102
10802SOL    HW133305   4.849   0.520   3.611  0.3620  0.3293 -0.9721
10802SOL    HW233306   4.975   0.530   3.508  0.9720  0.3147 -0.2300
10803SOL     OW33307   5.595   2.338   2.211  0.2659  0.1490  0.4297
10803SOL    HW133308   5.512   2.350   2.156  0.5754 -2.9557 -0.9073
10803SOL    HW233309   5.570   2.337   2.308 -1.1571 -0.0573  0.0870
10804SOL     OW33310   6.344   3.067   1.624  0.5449 -0.4741 -0.2626
10804SOL    HW133311   6.308   3.039   1.713 -2.3729 -0.5201 -1.3492
10804SOL    HW233312   6.316   3.161   1.604 -0.3421 -1.0142 -1.7818
10805SOL     OW33313   0.706   1.968   0.757  0.1142  0.6817 -0.3734
10805SOL    HW133314   0.746   1.937   0.671 -0.7645  0.9884 -0.9008
10805SOL    HW233315   0.762   2.043   0.794  0.2589  0.8321 -0.8902
10806SOL     OW33316   3.890   3.315   5.156  0.2394  0.0206  0.0984
10806SOL    HW133317   3.988   3.335   5.154  0.3803 -0.6745 -0.1163
10806SOL    HW233318   3.866   3.254   5.080 -0.6210  1.3228 -0.7193
10807SOL     OW33319   6.818   6.347   6.048 -0.0145  0.1833  0.0666
10807SOL    HW133320   6.719   6.352   6.038 -0.5091 -3.2098  1.9508
10807SOL    HW233321   6.860   6.329   5.959 -1.6615 -3.4693 -0.1142
10808SOL     OW33322   3.555   2.228   6.223 -0.1767 -0.5366  0.2672
10808SOL    HW133323   3.541   2.221   6.321 -2.9289 -0.9835 -0.0708
10808SOL    HW233324   3.548   2.137   6.182  0.6076 -0.3153 -0.3861
10809SOL     OW33325   0.867   4.517   1.193  0.3389  0.7314  0.1421
10809SOL    HW133326   0.787   4.520   1.253  1.4783  0.9824  1.6923
10809SOL    HW233327   0.896   4.422   1.181 -1.1523  0.4636 -1.8045
10810SOL     OW33328   3.723   0.854   2.656  0.2822 -0.2131 -0.5375
10810SOL    HW133329   3.809   0.803   2.648  0.5278  0.3131 -1.3767
10810SOL    HW233330   3.665   0.811   2.725  0.0746 -2.2172 -1.8710
10811SOL     OW33331   5.354   0.195   4.091 -0.7450  0.1048  0.4190
10811SOL    HW133332   5.385   0.261   4.022  1.7380 -2.3582 -1.0806
10811SOL    HW233333   5.341   0.241   4.178 -0.2980  2.7168 -0.7845
10812SOL     OW33334   0.451   5.982   6.982 -0.6613  0.1263  0.2621
10812SOL    HW133335   0.548   5.982   6.961 -0.3478 -0.6966  1.5805
10812SOL    HW233336   0.422   6.074   7.006 -0.1662  0.3383  0.0554
10813SOL     OW33337   2.367   2.964   5.406 -0.6155 -0.1701  0.1193
10813SOL    HW133338   2.423   2.998   5.331 -0.2482 -0.4075  0.2836
10813SOL    HW233339   2.425   2.945   5.485 -0.9020 -0.5852  0.2332
10814SOL     OW33340   5.011   1.404   4.250  0.4567 -0.0909 -0.2455
10814SOL    HW133341   4.931   1.452   4.288  0.8926  0.6189 -0.1927
10814SOL    HW233342   4.985   1.311   4.226 -0.4635  0.2074 -0.4893
10815SOL     OW33343   5.895   1.982   4.635  0.1879  0.4107  0.4667
10815SOL    HW133344   5.962   2.017   4.570  0.2963  2.2611  1.5082
10815SOL    HW233345   5.807   2.027   4.619 -0.7717 -1.7106 -0.6392
10816SOL     OW33346   1.936   5.466   5.095  0.1379 -0.0587 -0.1664
10816SOL    HW133347   1.904   5.523   5.020  0.0754 -0.5263 -0.5023
10816SOL    HW233348   1.857   5.435   5.149  0.0524 -0.8481 -0.7306
10817SOL     OW33349   0.301   2.918   3.632 -0.9300 -0.3787 -0.1081
10817SOL    HW133350   0.371   2.967   3.580  0.6923 -1.8573  0.5812
10817SOL    HW233351   0.260   2.847   3.574  0.0282 -1.2334  0.2305
10818SOL     OW33352   2.463   0.609   2.419 -0.1751  0.1963  0.3768
10818SOL    HW133353   2.462   0.521   2.372  1.0038 -0.3059  1.2487
10818SOL    HW233354   2.516   0.675   2.365 -2.3357  0.8538 -1.0415
10819SOL     OW33355   4.931   0.846   1.750 -0.1958 -0.1316  0.2349
10819SOL    HW133356   5.030   0.838   1.734 -0.2419  1.2139 -0.9685
10819SOL    HW233357   4.896   0.926   1.701 -2.0646 -1.1238 -0.1555
10820SOL     OW33358   1.625   4.077   3.813 -0.1872 -0.8032  0.7903
10820SOL    HW133359   1.553   4.124   3.761  1.3641  0.3803 -0.3917
10820SOL    HW233360   1.662   4.003   3.757  1.0258  0.0423  0.4352
10821SOL     OW33361   6.681   6.050   4.932 -0.2086 -0.3782 -0.3045
10821SOL    HW133362   6.666   6.135   4.881 -0.3173  1.2376  2.2520
10821SOL    HW233363   6.592   6.007   4.951 -0.1440 -1.2133 -1.7437
10822SOL     OW33364   2.587   2.250   5.490  0.1269 -0.5750 -0.6293
10822SOL    HW133365   2.627   2.258   5.399  1.2734  0.4429 -0.0661
10822SOL    HW233366   2.651   2.287   5.558 -1.7858  1.2403  0.3038
10823SOL     OW33367   3.968   6.539   3.266  0.4550 -0.3278  0.3374
10823SOL    HW133368   3.913   6.483   3.204  0.5526 -2.1546  1.7926
10823SOL    HW233369   3.914   6.618   3.295  0.0398 -0.0036 -1.2188
10824SOL     OW33370   0.412   3.915   2.010  0.2653 -0.0174 -0.6683
10824SOL    HW133371   0.314   3.928   2.022 -0.0529 -0.2453 -2.5728
10824SOL    HW233372   0.457   3.913   2.099 -1.4455  0.0764  0.2463
10825SOL     OW33373   1.310   5.379   2.898  0.6312  0.4028 -0.2557
10825SOL    HW133374   1.307   5.283   2.924  2.1203  0.7309  1.2889
10825SOL    HW233375   1.373   5.428   2.957  0.2130  2.2756 -1.2681
10826SOL     OW33376   5.255   3.609   6.752 -0.1973 -0.2065  0.0089
10826SOL    HW133377   5.199   3.683   6.716 -1.2400 -1.1499 -0.3767
10826SOL    HW233378   5.313   3.572   6.680  0.4855  0.3610  0.2555
10827SOL     OW33379   0.915   4.257   4.659 -0.1530  0.4757 -0.4713
10827SOL    HW133380   0.840   4.200   4.694  0.1505 -0.2806 -1.0259
10827SOL    HW233381   0.988   4.259   4.727 -0.5253  0.9277 -0.0774
10828SOL     OW33382   5.403   6.987   5.506  0.0815  0.3171  0.0420
10828SOL    HW133383   5.440   7.080   5.509 -1.5791  1.0878 -1.2143
10828SOL    HW233384   5.335   6.976   5.579 -0.4526  0.4566 -0.4239
10829SOL     OW33385   4.089   0.648   0.114  0.8943  0.2564  0.2862
10829SOL    HW133386   4.187   0.632   0.100  1.7436  3.5533  1.5396
10829SOL    HW233387   4.073   0.746   0.129 -2.7313 -0.0500 -0.5777
10830SOL     OW33388   2.458   6.840   1.829 -0.1535  0.4137 -0.1646
10830SOL    HW133389   2.499   6.922   1.789 -0.9298  1.1642  0.5325
10830SOL    HW233390   2.374   6.865   1.878  1.4910 -0.1767  3.2430
10831SOL     OW33391   3.466   3.230   2.280  0.4102  0.5190  0.0351
10831SOL    HW133392   3.513   3.142   2.284  1.4170  0.7443 -3.4482
10831SOL    HW233393   3.368   3.217   2.298  0.3651 -1.5299 -1.4129
10832SOL     OW33394   6.467   2.538   6.466  0.6370 -0.7183  0.1166
10832SOL    HW133395   6.534   2.469   6.494  0.7510  0.2228  2.3496
10832SOL    HW233396   6.514   2.621   6.437  0.6176  0.7796  3.8323
10833SOL     OW33397   5.229   2.615   3.714  0.0474  0.2909  0.9181
10833SOL    HW133398   5.252   2.692   3.654  0.9470 -0.4050  0.3391
10833SOL    HW233399   5.181   2.545   3.662  2.4140 -1.1259  0.4717
10834SOL     OW33400   0.087   1.639   3.553  0.2136  0.4139 -0.6445
10834SOL    HW133401   0.047   1.548   3.540  0.0772  0.4151 -0.2265
10834SOL    HW233402   0.069   1.671   3.646 -0.5889  1.2906 -1.0893
10835SOL     OW33403   4.589   2.262   4.295 -0.2460  0.1632 -0.0025
10835SOL    HW133404   4.592   2.168   4.262  0.8998 -0.6392  2.1525
10835SOL    HW233405   4.522   2.314   4.242 -2.4752 -2.3948  0.0897
10836SOL     OW33406   6.672   2.002   0.827 -0.2608 -0.7696  0.6050
10836SOL    HW133407   6.754   1.948   0.808  1.3274  1.2609  1.3805
10836SOL    HW233408   6.660   2.011   0.926  0.3622  1.4381  0.5289
10837SOL     OW33409   5.840   6.382   0.695 -0.3932 -0.1151  0.1818
10837SOL    HW133410   5.893   6.375   0.610 -2.9894 -0.7790 -1.5190
10837SOL    HW233411   5.832   6.292   0.737  0.2363  0.0769  0.7257
10838SOL     OW33412   0.884   6.661   6.234  0.0762  0.1195 -0.0453
10838SOL    HW133413   0.859   6.585   6.294 -0.6903  0.1953 -0.2642
10838SOL    HW233414   0.921   6.625   6.148  0.8333  0.0096  0.3179
10839SOL     OW33415   6.474   3.209   0.073 -0.5643  0.0578  1.0769
10839SOL    HW133416   6.380   3.235   0.092 -0.6351 -0.4134  1.3896
10839SOL    HW233417   6.479   3.110   0.057 -0.1561  0.1085  0.8641
10840SOL     OW33418   5.174   3.434   1.716 -0.7475  0.1589  0.3507
10840SOL    HW133419   5.247   3.393   1.772  0.3760  1.1194 -0.3714
10840SOL    HW233420   5.133   3.363   1.658  1.2222 -0.0072 -0.9421
10841SOL     OW33421   0.600   5.329   6.816 -0.0388 -0.0468  0.0898
10841SOL    HW133422   0.550   5.302   6.898  0.5962 -0.5740  0.3127
10841SOL    HW233423   0.596   5.255   6.749  1.0484 -0.4082  0.3965
10842SOL     OW33424   6.898   6.358   5.404 -0.1915  0.9219  0.0564
10842SOL    HW133425   6.952   6.288   5.357 -0.1847  0.7993  0.2460
10842SOL    HW233426   6.908   6.347   5.503 -0.4780  0.9670  0.0914
10843SOL     OW33427   1.791   4.436   1.003  0.4238 -0.1141  0.2000
10843SOL    HW133428   1.861   4.506   0.990  1.9187 -1.4351  0.8193
10843SOL    HW233429   1.758   4.439   1.098 -0.6308  0.7094 -0.1704
10844SOL     OW33430   0.231   4.241   4.241  0.0201  0.4543 -0.3801
10844SOL    HW133431   0.265   4.149   4.262  1.6002  0.7654 -1.3950
10844SOL    HW233432   0.268   4.271   4.153 -0.4277  2.0910 -0.0452
10845SOL     OW33433   3.261   1.218   6.957 -0.0534  0.0945  0.1241
10845SOL    HW133434   3.308   1.209   6.869 -0.3242  0.8386 -0.1004
10845SOL    HW233435   3.294   1.301   7.003 -2.6133  1.8288 -0.9633
10846SOL     OW33436   2.555   1.581   6.766  0.0546  0.0343 -0.6969
10846SOL    HW133437   2.508   1.494   6.751 -2.8003  1.2125  0.6581
10846SOL    HW233438   2.610   1.576   6.849  0.3982 -0.6227 -0.9546
10847SOL     OW33439   6.534   1.121   6.449 -0.1672 -0.0702  0.2291
10847SOL    HW133440   6.589   1.096   6.529 -2.2337 -2.0962  1.1065
10847SOL    HW233441   6.553   1.057   6.374 -0.3158  0.1106  0.0340
10848SOL     OW33442   3.701   0.458   6.965 -0.2810  0.1648 -0.0534
10848SOL    HW133443   3.797   0.439   6.942 -0.3685 -1.5129  0.8493
10848SOL    HW233444   3.697   0.510   7.050 -0.1834 -0.5630  0.4042
10849SOL     OW33445   3.506   0.696   1.849 -0.1192 -0.8982 -0.1705
10849SOL    HW133446   3.413   0.682   1.817  0.2513 -0.7770 -1.3682
10849SOL    HW233447   3.570   0.673   1.776  0.8454 -1.9887  0.9672
10850SOL     OW33448   5.963   0.374   2.628 -0.1046 -0.1950 -0.2514
10850SOL    HW133449   5.906   0.369   2.546 -0.1831  1.3705 -0.3219
10850SOL    HW233450   5.960   0.467   2.665 -0.2115 -0.8972  1.6323
10851SOL     OW33451   6.147   0.537   5.898 -0.2188  0.3473 -0.2202
10851SOL    HW133452   6.192   0.448   5.908 -1.2491 -0.1916 -0.3075
10851SOL    HW233453   6.195   0.605   5.953  0.0367 -0.4603  0.5686
10852SOL     OW33454   2.159   0.259   5.199 -0.0766 -0.4939 -0.1291
10852SOL    HW133455   2.081   0.208   5.237 -0.7618 -0.2064 -1.1107
10852SOL    HW233456   2.127   0.319   5.126  1.1350 -0.6505 -0.8120
10853SOL     OW33457   6.557   1.351   4.436  0.2848  0.7373  0.1421
10853SOL    HW133458   6.559   1.422   4.506  0.8285 -1.0480  2.0365
10853SOL    HW233459   6.607   1.271   4.468 -0.6201 -0.6742 -1.7417
10854SOL     OW33460   4.574   5.322   3.265 -0.6149  0.0341  0.3797
10854SOL    HW133461   4.629   5.253   3.219 -0.8680  1.3445 -2.0652
10854SOL    HW233462   4.634   5.397   3.295 -0.7555  0.3393 -0.0962
10855SOL     OW33463   2.825   2.276   3.066 -0.5503  0.2621 -1.0562
10855SOL    HW133464   2.730   2.289   3.035 -0.8909 -2.0739 -1.1559
10855SOL    HW233465   2.885   2.271   2.986 -0.7400 -0.9148 -1.1369
10856SOL     OW33466   0.011   2.457   1.696  0.0492  0.4083 -0.0048
10856SOL    HW133467   0.065   2.401   1.759  0.1600  0.3251 -0.1726
10856SOL    HW233468  -0.080   2.416   1.685  0.5789 -0.5109 -1.1860
10857SOL     OW33469   2.971   6.604   5.266 -0.1919 -0.1343 -0.1289
10857SOL    HW133470   3.065   6.579   5.241 -0.5860 -1.3353 -0.5152
10857SOL    HW233471   2.965   6.703   5.278  0.6371  0.2202 -2.2175
10858SOL     OW33472   6.908   4.910   3.492 -0.2144 -0.1286  0.3005
10858SOL    HW133473   6.949   4.978   3.552 -0.7394 -0.3968  0.9734
10858SOL    HW233474   6.895   4.950   3.401 -1.0626  0.8875  0.8402
10859SOL     OW33475   2.454   0.201   4.101 -0.5674  0.4482 -0.2891
10859SOL    HW133476   2.378   0.265   4.102 -1.0258 -0.0844  0.4794
10859SOL    HW233477   2.525   0.231   4.166  1.4811  2.7474 -3.3317
10860SOL     OW33478   6.782   0.454   5.847 -0.3105  0.4583 -0.4556
10860SOL    HW133479   6.731   0.431   5.930  0.0097  1.3547  0.0022
10860SOL    HW233480   6.755   0.545   5.816  0.7924  0.8270 -0.3726
10861SOL     OW33481   1.033   4.263   6.800  0.7935  0.0876 -0.1236
10861SOL    HW133482   0.976   4.181   6.807  0.2751  0.4015 -0.5511
10861SOL    HW233483   0.995   4.336   6.857  1.4801 -0.0836  0.5726
10862SOL     OW33484   3.937   1.681   1.168  0.0184 -0.0640  0.5454
10862SOL    HW133485   4.023   1.635   1.143  0.9740  0.9575  1.8071
10862SOL    HW233486   3.882   1.695   1.086  1.8056  0.7252 -0.5821
10863SOL     OW33487   1.531   4.754   5.145 -0.9809  0.7534 -0.2886
10863SOL    HW133488   1.513   4.723   5.238  0.7609  2.8414  0.8181
10863SOL    HW233489   1.627   4.777   5.135 -0.8139 -0.7472 -3.0732
10864SOL     OW33490   5.506   2.921   6.164 -0.1895 -0.6164 -0.1116
10864SOL    HW133491   5.408   2.925   6.143 -0.0146 -1.3759 -1.1762
10864SOL    HW233492   5.548   3.010   6.145 -0.9595  0.2804  2.0684
10865SOL     OW33493   6.943   3.019   4.231 -0.8720  0.1768  0.2287
10865SOL    HW133494   6.967   2.994   4.325  2.4879  1.3329 -0.1965
10865SOL    HW233495   6.964   2.942   4.170  0.4860  0.6697  0.0396
10866SOL     OW33496   1.072   5.814   6.845  0.2270  0.8974  0.3957
10866SOL    HW133497   1.006   5.762   6.900 -1.0187  1.7330 -0.2360
10866SOL    HW233498   1.128   5.751   6.792 -1.4125  0.1534 -0.5442
10867SOL     OW33499   6.115   2.125   0.883 -0.8000 -0.4870  0.0578
10867SOL    HW133500   6.087   2.151   0.791 -2.9267 -0.8878  0.5446
10867SOL    HW233501   6.101   2.202   0.945 -1.6226 -0.9530  0.4607
10868SOL     OW33502   5.341   0.678   1.083 -0.3557 -0.0876  0.3413
10868SOL    HW133503   5.335   0.619   1.163  2.6672  0.2070  0.8874
10868SOL    HW233504   5.378   0.625   1.006 -1.1570  0.2085 -0.2715
10869NA      NA33505   6.880   5.845   6.532  0.3234 -0.0531  0.6805
10870NA      NA33506   3.860   1.254   3.771 -0.2949 -0.0507  0.1267
10871NA      NA33507   0.232   3.746   3.736  0.1253 -0.0243 -0.1938
10872NA      NA33508   5.335   3.298   3.095  0.0785  0.3962  0.4988
10873NA      NA33509   3.505   3.143   4.845 -0.0573 -0.0628 -0.2126
10874NA      NA33510   2.131   2.987   5.357  0.3838  0.1738  0.2232
10875NA      NA33511   2.748   6.948   2.325  0.0905  0.3567 -0.2615
10876NA      NA33512   3.050   5.107   1.504  0.5928 -0.0049 -0.1764
10877NA      NA33513   3.164   2.182   6.794  0.0296  0.2382  0.2418
10878NA      NA33514   2.244   2.248   6.692  0.8213  0.1628  0.1933
10879NA      NA33515   6.402   5.891   2.841  0.0414 -0.0326  0.6498
10880NA      NA33516   2.749   5.027   4.972 -0.1028 -0.1200  0.3638
10881NA      NA33517   4.709   4.535   2.333  0.1730 -0.7794 -0.2080
10882NA      NA33518   4.775   3.716   5.289  0.0426 -0.0083 -0.0923
   7.02018   7.02018   7.02018
