CNT in water
33518
    1C        C    1   2.841   2.766   4.743  0.0971  0.2820 -0.0125
    1C        C    2   2.895   2.718   4.864 -0.2400 -0.2635 -0.0872
    1C        C    3   2.831   2.758   4.982 -0.3061 -0.4107 -0.0759
    1C        C    4   2.844   2.760   4.256 -0.0543 -0.0272  0.1601
    1C        C    5   2.899   2.718   4.379  0.3846  0.0124 -0.0261
    1C        C    6   2.844   2.769   4.499 -0.0130  0.1686 -0.2756
    1C        C    7   3.013   2.640   4.622 -0.1478  0.2859  0.3887
    1C        C    8   2.896   2.720   4.621  0.1192  0.6646 -0.1414
    1C        C    9   3.076   2.607   4.744  0.5076  0.4786  0.1016
    1C        C   10   3.008   2.633   4.865  0.2007  0.3280 -0.0422
    1C        C   11   3.173   2.488   4.974 -0.4194  0.6186  0.2832
    1C        C   12   3.050   2.555   4.973 -0.6151  0.2627  0.2323
    1C        C   13   2.847   2.768   3.769  0.3945  0.1504  0.0985
    1C        C   14   2.899   2.721   3.891  0.1402  0.5188  0.3480
    1C        C   15   2.848   2.769   4.014 -0.1722  0.1223  0.3738
    1C        C   16   3.018   2.639   4.136  0.4621  0.6246 -0.1208
    1C        C   17   2.901   2.718   4.134 -0.1304 -0.2354  0.2009
    1C        C   18   3.084   2.615   4.259  0.1657  0.2299 -0.0420
    1C        C   19   3.020   2.645   4.381  0.4363  0.1093  0.1292
    1C        C   20   3.206   2.544   4.501 -0.1435  0.1655 -0.0348
    1C        C   21   3.081   2.609   4.503 -0.0584  0.3155  0.4374
    1C        C   22   3.273   2.523   4.624  0.0286  0.0600 -0.1485
    1C        C   23   3.205   2.548   4.745  0.2897 -0.0038  0.0084
    1C        C   24   3.406   2.480   4.863 -0.3906 -0.5279 -0.3427
    1C        C   25   3.265   2.501   4.865 -0.3207 -0.0900  0.2781
    1C        C   26   3.482   2.474   4.981 -0.3637 -0.1052 -0.3390
    1C        C   27   2.844   2.761   3.282  0.3641  0.4979 -0.0069
    1C        C   28   2.894   2.713   3.404  0.5521  0.5989 -0.0477
    1C        C   29   2.844   2.767   3.525  0.5102  0.6216 -0.0792
    1C        C   30   3.015   2.640   3.647  0.4876  0.6696  0.1073
    1C        C   31   2.897   2.719   3.647  0.4446  0.6030 -0.0606
    1C        C   32   3.075   2.605   3.769  0.3793  0.5149  0.1153
    1C        C   33   3.016   2.642   3.892  0.2356  0.6588  0.0027
    1C        C   34   3.205   2.544   4.013  0.2779  0.4147 -0.4491
    1C        C   35   3.077   2.603   4.013  0.1476  0.1284 -0.1229
    1C        C   36   3.272   2.521   4.135 -0.1186  1.0051 -0.1126
    1C        C   37   3.208   2.548   4.258  0.1872  0.2707  0.2126
    1C        C   38   3.415   2.499   4.378  0.2625  0.1904 -0.3439
    1C        C   39   3.276   2.523   4.380  0.3106  0.4382  0.1775
    1C        C   40   3.483   2.488   4.501  0.0630 -0.3459 -0.2774
    1C        C   41   3.411   2.496   4.622  0.1333  0.6001 -0.2904
    1C        C   42   3.624   2.489   4.744 -0.2531 -0.3688  0.3371
    1C        C   43   3.482   2.476   4.743 -0.2367 -0.5146 -0.2464
    1C        C   44   3.698   2.494   4.864 -0.2976  0.4315  0.3354
    1C        C   45   3.621   2.474   4.979 -0.3508  0.3436  0.2851
    1C        C   46   2.833   2.750   2.792 -0.0615  0.2501 -0.0440
    1C        C   47   2.889   2.705   2.913  0.8109  0.7032 -0.2738
    1C        C   48   2.840   2.757   3.034  0.4387  0.3886 -0.2909
    1C        C   49   3.008   2.633   3.157  0.0410  0.4724  0.1829
    1C        C   50   2.898   2.721   3.157  0.5526  1.1184 -0.1252
    1C        C   51   3.072   2.600   3.279  0.3763  0.8364  0.1035
    1C        C   52   3.013   2.636   3.402  0.7155  0.8414  0.2657
    1C        C   53   3.204   2.548   3.523  0.2062 -0.2593 -0.4193
    1C        C   54   3.072   2.600   3.524  0.3548  0.1088  0.2286
    1C        C   55   3.271   2.530   3.645 -0.0836 -0.5973 -0.3086
    1C        C   56   3.206   2.553   3.769 -0.0582 -0.6186 -0.2902
    1C        C   57   3.412   2.499   3.889  0.1775 -0.6331 -0.4314
    1C        C   58   3.274   2.530   3.891  0.2903 -0.1020 -0.3826
    1C        C   59   3.482   2.494   4.012 -0.4901 -0.5578 -0.0416
    1C        C   60   3.412   2.506   4.134 -0.2194 -0.0959  0.0700
    1C        C   61   3.625   2.497   4.257  0.3945 -0.5494 -0.0813
    1C        C   62   3.484   2.497   4.255  0.3928  0.1227 -0.2702
    1C        C   63   3.697   2.498   4.378 -0.0700 -0.5949  0.1961
    1C        C   64   3.624   2.494   4.499  0.0986 -0.8894  0.2889
    1C        C   65   3.828   2.544   4.618 -0.0735 -0.7819  0.0884
    1C        C   66   3.693   2.505   4.622 -0.1057 -0.6437  0.3816
    1C        C   67   3.897   2.569   4.740  0.0619 -0.4894 -0.0459
    1C        C   68   3.834   2.532   4.861 -0.1487 -0.1230 -0.0412
    1C        C   69   4.051   2.581   4.972 -0.3899  0.4495  0.2460
    1C        C   70   3.918   2.538   4.973 -0.2223 -0.0756  0.0100
    1C        C   71   2.824   2.734   2.307 -0.4481 -0.3059 -0.2099
    1C        C   72   2.880   2.692   2.430 -0.1706  0.5351 -0.0401
    1C        C   73   2.826   2.741   2.551  0.0895  0.4300  0.1197
    1C        C   74   3.003   2.620   2.672  0.2074  0.2698 -0.1015
    1C        C   75   2.887   2.700   2.671  0.4951  0.6986  0.0117
    1C        C   76   3.067   2.589   2.794  0.5549  0.1751 -0.3058
    1C        C   77   3.004   2.623   2.915  0.6365  0.4576 -0.3433
    1C        C   78   3.201   2.541   3.035 -0.0398  0.7004 -0.0318
    1C        C   79   3.069   2.591   3.037 -0.0677  0.6196  0.0788
    1C        C   80   3.271   2.528   3.157  0.2497  0.4829 -0.2211
    1C        C   81   3.204   2.551   3.279  0.1615  0.2513 -0.2260
    1C        C   82   3.411   2.505   3.402  0.1867 -1.1126 -0.4934
    1C        C   83   3.271   2.524   3.401  0.3160 -0.1140 -0.3887
    1C        C   84   3.480   2.498   3.524 -0.1984 -1.5226 -0.2936
    1C        C   85   3.410   2.506   3.646 -0.1101 -0.7594 -0.2842
    1C        C   86   3.624   2.502   3.767  0.1486 -0.6684  0.1180
    1C        C   87   3.483   2.498   3.767  0.1493 -0.9184 -0.4477
    1C        C   88   3.694   2.508   3.889 -0.2399 -0.6665  0.3432
    1C        C   89   3.623   2.497   4.011 -0.4853 -0.5918  0.2128
    1C        C   90   3.828   2.552   4.131  0.1410 -0.1884 -0.0050
    1C        C   91   3.692   2.512   4.133  0.1301 -0.1705 -0.1813
    1C        C   92   3.893   2.578   4.253  0.0722 -0.7682  0.1579
    1C        C   93   3.828   2.550   4.375 -0.0890 -0.5481  0.1238
    1C        C   94   4.023   2.633   4.496 -0.2606 -0.1308 -0.1542
    1C        C   95   3.894   2.574   4.497 -0.3262  0.0159  0.1447
    1C        C   96   4.079   2.679   4.618 -0.5757  0.1711 -0.1220
    1C        C   97   4.019   2.640   4.740 -0.2203 -0.0033 -0.0027
    1C        C   98   4.188   2.766   4.860 -0.6605  0.3370 -0.0774
    1C        C   99   4.094   2.657   4.859 -0.1308 -0.1215 -0.0423
    1C        C  100   4.217   2.842   4.974  0.3068  0.1029 -0.1614
    1C        C  101   2.825   2.732   2.070 -0.0702  0.2409  0.0820
    1C        C  102   2.994   2.594   2.186 -0.1982 -0.3893  0.3054
    1C        C  103   2.878   2.679   2.188 -0.0088 -0.1135 -0.1019
    1C        C  104   3.063   2.578   2.309  0.3020  0.5959  0.1628
    1C        C  105   2.998   2.615   2.429 -0.1736  0.5272 -0.0669
    1C        C  106   3.198   2.540   2.550  0.0287  0.3878 -0.1828
    1C        C  107   3.064   2.584   2.550 -0.0011  0.3031 -0.2166
    1C        C  108   3.271   2.528   2.671  0.1949 -0.2707 -0.3414
    1C        C  109   3.201   2.543   2.793  0.4250 -0.2130 -0.2150
    1C        C  110   3.410   2.506   2.911  0.1445  0.2622  0.0479
    1C        C  111   3.269   2.517   2.914  0.1684  0.5789  0.1083
    1C        C  112   3.480   2.506   3.034  0.3359  0.0486 -0.0603
    1C        C  113   3.411   2.507   3.157  0.1885  0.0624 -0.1424
    1C        C  114   3.621   2.499   3.281  0.3831 -0.3873  0.1641
    1C        C  115   3.480   2.496   3.279  0.4039 -1.1714 -0.3677
    1C        C  116   3.693   2.509   3.402  0.2060 -0.6248  0.2918
    1C        C  117   3.621   2.495   3.523 -0.1671 -0.6478  0.0712
    1C        C  118   3.828   2.549   3.643  0.0387 -0.7353  0.1816
    1C        C  119   3.693   2.508   3.644 -0.0857 -0.3482 -0.0042
    1C        C  120   3.897   2.569   3.765  0.2334 -0.6937  0.0693
    1C        C  121   3.829   2.549   3.887 -0.5107  0.2468 -0.1710
    1C        C  122   4.022   2.636   4.009 -0.3221 -0.0788 -0.2640
    1C        C  123   3.896   2.573   4.009 -0.1808 -0.3698 -0.2202
    1C        C  124   4.080   2.678   4.130 -0.6694  0.1670 -0.1758
    1C        C  125   4.020   2.640   4.252 -0.3816  0.1708 -0.0290
    1C        C  126   4.183   2.773   4.372 -0.6167  0.5759 -0.0954
    1C        C  127   4.080   2.676   4.375 -0.4552  0.4036 -0.0595
    1C        C  128   4.233   2.822   4.495 -0.5804  0.1360  0.0679
    1C        C  129   4.184   2.773   4.618 -0.4538  0.0366  0.0807
    1C        C  130   4.328   2.931   4.737  0.2622 -0.2381 -0.2957
    1C        C  131   4.239   2.820   4.739 -0.6123  0.4538 -0.0060
    1C        C  132   4.359   2.999   4.857 -0.3890  0.3568 -0.4526
    1C        C  133   4.291   2.960   4.973 -0.2267  0.4402 -0.3287
    1C        C  134   3.174   2.468   2.081  0.0703  0.4311 -0.0707
    1C        C  135   3.040   2.509   2.080 -0.1037 -0.1283  0.1327
    1C        C  136   3.258   2.480   2.193  0.3521  0.3523 -0.2732
    1C        C  137   3.197   2.532   2.309  0.2561  0.4538 -0.3668
    1C        C  138   3.404   2.490   2.426  0.0501 -0.0430 -0.0529
    1C        C  139   3.264   2.507   2.430  0.1327  0.7602 -0.2317
    1C        C  140   3.478   2.489   2.547  0.1484  0.2134 -0.1096
    1C        C  141   3.410   2.503   2.670  0.2164 -0.1750 -0.0259
    1C        C  142   3.623   2.489   2.791  0.0387 -0.8158 -0.2885
    1C        C  143   3.482   2.495   2.790  0.0474 -0.4813  0.0549
    1C        C  144   3.693   2.498   2.914 -0.1038 -0.4377 -0.2314
    1C        C  145   3.621   2.503   3.035  0.3200 -0.8194  0.0406
    1C        C  146   3.829   2.530   3.155  0.2572 -0.6926 -0.0034
    1C        C  147   3.690   2.504   3.158  0.2542 -0.6771  0.0781
    1C        C  148   3.899   2.553   3.276  0.3689 -0.5284 -0.0962
    1C        C  149   3.832   2.537   3.399  0.1888 -0.5734 -0.1962
    1C        C  150   4.025   2.623   3.521 -0.2907 -0.4977 -0.0110
    1C        C  151   3.898   2.560   3.521 -0.2028 -0.6813  0.0425
    1C        C  152   4.087   2.662   3.641  0.1510 -0.5828 -0.2055
    1C        C  153   4.026   2.626   3.763  0.2428 -0.7129 -0.1950
    1C        C  154   4.192   2.757   3.887  0.1283 -0.3792  0.3120
    1C        C  155   4.084   2.666   3.885 -0.2878  0.1101 -0.2039
    1C        C  156   4.244   2.809   4.007 -0.2571  0.2359  0.2213
    1C        C  157   4.189   2.767   4.130 -0.8071  0.3393  0.0156
    1C        C  158   4.335   2.922   4.248 -0.6456  0.3950 -0.1075
    1C        C  159   4.242   2.816   4.252 -0.1705 -0.0278 -0.1028
    1C        C  160   4.370   2.984   4.370 -0.1106  0.0709 -0.0930
    1C        C  161   4.327   2.927   4.492 -0.2613 -0.1492 -0.2462
    1C        C  162   4.439   3.109   4.612 -0.1359 -0.0412 -0.2320
    1C        C  163   4.369   2.986   4.614 -0.0871 -0.0725 -0.3414
    1C        C  164   4.471   3.175   4.732 -0.3310  0.0580 -0.2323
    1C        C  165   4.442   3.113   4.855 -0.0672  0.1314 -0.1312
    1C        C  166   4.521   3.312   4.971 -0.4108  0.1890  0.2411
    1C        C  167   4.487   3.177   4.971  0.1921  0.0280 -0.1740
    1C        C  168   3.472   2.441   2.074  0.2838  0.0517  0.1064
    1C        C  169   3.398   2.459   2.191  0.2209 -0.6117  0.1737
    1C        C  170   3.620   2.473   2.301  0.2626 -0.7219 -0.2471
    1C        C  171   3.478   2.470   2.307  0.2631 -0.2388  0.1096
    1C        C  172   3.689   2.489   2.423 -0.0047 -0.1668 -0.1632
    1C        C  173   3.619   2.491   2.545  0.1489  0.1632 -0.0798
    1C        C  174   3.827   2.530   2.667  0.4839 -1.2020 -0.0964
    1C        C  175   3.689   2.501   2.667  0.2315 -0.0145 -0.1132
    1C        C  176   3.893   2.557   2.789  0.1431 -0.6974 -0.0256
    1C        C  177   3.830   2.531   2.913 -0.1254 -0.3398 -0.0825
    1C        C  178   4.024   2.617   3.032 -0.2544  0.0427  0.3430
    1C        C  179   3.897   2.555   3.034 -0.0048 -0.4980 -0.1153
    1C        C  180   4.085   2.657   3.153  0.2032  0.1136  0.0951
    1C        C  181   4.023   2.619   3.275 -0.0463  0.2709  0.0216
    1C        C  182   4.188   2.752   3.396 -0.5205  0.2929 -0.2202
    1C        C  183   4.082   2.659   3.397  0.0684 -0.3830  0.1836
    1C        C  184   4.242   2.801   3.517 -0.2844  0.1142 -0.2513
    1C        C  185   4.195   2.753   3.642  0.2019 -0.6395 -0.3533
    1C        C  186   4.334   2.913   3.760 -0.9562 -0.1961  0.1952
    1C        C  187   4.242   2.806   3.764 -1.0096 -0.1641 -0.0812
    1C        C  188   4.375   2.971   3.882 -0.8600  0.0983  0.0262
    1C        C  189   4.337   2.916   4.006 -0.2889  0.2683  0.2819
    1C        C  190   4.447   3.101   4.123  0.1683  0.2970  0.2072
    1C        C  191   4.380   2.977   4.126  0.0221  0.3703  0.1228
    1C        C  192   4.466   3.171   4.244 -0.0849  0.2840  0.2593
    1C        C  193   4.435   3.109   4.367 -0.5240  0.2990  0.1613
    1C        C  194   4.498   3.311   4.487  0.3868  0.2014 -0.3383
    1C        C  195   4.465   3.173   4.489  0.3690  0.2062  0.0026
    1C        C  196   4.519   3.381   4.608 -0.4053  0.0043 -0.0759
    1C        C  197   4.502   3.314   4.731 -0.0486 -0.0018 -0.0277
    1C        C  198   4.550   3.526   4.848  0.5818 -0.2392  0.0266
    1C        C  199   4.531   3.384   4.851  0.0156 -0.1675  0.0563
    1C        C  200   4.585   3.611   4.958  0.0242  0.0999 -0.0534
    1C        C  201   3.611   2.428   2.067  0.3213  0.7937 -0.6954
    1C        C  202   3.828   2.510   2.181  0.2141 -0.0454  0.0382
    1C        C  203   3.691   2.470   2.178  0.1956  0.0375 -0.3127
    1C        C  204   3.895   2.543   2.302 -0.1393  0.5204  0.0809
    1C        C  205   3.826   2.524   2.424 -0.0088 -0.1575  0.0472
    1C        C  206   4.021   2.613   2.543 -0.1024  0.3421  0.0370
    1C        C  207   3.894   2.552   2.544  0.4426 -0.8112 -0.0487
    1C        C  208   4.082   2.652   2.665  0.0473  0.1795  0.0150
    1C        C  209   4.016   2.627   2.787 -0.0188 -0.4092 -0.1411
    1C        C  210   4.193   2.740   2.908 -0.8116  0.1275  0.0090
    1C        C  211   4.082   2.653   2.909 -0.6008 -0.1484  0.1227
    1C        C  212   4.244   2.792   3.029 -0.8744  0.8865 -0.2877
    1C        C  213   4.196   2.745   3.153 -0.6208  1.1819 -0.0724
    1C        C  214   4.339   2.900   3.270 -0.5662  0.8090  0.3909
    1C        C  215   4.249   2.791   3.275 -0.1757  0.4659  0.0073
    1C        C  216   4.376   2.961   3.392 -0.2893  0.5750  0.4254
    1C        C  217   4.336   2.906   3.515 -0.2234  0.0728  0.2272
    1C        C  218   4.435   3.095   3.637 -0.5050  0.0147  0.0382
    1C        C  219   4.373   2.968   3.636 -0.9632  0.2317  0.3801
    1C        C  220   4.458   3.165   3.757 -0.5711  0.3347 -0.1336
    1C        C  221   4.433   3.100   3.880 -0.6080 -0.0172 -0.3258
    1C        C  222   4.503   3.302   4.001  0.3833 -0.3727 -0.4038
    1C        C  223   4.471   3.165   3.999 -0.8510 -0.0957 -0.2027
    1C        C  224   4.512   3.377   4.120 -0.0685 -0.2170 -0.4607
    1C        C  225   4.502   3.308   4.243  0.1151  0.2331 -0.1870
    1C        C  226   4.517   3.520   4.362  0.8697  0.3397  0.2434
    1C        C  227   4.506   3.380   4.365 -0.0306  0.3867 -0.2679
    1C        C  228   4.508   3.591   4.484  0.4371  0.2427  0.2716
    1C        C  229   4.523   3.522   4.606 -0.0179  0.0010  0.1960
    1C        C  230   4.495   3.734   4.721  0.2117  0.0753  0.3282
    1C        C  231   4.531   3.597   4.726 -0.2604 -0.0562  0.2517
    1C        C  232   4.496   3.812   4.839 -0.2853  0.0067  0.3804
    1C        C  233   4.552   3.747   4.949 -0.0891  0.0992  0.3377
    1C        C  234   4.017   2.604   2.058 -0.5025  0.4341 -0.2571
    1C        C  235   3.892   2.543   2.061 -0.1457 -0.3055 -0.2281
    1C        C  236   4.083   2.640   2.176  0.0314 -0.4366 -0.2771
    1C        C  237   4.022   2.607   2.299 -0.1894  0.6125 -0.0918
    1C        C  238   4.193   2.735   2.420 -0.2617  0.4364 -0.0693
    1C        C  239   4.084   2.643   2.421 -0.2044  0.3678 -0.0094
    1C        C  240   4.248   2.785   2.540 -0.3759  0.4091 -0.0042
    1C        C  241   4.194   2.739   2.662 -0.3679  0.7289  0.1241
    1C        C  242   4.334   2.895   2.781 -0.4016  0.4523  0.2301
    1C        C  243   4.246   2.784   2.785 -0.6062  0.6139  0.2686
    1C        C  244   4.376   2.955   2.902 -0.4557  0.7455  0.1045
    1C        C  245   4.335   2.900   3.025 -0.7346  0.7826  0.0316
    1C        C  246   4.431   3.088   3.148  0.7810 -0.2956  0.1405
    1C        C  247   4.378   2.958   3.147 -0.1492  0.0718  0.1698
    1C        C  248   4.451   3.158   3.269  0.0394  0.2523 -0.0425
    1C        C  249   4.429   3.091   3.392 -0.7522  0.7669  0.1033
    1C        C  250   4.489   3.296   3.511 -0.0827  0.2922 -0.2582
    1C        C  251   4.457   3.159   3.513 -0.3362  0.3565  0.2408
    1C        C  252   4.506   3.366   3.632 -0.3931  0.1655 -0.1409
    1C        C  253   4.494   3.302   3.757 -0.3962  0.2907 -0.0764
    1C        C  254   4.512   3.514   3.877 -0.5127  0.2607  0.4095
    1C        C  255   4.508   3.373   3.879 -0.1238  0.2396 -0.0770
    1C        C  256   4.508   3.586   3.999  0.6213  0.1558  0.5203
    1C        C  257   4.516   3.518   4.122  0.2320 -0.2261  0.3371
    1C        C  258   4.493   3.732   4.237 -0.1159  0.0939  0.0317
    1C        C  259   4.518   3.593   4.241  0.1552  0.1436  0.1089
    1C        C  260   4.469   3.800   4.358 -0.4168 -0.0177  0.0367
    1C        C  261   4.483   3.730   4.479 -0.0138  0.1603  0.0967
    1C        C  262   4.408   3.930   4.599 -0.3057 -0.2626  0.1284
    1C        C  263   4.460   3.798   4.601 -0.0119 -0.1472  0.2721
    1C        C  264   4.390   4.001   4.720 -0.3781  0.2602 -0.1871
    1C        C  265   4.434   3.939   4.839  0.1606  0.2345 -0.3929
    1C        C  266   4.327   4.129   4.957 -0.0164 -0.0607  0.2485
    1C        C  267   4.395   4.008   4.955  0.0855  0.0055 -0.2814
    1C        C  268   4.258   2.773   2.060 -0.5845  0.3052  0.2032
    1C        C  269   4.196   2.725   2.176 -0.7182  0.5777  0.2440
    1C        C  270   4.340   2.885   2.296  0.3071  0.0959 -0.0726
    1C        C  271   4.247   2.778   2.297  0.1390  0.2417  0.0363
    1C        C  272   4.377   2.951   2.415  0.0966  0.2189 -0.0763
    1C        C  273   4.339   2.893   2.538 -0.5981  0.5974 -0.1032
    1C        C  274   4.438   3.080   2.660  0.0366 -0.1480 -0.0916
    1C        C  275   4.377   2.953   2.660 -0.0768 -0.0935  0.0801
    1C        C  276   4.466   3.147   2.781  0.5363 -0.0023 -0.2833
    1C        C  277   4.434   3.084   2.903  0.2189  0.4481 -0.1299
    1C        C  278   4.492   3.288   3.023 -0.1347  0.0059 -0.2745
    1C        C  279   4.461   3.150   3.025  0.4225 -0.1199  0.1386
    1C        C  280   4.506   3.362   3.142  0.2088  0.1366 -0.3947
    1C        C  281   4.490   3.294   3.265  0.1712  0.2064 -0.3608
    1C        C  282   4.499   3.505   3.386 -0.2156  0.1731  0.0341
    1C        C  283   4.496   3.364   3.387 -0.0748  0.1690 -0.3258
    1C        C  284   4.499   3.575   3.509  0.3118  0.1350  0.0542
    1C        C  285   4.509   3.507   3.632  0.3415  0.1543  0.0621
    1C        C  286   4.483   3.720   3.748  0.1396 -0.0630  0.0287
    1C        C  287   4.502   3.580   3.753  0.1994 -0.0504  0.1788
    1C        C  288   4.467   3.790   3.870  0.1390  0.1523 -0.0957
    1C        C  289   4.487   3.725   3.994  0.1734  0.0693 -0.1438
    1C        C  290   4.420   3.929   4.110  0.2128  0.0046 -0.2745
    1C        C  291   4.471   3.798   4.114  0.0074 -0.0705 -0.0801
    1C        C  292   4.389   3.994   4.232 -0.1958 -0.2740 -0.2283
    1C        C  293   4.412   3.930   4.356 -0.4573 -0.0364 -0.0554
    1C        C  294   4.321   4.122   4.475 -0.3155 -0.1161 -0.1504
    1C        C  295   4.386   3.997   4.477 -1.2506 -0.6059  0.0981
    1C        C  296   4.276   4.179   4.596 -0.0472  0.3129 -0.2518
    1C        C  297   4.318   4.123   4.719  0.3853  0.7192 -0.2130
    1C        C  298   4.190   4.300   4.836  0.2021 -0.1121 -0.3265
    1C        C  299   4.275   4.185   4.839 -0.0799 -0.3054  0.1606
    1C        C  300   4.165   4.390   4.944  0.2038 -0.1686 -0.2817
    1C        C  301   4.349   2.878   2.057 -0.0768 -0.1335  0.0166
    1C        C  302   4.452   3.070   2.170 -0.3449  0.3045 -0.3888
    1C        C  303   4.387   2.943   2.175  0.0838  0.0948 -0.1593
    1C        C  304   4.465   3.141   2.293 -0.1575  0.0372 -0.2568
    1C        C  305   4.438   3.078   2.416 -0.0450  0.2878 -0.1070
    1C        C  306   4.502   3.282   2.537 -0.1707  0.0841 -0.1128
    1C        C  307   4.466   3.145   2.538  0.1063  0.0126  0.0092
    1C        C  308   4.513   3.356   2.656  0.5135  0.3085 -0.3143
    1C        C  309   4.494   3.285   2.777  0.5889 -0.0189 -0.4933
    1C        C  310   4.514   3.496   2.900 -0.3423 -0.1516  0.0275
    1C        C  311   4.501   3.355   2.900  0.1382 -0.1953 -0.3651
    1C        C  312   4.514   3.572   3.019  0.1951  0.2810 -0.2450
    1C        C  313   4.514   3.503   3.143  0.7235  0.1075 -0.3399
    1C        C  314   4.483   3.715   3.262  0.2441 -0.2418 -0.0642
    1C        C  315   4.501   3.575   3.264  0.4830 -0.2124 -0.1755
    1C        C  316   4.474   3.786   3.383  0.7664 -0.1411 -0.0812
    1C        C  317   4.486   3.716   3.505  0.1376  0.1198  0.1349
    1C        C  318   4.421   3.920   3.623  0.2182  0.2411 -0.2622
    1C        C  319   4.473   3.789   3.626 -0.2417  0.0645  0.1288
    1C        C  320   4.390   3.985   3.744 -0.4289 -0.1517 -0.2159
    1C        C  321   4.416   3.921   3.867  0.0535  0.1161 -0.1807
    1C        C  322   4.313   4.110   3.988  0.0008 -0.0159  0.1606
    1C        C  323   4.389   3.991   3.987  0.5501  0.3348 -0.1953
    1C        C  324   4.279   4.175   4.108  0.1903  0.2971  0.0435
    1C        C  325   4.320   4.117   4.230  0.4917  0.1185 -0.1445
    1C        C  326   4.179   4.277   4.350  0.3476  0.2357 -0.0035
    1C        C  327   4.276   4.175   4.351  0.2497  0.1439 -0.2456
    1C        C  328   4.126   4.327   4.471 -0.2185 -0.0207 -0.1451
    1C        C  329   4.179   4.282   4.594 -0.3207  0.0545 -0.0771
    1C        C  330   4.020   4.428   4.710  0.0319  0.1411  0.1099
    1C        C  331   4.136   4.346   4.712  0.3954  0.6481 -0.1319
    1C        C  332   3.967   4.486   4.828 -0.1534 -0.1519  0.1689
    1C        C  333   4.048   4.468   4.941  0.1569 -0.2293 -0.0666
    1C        C  334   4.546   3.269   2.060  0.2678  0.3463 -0.2236
    1C        C  335   4.525   3.131   2.063  0.8180  0.2757  0.3797
    1C        C  336   4.525   3.348   2.173  0.1775  0.1140 -0.0805
    1C        C  337   4.498   3.279   2.293 -0.5320  0.1267 -0.2269
    1C        C  338   4.513   3.492   2.414  0.1422 -0.0761 -0.4114
    1C        C  339   4.510   3.351   2.414  0.2001 -0.0753 -0.1768
    1C        C  340   4.519   3.567   2.533  0.0239  0.0044 -0.4559
    1C        C  341   4.522   3.497   2.656  0.9520  0.2801 -0.3164
    1C        C  342   4.489   3.705   2.775  0.3165 -0.2428  0.1828
    1C        C  343   4.517   3.567   2.778  0.2195 -0.2685 -0.0285
    1C        C  344   4.470   3.776   2.895  0.0046  0.1754 -0.1068
    1C        C  345   4.488   3.710   3.019 -0.0539  0.2340 -0.0682
    1C        C  346   4.428   3.917   3.136  0.8043  0.3004  0.2323
    1C        C  347   4.475   3.784   3.139 -0.0876 -0.0173  0.0838
    1C        C  348   4.392   3.978   3.258  0.5265  0.1661  0.2142
    1C        C  349   4.421   3.917   3.382  0.7640 -0.1430  0.0061
    1C        C  350   4.328   4.112   3.499 -0.0620  0.0147 -0.2878
    1C        C  351   4.390   3.985   3.502  0.3361  0.2102 -0.3068
    1C        C  352   4.280   4.167   3.620  0.2556 -0.0533 -0.1348
    1C        C  353   4.315   4.105   3.742 -0.4201 -0.1468  0.0139
    1C        C  354   4.176   4.267   3.863 -0.2844 -0.3122  0.1673
    1C        C  355   4.270   4.161   3.864 -0.3859 -0.3971  0.1380
    1C        C  356   4.120   4.314   3.984 -0.1802 -0.1581  0.1502
    1C        C  357   4.177   4.272   4.106 -0.0219  0.0748  0.1511
    1C        C  358   4.010   4.404   4.227 -0.1349 -0.0361 -0.2577
    1C        C  359   4.126   4.323   4.228 -0.0123  0.1453  0.1214
    1C        C  360   3.949   4.448   4.347 -0.2046 -0.2687 -0.2109
    1C        C  361   4.015   4.413   4.467  0.0488  0.3187 -0.1789
    1C        C  362   3.827   4.512   4.590  0.3642  0.2923 -0.1227
    1C        C  363   3.958   4.460   4.588  0.3493  0.2586 -0.0180
    1C        C  364   3.761   4.539   4.711  0.1668  0.4388 -0.2645
    1C        C  365   3.833   4.530   4.832 -0.0450  0.2095 -0.1554
    1C        C  366   3.626   4.593   4.949 -0.0539 -0.1770 -0.2451
    1C        C  367   3.762   4.563   4.947  0.0733  0.3943 -0.1367
    1C        C  368   4.522   3.561   2.050  0.0151 -0.1737 -0.2455
    1C        C  369   4.521   3.489   2.170 -0.5187  0.0980 -0.0848
    1C        C  370   4.490   3.700   2.289  0.2033  0.2743  0.0866
    1C        C  371   4.517   3.562   2.291  0.4713  0.3211 -0.1773
    1C        C  372   4.473   3.773   2.409  0.0006  0.2023  0.1013
    1C        C  373   4.493   3.706   2.531  0.0662  0.0193 -0.0082
    1C        C  374   4.430   3.909   2.649 -0.1567 -0.3891  0.0422
    1C        C  375   4.472   3.774   2.653  0.3177 -0.2399  0.1840
    1C        C  376   4.398   3.974   2.771  0.1775  0.0114 -0.0849
    1C        C  377   4.423   3.909   2.893  0.3268  0.2949  0.0386
    1C        C  378   4.326   4.101   3.013  0.3567 -0.0024 -0.1873
    1C        C  379   4.398   3.979   3.013  0.4981  0.0821  0.1991
    1C        C  380   4.278   4.154   3.134 -0.0529 -0.1797 -0.2733
    1C        C  381   4.312   4.094   3.257  0.6274  0.2300 -0.2546
    1C        C  382   4.170   4.254   3.374 -1.0616 -1.0396  0.1546
    1C        C  383   4.275   4.159   3.377 -0.3905 -0.3070 -0.2670
    1C        C  384   4.120   4.303   3.497 -0.2818 -0.3830  0.2107
    1C        C  385   4.178   4.264   3.620  0.0091 -0.3183  0.0898
    1C        C  386   4.006   4.391   3.737 -0.2427 -0.7144  0.1677
    1C        C  387   4.124   4.314   3.741  0.1541 -0.1122  0.0628
    1C        C  388   3.945   4.428   3.860 -0.4599 -0.6003  0.0219
    1C        C  389   4.004   4.394   3.984 -0.0415  0.0359 -0.0029
    1C        C  390   3.817   4.491   4.103 -0.2120  0.1971  0.0858
    1C        C  391   3.949   4.440   4.105 -0.2084  0.2029 -0.1453
    1C        C  392   3.751   4.520   4.224 -0.2807  0.3482  0.0092
    1C        C  393   3.820   4.505   4.347 -0.3200 -0.5380 -0.0789
    1C        C  394   3.616   4.550   4.471  0.2235  0.5265 -0.3161
    1C        C  395   3.756   4.533   4.469  0.2086  0.3786 -0.0138
    1C        C  396   3.547   4.554   4.594  0.2005 -0.1071 -0.3029
    1C        C  397   3.621   4.560   4.714  0.1506  0.3264 -0.2911
    1C        C  398   3.410   4.540   4.835  0.0480  0.2877 -0.3301
    1C        C  399   3.548   4.573   4.834 -0.0037  0.5037 -0.4040
    1C        C  400   3.342   4.506   4.953  0.4138  0.1492 -0.1553
    1C        C  401   4.509   3.699   2.050 -0.1293 -0.1859 -0.3977
    1C        C  402   4.436   3.904   2.164 -0.2314 -0.2937 -0.3317
    1C        C  403   4.485   3.772   2.167 -0.7970 -0.5035 -0.3378
    1C        C  404   4.400   3.972   2.283  0.0641 -0.0085 -0.4016
    1C        C  405   4.427   3.906   2.405  0.4972  0.3618 -0.2964
    1C        C  406   4.328   4.094   2.526  0.7006 -0.0243 -0.1373
    1C        C  407   4.398   3.971   2.526  0.3042 -0.2531 -0.0085
    1C        C  408   4.277   4.147   2.646  0.4283 -0.3244 -0.1187
    1C        C  409   4.320   4.092   2.769  0.2833  0.0848  0.1161
    1C        C  410   4.169   4.242   2.888 -0.7673 -0.7165  0.0090
    1C        C  411   4.274   4.147   2.890 -0.2274 -0.1218  0.0168
    1C        C  412   4.117   4.291   3.009 -0.2137 -0.3645  0.1035
    1C        C  413   4.175   4.251   3.131 -0.2245 -0.3569  0.1074
    1C        C  414   4.001   4.379   3.250 -0.3448 -0.3709  0.0368
    1C        C  415   4.115   4.295   3.251 -0.8929 -1.1167  0.0589
    1C        C  416   3.945   4.423   3.372 -0.2138 -0.1992  0.0294
    1C        C  417   4.004   4.383   3.494 -0.4846 -0.6910 -0.0036
    1C        C  418   3.814   4.478   3.613 -0.2474 -0.7434 -0.1628
    1C        C  419   3.945   4.426   3.615 -0.3338 -0.9394  0.1541
    1C        C  420   3.747   4.499   3.735 -0.0856  0.4824 -0.2700
    1C        C  421   3.815   4.481   3.858 -0.2726 -0.1609 -0.2568
    1C        C  422   3.609   4.521   3.982 -0.0063  0.1496 -0.0125
    1C        C  423   3.750   4.507   3.980 -0.0657 -0.4689 -0.0828
    1C        C  424   3.540   4.535   4.104  0.0088  0.1470 -0.0064
    1C        C  425   3.610   4.527   4.227 -0.3015 -0.1317  0.1548
    1C        C  426   3.402   4.536   4.353 -0.3805  0.2018  0.2321
    1C        C  427   3.543   4.539   4.350 -0.3844  0.2150  0.0741
    1C        C  428   3.332   4.536   4.476 -0.5193  0.8560  0.1577
    1C        C  429   3.406   4.549   4.595  0.1689  0.6051 -0.2375
    1C        C  430   3.195   4.516   4.717  0.0822 -0.0834 -0.0586
    1C        C  431   3.335   4.541   4.716  0.0514  0.0920 -0.3353
    1C        C  432   3.126   4.485   4.838  0.5329 -0.1809  0.1756
    1C        C  433   3.208   4.469   4.950  0.4960 -0.1811  0.2046
    1C        C  434   4.376   4.118   2.051 -0.0886  0.2001  0.2731
    1C        C  435   4.435   3.990   2.054 -0.2588  0.1146 -0.0159
    1C        C  436   4.296   4.160   2.162 -0.7333 -0.2246 -0.0240
    1C        C  437   4.321   4.090   2.284 -0.2383 -0.2106 -0.1145
    1C        C  438   4.180   4.248   2.400 -0.0088 -0.4410 -0.0404
    1C        C  439   4.283   4.152   2.405  0.3978 -0.0059 -0.0171
    1C        C  440   4.119   4.287   2.521  0.0839 -0.6386  0.0690
    1C        C  441   4.172   4.241   2.643  0.3704 -0.3858  0.0421
    1C        C  442   4.001   4.368   2.762 -0.6648 -1.0925 -0.0625
    1C        C  443   4.118   4.288   2.765 -0.5246 -0.8878 -0.1551
    1C        C  444   3.938   4.405   2.883 -0.2479 -0.5376 -0.0158
    1C        C  445   4.000   4.371   3.005 -0.5532 -0.8669  0.0455
    1C        C  446   3.811   4.465   3.127 -0.1991 -0.0940 -0.0546
    1C        C  447   3.941   4.411   3.127 -0.3877 -0.5472  0.0169
    1C        C  448   3.743   4.488   3.249 -0.4432 -0.4741 -0.1195
    1C        C  449   3.812   4.468   3.371 -0.3057 -0.4899 -0.2037
    1C        C  450   3.606   4.523   3.494 -0.0762  0.1531  0.1625
    1C        C  451   3.744   4.496   3.491 -0.2097 -0.5223 -0.1473
    1C        C  452   3.536   4.532   3.616 -0.2695  0.5282  0.0252
    1C        C  453   3.608   4.526   3.738 -0.1594  0.0739 -0.0631
    1C        C  454   3.397   4.525   3.865  0.0322  0.1815 -0.1586
    1C        C  455   3.538   4.529   3.861  0.0199  0.8660  0.0199
    1C        C  456   3.328   4.515   3.987 -0.0264 -0.2636 -0.2301
    1C        C  457   3.399   4.529   4.108  0.0033  0.1414 -0.2963
    1C        C  458   3.193   4.498   4.233  0.0837  1.0649 -0.0536
    1C        C  459   3.331   4.529   4.231  0.2605  0.3009 -0.1542
    1C        C  460   3.124   4.483   4.356 -0.0510  0.2791 -0.2219
    1C        C  461   3.194   4.506   4.476 -0.4458  0.5093 -0.0317
    1C        C  462   2.999   4.428   4.597  0.0953 -0.6463  0.2073
    1C        C  463   3.123   4.494   4.598 -0.1313 -0.2141  0.0904
    1C        C  464   2.930   4.398   4.716  0.1780 -0.3644  0.3274
    1C        C  465   2.991   4.439   4.838  0.3553  0.3262  0.0118
    1C        C  466   2.798   4.335   4.954  0.3771 -0.1672  0.2863
    1C        C  467   2.904   4.427   4.951 -0.3334  0.6468 -0.4754
    1C        C  468   4.117   4.278   2.040 -0.2654 -0.2084 -0.0845
    1C        C  469   4.183   4.247   2.159 -0.6171 -0.0655  0.1502
    1C        C  470   4.006   4.374   2.276 -0.5346 -0.4373 -0.1533
    1C        C  471   4.126   4.298   2.279 -0.1657  0.1513  0.2707
    1C        C  472   3.942   4.405   2.398 -0.1928 -0.6671  0.0851
    1C        C  473   4.006   4.371   2.520 -0.0895 -0.8755 -0.0282
    1C        C  474   3.811   4.462   2.641 -0.1835 -0.5490 -0.2410
    1C        C  475   3.941   4.406   2.640 -0.3117 -0.8439 -0.1588
    1C        C  476   3.742   4.486   2.762  0.0620 -0.3734 -0.1366
    1C        C  477   3.810   4.463   2.884 -0.2857 -0.6286  0.0069
    1C        C  478   3.603   4.511   3.004 -0.2602 -0.2791 -0.3674
    1C        C  479   3.742   4.487   3.005 -0.2708 -0.3069 -0.0492
    1C        C  480   3.534   4.517   3.126 -0.1231 -0.4551 -0.2824
    1C        C  481   3.604   4.512   3.249 -0.3916 -0.1856 -0.1170
    1C        C  482   3.395   4.518   3.374 -0.0600  0.2237  0.0944
    1C        C  483   3.536   4.524   3.371 -0.0250 -0.5505  0.1249
    1C        C  484   3.325   4.517   3.497 -0.1969  0.3535  0.0162
    1C        C  485   3.395   4.530   3.619 -0.2696  0.6829  0.0233
    1C        C  486   3.188   4.493   3.741 -0.2695  0.2471 -0.1430
    1C        C  487   3.327   4.521   3.742 -0.2285  0.0222 -0.0011
    1C        C  488   3.126   4.466   3.864 -0.0950  0.4380 -0.0157
    1C        C  489   3.189   4.487   3.989 -0.1558  0.3887  0.0215
    1C        C  490   2.994   4.417   4.111  0.1305  0.2317  0.0807
    1C        C  491   3.126   4.466   4.113  0.1286  0.2309  0.1372
    1C        C  492   2.935   4.384   4.235 -0.2358  0.0863 -0.1318
    1C        C  493   2.995   4.424   4.356  0.1211 -0.1036 -0.2470
    1C        C  494   2.817   4.309   4.477  0.2049  0.0614  0.2099
    1C        C  495   2.933   4.390   4.478  0.5278 -0.3914 -0.1163
    1C        C  496   2.765   4.260   4.598  0.1006 -0.4174 -0.0253
    1C        C  497   2.812   4.319   4.718 -0.0164 -0.0897 -0.1377
    1C        C  498   2.671   4.157   4.844  0.1802  0.2042 -0.0329
    1C        C  499   2.754   4.270   4.838  0.5724 -0.0690  0.1572
    1C        C  500   2.601   4.108   4.956  0.7272 -0.5236  0.0019
    1C        C  501   3.997   4.349   2.036  0.0830  0.3703 -0.4643
    1C        C  502   3.814   4.461   2.156 -0.1126 -0.2959  0.0622
    1C        C  503   3.942   4.401   2.154  0.0969  0.1563 -0.3622
    1C        C  504   3.744   4.479   2.277  0.0654 -0.1007  0.1369
    1C        C  505   3.812   4.461   2.399 -0.2511 -0.8078  0.2113
    1C        C  506   3.602   4.504   2.519 -0.5810 -0.5316 -0.1941
    1C        C  507   3.741   4.478   2.520 -0.6284 -0.7842 -0.0161
    1C        C  508   3.531   4.514   2.640 -0.2091 -0.4139  0.0136
    1C        C  509   3.603   4.508   2.762  0.0420 -0.5060 -0.1396
    1C        C  510   3.390   4.517   2.885 -0.2544 -0.3449  0.2841
    1C        C  511   3.531   4.518   2.883 -0.2628 -0.0934 -0.3529
    1C        C  512   3.320   4.521   3.008 -0.5077  0.3129  0.1228
    1C        C  513   3.393   4.521   3.129 -0.0986  0.5072 -0.1222
    1C        C  514   3.186   4.487   3.251  0.1108  0.4077  0.3701
    1C        C  515   3.324   4.516   3.252  0.1168  0.3891 -0.0086
    1C        C  516   3.120   4.469   3.374 -0.2726  0.4184  0.1642
    1C        C  517   3.187   4.491   3.496 -0.2535  0.6526  0.1097
    1C        C  518   2.994   4.406   3.620 -0.3430 -0.0612  0.0335
    1C        C  519   3.120   4.471   3.619 -0.3121 -0.1280 -0.0481
    1C        C  520   2.937   4.368   3.743 -0.1278  0.2110  0.2147
    1C        C  521   3.000   4.403   3.865 -0.0852  0.4253  0.1299
    1C        C  522   2.827   4.287   3.989  0.5110 -0.3417  0.1893
    1C        C  523   2.936   4.377   3.988 -0.0447  0.3364  0.1294
    1C        C  524   2.774   4.240   4.111 -0.3028 -0.1025 -0.0669
    1C        C  525   2.828   4.292   4.231  0.3692 -0.6193 -0.1391
    1C        C  526   2.694   4.136   4.359  0.5452 -0.0399  0.0864
    1C        C  527   2.774   4.252   4.355  0.5788 -0.0616  0.1326
    1C        C  528   2.655   4.077   4.481  0.5100 -0.4852 -0.1389
    1C        C  529   2.684   4.145   4.601  0.2797 -0.5448 -0.0499
    1C        C  530   2.587   3.957   4.727  0.3896 -0.1440  0.2152
    1C        C  531   2.643   4.087   4.724 -0.1668  0.0963  0.1074
    1C        C  532   2.549   3.897   4.850 -0.1358  0.0964  0.1711
    1C        C  533   2.532   3.987   4.960 -0.1462 -0.0249  0.2679
    1C        C  534   3.617   4.548   2.041 -0.1828  0.3337  0.2923
    1C        C  535   3.754   4.516   2.042 -0.2402  0.0874  0.3134
    1C        C  536   3.533   4.523   2.154 -0.4779  0.3787  0.0821
    1C        C  537   3.604   4.502   2.275  0.0908  0.0235 -0.3076
    1C        C  538   3.391   4.512   2.398 -0.1202  0.4527  0.1421
    1C        C  539   3.532   4.507   2.396 -0.1451 -0.2072 -0.4370
    1C        C  540   3.320   4.502   2.519  0.1929 -0.1949  0.2778
    1C        C  541   3.390   4.504   2.641 -0.2189 -0.2534  0.5195
    1C        C  542   3.181   4.476   2.762 -0.5906  0.5008 -0.3890
    1C        C  543   3.320   4.502   2.763 -0.4527 -0.2429  0.3851
    1C        C  544   3.117   4.460   2.887 -0.0696  0.3393 -0.1391
    1C        C  545   3.182   4.492   3.008 -0.5512  0.5200  0.0754
    1C        C  546   2.994   4.397   3.131  0.3498  0.0435 -0.1139
    1C        C  547   3.115   4.468   3.130 -0.0098  0.6702  0.4018
    1C        C  548   2.934   4.362   3.254  0.3107 -0.1603 -0.1920
    1C        C  549   2.996   4.402   3.375 -0.0663  0.0386 -0.0655
    1C        C  550   2.832   4.270   3.502  0.0876 -0.2296  0.1955
    1C        C  551   2.936   4.365   3.498 -0.0208 -0.1280 -0.0956
    1C        C  552   2.777   4.228   3.625 -0.2316  0.2263  0.2041
    1C        C  553   2.828   4.279   3.746  0.2639 -0.2706  0.2044
    1C        C  554   2.687   4.123   3.872  0.3413 -0.2710  0.2245
    1C        C  555   2.779   4.230   3.869  0.2650 -0.2084  0.2277
    1C        C  556   2.647   4.069   3.997 -0.1101  0.1099  0.2467
    1C        C  557   2.686   4.130   4.118 -0.0151 -0.3068  0.4274
    1C        C  558   2.589   3.945   4.242 -0.4090 -0.2348  0.2623
    1C        C  559   2.648   4.073   4.241  0.4571 -0.6253  0.4284
    1C        C  560   2.567   3.878   4.364  0.1624 -0.4708  0.2390
    1C        C  561   2.598   3.948   4.483  0.2236 -0.3542  0.1556
    1C        C  562   2.540   3.747   4.613  0.3756 -0.2519  0.2784
    1C        C  563   2.569   3.885   4.607  0.6104 -0.3007  0.2750
    1C        C  564   2.524   3.678   4.735  0.2920 -0.1634  0.3174
    1C        C  565   2.533   3.755   4.854 -0.2311  0.1073  0.1837
    1C        C  566   2.525   3.542   4.976 -0.0844  0.2239  0.1140
    1C        C  567   2.536   3.681   4.973  0.3983  0.1879  0.2184
    1C        C  568   3.324   4.471   2.035 -0.2829  0.1585 -0.5279
    1C        C  569   3.392   4.508   2.152 -0.4440  0.1104 -0.4182
    1C        C  570   3.185   4.466   2.276  0.3787  0.0044  0.1628
    1C        C  571   3.321   4.506   2.275  0.1844  0.6809 -0.0438
    1C        C  572   3.114   4.450   2.397 -0.1384 -0.1315 -0.1533
    1C        C  573   3.182   4.469   2.519  0.0915  0.2035 -0.3292
    1C        C  574   2.984   4.395   2.644 -0.2497  0.1520 -0.0355
    1C        C  575   3.112   4.455   2.641 -0.2313  0.0937 -0.5248
    1C        C  576   2.930   4.353   2.767 -0.7883  1.0014  0.0284
    1C        C  577   2.991   4.394   2.888 -0.3547  0.8809 -0.1465
    1C        C  578   2.827   4.264   3.014  0.0681  0.3949  0.2864
    1C        C  579   2.932   4.357   3.010  0.0972  0.3490 -0.0860
    1C        C  580   2.774   4.220   3.138 -0.1163  0.1746  0.1305
    1C        C  581   2.827   4.270   3.259  0.0917  0.1071  0.0679
    1C        C  582   2.692   4.109   3.384  0.6789 -0.3793  0.0599
    1C        C  583   2.778   4.221   3.382  0.1787  0.0068  0.0603
    1C        C  584   2.657   4.049   3.508  0.6737 -0.5707 -0.0352
    1C        C  585   2.693   4.114   3.628  0.0562  0.0079 -0.1597
    1C        C  586   2.583   3.939   3.754  1.0621 -0.2725  0.2587
    1C        C  587   2.644   4.066   3.751  0.5980 -0.0542  0.0320
    1C        C  588   2.558   3.874   3.877  0.6376 -0.3939  0.1080
    1C        C  589   2.586   3.942   3.997 -0.1822  0.1439  0.0023
    1C        C  590   2.538   3.738   4.126 -0.2446  0.1487  0.1328
    1C        C  591   2.564   3.877   4.121 -0.1231  0.1219  0.0008
    1C        C  592   2.536   3.669   4.249 -0.2123 -0.0504  0.0234
    1C        C  593   2.538   3.740   4.371 -0.5122 -0.3311  0.1922
    1C        C  594   2.526   3.531   4.496 -0.2130 -0.1269  0.4399
    1C        C  595   2.530   3.672   4.494 -0.9009 -0.1098  0.2907
    1C        C  596   2.522   3.461   4.618  0.3703 -0.1590  0.4447
    1C        C  597   2.526   3.536   4.738  0.2839 -0.1605  0.4479
    1C        C  598   2.546   3.324   4.860 -0.3882 -0.2747  0.2662
    1C        C  599   2.534   3.465   4.859 -0.1346 -0.2532  0.4250
    1C        C  600   2.538   3.246   4.975  0.0999 -0.3847  0.2299
    1C        C  601   3.194   4.425   2.035 -0.3825  0.4371 -0.2373
    1C        C  602   2.985   4.382   2.154  0.2841  0.1107 -0.1179
    1C        C  603   3.122   4.425   2.155  0.3546 -0.1157  0.2157
    1C        C  604   2.930   4.346   2.280 -0.5779  0.7852 -0.2937
    1C        C  605   2.986   4.390   2.402 -0.1737 -0.0620 -0.1661
    1C        C  606   2.819   4.260   2.527  0.1059 -0.1188  0.3930
    1C        C  607   2.925   4.353   2.523 -0.1874  0.2052 -0.0871
    1C        C  608   2.768   4.212   2.649 -0.2844  0.0751  0.3095
    1C        C  609   2.824   4.261   2.769 -0.6079  0.7931  0.1782
    1C        C  610   2.685   4.106   2.895  0.1247  0.3903  0.0030
    1C        C  611   2.772   4.217   2.893 -0.1984  0.6532  0.3034
    1C        C  612   2.650   4.046   3.018  0.5282  0.1122 -0.0119
    1C        C  613   2.685   4.111   3.139  0.5303 -0.3638  0.2449
    1C        C  614   2.587   3.926   3.263 -0.3358  0.0455  0.2893
    1C        C  615   2.650   4.052   3.262 -0.3188  0.0367  0.2043
    1C        C  616   2.556   3.863   3.386 -0.1535 -0.1779  0.2223
    1C        C  617   2.586   3.928   3.508  0.5240 -0.4812  0.2210
    1C        C  618   2.529   3.731   3.636  0.7598 -0.3348  0.2399
    1C        C  619   2.562   3.868   3.634  0.8980 -0.3682  0.3444
    1C        C  620   2.527   3.664   3.760 -0.0511 -0.4861  0.1543
    1C        C  621   2.534   3.734   3.882  0.4461 -0.3627  0.0559
    1C        C  622   2.513   3.526   4.007 -0.4508 -0.0854  0.0963
    1C        C  623   2.522   3.667   4.005  0.5443 -0.1380  0.1889
    1C        C  624   2.519   3.456   4.130 -0.4875  0.4071  0.3785
    1C        C  625   2.526   3.529   4.251  0.1314 -0.0671  0.6289
    1C        C  626   2.549   3.320   4.372 -0.1230 -0.3053  0.0282
    1C        C  627   2.527   3.459   4.374  0.2215 -0.2565  0.5205
    1C        C  628   2.563   3.253   4.496  0.4626 -0.2654 -0.0182
    1C        C  629   2.543   3.321   4.617  0.2732 -0.1721 -0.1047
    1C        C  630   2.608   3.117   4.740  0.0090  0.1332  0.2958
    1C        C  631   2.564   3.253   4.739 -0.5997 -0.0641  0.1111
    1C        C  632   2.617   3.045   4.862 -0.1079 -0.2748  0.0601
    1C        C  633   2.559   3.108   4.976 -0.2446 -0.4390  0.0771
    1C        C  634   2.786   4.295   2.054 -0.0990  0.1380 -0.0159
    1C        C  635   2.888   4.391   2.050  0.2214 -0.2021 -0.0875
    1C        C  636   2.754   4.218   2.167  0.0510  0.3004  0.1412
    1C        C  637   2.816   4.262   2.286 -0.4598  0.6575  0.2839
    1C        C  638   2.672   4.103   2.407  0.1304  0.2056  0.3605
    1C        C  639   2.761   4.213   2.406 -0.3407  0.5980  0.3174
    1C        C  640   2.638   4.041   2.529  0.2695 -0.2958  0.1519
    1C        C  641   2.680   4.102   2.649  0.0916 -0.2316  0.1854
    1C        C  642   2.587   3.916   2.776  0.1973 -0.1448  0.3038
    1C        C  643   2.646   4.044   2.774  0.1002 -0.0974  0.2534
    1C        C  644   2.563   3.851   2.899  0.4207 -0.1290  0.3595
    1C        C  645   2.594   3.917   3.021  0.0421  0.3234  0.2147
    1C        C  646   2.523   3.719   3.145  0.5322  0.0187 -0.0030
    1C        C  647   2.566   3.854   3.144 -0.0110  0.1954  0.1392
    1C        C  648   2.515   3.653   3.270 -0.0479 -0.0409 -0.0671
    1C        C  649   2.528   3.725   3.391 -0.3409 -0.1477  0.0286
    1C        C  650   2.508   3.518   3.518 -0.3885  0.1058  0.1231
    1C        C  651   2.513   3.659   3.515 -0.6416  0.1152  0.1324
    1C        C  652   2.517   3.450   3.641 -0.3558 -0.2825 -0.0966
    1C        C  653   2.527   3.522   3.762  0.2265 -0.4884 -0.0173
    1C        C  654   2.539   3.315   3.888 -0.2050 -0.0974  0.2974
    1C        C  655   2.520   3.455   3.885 -0.5334 -0.1476  0.1300
    1C        C  656   2.554   3.245   4.010 -0.1001  0.1279  0.4124
    1C        C  657   2.540   3.317   4.130 -0.3553  0.4282  0.2020
    1C        C  658   2.606   3.114   4.255 -0.1527 -0.0657 -0.2900
    1C        C  659   2.561   3.248   4.252 -0.1532 -0.0653 -0.1146
    1C        C  660   2.639   3.052   4.378 -0.1010  0.0238 -0.2638
    1C        C  661   2.609   3.119   4.498 -0.2926 -0.5211 -0.0095
    1C        C  662   2.710   2.930   4.621  0.2048  0.3246 -0.0417
    1C        C  663   2.637   3.051   4.618 -0.3501 -0.0062  0.2909
    1C        C  664   2.745   2.871   4.744  0.1575  0.3286 -0.0332
    1C        C  665   2.689   2.921   4.865 -0.2202 -0.3354  0.0677
    1C        C  666   2.747   2.869   4.981  0.0364 -0.1514  0.0201
    1C        C  667   2.673   4.018   2.052 -0.4264  0.3490 -0.3150
    1C        C  668   2.684   4.095   2.168 -0.1648  0.4126 -0.3774
    1C        C  669   2.582   3.905   2.290  0.3051  0.5904 -0.0196
    1C        C  670   2.638   4.036   2.287  1.0832  0.2656  0.0429
    1C        C  671   2.557   3.841   2.413  0.1817  0.0572 -0.3117
    1C        C  672   2.583   3.911   2.533 -0.3569 -0.0494 -0.1219
    1C        C  673   2.519   3.712   2.657  0.3129  0.0669 -0.0059
    1C        C  674   2.555   3.848   2.656  0.5124  0.0177  0.1228
    1C        C  675   2.506   3.646   2.781  0.1882  0.3539  0.1393
    1C        C  676   2.517   3.718   2.902  0.4209 -0.1309  0.4115
    1C        C  677   2.496   3.508   3.027 -0.6491 -0.4018 -0.1417
    1C        C  678   2.501   3.650   3.024  0.4678 -0.4231  0.2590
    1C        C  679   2.506   3.441   3.151 -0.0815 -0.0964 -0.0146
    1C        C  680   2.516   3.512   3.272 -0.3900 -0.0427 -0.0179
    1C        C  681   2.531   3.306   3.396 -0.4872  0.1442  0.0100
    1C        C  682   2.515   3.446   3.397 -0.2893  0.1658  0.0939
    1C        C  683   2.549   3.241   3.521  0.0396 -0.2065 -0.2491
    1C        C  684   2.538   3.310   3.644 -0.1605 -0.2546 -0.2422
    1C        C  685   2.601   3.111   3.767 -0.4544  0.1669  0.2554
    1C        C  686   2.554   3.244   3.767  0.1042  0.3685  0.0598
    1C        C  687   2.631   3.047   3.889 -0.0194 -0.0926  0.0100
    1C        C  688   2.602   3.112   4.010 -0.3375  0.0401 -0.1416
    1C        C  689   2.710   2.931   4.135  0.1423  0.1276  0.0168
    1C        C  690   2.636   3.050   4.133 -0.4891 -0.2726 -0.2606
    1C        C  691   2.760   2.874   4.254  0.2199  0.1690 -0.0019
    1C        C  692   2.717   2.934   4.374 -0.1757 -0.0238 -0.0528
    1C        C  693   2.754   2.877   4.498 -0.3260 -0.0963 -0.0478
    1C        C  694   2.631   3.884   2.054  0.3693  0.0948  0.0764
    1C        C  695   2.525   3.699   2.177  0.5427  0.1481  0.1632
    1C        C  696   2.573   3.831   2.170  0.6964  0.1003  0.2457
    1C        C  697   2.507   3.629   2.298 -0.2852  0.0406 -0.0116
    1C        C  698   2.520   3.705   2.417  0.1471  0.0672 -0.0721
    1C        C  699   2.491   3.496   2.542  0.5875  0.0393  0.1638
    1C        C  700   2.503   3.637   2.539  0.5322  0.0440 -0.0252
    1C        C  701   2.501   3.429   2.666  0.2448 -0.0216  0.1638
    1C        C  702   2.499   3.505   2.785  0.2263  0.3434 -0.0646
    1C        C  703   2.519   3.296   2.909 -0.5754 -0.1663  0.3418
    1C        C  704   2.494   3.435   2.907 -0.2388 -0.1063 -0.3347
    1C        C  705   2.543   3.231   3.031 -0.6595 -0.1642  0.3607
    1C        C  706   2.536   3.303   3.152 -0.1619 -0.1118  0.3640
    1C        C  707   2.594   3.104   3.277 -0.3803 -0.2628  0.0949
    1C        C  708   2.541   3.234   3.275 -0.4757 -0.3001  0.2728
    1C        C  709   2.642   3.052   3.399 -0.5891 -0.3148  0.1532
    1C        C  710   2.610   3.114   3.522 -0.4305 -0.4287  0.2512
    1C        C  711   2.709   2.929   3.646 -0.2909 -0.0789 -0.0593
    1C        C  712   2.636   3.050   3.644 -0.1508  0.0113  0.4219
    1C        C  713   2.756   2.876   3.768 -0.2672 -0.3976 -0.2076
    1C        C  714   2.713   2.931   3.891  0.2258  0.0783 -0.2437
    1C        C  715   2.754   2.875   4.013 -0.1238  0.1602 -0.0895
    1C        C  716   2.447   3.493   2.063 -0.2636 -0.3486 -0.0265
    1C        C  717   2.481   3.629   2.063  0.1109 -0.4369  0.6796
    1C        C  718   2.464   3.414   2.182 -0.2129  0.3009  0.4087
    1C        C  719   2.481   3.490   2.301 -0.4366  0.0735  0.5890
    1C        C  720   2.508   3.280   2.423  0.5735 -0.1357 -0.1300
    1C        C  721   2.483   3.419   2.423 -0.1611 -0.2618  0.3964
    1C        C  722   2.532   3.213   2.545 -0.0301  0.1659  0.1619
    1C        C  723   2.522   3.290   2.663 -0.8769 -0.2055  0.3384
    1C        C  724   2.589   3.094   2.787 -0.6798 -0.1490  0.1373
    1C        C  725   2.539   3.225   2.788 -0.9362 -0.2470  0.3270
    1C        C  726   2.620   3.034   2.911  0.2160 -0.0446 -0.0275
    1C        C  727   2.592   3.098   3.033 -0.0391  0.0514 -0.1362
    1C        C  728   2.704   2.920   3.158 -0.3418  0.0346  0.0072
    1C        C  729   2.627   3.039   3.156 -0.2727  0.0764 -0.0576
    1C        C  730   2.752   2.868   3.280 -0.4329 -0.1831 -0.0539
    1C        C  731   2.714   2.930   3.400  0.0175  0.0426 -0.0316
    1C        C  732   2.749   2.871   3.524 -0.4325 -0.2236 -0.0340
    1C        C  733   2.493   3.191   2.069 -0.2492 -0.0025  0.0440
    1C        C  734   2.481   3.272   2.183  0.1901  0.3405 -0.1448
    1C        C  735   2.556   3.070   2.302 -0.2596 -0.0801 -0.4358
    1C        C  736   2.512   3.205   2.304  0.3675  0.1270 -0.3066
    1C        C  737   2.595   3.008   2.423 -0.2193  0.4628 -0.1694
    1C        C  738   2.572   3.078   2.543 -0.8197 -0.0720  0.0337
    1C        C  739   2.694   2.908   2.671 -0.1149  0.3598 -0.2705
    1C        C  740   2.611   3.022   2.667 -0.4552  0.1244  0.0114
    1C        C  741   2.736   2.852   2.794 -0.0505  0.2674 -0.3334
    1C        C  742   2.695   2.914   2.914  0.8387  0.3406 -0.0652
    1C        C  743   2.745   2.862   3.036  0.2297  0.1918  0.1231
    1C        C  744   2.541   3.061   2.067 -0.0534  0.0739 -0.4700
    1C        C  745   2.682   2.894   2.185  0.1621  0.2584  0.1581
    1C        C  746   2.590   3.001   2.183 -0.0238  0.0946 -0.4710
    1C        C  747   2.729   2.840   2.307 -0.5560 -0.3983  0.1567
    1C        C  748   2.682   2.897   2.427 -0.1409  0.5251 -0.1039
    1C        C  749   2.733   2.848   2.549  0.0834  0.4225 -0.2380
    1C        C  750   2.731   2.834   2.068 -0.3058  0.0262  0.0758
    1C        C  751   3.666   2.362   1.946  0.6033 -0.2430 -0.0230
    1C        O  752   3.702   2.242   1.956  0.0421 -0.4411 -0.2993
    1C        O  753   3.652   2.412   1.815  0.1261 -1.0474 -0.2834
    1C        C  754   4.592   3.055   1.955  0.2284 -0.1199  0.2898
    1C        O  755   4.578   3.098   1.837  0.4456  0.1166  0.3499
    1C        O  756   4.699   2.966   1.968  0.3216  0.0001  0.3441
    1C        C  757   4.463   4.217   1.984  0.2151 -0.2999 -0.0813
    1C        O  758   4.501   4.323   2.040  0.0349  0.0413 -0.5946
    1C        O  759   4.490   4.209   1.846 -0.2500 -0.0420 -0.1905
    1C        C  760   3.588   4.658   1.946 -0.6764 -0.0305  0.0190
    1C        O  761   3.572   4.632   1.823  0.1653  0.0185 -0.1106
    1C        O  762   3.613   4.791   1.981 -0.1510 -0.1383  0.0666
    1C        C  763   2.845   4.512   1.976 -0.0428  0.0453  0.4654
    1C        O  764   2.832   4.514   1.851 -0.6322 -0.1579  0.5208
    1C        O  765   2.852   4.639   2.035  0.0920  0.3877 -0.2693
    1C        C  766   2.357   3.459   1.951 -0.1986 -0.3089 -0.0928
    1C        O  767   2.404   3.443   1.835 -0.3263  0.4207 -0.2495
    1C        O  768   2.219   3.482   1.956 -0.0135  0.7687  0.3663
    1C        C  769   4.704   3.589   5.042 -0.2413 -0.2395  0.2374
    1C        O  770   4.703   3.624   5.163  0.4566  0.1858  0.1246
    1C        O  771   4.822   3.522   5.006 -0.2629 -0.0477 -0.1873
    1C        C  772   4.281   4.464   4.998 -0.0405  0.0569 -0.0576
    1C        O  773   4.301   4.464   5.122  0.2675  0.3800 -0.1066
    1C        O  774   4.328   4.578   4.931  0.1796  0.0422  0.0713
    1C        C  775   4.149   2.510   5.057 -0.7059 -0.2939 -0.0093
    1C        O  776   4.239   2.430   5.018 -0.1163  0.3047  0.1084
    1C        O  777   4.124   2.496   5.194  0.2162  0.0017  0.1930
    1C        C  778   2.879   4.552   5.026 -0.1868  0.2200  0.3035
    1C        O  779   2.814   4.639   4.961 -0.5053 -0.2672 -0.0423
    1C        O  780   2.831   4.565   5.157  0.1757 -0.0352  0.4611
    1C        C  781   2.492   3.029   5.083 -0.0294 -0.5825  0.1046
    1C        O  782   2.371   2.999   5.068 -0.0377 -0.5765  0.1641
    1C        O  783   2.533   3.045   5.215 -0.6045  0.1487  0.1949
    1C        C  784   2.429   3.975   5.066 -0.3047 -0.1701  0.0992
    1C        O  785   2.315   4.018   5.037 -0.1586 -0.1605 -0.4591
    1C        O  786   2.455   3.981   5.204 -0.1173 -0.2319  0.0670
    1C        C  787   2.947   2.419   2.008  0.0099 -0.3326  0.2388
    1C        O  788   2.893   2.458   1.901  0.4894 -0.0395  0.1045
    1C        O  789   2.896   2.309   2.077 -0.0134 -0.2785  0.3098
    1C        C  790   3.166   2.365   5.057  0.0212  0.3180 -0.1162
    1C        O  791   3.082   2.282   5.014 -0.1062  0.2091  0.3350
    1C        O  792   3.168   2.373   5.197 -0.0371 -0.6154 -0.0588
    1C        H  793   4.334   2.982   5.068  1.2751 -1.3696 -0.5277
    1C        H  794   4.213   2.786   5.065 -0.0442  0.6001  0.1341
    1C        H  795   4.533   3.116   5.046 -2.1036  0.2945  1.5506
    1C        H  796   4.541   3.359   5.064  0.5197  0.1639  0.0685
    1C        H  797   4.578   3.806   5.034  0.1032 -0.4175  0.6449
    1C        H  798   4.406   3.955   5.047 -0.4893  0.1536 -0.1171
    1C        H  799   4.339   4.186   5.047 -1.3713 -0.1666  0.5188
    1C        H  800   4.030   4.526   5.029  1.4395  1.6413 -0.9689
    1C        H  801   3.818   4.593   5.033  0.8385 -0.2745 -0.3980
    1C        H  802   3.591   4.655   5.029 -0.0080 -1.1416  0.5406
    1C        H  803   3.386   4.500   5.051 -0.9863  1.8637  0.6371
    1C        H  804   3.163   4.455   5.046  0.7696  0.8537  0.4904
    1C        H  805   3.881   2.496   5.065 -0.3407 -2.1137 -0.9069
    1C        H  806   3.663   2.414   5.057 -0.5466  0.5139  0.5242
    1C        H  807   2.989   2.561   5.061 -1.9513  0.6927 -0.6993
    1C        H  808   3.437   2.510   5.072  0.8003  3.4774 -1.0123
    1C        H  809   2.810   2.684   5.057 -0.6045  0.3100  0.5579
    1C        H  810   2.741   2.928   5.070 -0.4803 -0.8808  0.4838
    1C        H  811   2.482   3.287   5.057  1.1667 -0.1873  0.8839
    1C        H  812   2.550   3.499   5.070 -1.4363 -0.3747  0.2268
    1C        H  813   2.554   3.734   5.064 -1.5670  0.3676  0.5338
    1C        H  814   2.585   4.172   5.040  0.7787 -0.7941  0.2170
    1C        H  815   2.764   4.300   5.049 -1.9573 -0.2977 -0.5338
    1C        H  816   2.696   2.866   1.972  0.8863 -0.4606 -0.5521
    1C        H  817   2.838   2.677   1.978 -2.9757 -1.0963  0.3745
    1C        H  818   3.209   2.427   1.989 -0.0460 -1.3908  0.6652
    1C        H  819   3.425   2.478   1.985 -0.9862  1.7660  1.4404
    1C        H  820   3.834   2.583   1.981 -1.5496 -2.5910 -0.4308
    1C        H  821   4.066   2.601   1.963  0.3147 -1.5185  0.1802
    1C        H  822   4.259   2.713   1.971  0.6386 -0.3926  0.6681
    1C        H  823   4.340   2.944   1.973  0.3530  0.3281  0.3302
    1C        H  824   4.605   3.310   1.980  1.0845  1.3292  0.8611
    1C        H  825   4.507   3.509   1.957 -2.7514 -0.7559  0.4245
    1C        H  826   4.524   3.747   1.955  1.5075  1.2120  0.5148
    1C        H  827   3.814   4.533   1.955 -0.0293  0.1095  0.4627
    1C        H  828   3.978   4.401   1.945 -1.8512 -0.4318 -0.5692
    1C        H  829   4.177   4.296   1.953 -1.5254 -0.6056 -1.0742
    1C        H  830   4.497   3.963   1.971 -1.9084 -0.3937 -1.1371
    1C        H  831   2.690   3.818   1.993  2.3162 -0.8716  2.8223
    1C        H  832   2.649   4.069   1.961 -3.8236 -0.3608  0.0490
    1C        H  833   2.729   4.283   1.965  2.3292 -1.0274 -1.5092
    1C        H  834   3.366   4.489   1.938 -0.3514  0.3051 -0.5307
    1C        H  835   3.167   4.357   1.957  0.4043  0.7702 -0.8039
    1C        H  836   2.535   3.008   1.974 -0.3155  0.2179 -0.5349
    1C        H  837   2.483   3.238   1.973 -0.9338  0.3799  0.2923
    1C        H  838   2.506   3.671   1.968 -1.0745 -0.2416  0.4386
    2V3OU   H29  839   2.792   3.531   1.835 -1.0098 -1.6380 -0.1514
    2V3OU   C27  840   2.785   3.500   1.942 -0.3749  0.0127  0.4019
    2V3OU   H27  841   2.744   3.571   2.018  0.0088 -1.8074  2.3855
    2V3OU   H28  842   2.725   3.406   1.948  0.9041 -1.1947 -3.2211
    2V3OU   O11  843   2.913   3.459   1.988 -0.2432 -0.3748 -0.2945
    2V3OU   C15  844   2.927   3.393   2.109 -0.2501  0.0767 -0.0476
    2V3OU   C13  845   3.057   3.368   2.158 -0.1679  0.0370 -0.2897
    2V3OU   C14  846   3.076   3.259   2.244 -0.1288 -0.2715 -0.6906
    2V3OU   C16  847   2.976   3.173   2.287  0.1993 -0.4176 -0.2213
    2V3OU    H6  848   2.994   3.096   2.364  0.7473 -0.5434 -0.4742
    2V3OU   C12  849   3.214   3.219   2.278 -0.1306 -0.3830 -0.8215
    2V3OU    O2  850   3.240   3.120   2.350  0.5504  0.2662 -0.1563
    2V3OU   C10  851   3.327   3.304   2.238  0.0206 -0.1019  0.1749
    2V3OU    C8  852   3.457   3.265   2.268  0.0394  0.0408  0.2635
    2V3OU   O10  853   3.488   3.171   2.361  1.1156 -0.0283 -0.1642
    2V3OU   H26  854   3.409   3.115   2.354  0.7256  0.6813 -2.4094
    2V3OU    C6  855   3.564   3.348   2.224 -0.0685 -0.0491 -0.1683
    2V3OU    C5  856   3.536   3.465   2.155  0.0182  0.0668 -0.0047
    2V3OU    C4  857   3.702   3.291   2.231  0.0613  0.1742 -0.8706
    2V3OU    H4  858   3.719   3.225   2.321 -0.1274 -0.7242 -1.4774
    2V3OU    H5  859   3.710   3.224   2.140 -0.9352  0.6585 -1.3329
    2V3OU    C2  860   3.813   3.396   2.235 -0.0038  0.2099  0.3232
    2V3OU    O6  861   3.816   3.475   2.355  0.3624  0.4145  0.1789
    2V3OU   H21  862   3.764   3.551   2.325  2.9941  2.4879  0.5067
    2V3OU    C3  863   3.779   3.493   2.121 -0.1830 -0.1668  0.0551
    2V3OU    H2  864   3.866   3.562   2.106  1.1907 -1.7483  0.3313
    2V3OU    H3  865   3.771   3.430   2.029 -0.7124 -1.1464  0.7576
    2V3OU   C25  866   3.941   3.317   2.212 -0.3256 -0.2334  0.0476
    2V3OU    O7  867   3.981   3.280   2.101 -0.7916 -0.1588 -0.1456
    2V3OU   C26  868   4.026   3.290   2.335  0.2411  0.4898 -0.1774
    2V3OU   H22  869   4.057   3.389   2.377 -0.2920 -0.7245  3.4299
    2V3OU   H23  870   4.114   3.226   2.309 -0.9459 -1.6203  0.7684
    2V3OU    O8  871   3.959   3.212   2.432  0.4430 -0.2074 -0.5926
    2V3OU   H24  872   3.927   3.275   2.498 -0.3319 -0.7598 -0.4350
    2V3OU    C1  873   3.646   3.565   2.137  0.0031  0.1327  0.2727
    2V3OU    H1  874   3.627   3.624   2.043  0.5444  0.3300  0.2836
    2V3OU    O3  875   3.659   3.652   2.250  0.9053  0.2760  0.0673
    2V3OU   C19  876   3.617   3.788   2.239 -0.0962 -0.0795 -0.5895
    2V3OU    H9  877   3.517   3.807   2.188 -0.6310  0.8836  0.7740
    2V3OU    O4  878   3.712   3.851   2.157  0.2095 -0.0161 -0.1872
    2V3OU   C20  879   3.846   3.869   2.204  0.2154  0.1041 -0.2476
    2V3OU   H10  880   3.893   3.768   2.224  1.7563  0.7252 -0.6162
    2V3OU   C24  881   3.610   3.854   2.377  0.3076 -0.8512 -0.1948
    2V3OU   H16  882   3.537   3.793   2.436 -1.3431  0.6361 -0.6228
    2V3OU   H17  883   3.559   3.951   2.358 -3.4100 -2.6608 -0.4127
    2V3OU   C23  884   3.750   3.875   2.436  0.2772 -0.2033 -0.3470
    2V3OU   H15  885   3.791   3.770   2.454  1.6865  0.2664 -0.7150
    2V3OU    N1  886   3.733   3.951   2.558 -0.4648 -0.2835 -0.3941
    2V3OU   H19  887   3.808   3.919   2.616  0.5692 -0.9659 -2.0185
    2V3OU   H20  888   3.648   3.930   2.607 -0.4983 -0.0113 -0.3364
    2V3OU   C21  889   3.847   3.946   2.336 -0.1960  0.3763 -0.4011
    2V3OU   H11  890   3.947   3.926   2.384 -0.4699  0.6202  0.2871
    2V3OU    O5  891   3.822   4.086   2.336  0.1023  0.4368  0.3044
    2V3OU   H18  892   3.792   4.110   2.425  5.7654  0.9746  2.4761
    2V3OU   C22  893   3.913   3.946   2.091  0.2680 -0.1447 -0.3875
    2V3OU   H12  894   3.866   4.047   2.086  1.6074  0.6030  1.1474
    2V3OU   H13  895   3.900   3.891   1.995 -0.2607 -0.7294  0.0105
    2V3OU   H14  896   4.022   3.960   2.113  0.4387  0.3421 -1.4889
    2V3OU   C11  897   3.159   3.473   2.153 -0.0244 -0.0885  0.0607
    2V3OU    O1  898   3.133   3.589   2.114  0.1271 -0.3113 -0.7115
    2V3OU    C9  899   3.298   3.421   2.162 -0.1161 -0.3618 -0.1663
    2V3OU    C7  900   3.402   3.504   2.122 -0.0818 -0.3884 -0.1206
    2V3OU    O9  901   3.386   3.620   2.049 -0.6767 -0.2293  0.2624
    2V3OU   H25  902   3.290   3.632   2.043 -0.3971  1.7577 -1.4296
    2V3OU   C17  903   2.822   3.315   2.160  0.0508 -0.2654  0.0497
    2V3OU    H7  904   2.722   3.339   2.125  0.4489 -0.2662 -1.1321
    2V3OU   C18  905   2.848   3.209   2.247  0.0846  0.3183  0.7649
    2V3OU    H8  906   2.773   3.171   2.318  1.5836  0.8542  2.7152
    3SOL     OW  907   4.674   5.959   4.567  0.2403  0.0342 -0.6881
    3SOL    HW1  908   4.600   6.017   4.601  1.5112  1.1227  0.3216
    3SOL    HW2  909   4.648   5.863   4.578 -1.8393  0.3473 -2.2655
    4SOL     OW  910   0.665   3.286   3.887  0.3583 -0.2087  0.1057
    4SOL    HW1  911   0.666   3.343   3.805  2.5003 -1.7536 -1.0469
    4SOL    HW2  912   0.573   3.248   3.900  0.2824 -1.1425 -2.5060
    5SOL     OW  913   1.922   5.190   4.066 -0.0221 -0.4670 -0.2604
    5SOL    HW1  914   1.832   5.150   4.050  0.7097 -1.5812 -1.9084
    5SOL    HW2  915   1.993   5.131   4.027  1.2773  1.4503 -0.9952
    6SOL     OW  916   0.281   0.445   1.349  0.0434 -0.1442  0.1773
    6SOL    HW1  917   0.372   0.445   1.390 -0.4657 -0.6041  1.3580
    6SOL    HW2  918   0.214   0.473   1.418 -0.7959 -0.5576 -0.4574
    7SOL     OW  919   0.512   3.843   2.148 -0.2972 -0.0851  0.2066
    7SOL    HW1  920   0.583   3.907   2.119  0.0808 -0.0400  1.1887
    7SOL    HW2  921   0.521   3.826   2.246 -0.1539 -1.9186 -0.0830
    8SOL     OW  922   2.453   1.994   4.459  0.0778  0.0807 -0.3897
    8SOL    HW1  923   2.406   2.006   4.372  0.7212  1.5290 -0.5724
    8SOL    HW2  924   2.550   1.975   4.443 -0.0647 -1.0318  0.0039
    9SOL     OW  925   6.320   0.231   5.247 -0.4522  0.5166  0.4745
    9SOL    HW1  926   6.301   0.135   5.228  0.2553 -0.5325  4.2726
    9SOL    HW2  927   6.243   0.272   5.296 -0.6593  1.8806 -0.9132
   10SOL     OW  928   4.338   0.953   6.689 -0.3738  0.0257  0.2044
   10SOL    HW1  929   4.372   0.901   6.611 -2.0678  1.3496 -1.4926
   10SOL    HW2  930   4.408   1.019   6.718 -0.8175  1.7593 -2.3498
   11SOL     OW  931   2.101   5.701   0.917 -0.5590  0.4014 -0.4699
   11SOL    HW1  932   2.129   5.673   1.008  2.1643  1.4434 -0.8862
   11SOL    HW2  933   2.062   5.793   0.921 -2.1017 -0.2333 -0.1738
   12SOL     OW  934   1.916   6.990   2.106  0.3367 -0.4069  0.5167
   12SOL    HW1  935   1.963   7.079   2.102 -0.4480  0.0363  0.7984
   12SOL    HW2  936   1.982   6.918   2.127  0.9477  0.1454  0.5278
   13SOL     OW  937   0.303   2.327   3.588 -0.6404  0.2521 -0.3700
   13SOL    HW1  938   0.320   2.290   3.680 -0.0895 -0.4796 -0.7506
   13SOL    HW2  939   0.342   2.265   3.520 -2.6348 -0.1819 -1.1998
   14SOL     OW  940   1.641   2.248   2.215  0.0212  0.7503  0.0364
   14SOL    HW1  941   1.618   2.170   2.157 -0.3773  0.3241  0.7533
   14SOL    HW2  942   1.651   2.217   2.309 -0.4837  1.6207  0.3879
   15SOL     OW  943   3.750   0.551   1.995  0.1041  0.0671  0.8225
   15SOL    HW1  944   3.740   0.537   2.094 -1.7425  1.9038  0.9483
   15SOL    HW2  945   3.812   0.627   1.978  1.1081 -0.7983  0.5044
   16SOL     OW  946   3.112   0.297   2.151 -0.0985  0.3679 -0.6404
   16SOL    HW1  947   3.115   0.218   2.090  1.2926 -0.9906  1.1025
   16SOL    HW2  948   3.133   0.380   2.098  0.6696 -0.7095 -2.0948
   17SOL     OW  949   4.803   2.469   0.257  0.6043  0.1938  0.5864
   17SOL    HW1  950   4.902   2.474   0.248  0.5310  1.6359  0.3714
   17SOL    HW2  951   4.771   2.545   0.313 -0.4458  0.1498  0.0718
   18SOL     OW  952   1.717   5.050   2.788 -0.3074  0.1964 -0.8760
   18SOL    HW1  953   1.633   4.998   2.805 -0.5330  0.8427  0.1351
   18SOL    HW2  954   1.778   4.998   2.729 -0.2324 -1.5199  0.6246
   19SOL     OW  955   0.379   0.049   4.225 -0.2587 -0.4762  0.4952
   19SOL    HW1  956   0.416  -0.026   4.280 -2.4403 -2.0648 -0.0776
   19SOL    HW2  957   0.279   0.044   4.224 -0.4301  1.9140 -0.3424
   20SOL     OW  958   4.033   1.122   3.840  0.0401 -0.1473 -0.4621
   20SOL    HW1  959   3.936   1.127   3.862  0.2537  0.1901  0.4499
   20SOL    HW2  960   4.046   1.141   3.743 -0.4813  4.0621  0.0832
   21SOL     OW  961   0.030   3.071   1.974  0.0181  0.2573 -0.1472
   21SOL    HW1  962  -0.019   3.153   2.001 -0.3327  0.3681 -1.0996
   21SOL    HW2  963   0.064   3.024   2.056 -0.1595  1.1064  0.4205
   22SOL     OW  964   2.672   4.921   4.733 -0.4974 -0.4513 -0.2174
   22SOL    HW1  965   2.658   4.822   4.724  1.9519 -0.8231 -0.6813
   22SOL    HW2  966   2.740   4.951   4.666  1.4686  0.8624  2.1911
   23SOL     OW  967   4.892   3.684   3.277 -0.8081 -0.1608  0.2451
   23SOL    HW1  968   4.892   3.681   3.377 -1.2221 -1.0314  0.2243
   23SOL    HW2  969   4.919   3.776   3.246  0.4317 -0.2046  1.1337
   24SOL     OW  970   1.378   3.805   3.615 -0.2768 -0.7165 -0.0971
   24SOL    HW1  971   1.435   3.722   3.624 -1.7551 -1.7148  0.3664
   24SOL    HW2  972   1.437   3.886   3.618  0.9383 -1.6058  2.7018
   25SOL     OW  973   4.714   1.739   5.626  0.2288  0.0698 -0.0777
   25SOL    HW1  974   4.801   1.727   5.673  1.1763 -1.0228 -1.9997
   25SOL    HW2  975   4.643   1.762   5.693  2.1125  1.8495  1.4307
   26SOL     OW  976   2.541   2.434   3.779 -0.7313  0.0695 -0.4369
   26SOL    HW1  977   2.487   2.379   3.716 -0.6616 -0.1281 -0.3237
   26SOL    HW2  978   2.490   2.448   3.864 -0.0207 -1.3743  0.2622
   27SOL     OW  979   5.247   0.238   2.846  0.4434  0.4115 -0.1173
   27SOL    HW1  980   5.185   0.278   2.779 -0.9781  1.2800  1.6242
   27SOL    HW2  981   5.247   0.138   2.837  0.9404  0.5425 -1.9023
   28SOL     OW  982   1.359   4.238   6.733 -0.0597  0.7060  0.2658
   28SOL    HW1  983   1.351   4.199   6.825 -0.8837 -0.7366 -0.3836
   28SOL    HW2  984   1.268   4.255   6.696  0.2554  0.8513 -0.4629
   29SOL     OW  985   2.422   1.097   4.128 -0.3083  0.6513  0.2702
   29SOL    HW1  986   2.469   1.143   4.203 -0.5185  0.7555  0.3392
   29SOL    HW2  987   2.472   1.112   4.043  0.8298 -0.7971  0.6401
   30SOL     OW  988   3.016   5.979   3.998 -0.4584 -0.1561  0.0432
   30SOL    HW1  989   3.061   5.969   3.909 -0.4948 -1.1023  0.1192
   30SOL    HW2  990   2.992   5.888   4.033 -2.3895  0.3031  0.0170
   31SOL     OW  991   0.455   4.241   6.753 -0.2837 -0.0123  0.3426
   31SOL    HW1  992   0.440   4.205   6.661 -0.4069  1.3075 -0.1694
   31SOL    HW2  993   0.375   4.293   6.783  0.6834  1.6319  0.1847
   32SOL     OW  994   3.378   4.444   1.401 -0.2415  0.2089 -0.1080
   32SOL    HW1  995   3.392   4.381   1.325 -0.9056  1.3042 -1.1935
   32SOL    HW2  996   3.307   4.409   1.462 -0.6926 -0.0363 -0.7667
   33SOL     OW  997   5.013   3.476   0.039 -0.0316 -0.1837  0.0972
   33SOL    HW1  998   5.113   3.485   0.043  0.2637 -2.5285 -0.8521
   33SOL    HW2  999   4.988   3.389  -0.002 -2.5116  1.0770 -1.3393
   34SOL     OW 1000   2.153   1.096   2.982  0.6261 -0.5000 -0.2394
   34SOL    HW1 1001   2.088   1.070   3.054  1.4746  0.2614  0.8258
   34SOL    HW2 1002   2.230   1.033   2.983  0.5369 -0.6204 -0.6457
   35SOL     OW 1003   3.959   2.076   5.292  0.3647 -0.0145  0.2766
   35SOL    HW1 1004   3.981   2.169   5.319  1.1282  0.7306 -2.5012
   35SOL    HW2 1005   3.873   2.075   5.241 -0.1640 -1.0320  1.1450
   36SOL     OW 1006   2.986   1.034   6.784 -0.4490 -0.5229  0.0648
   36SOL    HW1 1007   3.065   1.089   6.760 -2.2997  1.3309 -2.3244
   36SOL    HW2 1008   3.005   0.938   6.767  1.5929 -0.2472  0.5823
   37SOL     OW 1009   6.924   3.316   3.783 -0.1902  0.7007  0.1025
   37SOL    HW1 1010   6.927   3.258   3.702  3.5807  0.1887  0.4226
   37SOL    HW2 1011   6.899   3.262   3.863 -1.7913  0.7522 -0.3201
   38SOL     OW 1012   0.631   3.521   1.636  0.1843 -0.2496 -0.0432
   38SOL    HW1 1013   0.651   3.563   1.724  2.4311 -0.8979 -0.1575
   38SOL    HW2 1014   0.534   3.528   1.616 -0.3345  0.1537  2.3411
   39SOL     OW 1015   3.014   6.516   5.949  0.0538 -0.0250 -0.4794
   39SOL    HW1 1016   3.033   6.518   5.850  0.2351  1.2224 -0.4336
   39SOL    HW2 1017   2.923   6.553   5.966  0.4272  0.7479 -0.1086
   40SOL     OW 1018   2.235   5.187   4.305 -1.3108  0.2807 -0.6631
   40SOL    HW1 1019   2.150   5.231   4.333 -0.9650  1.3003 -1.1569
   40SOL    HW2 1020   2.311   5.226   4.357 -0.8873  0.9029 -1.7308
   41SOL     OW 1021   5.459   0.436   2.907 -0.3812 -0.0743 -0.3652
   41SOL    HW1 1022   5.394   0.392   2.846  2.3650 -4.0492 -0.8136
   41SOL    HW2 1023   5.463   0.386   2.993  0.2634  1.6786  0.6862
   42SOL     OW 1024   6.594   6.618   3.667 -0.5508 -0.0168 -0.4363
   42SOL    HW1 1025   6.628   6.549   3.604 -0.4068 -0.0561 -0.3169
   42SOL    HW2 1026   6.496   6.607   3.679 -0.5350 -0.1709 -0.4542
   43SOL     OW 1027   0.296   2.115   4.228 -0.3254  0.3943 -0.0076
   43SOL    HW1 1028   0.309   2.054   4.306  2.7105 -1.7016 -1.9525
   43SOL    HW2 1029   0.340   2.203   4.247 -0.4090  0.2416  0.9531
   44SOL     OW 1030   3.586   1.763   3.304  0.5735  0.6069  0.9019
   44SOL    HW1 1031   3.655   1.818   3.257  0.0035 -0.3482 -1.1727
   44SOL    HW2 1032   3.499   1.770   3.255  0.4243 -1.8929  0.7042
   45SOL     OW 1033   5.219   6.181   0.666 -0.6469  0.5455  0.6182
   45SOL    HW1 1034   5.125   6.174   0.631 -0.5654  1.9987  0.0243
   45SOL    HW2 1035   5.275   6.108   0.626 -0.8539  1.4190 -1.4124
   46SOL     OW 1036   6.376   0.083   2.656  0.1078 -0.5993 -0.0010
   46SOL    HW1 1037   6.470   0.049   2.647  0.3295  0.0665 -0.2382
   46SOL    HW2 1038   6.377   0.171   2.703 -0.3367 -0.2837 -0.5741
   47SOL     OW 1039   2.709   4.696   6.182  0.3380  0.0744 -0.5982
   47SOL    HW1 1040   2.694   4.598   6.167 -1.0448  0.4406 -1.8030
   47SOL    HW2 1041   2.746   4.738   6.099 -1.3391  0.9871 -0.9170
   48SOL     OW 1042   4.501   0.613   4.549  0.2135 -0.4630  0.2914
   48SOL    HW1 1043   4.477   0.709   4.530 -1.7197 -0.7551  1.0242
   48SOL    HW2 1044   4.551   0.575   4.472 -1.0440  0.4798 -1.0510
   49SOL     OW 1045   6.926   5.749   1.059 -0.2727  0.2467 -0.6414
   49SOL    HW1 1046   6.996   5.690   1.019  1.7255  1.8851  0.2485
   49SOL    HW2 1047   6.896   5.710   1.146 -0.3599 -0.3758 -0.9411
   50SOL     OW 1048   4.443   4.014   6.505  0.5584  0.5001 -0.2832
   50SOL    HW1 1049   4.357   3.992   6.458  1.1941  0.1000 -1.2884
   50SOL    HW2 1050   4.520   3.978   6.452  1.2645 -1.0880  1.7214
   51SOL     OW 1051   1.877   2.764   2.417 -0.3614 -0.2744  0.3497
   51SOL    HW1 1052   1.956   2.705   2.401  1.1685  1.7095  0.1858
   51SOL    HW2 1053   1.837   2.742   2.506 -0.2518 -1.9308  0.0355
   52SOL     OW 1054   0.955   5.789   6.850 -0.3913 -0.3806 -0.5548
   52SOL    HW1 1055   1.037   5.802   6.794  0.1380  1.7127  0.5997
   52SOL    HW2 1056   0.877   5.831   6.803 -0.4410 -0.7473 -0.8063
   53SOL     OW 1057   1.784   0.272   0.014  0.8977  0.0273  0.5272
   53SOL    HW1 1058   1.709   0.303   0.073 -0.1234 -1.9561  0.3807
   53SOL    HW2 1059   1.765   0.298  -0.081  0.0673 -0.9670  0.4067
   54SOL     OW 1060   2.344   2.070   4.219 -0.1650 -0.0604  0.1005
   54SOL    HW1 1061   2.397   2.155   4.212 -0.1939 -0.1652 -1.8847
   54SOL    HW2 1062   2.246   2.091   4.216 -0.1711 -0.1671 -0.4671
   55SOL     OW 1063   3.280   4.031   3.586 -0.2165 -0.3999  0.0745
   55SOL    HW1 1064   3.259   4.032   3.489 -1.1664  0.7118  0.2618
   55SOL    HW2 1065   3.378   4.048   3.599 -0.2413  0.3839 -0.6678
   56SOL     OW 1066   1.177   0.172   6.571  0.1241  0.0172  0.1484
   56SOL    HW1 1067   1.177   0.101   6.501  2.8119  0.4145 -0.3567
   56SOL    HW2 1068   1.151   0.133   6.659  0.2571 -1.2890 -0.3763
   57SOL     OW 1069   2.918   4.971   6.465  0.0082  0.2766 -0.2916
   57SOL    HW1 1070   2.970   4.887   6.451 -1.7572 -0.8507 -0.3303
   57SOL    HW2 1071   2.823   4.949   6.490  0.2263  2.1944  2.9292
   58SOL     OW 1072   5.380   0.057   1.517  1.1965  0.1602  0.1626
   58SOL    HW1 1073   5.458   0.059   1.579  0.6027 -0.3869  0.9524
   58SOL    HW2 1074   5.412   0.059   1.423  2.1171  1.0507  0.4796
   59SOL     OW 1075   6.608   5.904   5.755 -0.0975  0.5933 -0.0773
   59SOL    HW1 1076   6.656   5.990   5.736  0.3006  0.6094  0.9356
   59SOL    HW2 1077   6.626   5.876   5.849  0.0840 -0.8079 -0.5049
   60SOL     OW 1078   6.821   4.203   4.073 -0.3239  0.1316  0.6052
   60SOL    HW1 1079   6.906   4.163   4.108  0.1743  0.4764 -0.1763
   60SOL    HW2 1080   6.759   4.222   4.149  0.1127 -0.5515  1.1408
   61SOL     OW 1081   3.718   1.702   0.413 -0.0868 -0.9757 -0.4961
   61SOL    HW1 1082   3.779   1.673   0.340  1.6721 -0.5371  0.7401
   61SOL    HW2 1083   3.735   1.798   0.435 -2.2462 -0.4075 -1.0628
   62SOL     OW 1084   6.386   5.903   5.584  0.2771 -0.3045 -0.5759
   62SOL    HW1 1085   6.321   5.972   5.613  0.3569  0.1270 -1.4077
   62SOL    HW2 1086   6.472   5.914   5.635 -0.5303 -1.3711  1.0986
   63SOL     OW 1087   0.656   0.178   4.479 -0.4064 -0.5079 -0.3522
   63SOL    HW1 1088   0.556   0.172   4.469 -0.2874 -0.8673 -1.4419
   63SOL    HW2 1089   0.696   0.088   4.463  0.0559 -0.5101  0.7227
   64SOL     OW 1090   4.900   4.227   6.014 -0.0830 -0.1332 -0.4110
   64SOL    HW1 1091   4.944   4.221   6.103 -1.2881 -0.7185  0.1769
   64SOL    HW2 1092   4.843   4.309   6.010  0.2278  0.0675 -0.7678
   65SOL     OW 1093   2.246   5.164   5.785 -0.2323  0.4209  0.4083
   65SOL    HW1 1094   2.228   5.119   5.697  0.6268  0.0023  0.4474
   65SOL    HW2 1095   2.254   5.263   5.770 -0.4917  0.3941  0.0791
   66SOL     OW 1096   4.764   5.733   0.744  0.4824 -0.0208  0.3874
   66SOL    HW1 1097   4.760   5.693   0.835 -2.9955  2.3623  1.4688
   66SOL    HW2 1098   4.703   5.812   0.739  3.1338  2.1469 -3.0345
   67SOL     OW 1099   0.182   1.156   4.860 -0.2556 -0.1281 -0.2907
   67SOL    HW1 1100   0.153   1.178   4.953 -1.8083  0.3960 -0.8620
   67SOL    HW2 1101   0.259   1.092   4.863  1.2601  1.6495  1.3791
   68SOL     OW 1102   4.040   3.448   3.356  0.0829  0.4464  0.5850
   68SOL    HW1 1103   4.041   3.548   3.359  1.0624  0.4424  0.5558
   68SOL    HW2 1104   4.053   3.418   3.262  0.0918  0.2882  0.6377
   69SOL     OW 1105   5.952   6.132   2.873  0.3616  0.0571  0.1950
   69SOL    HW1 1106   5.922   6.046   2.832  0.2196  0.3233 -0.2650
   69SOL    HW2 1107   5.952   6.123   2.973 -2.1716  0.3297  0.2794
   70SOL     OW 1108   1.024   2.555   0.575  0.2880  0.2639 -0.4016
   70SOL    HW1 1109   1.116   2.544   0.537  1.5355 -0.8329  2.5943
   70SOL    HW2 1110   1.020   2.639   0.630 -0.7452  0.6729 -1.0729
   71SOL     OW 1111   2.744   6.586   5.912 -0.4724  0.2651 -0.1407
   71SOL    HW1 1112   2.746   6.666   5.852 -1.4188  0.8341  0.5587
   71SOL    HW2 1113   2.710   6.506   5.861 -1.1097  0.7035 -0.4131
   72SOL     OW 1114   1.605   1.116   4.486  0.1901  0.0723  0.3587
   72SOL    HW1 1115   1.548   1.117   4.568  0.3251 -1.9438  0.5223
   72SOL    HW2 1116   1.562   1.171   4.415 -1.3271 -0.3658  0.8883
   73SOL     OW 1117   2.606   5.413   2.442  0.7218 -0.5193  0.1831
   73SOL    HW1 1118   2.625   5.340   2.376 -0.9761 -1.0042  0.1851
   73SOL    HW2 1119   2.658   5.397   2.526 -1.7294 -3.4385  1.3273
   74SOL     OW 1120   1.451   6.917   2.742 -0.9049  0.5749  0.2247
   74SOL    HW1 1121   1.432   6.977   2.819 -0.4178  2.6955 -1.2095
   74SOL    HW2 1122   1.420   6.962   2.657  1.8808 -0.0069 -1.1982
   75SOL     OW 1123   3.490   1.837   5.394 -0.0268  0.0730  0.3900
   75SOL    HW1 1124   3.448   1.788   5.470 -0.4625  3.1926  2.3421
   75SOL    HW2 1125   3.589   1.842   5.409 -0.0712  0.4088  0.5637
   76SOL     OW 1126   1.670   0.762   4.327  0.1512 -0.6039 -0.2720
   76SOL    HW1 1127   1.600   0.701   4.365  0.1661 -1.3315 -1.3634
   76SOL    HW2 1128   1.759   0.717   4.331  0.1403 -0.7298 -1.2091
   77SOL     OW 1129   5.062   6.770   4.755  0.0406 -0.1933 -0.3330
   77SOL    HW1 1130   5.016   6.696   4.708 -1.7063 -0.1121  1.1325
   77SOL    HW2 1131   5.037   6.857   4.713  1.9922 -0.3580 -1.9734
   78SOL     OW 1132   2.268   6.950   2.959  0.8048  0.3444 -0.2772
   78SOL    HW1 1133   2.285   6.910   3.048  0.0958 -1.3300 -0.8626
   78SOL    HW2 1134   2.172   6.976   2.951  1.0365  1.2514 -0.2786
   79SOL     OW 1135   0.295   4.770   3.782 -0.0247 -0.4536  0.1024
   79SOL    HW1 1136   0.390   4.760   3.812  0.4648 -0.2756 -1.3147
   79SOL    HW2 1137   0.236   4.710   3.836  0.6223  0.6509  2.1669
   80SOL     OW 1138   0.135   1.631   6.815  0.2024  0.3086 -0.3006
   80SOL    HW1 1139   0.201   1.655   6.745  0.9368 -1.3336 -0.2211
   80SOL    HW2 1140   0.048   1.607   6.772 -0.6379  3.1209 -0.3704
   81SOL     OW 1141   0.761   0.868   6.879 -0.2258 -0.4341  0.1326
   81SOL    HW1 1142   0.850   0.827   6.899 -0.7327 -1.2291  0.7790
   81SOL    HW2 1143   0.688   0.803   6.899 -0.9117 -0.2629 -1.6262
   82SOL     OW 1144   2.435   5.180   0.285 -0.6615  0.2051  0.3633
   82SOL    HW1 1145   2.473   5.090   0.265  0.3420  0.7550 -0.3175
   82SOL    HW2 1146   2.343   5.187   0.247 -0.9759 -0.7218  0.9321
   83SOL     OW 1147   6.436   3.833   5.980 -0.5751 -0.3923 -0.0650
   83SOL    HW1 1148   6.417   3.813   5.883 -0.1301 -0.7159 -0.0902
   83SOL    HW2 1149   6.535   3.830   5.995 -0.4948  1.4585  0.0106
   84SOL     OW 1150   4.704   0.154   5.650 -0.4051 -0.1909 -0.6017
   84SOL    HW1 1151   4.659   0.066   5.636 -0.1084 -0.4030 -0.2578
   84SOL    HW2 1152   4.803   0.140   5.652 -0.3884 -0.0501  0.6986
   85SOL     OW 1153   6.720   2.237   0.364  0.3507 -0.4828 -0.3119
   85SOL    HW1 1154   6.632   2.281   0.345  0.3471  0.3767  1.4910
   85SOL    HW2 1155   6.755   2.195   0.281 -1.8722 -1.0487 -1.0271
   86SOL     OW 1156   5.963   6.930   0.323 -0.1670  0.3788 -0.0462
   86SOL    HW1 1157   5.941   6.980   0.407  0.2615 -0.4202  0.5557
   86SOL    HW2 1158   5.888   6.868   0.301  0.1095 -0.0652  0.2530
   87SOL     OW 1159   5.863   5.645   6.617 -0.0412 -0.3345  0.0800
   87SOL    HW1 1160   5.868   5.652   6.517  0.8615 -0.1079  0.1370
   87SOL    HW2 1161   5.884   5.552   6.645 -2.5012 -1.0060 -0.0583
   88SOL     OW 1162   5.309   5.142   6.014 -0.4712 -0.2395 -0.7299
   88SOL    HW1 1163   5.361   5.207   6.068 -0.9507 -1.7610  1.7528
   88SOL    HW2 1164   5.223   5.184   5.984 -0.1538  0.6637 -0.3974
   89SOL     OW 1165   2.521   6.489   5.259 -0.2845 -0.4544 -0.0337
   89SOL    HW1 1166   2.619   6.471   5.263 -0.3367 -1.1645 -1.3944
   89SOL    HW2 1167   2.498   6.566   5.319  1.0292 -0.5410  0.6077
   90SOL     OW 1168   2.376   5.003   2.183 -0.2566  0.1555  0.0124
   90SOL    HW1 1169   2.309   4.937   2.215 -0.0622  0.5779  1.3771
   90SOL    HW2 1170   2.455   5.003   2.244  0.1686  0.9559 -0.5114
   91SOL     OW 1171   1.740   6.141   4.255 -0.2415 -0.5692  0.1965
   91SOL    HW1 1172   1.838   6.149   4.271 -0.0369  0.1231 -1.2214
   91SOL    HW2 1173   1.707   6.052   4.287  0.8984 -0.9097  0.4346
   92SOL     OW 1174   5.779   3.708   3.135  0.4598  0.0763 -0.2155
   92SOL    HW1 1175   5.709   3.637   3.141  0.0893  0.3742 -0.7894
   92SOL    HW2 1176   5.754   3.785   3.194 -1.0231  1.2444 -2.2288
   93SOL     OW 1177   4.555   6.004   3.630  0.1645 -0.6360 -0.1074
   93SOL    HW1 1178   4.492   5.980   3.556  0.2544 -2.8496  0.4640
   93SOL    HW2 1179   4.647   5.972   3.607  0.9747  1.7793 -0.5362
   94SOL     OW 1180   6.019   0.979   6.084 -0.3300 -0.5013 -0.6081
   94SOL    HW1 1181   6.036   1.075   6.107  0.8926 -0.4610 -1.5841
   94SOL    HW2 1182   6.102   0.925   6.101 -0.4752 -1.0701 -1.6345
   95SOL     OW 1183   4.892   1.309   2.156  0.0745  0.3932  0.3845
   95SOL    HW1 1184   4.793   1.320   2.149  0.0196  0.3790  1.0698
   95SOL    HW2 1185   4.936   1.398   2.150  0.0098  0.4123  0.2055
   96SOL     OW 1186   2.467   4.806   6.810 -0.2333 -0.0974  0.0089
   96SOL    HW1 1187   2.458   4.897   6.769 -0.2873  1.8256  3.8398
   96SOL    HW2 1188   2.557   4.797   6.853 -0.7556 -1.2648  0.9192
   97SOL     OW 1189   5.868   0.555   1.480  0.1094  0.5191 -0.1597
   97SOL    HW1 1190   5.868   0.653   1.500 -1.9613  0.4859  0.2215
   97SOL    HW2 1191   5.865   0.504   1.566  3.4436 -0.0218 -0.2350
   98SOL     OW 1192   6.300   3.198   3.186 -0.0216 -0.0827  0.5226
   98SOL    HW1 1193   6.287   3.254   3.104  0.9931 -0.5547  0.0091
   98SOL    HW2 1194   6.277   3.103   3.164  2.6269 -0.6876 -0.0161
   99SOL     OW 1195   4.199   6.445   0.090  0.1574  0.3319  0.1192
   99SOL    HW1 1196   4.246   6.390   0.159 -0.8877  0.1207  0.6829
   99SOL    HW2 1197   4.191   6.539   0.121  2.4406  1.0043 -1.0841
  100SOL     OW 1198   1.567   6.739   0.885 -0.0368  0.5544 -0.8855
  100SOL    HW1 1199   1.640   6.804   0.907 -1.5121  2.2703 -0.8055
  100SOL    HW2 1200   1.479   6.781   0.905 -1.0548 -1.6190 -0.6003
  101SOL     OW 1201   2.758   6.663   4.694  0.2456 -0.2693 -0.2498
  101SOL    HW1 1202   2.675   6.630   4.738 -0.0631  1.0283  0.1517
  101SOL    HW2 1203   2.750   6.760   4.674  1.7611 -0.0535  0.0415
  102SOL     OW 1204   0.145   5.428   0.188 -0.1629  0.1559  0.2510
  102SOL    HW1 1205   0.227   5.371   0.185 -0.1074  0.2613 -0.2802
  102SOL    HW2 1206   0.152   5.492   0.266 -0.6416 -1.1696  1.4201
  103SOL     OW 1207   4.594   5.219   1.367  0.2407 -0.3808 -0.2486
  103SOL    HW1 1208   4.502   5.186   1.349  0.8545 -1.2969 -1.9089
  103SOL    HW2 1209   4.660   5.167   1.312  1.7499  0.2963  0.8352
  104SOL     OW 1210   3.950   3.570   1.709 -0.0073  0.0335  0.3408
  104SOL    HW1 1211   4.015   3.507   1.667 -1.0494 -0.8526  0.0223
  104SOL    HW2 1212   3.987   3.604   1.796  1.1233  0.0057 -0.1213
  105SOL     OW 1213   2.640   6.542   3.690  0.2094 -0.0830 -0.4845
  105SOL    HW1 1214   2.637   6.547   3.590  4.7952 -0.4482 -0.8463
  105SOL    HW2 1215   2.583   6.465   3.721 -1.5336  0.1996 -2.6871
  106SOL     OW 1216   2.164   2.824   3.520  0.8046 -0.6013  0.0544
  106SOL    HW1 1217   2.108   2.886   3.574 -1.7549 -2.7868  0.0891
  106SOL    HW2 1218   2.187   2.868   3.433  0.0875  0.8167  0.5432
  107SOL     OW 1219   1.436   4.400   1.931 -0.1480  0.3092 -0.1855
  107SOL    HW1 1220   1.468   4.316   1.888 -1.5652  0.4393 -1.5913
  107SOL    HW2 1221   1.415   4.468   1.860 -0.8560  1.1635  0.8104
  108SOL     OW 1222   1.099   1.670   6.512  0.0573 -0.2600 -0.0432
  108SOL    HW1 1223   1.105   1.579   6.554 -0.5474 -0.1734  0.2251
  108SOL    HW2 1224   1.033   1.726   6.561 -1.3543 -0.4464 -1.6232
  109SOL     OW 1225   1.100   6.346   5.787 -0.1975 -0.3455 -0.2529
  109SOL    HW1 1226   1.152   6.412   5.732  1.2090  0.1252  1.5154
  109SOL    HW2 1227   1.005   6.345   5.757 -0.1457  2.0696 -0.7602
  110SOL     OW 1228   6.911   6.342   1.381 -0.2646 -0.7398  0.2273
  110SOL    HW1 1229   6.964   6.258   1.385  1.0300 -0.0926 -1.9726
  110SOL    HW2 1230   6.835   6.332   1.317 -0.2355 -0.2863  0.1175
  111SOL     OW 1231   4.805   4.955   2.110  0.6074 -0.0930 -0.7270
  111SOL    HW1 1232   4.774   5.040   2.154 -0.6668  1.9379 -5.0050
  111SOL    HW2 1233   4.905   4.952   2.112  0.7822  2.3701 -1.6891
  112SOL     OW 1234   6.025   1.101   6.971 -0.4654  0.2487 -0.7964
  112SOL    HW1 1235   5.940   1.089   6.920  0.2186  0.1656 -1.9647
  112SOL    HW2 1236   6.097   1.045   6.929 -0.1338 -0.7043  0.9667
  113SOL     OW 1237   0.476   4.516   6.378 -0.0953  0.0621 -0.0943
  113SOL    HW1 1238   0.528   4.586   6.428 -0.8922  1.0957 -0.6563
  113SOL    HW2 1239   0.381   4.515   6.409 -0.2645 -0.2612 -0.6019
  114SOL     OW 1240   6.646   2.941   3.673  0.4603  0.3709 -0.3441
  114SOL    HW1 1241   6.681   3.025   3.632  0.0190  0.6386 -0.1799
  114SOL    HW2 1242   6.657   2.865   3.608 -0.1520  0.7693 -0.9391
  115SOL     OW 1243   2.116   1.142   1.653  0.2678  0.6708  0.8172
  115SOL    HW1 1244   2.197   1.193   1.623 -0.2201  1.8543  1.4333
  115SOL    HW2 1245   2.035   1.178   1.606  0.3873 -2.7087 -2.4209
  116SOL     OW 1246   6.203   6.494   2.734 -0.2656  0.3623  0.6476
  116SOL    HW1 1247   6.118   6.521   2.690  0.1039 -0.5155 -0.6381
  116SOL    HW2 1248   6.211   6.394   2.734  1.4574  0.4453 -0.6611
  117SOL     OW 1249   0.174   6.437   3.805 -0.5896  0.1891 -0.1028
  117SOL    HW1 1250   0.118   6.440   3.722 -0.3642 -2.8224 -0.4626
  117SOL    HW2 1251   0.125   6.389   3.877  0.3734  0.1741  0.5700
  118SOL     OW 1252   0.582   2.413   6.580  0.5938  0.2040  0.2212
  118SOL    HW1 1253   0.643   2.364   6.517  0.1702  1.0908 -0.9097
  118SOL    HW2 1254   0.592   2.375   6.672  1.3316 -1.0297 -0.3416
  119SOL     OW 1255   4.550   0.112   6.985 -0.1513  0.6607 -0.3141
  119SOL    HW1 1256   4.607   0.040   6.947  1.2185  1.7731 -0.4278
  119SOL    HW2 1257   4.500   0.077   7.064  0.8152 -0.2837 -0.1089
  120SOL     OW 1258   1.047   0.674   3.718 -0.7731  0.1554  0.2747
  120SOL    HW1 1259   1.072   0.691   3.623 -1.2573  0.4377  0.1960
  120SOL    HW2 1260   1.108   0.604   3.757  0.0616  0.7484  0.0584
  121SOL     OW 1261   4.509   0.021   0.233  0.2855 -0.2159 -0.7214
  121SOL    HW1 1262   4.496  -0.067   0.280 -2.4516  0.3635 -0.2058
  121SOL    HW2 1263   4.479   0.095   0.293  1.5966  1.0203 -1.5358
  122SOL     OW 1264   3.024   6.263   4.982  1.1645  0.5443 -0.1444
  122SOL    HW1 1265   3.051   6.356   4.955  2.2572  0.1185 -0.6119
  122SOL    HW2 1266   2.943   6.267   5.040  0.3873  1.6990 -1.2481
  123SOL     OW 1267   2.264   0.593   2.583 -0.4507 -0.2317 -0.6512
  123SOL    HW1 1268   2.234   0.679   2.540 -2.9753  0.7995  2.7068
  123SOL    HW2 1269   2.338   0.613   2.648  0.2927 -0.9653 -1.2624
  124SOL     OW 1270   6.179   6.238   0.341  0.0522 -0.3001 -0.2119
  124SOL    HW1 1271   6.216   6.155   0.381  4.1576  0.5686 -1.7573
  124SOL    HW2 1272   6.160   6.305   0.413  0.0060 -1.3529  0.7715
  125SOL     OW 1273   3.462   1.240   0.563 -0.4019  0.2462  0.1478
  125SOL    HW1 1274   3.494   1.332   0.541 -1.6366  0.3050 -1.5709
  125SOL    HW2 1275   3.537   1.175   0.553  0.3735  0.9908  0.9706
  126SOL     OW 1276   4.892   3.534   5.458  0.4797 -0.1330 -0.3171
  126SOL    HW1 1277   4.853   3.625   5.445 -1.1579 -0.8105 -0.4624
  126SOL    HW2 1278   4.818   3.467   5.462  1.7083 -1.6411 -1.6560
  127SOL     OW 1279   5.100   5.537   4.330  0.3401 -0.2202  0.0511
  127SOL    HW1 1280   5.144   5.598   4.265  0.2783  0.1151  0.3203
  127SOL    HW2 1281   5.015   5.577   4.362 -0.1168 -0.8191 -0.3857
  128SOL     OW 1282   6.173   3.715   0.769  0.4687  0.4314 -0.2466
  128SOL    HW1 1283   6.183   3.623   0.807 -2.3653  0.4817  0.8438
  128SOL    HW2 1284   6.151   3.779   0.842  1.4843  1.8467 -1.1282
  129SOL     OW 1285   3.534   0.235   2.495  0.2428  0.6311  0.4006
  129SOL    HW1 1286   3.470   0.306   2.525 -1.0917  1.1463 -3.1162
  129SOL    HW2 1287   3.620   0.277   2.468 -0.6972  1.1658 -2.1081
  130SOL     OW 1288   1.306   0.377   5.999  0.4075 -0.1461  0.7055
  130SOL    HW1 1289   1.363   0.459   5.995  0.2686 -0.0997 -0.5892
  130SOL    HW2 1290   1.211   0.401   5.980  0.0597 -0.3554  2.0429
  131SOL     OW 1291   3.162   2.629   6.070 -0.4238  0.3785 -0.2788
  131SOL    HW1 1292   3.150   2.685   5.988  2.1677  2.4576  0.5891
  131SOL    HW2 1293   3.234   2.562   6.054 -0.7209  0.0082 -0.0692
  132SOL     OW 1294   3.570   0.466   6.437 -0.4534 -0.1661  0.1013
  132SOL    HW1 1295   3.566   0.566   6.448  2.4809 -0.0488  0.8619
  132SOL    HW2 1296   3.614   0.426   6.517  1.1851 -1.7273 -1.4949
  133SOL     OW 1297   3.632   2.199   5.450  0.1015  0.0326  0.5474
  133SOL    HW1 1298   3.613   2.183   5.547 -0.8171  1.2844  0.5976
  133SOL    HW2 1299   3.656   2.295   5.436 -2.2447  0.5157 -0.7803
  134SOL     OW 1300   2.060   2.702   5.524  0.3360  0.2026  0.3351
  134SOL    HW1 1301   2.132   2.747   5.471 -0.7838 -1.1199 -2.5339
  134SOL    HW2 1302   2.085   2.702   5.621  2.1901  3.4050  0.0105
  135SOL     OW 1303   4.569   5.151   1.819 -0.1340  0.4621 -0.3750
  135SOL    HW1 1304   4.586   5.058   1.853  0.3351 -0.5311 -3.0460
  135SOL    HW2 1305   4.475   5.178   1.842 -0.9995 -1.5503 -1.2584
  136SOL     OW 1306   6.695   1.231   0.751 -0.8607 -0.4617 -0.3813
  136SOL    HW1 1307   6.667   1.321   0.783 -0.8299 -0.6085  0.0688
  136SOL    HW2 1308   6.629   1.162   0.784  0.1191 -0.8387  0.8608
  137SOL     OW 1309   0.868   6.354   1.573  0.7063  0.4102  0.9570
  137SOL    HW1 1310   0.825   6.268   1.603  1.1602 -0.8050 -1.5798
  137SOL    HW2 1311   0.963   6.336   1.548  1.0505  1.8640  1.1408
  138SOL     OW 1312   3.744   6.164   6.360 -0.1429  0.5576 -0.4180
  138SOL    HW1 1313   3.807   6.215   6.302 -2.2178 -0.5939 -3.9489
  138SOL    HW2 1314   3.752   6.066   6.341 -0.2075 -0.0107  2.0835
  139SOL     OW 1315   1.697   0.842   0.037 -0.8523 -0.1977 -0.1534
  139SOL    HW1 1316   1.696   0.920   0.100  0.8410 -0.5533  0.3503
  139SOL    HW2 1317   1.603   0.808   0.025 -1.5327  1.4974  0.1133
  140SOL     OW 1318   3.079   5.032   1.990 -0.4740 -0.0154  0.2243
  140SOL    HW1 1319   3.170   4.991   1.997 -1.1017 -1.6575 -0.7383
  140SOL    HW2 1320   3.016   4.981   2.049 -1.0927  0.1135 -0.3266
  141SOL     OW 1321   1.756   1.442   4.634  0.6822  0.4913 -0.4200
  141SOL    HW1 1322   1.710   1.386   4.702  0.5979 -1.1100 -1.7519
  141SOL    HW2 1323   1.806   1.384   4.570 -1.3711  1.6858 -3.3341
  142SOL     OW 1324   0.881   6.769   1.622 -0.3792 -0.1968  0.2516
  142SOL    HW1 1325   0.967   6.791   1.578 -0.4253  0.1242  0.3167
  142SOL    HW2 1326   0.877   6.671   1.642  0.8157  0.0776  2.0308
  143SOL     OW 1327   3.271   3.513   5.450  0.1506  0.5586 -0.7692
  143SOL    HW1 1328   3.198   3.578   5.472 -0.0472  0.3832 -0.9041
  143SOL    HW2 1329   3.325   3.549   5.374 -0.2685  0.3356 -1.1780
  144SOL     OW 1330   2.947   1.857   3.373  0.1259 -0.0913 -0.0861
  144SOL    HW1 1331   2.994   1.846   3.286  0.1437  1.2427 -0.2678
  144SOL    HW2 1332   2.876   1.927   3.364 -0.2881 -0.3785  0.8081
  145SOL     OW 1333   5.393   5.377   6.130 -0.1000 -0.3394 -0.3046
  145SOL    HW1 1334   5.342   5.413   6.052  0.2893 -0.4715 -0.6235
  145SOL    HW2 1335   5.471   5.437   6.150  1.0662 -1.4339 -1.3939
  146SOL     OW 1336   0.908   1.261   4.854  0.2356  0.3200  0.5153
  146SOL    HW1 1337   0.860   1.176   4.833  0.3726  0.0575  1.2337
  146SOL    HW2 1338   0.895   1.284   4.951  1.4195  0.3278  0.6899
  147SOL     OW 1339   1.398   1.056   4.697  0.3040  0.3133  0.2708
  147SOL    HW1 1340   1.419   0.992   4.623  1.1336  1.6872 -0.7391
  147SOL    HW2 1341   1.302   1.045   4.725  0.8140 -2.4051  1.2412
  148SOL     OW 1342   6.366   4.459   6.127 -0.3107 -0.3081 -0.4372
  148SOL    HW1 1343   6.297   4.530   6.138  0.4771  0.2847  1.1160
  148SOL    HW2 1344   6.420   4.453   6.211  1.5357 -0.7213 -1.5947
  149SOL     OW 1345   2.025   4.322   2.780 -0.1143 -0.3267  0.1003
  149SOL    HW1 1346   2.017   4.226   2.755  1.0927 -0.3378 -0.3003
  149SOL    HW2 1347   2.116   4.355   2.757 -0.1367  0.6202  1.2825
  150SOL     OW 1348   6.990   1.707   1.298 -0.4764 -0.4963  0.7460
  150SOL    HW1 1349   6.964   1.791   1.251 -1.1255 -0.6862  0.7525
  150SOL    HW2 1350   6.952   1.628   1.250 -0.5728 -0.7336  1.2032
  151SOL     OW 1351   6.432   3.963   4.691  0.0553 -0.2596 -0.4889
  151SOL    HW1 1352   6.403   4.051   4.730  1.0352 -0.9847  2.1373
  151SOL    HW2 1353   6.367   3.935   4.620 -1.6603  1.4367  0.3085
  152SOL     OW 1354   1.462   4.240   0.267 -0.2470 -0.2917 -0.2531
  152SOL    HW1 1355   1.523   4.169   0.301 -0.9714 -1.9893 -2.2797
  152SOL    HW2 1356   1.369   4.223   0.299 -0.2521  0.3763  0.1075
  153SOL     OW 1357   5.860   2.620   6.163 -0.2554 -0.1160  0.1887
  153SOL    HW1 1358   5.863   2.582   6.255  0.1605  1.9156  1.0746
  153SOL    HW2 1359   5.952   2.624   6.126 -0.1261  1.0964  0.6003
  154SOL     OW 1360   6.172   6.938   6.094  0.6031 -0.0301 -0.3655
  154SOL    HW1 1361   6.234   7.015   6.081  0.6173  0.1016  0.4751
  154SOL    HW2 1362   6.221   6.863   6.140  0.5106 -0.4379 -0.9145
  155SOL     OW 1363   0.300   4.470   5.091 -0.5552 -0.6998 -0.3113
  155SOL    HW1 1364   0.233   4.487   5.164 -0.4571 -1.2774 -0.0815
  155SOL    HW2 1365   0.252   4.442   5.008 -1.1463  4.2738 -1.9972
  156SOL     OW 1366   6.285   4.819   1.964 -0.1974 -0.0952 -0.1846
  156SOL    HW1 1367   6.370   4.784   2.003  0.9767  0.9741 -1.6406
  156SOL    HW2 1368   6.235   4.743   1.921  0.3000 -0.6545  0.2017
  157SOL     OW 1369   5.470   0.525   6.252  0.5387 -0.4558 -0.2069
  157SOL    HW1 1370   5.390   0.566   6.208 -0.2328 -2.3706 -0.6746
  157SOL    HW2 1371   5.475   0.428   6.229  2.9212 -0.4281 -0.0378
  158SOL     OW 1372   4.737   1.019   1.068 -0.1407  0.2787 -0.3772
  158SOL    HW1 1373   4.820   1.071   1.049 -0.3475  0.1884 -1.5922
  158SOL    HW2 1374   4.693   1.056   1.151  1.5820 -0.3054  0.8516
  159SOL     OW 1375   6.173   6.213   2.709  0.7050  0.5982 -0.2821
  159SOL    HW1 1376   6.088   6.201   2.760 -0.3218  0.7384 -1.8819
  159SOL    HW2 1377   6.198   6.125   2.667  1.4039  0.5389  0.2530
  160SOL     OW 1378   6.068   0.958   1.252 -0.1973 -0.1254 -0.2500
  160SOL    HW1 1379   6.084   1.051   1.219  2.1107 -1.4454 -3.3155
  160SOL    HW2 1380   6.031   0.902   1.178  1.2698 -2.3436  0.5895
  161SOL     OW 1381   5.489   3.133   2.876  0.3720 -0.0505 -0.5670
  161SOL    HW1 1382   5.544   3.198   2.929 -0.4875  1.6623 -1.6832
  161SOL    HW2 1383   5.457   3.177   2.792 -2.5277 -1.0258 -0.0795
  162SOL     OW 1384   1.207   2.638   6.080 -0.4355 -0.0663 -0.3466
  162SOL    HW1 1385   1.247   2.592   6.001 -1.6869 -0.2443 -0.9037
  162SOL    HW2 1386   1.168   2.725   6.051 -0.8339 -0.0982  0.0819
  163SOL     OW 1387   4.129   2.175   1.802  0.7160 -0.2844 -0.3439
  163SOL    HW1 1388   4.185   2.131   1.873 -1.7596  0.6978  2.4568
  163SOL    HW2 1389   4.049   2.118   1.783 -0.4694  1.0533  0.3862
  164SOL     OW 1390   0.361   2.058   6.468  0.4081 -0.5867  0.0798
  164SOL    HW1 1391   0.321   2.069   6.558 -2.7290 -1.2992 -1.1111
  164SOL    HW2 1392   0.355   2.145   6.418  0.3235 -0.7156 -0.1336
  165SOL     OW 1393   1.220   5.124   6.365  0.2590  0.4391 -0.6327
  165SOL    HW1 1394   1.228   5.214   6.322  0.6200 -0.7578 -3.2466
  165SOL    HW2 1395   1.310   5.081   6.369 -0.0064 -0.0718  0.0267
  166SOL     OW 1396   3.941   4.646   0.704 -0.5598 -0.1908  0.3834
  166SOL    HW1 1397   3.871   4.710   0.733 -0.8689 -0.7927  0.9954
  166SOL    HW2 1398   3.908   4.552   0.717  0.4700 -0.4902  0.9694
  167SOL     OW 1399   3.704   3.760   0.818  0.7353 -0.2438  0.1526
  167SOL    HW1 1400   3.635   3.813   0.868 -0.4860 -1.1626 -0.5278
  167SOL    HW2 1401   3.786   3.753   0.875 -0.0932 -0.0251  1.4345
  168SOL     OW 1402   6.802   2.630   5.782 -0.1334  0.2546 -0.3145
  168SOL    HW1 1403   6.842   2.542   5.757 -0.2294  0.6480 -1.9859
  168SOL    HW2 1404   6.848   2.666   5.863  0.9782 -0.6060 -0.5339
  169SOL     OW 1405   5.899   0.010   2.161 -0.0732 -0.3209  0.1642
  169SOL    HW1 1406   5.856  -0.071   2.122 -1.5070  0.3957  0.1923
  169SOL    HW2 1407   5.957  -0.016   2.238 -0.6650 -1.2912  0.2827
  170SOL     OW 1408   4.619   6.709   2.824 -0.5693 -0.3742  0.1942
  170SOL    HW1 1409   4.547   6.740   2.763 -0.0590  2.3195  0.8077
  170SOL    HW2 1410   4.683   6.650   2.774 -0.5749  1.1366 -1.7117
  171SOL     OW 1411   0.398   5.188   1.279  0.0507  0.5113 -0.3130
  171SOL    HW1 1412   0.435   5.212   1.368  0.9020  0.3965 -0.6286
  171SOL    HW2 1413   0.459   5.124   1.233 -1.4730 -1.2104 -0.0753
  172SOL     OW 1414   6.944   6.223   6.729  0.3715  0.2709 -0.4105
  172SOL    HW1 1415   7.007   6.233   6.806 -0.7869  1.8901  0.3760
  172SOL    HW2 1416   6.850   6.242   6.760 -0.8249 -3.4770 -1.1777
  173SOL     OW 1417   1.841   6.933   5.310 -0.1486  0.5615  0.0962
  173SOL    HW1 1418   1.853   6.951   5.212 -0.3945  1.9374  0.3110
  173SOL    HW2 1419   1.760   6.980   5.343 -0.7457 -0.8505  0.7372
  174SOL     OW 1420   0.583   5.427   4.360 -0.2703  0.0602  0.1231
  174SOL    HW1 1421   0.630   5.462   4.279  1.6198  0.7954  1.4674
  174SOL    HW2 1422   0.484   5.435   4.346 -0.0274  3.6212 -0.7411
  175SOL     OW 1423   6.780   2.505   1.869 -0.1012  0.2347 -0.2520
  175SOL    HW1 1424   6.811   2.451   1.947 -0.3775 -0.9798 -0.9547
  175SOL    HW2 1425   6.715   2.574   1.900  0.2103  0.1285  0.6646
  176SOL     OW 1426   4.827   3.257   5.073  0.5348 -0.2352 -0.5051
  176SOL    HW1 1427   4.801   3.352   5.054 -2.5999 -1.0793 -1.0725
  176SOL    HW2 1428   4.806   3.235   5.169  1.5584 -0.2928 -0.2841
  177SOL     OW 1429   5.524   5.064   1.112 -0.1629  0.1720  0.2481
  177SOL    HW1 1430   5.562   5.105   1.195  0.0323 -1.8973  1.2489
  177SOL    HW2 1431   5.450   5.001   1.137  1.1032 -1.8803 -0.9067
  178SOL     OW 1432   5.613   3.746   1.494  0.4696 -0.0250  0.0259
  178SOL    HW1 1433   5.614   3.646   1.502  0.3489  0.0175  0.5998
  178SOL    HW2 1434   5.674   3.785   1.563 -0.7856  0.3613  0.9477
  179SOL     OW 1435   3.306   4.212   1.244 -0.0841  0.1465  0.8476
  179SOL    HW1 1436   3.304   4.157   1.160  0.6219  1.5439 -0.1062
  179SOL    HW2 1437   3.330   4.153   1.322  0.9546 -0.8394 -0.1891
  180SOL     OW 1438   5.497   3.817   6.879 -0.1008 -0.0057  0.3712
  180SOL    HW1 1439   5.513   3.775   6.790  1.0137  2.1188 -0.4881
  180SOL    HW2 1440   5.540   3.761   6.950 -1.5509 -2.0772 -0.2794
  181SOL     OW 1441   4.136   3.591   4.401 -0.4230 -0.6005  0.2340
  181SOL    HW1 1442   4.234   3.608   4.405 -0.8635  2.4794  1.1710
  181SOL    HW2 1443   4.098   3.638   4.321 -1.1535 -1.6630 -0.0526
  182SOL     OW 1444   2.712   4.751   1.642  0.2028 -0.2345  0.1935
  182SOL    HW1 1445   2.747   4.805   1.565 -2.0683 -0.4085 -1.0620
  182SOL    HW2 1446   2.614   4.769   1.653 -0.0650 -2.1443  1.4263
  183SOL     OW 1447   4.854   5.625   0.521 -0.1988 -0.0126  0.3766
  183SOL    HW1 1448   4.824   5.673   0.604 -1.2852 -0.0951  0.0461
  183SOL    HW2 1449   4.782   5.562   0.491  0.8764 -1.2789  0.3489
  184SOL     OW 1450   0.238   5.906   6.289  0.0449 -0.8103 -0.0557
  184SOL    HW1 1451   0.215   5.936   6.197  0.0428 -0.3249  0.1032
  184SOL    HW2 1452   0.298   5.826   6.284  1.5761  0.3130 -0.5114
  185SOL     OW 1453   0.221   2.966   5.116  0.3275 -0.1578  0.5164
  185SOL    HW1 1454   0.139   2.973   5.058  1.4897  0.6826 -1.0965
  185SOL    HW2 1455   0.287   2.905   5.072  0.8650 -0.2413  1.4346
  186SOL     OW 1456   0.270   3.972   5.048 -0.1115  0.0659  0.0956
  186SOL    HW1 1457   0.299   4.067   5.064  0.6380 -0.2345  0.5848
  186SOL    HW2 1458   0.284   3.949   4.952 -0.5935  0.5504 -0.0939
  187SOL     OW 1459   5.955   6.901   6.237 -0.3211  0.1928  0.9347
  187SOL    HW1 1460   6.024   6.908   6.164 -0.5616  0.2507  0.7120
  187SOL    HW2 1461   5.873   6.952   6.210 -1.2141 -1.5018  0.3140
  188SOL     OW 1462   3.534   0.592   2.586 -0.1324  0.1754 -0.2805
  188SOL    HW1 1463   3.619   0.561   2.628  0.1959  0.0394 -1.0423
  188SOL    HW2 1464   3.502   0.675   2.632  0.7627  0.6079 -0.4331
  189SOL     OW 1465   5.777   5.626   1.818 -0.0106  0.5473  0.2411
  189SOL    HW1 1466   5.833   5.706   1.840  1.8793 -0.6350 -0.0624
  189SOL    HW2 1467   5.793   5.555   1.887 -2.0917  0.5844  0.8239
  190SOL     OW 1468   5.395   0.537   2.323  0.4054 -0.4314  0.3229
  190SOL    HW1 1469   5.430   0.470   2.390 -0.5643 -0.6427  0.6317
  190SOL    HW2 1470   5.313   0.500   2.279 -0.0419  0.4774  0.3707
  191SOL     OW 1471   0.909   2.766   1.381 -0.0149 -0.2559 -0.4320
  191SOL    HW1 1472   0.929   2.766   1.479 -0.4057 -0.1083 -0.3503
  191SOL    HW2 1473   0.906   2.672   1.347  3.0054 -0.2776 -0.9158
  192SOL     OW 1474   1.095   0.856   6.343 -0.0114  0.0488 -0.3231
  192SOL    HW1 1475   1.154   0.899   6.275  0.5577  0.6110  0.5059
  192SOL    HW2 1476   1.013   0.912   6.355  1.2755  1.6969  1.6463
  193SOL     OW 1477   3.898   5.684   4.974 -0.3338 -0.4522 -0.7362
  193SOL    HW1 1478   3.879   5.688   4.876  0.1142  0.3683 -0.7968
  193SOL    HW2 1479   3.947   5.599   4.995 -0.3903 -0.6073 -1.2345
  194SOL     OW 1480   5.470   4.705   3.211 -0.0439  0.0723 -0.0534
  194SOL    HW1 1481   5.428   4.736   3.126 -1.7304 -0.0449  0.6901
  194SOL    HW2 1482   5.549   4.648   3.191  1.2785  2.2498 -1.4986
  195SOL     OW 1483   0.542   0.635   3.028  0.5941  0.6884  0.7027
  195SOL    HW1 1484   0.589   0.613   3.114  1.7133  2.0750  0.4968
  195SOL    HW2 1485   0.445   0.612   3.036  0.6669  0.8264  2.3672
  196SOL     OW 1486   5.492   1.425   1.395 -0.0806 -0.5169  0.2819
  196SOL    HW1 1487   5.519   1.331   1.416 -1.9835 -1.1538  0.0513
  196SOL    HW2 1488   5.442   1.427   1.309  0.5319  0.8390 -0.0732
  197SOL     OW 1489   3.890   5.415   0.358 -0.5281  0.5882  0.1328
  197SOL    HW1 1490   3.796   5.402   0.390 -0.1942  0.7683  1.2458
  197SOL    HW2 1491   3.945   5.336   0.383  0.0692  1.3519  1.3306
  198SOL     OW 1492   2.822   2.598   5.810  0.2104  0.1682 -0.2188
  198SOL    HW1 1493   2.845   2.524   5.872 -4.7167 -0.3984  1.3872
  198SOL    HW2 1494   2.818   2.684   5.861  0.7607  0.5782 -0.8598
  199SOL     OW 1495   1.045   1.272   1.807  0.3745 -0.5790 -0.8174
  199SOL    HW1 1496   1.000   1.267   1.897  0.2663 -0.0627 -0.8405
  199SOL    HW2 1497   1.098   1.356   1.801 -0.4613 -0.1007 -1.6253
  200SOL     OW 1498   4.858   1.505   5.087  0.7124  0.4454 -0.1039
  200SOL    HW1 1499   4.899   1.581   5.138 -0.8530 -1.0875  3.7673
  200SOL    HW2 1500   4.897   1.419   5.117 -2.3446 -0.7559  0.8157
  201SOL     OW 1501   2.629   1.200   6.717 -0.4522 -0.1325 -0.8663
  201SOL    HW1 1502   2.539   1.159   6.728 -0.8895  0.6335 -1.5027
  201SOL    HW2 1503   2.662   1.184   6.624  0.0778 -0.4130 -0.6373
  202SOL     OW 1504   6.501   3.661   4.217  0.0218  0.0523  0.4500
  202SOL    HW1 1505   6.536   3.707   4.299  0.0853 -0.7457  0.8835
  202SOL    HW2 1506   6.561   3.584   4.194 -1.6268 -1.6350  1.4797
  203SOL     OW 1507   2.298   6.949   2.427  0.2775  0.0223  0.1475
  203SOL    HW1 1508   2.396   6.963   2.410  0.3753  0.6929  1.2331
  203SOL    HW2 1509   2.250   7.037   2.424  0.0403 -0.0327  1.6245
  204SOL     OW 1510   4.525   5.637   0.225  1.3461  0.0010 -0.2132
  204SOL    HW1 1511   4.560   5.722   0.264  1.1525 -0.9539  2.1708
  204SOL    HW2 1512   4.554   5.559   0.281 -0.9784 -1.2387 -0.5830
  205SOL     OW 1513   4.806   4.865   5.724 -0.2803  0.0867 -0.1889
  205SOL    HW1 1514   4.880   4.932   5.730  1.1066 -1.5093  2.6846
  205SOL    HW2 1515   4.845   4.774   5.715 -1.8985 -0.7547  0.9274
  206SOL     OW 1516   6.573   2.165   4.153  0.5760  0.0336  0.4296
  206SOL    HW1 1517   6.532   2.230   4.218 -0.7045 -1.0022  0.7142
  206SOL    HW2 1518   6.669   2.188   4.138 -0.1989  2.9960 -0.7639
  207SOL     OW 1519   6.805   1.006   3.314 -0.0469  0.4119 -0.1233
  207SOL    HW1 1520   6.898   1.037   3.336  0.6551 -1.3249 -0.5082
  207SOL    HW2 1521   6.809   0.928   3.252 -1.7836  0.3662 -0.2332
  208SOL     OW 1522   5.706   3.814   5.719  0.3062 -0.4530 -0.2369
  208SOL    HW1 1523   5.725   3.720   5.747  0.7201 -0.3844 -0.2831
  208SOL    HW2 1524   5.710   3.874   5.798  0.7015 -0.3752 -0.3163
  209SOL     OW 1525   6.670   6.245   3.221  0.0575 -0.2825  0.4588
  209SOL    HW1 1526   6.770   6.243   3.219  0.1391  1.6901  0.1113
  209SOL    HW2 1527   6.634   6.174   3.161  1.2538 -0.8478  0.3830
  210SOL     OW 1528   1.520   3.072   0.779  0.0518  0.6289  0.2800
  210SOL    HW1 1529   1.521   2.977   0.747 -0.6781  0.4912  0.6476
  210SOL    HW2 1530   1.611   3.112   0.766  1.0404 -0.8287  2.1682
  211SOL     OW 1531   2.965   6.325   0.908  0.1974  0.3958 -0.2820
  211SOL    HW1 1532   2.894   6.275   0.858  0.8041  0.7858 -1.5703
  211SOL    HW2 1533   2.979   6.414   0.865  1.0919  0.5415  0.2917
  212SOL     OW 1534   2.703   1.030   3.357  0.5529 -0.2625  0.1128
  212SOL    HW1 1535   2.769   1.087   3.308  0.9629 -0.1587  0.7569
  212SOL    HW2 1536   2.729   0.934   3.348 -0.1171 -0.3591 -0.9422
  213SOL     OW 1537   0.807   6.958   1.332  0.2218  0.3641 -0.1985
  213SOL    HW1 1538   0.895   6.972   1.377 -0.9392  0.8557  2.0671
  213SOL    HW2 1539   0.812   6.876   1.274  2.7039  1.4706 -1.7386
  214SOL     OW 1540   2.409   5.497   1.714  0.6900  0.4918 -1.2258
  214SOL    HW1 1541   2.355   5.580   1.725  2.0496  1.4661 -1.6337
  214SOL    HW2 1542   2.388   5.456   1.625 -1.0098 -0.4189 -0.4562
  215SOL     OW 1543   5.625   6.817   3.008 -0.2839 -0.5073  0.2514
  215SOL    HW1 1544   5.724   6.804   3.009 -0.1660  0.3421  0.4972
  215SOL    HW2 1545   5.604   6.910   2.980 -1.0488 -0.8987 -0.5370
  216SOL     OW 1546   4.822   0.560   2.578  0.0617  0.1477 -0.3929
  216SOL    HW1 1547   4.919   0.538   2.579 -0.1890 -1.3740  2.6898
  216SOL    HW2 1548   4.775   0.497   2.515  0.8180 -0.5735 -0.2568
  217SOL     OW 1549   4.003   5.155   2.785  0.1090  0.9204  0.0578
  217SOL    HW1 1550   4.065   5.232   2.802  0.1403  0.8746  0.1526
  217SOL    HW2 1551   3.976   5.114   2.872 -0.9076  1.6081  0.0803
  218SOL     OW 1552   2.435   2.585   6.345 -0.3086 -0.0780  0.5324
  218SOL    HW1 1553   2.355   2.636   6.376 -0.2100 -0.0700  0.7784
  218SOL    HW2 1554   2.509   2.597   6.411  0.8036  2.1380 -1.0013
  219SOL     OW 1555   5.634   2.080   1.751 -0.3509 -0.1676  0.1566
  219SOL    HW1 1556   5.673   1.988   1.754 -1.0960 -0.4888  0.2636
  219SOL    HW2 1557   5.602   2.106   1.842  0.2393  0.3718  0.2152
  220SOL     OW 1558   1.118   6.600   4.096  0.6816 -0.2511 -0.1617
  220SOL    HW1 1559   1.154   6.590   4.189  0.7294  0.3392 -0.1091
  220SOL    HW2 1560   1.045   6.534   4.081 -0.1429  0.4386  0.7200
  221SOL     OW 1561   2.068   1.928   3.118 -0.4292  0.6080 -0.6177
  221SOL    HW1 1562   2.131   1.987   3.169  0.2375 -0.0196 -0.6840
  221SOL    HW2 1563   2.119   1.883   3.044 -1.1763  0.8073 -1.2532
  222SOL     OW 1564   1.038   5.250   3.253  0.2200  0.1940 -0.0997
  222SOL    HW1 1565   1.070   5.195   3.176  1.9793 -0.0941  0.7852
  222SOL    HW2 1566   0.978   5.323   3.220  1.5588  0.5580 -1.8247
  223SOL     OW 1567   5.914   0.131   5.435 -0.1463  0.4090  0.0826
  223SOL    HW1 1568   5.830   0.139   5.489 -0.6865 -0.9776 -0.5038
  223SOL    HW2 1569   5.987   0.093   5.492  0.0013  1.3074  0.5030
  224SOL     OW 1570   4.499   4.645   4.506 -0.3832  0.0379 -0.5584
  224SOL    HW1 1571   4.571   4.714   4.506 -1.6633  1.4164 -1.3487
  224SOL    HW2 1572   4.525   4.571   4.569  1.9676  0.1751 -1.2445
  225SOL     OW 1573   5.261   1.765   5.335 -0.4818  0.1407 -0.2445
  225SOL    HW1 1574   5.249   1.789   5.431  0.8144 -0.8641  0.2045
  225SOL    HW2 1575   5.193   1.697   5.309 -0.5903  0.1236  0.0816
  226SOL     OW 1576   6.321   1.971   0.120  0.3289 -0.2029 -0.1701
  226SOL    HW1 1577   6.354   1.967   0.025  0.3049  1.9415 -0.3090
  226SOL    HW2 1578   6.395   2.004   0.179 -0.3337  0.7056  0.1710
  227SOL     OW 1579   1.709   2.504   3.906  0.2482  0.6837  0.1165
  227SOL    HW1 1580   1.789   2.459   3.868  1.0132  0.7058  1.6229
  227SOL    HW2 1581   1.700   2.480   4.003 -1.4770  0.8203  0.0258
  228SOL     OW 1582   1.188   4.641   4.433 -0.6952 -0.3577 -0.0773
  228SOL    HW1 1583   1.225   4.662   4.342 -2.6951 -1.4579 -1.2443
  228SOL    HW2 1584   1.193   4.722   4.491  2.2124 -0.1052 -0.5383
  229SOL     OW 1585   0.785   5.749   4.243 -0.7438 -0.6219  0.7206
  229SOL    HW1 1586   0.712   5.694   4.202 -0.0949  0.5058 -2.2601
  229SOL    HW2 1587   0.745   5.825   4.294 -1.6216 -1.2824  1.0467
  230SOL     OW 1588   5.604   0.641   1.402  0.1742 -0.1160 -0.1372
  230SOL    HW1 1589   5.507   0.636   1.381  0.4472  1.0181 -1.8684
  230SOL    HW2 1590   5.649   0.702   1.337  1.7698  0.6779  1.6158
  231SOL     OW 1591   2.350   1.896   5.757 -0.4626 -0.0958 -0.1918
  231SOL    HW1 1592   2.441   1.920   5.792 -0.2737 -2.3621  1.0981
  231SOL    HW2 1593   2.283   1.959   5.795  0.0438 -1.0773  2.6110
  232SOL     OW 1594   3.657   0.785   6.106 -0.0231  0.1786 -0.0707
  232SOL    HW1 1595   3.596   0.863   6.118 -0.3457  0.2545 -1.9455
  232SOL    HW2 1596   3.751   0.813   6.121 -0.1058  1.0305 -1.0613
  233SOL     OW 1597   2.912   0.259   3.136 -0.4722 -0.2567  0.0008
  233SOL    HW1 1598   2.941   0.353   3.148 -1.6841 -0.0074  1.1482
  233SOL    HW2 1599   2.932   0.206   3.218 -0.6386 -0.7796 -0.2852
  234SOL     OW 1600   0.899   0.067   2.696 -0.2513 -0.4210  0.0665
  234SOL    HW1 1601   0.958   0.038   2.772 -0.3320  1.3085  0.8510
  234SOL    HW2 1602   0.952   0.125   2.633 -0.7724  0.0955  0.0917
  235SOL     OW 1603   5.354   6.522   0.247  0.3173 -0.3892 -0.2625
  235SOL    HW1 1604   5.288   6.527   0.173  1.9310  1.3264 -1.6755
  235SOL    HW2 1605   5.328   6.448   0.310 -2.7176  0.0234 -0.8808
  236SOL     OW 1606   5.045   4.695   2.258 -0.1455  0.0615  0.1174
  236SOL    HW1 1607   5.082   4.615   2.306 -1.3049 -0.8215 -0.4254
  236SOL    HW2 1608   4.947   4.682   2.242  0.1357  0.4221 -2.2643
  237SOL     OW 1609   3.423   1.112   5.432  0.6960  0.0973 -0.1053
  237SOL    HW1 1610   3.484   1.035   5.412  0.0660 -0.7504  1.1181
  237SOL    HW2 1611   3.468   1.174   5.496  0.3150 -0.5262  0.7945
  238SOL     OW 1612   0.737   6.656   3.084 -0.5741  0.8916 -0.6001
  238SOL    HW1 1613   0.640   6.634   3.071 -0.8398  1.5011  0.2720
  238SOL    HW2 1614   0.745   6.739   3.139  0.4565  0.1397  0.4327
  239SOL     OW 1615   6.486   5.923   3.773 -0.0728 -0.1825 -0.6253
  239SOL    HW1 1616   6.391   5.941   3.746 -0.0423 -0.6207 -1.0246
  239SOL    HW2 1617   6.539   6.008   3.768 -0.8561  0.4935  1.3903
  240SOL     OW 1618   3.517   3.627   6.121 -0.2791 -0.3657  0.5043
  240SOL    HW1 1619   3.585   3.655   6.190 -0.9509  2.5611  0.1045
  240SOL    HW2 1620   3.564   3.609   6.035  0.2696 -1.5177  1.0042
  241SOL     OW 1621   4.202   4.844   0.218  0.6434 -0.2009  0.2349
  241SOL    HW1 1622   4.184   4.761   0.166  2.5093  0.0323 -0.8550
  241SOL    HW2 1623   4.202   4.823   0.316  1.1800 -1.5017 -0.0258
  242SOL     OW 1624   1.870   3.974   4.984  0.5168 -0.3944 -0.0988
  242SOL    HW1 1625   1.892   3.877   4.982  0.6707 -0.6026  3.7754
  242SOL    HW2 1626   1.948   4.025   5.022 -0.7731  0.7011  1.1989
  243SOL     OW 1627   1.196   6.549   6.213 -0.2396  0.0608 -0.1996
  243SOL    HW1 1628   1.239   6.637   6.233 -2.6291  1.0082  1.1595
  243SOL    HW2 1629   1.200   6.490   6.293 -0.4857 -0.2554 -0.4146
  244SOL     OW 1630   4.047   3.248   3.902  0.0576  0.1680  0.1570
  244SOL    HW1 1631   3.955   3.215   3.884  0.3678 -1.2613  1.0750
  244SOL    HW2 1632   4.095   3.262   3.816 -0.8227  0.4028 -0.3052
  245SOL     OW 1633   4.749   6.222   1.426  0.1393 -0.5136 -0.0271
  245SOL    HW1 1634   4.716   6.269   1.344  1.5492 -0.2921 -0.4790
  245SOL    HW2 1635   4.720   6.275   1.507 -2.5873 -1.5305 -0.2171
  246SOL     OW 1636   1.715   1.880   4.458 -0.2586  0.1134 -0.1695
  246SOL    HW1 1637   1.753   1.810   4.518 -1.7016  0.4083  1.1724
  246SOL    HW2 1638   1.717   1.968   4.506  0.7317  0.8521 -1.4983
  247SOL     OW 1639   4.116   5.886   4.831 -0.2770  0.5870 -0.4810
  247SOL    HW1 1640   4.071   5.971   4.803 -2.1067  0.3157  1.3935
  247SOL    HW2 1641   4.066   5.845   4.907  1.1180 -1.6914 -0.6860
  248SOL     OW 1642   4.564   5.990   3.260 -0.0146 -0.0922 -0.7106
  248SOL    HW1 1643   4.644   5.931   3.246 -0.2249 -0.5876  0.0651
  248SOL    HW2 1644   4.589   6.085   3.245  1.7845  0.2395  3.0522
  249SOL     OW 1645   5.749   0.545   4.811 -0.3849  0.3793  0.0456
  249SOL    HW1 1646   5.782   0.539   4.717 -0.1685  2.0051 -0.0155
  249SOL    HW2 1647   5.755   0.455   4.854  0.8325 -0.1040 -1.0456
  250SOL     OW 1648   5.244   4.536   5.417 -0.5303  0.2338 -0.2578
  250SOL    HW1 1649   5.231   4.586   5.331  0.6595  0.8128 -0.1318
  250SOL    HW2 1650   5.323   4.575   5.465 -1.7447  0.5600  1.5601
  251SOL     OW 1651   3.937   1.159   4.627  0.2098  0.3215 -0.0658
  251SOL    HW1 1652   3.977   1.072   4.596  0.9448  0.6066  0.0499
  251SOL    HW2 1653   3.978   1.234   4.575 -2.3630  0.4454 -2.1144
  252SOL     OW 1654   1.874   3.911   2.477  0.4516  0.3369 -0.0594
  252SOL    HW1 1655   1.896   3.833   2.536  0.5034  0.9500  0.7435
  252SOL    HW2 1656   1.925   3.903   2.392 -0.7297 -1.3395 -0.6724
  253SOL     OW 1657   6.311   5.095   1.339  0.6770  0.7408  0.4218
  253SOL    HW1 1658   6.325   5.008   1.387  0.3368  0.3605 -0.1561
  253SOL    HW2 1659   6.268   5.160   1.401 -0.1957  0.1019  0.5038
  254SOL     OW 1660   1.954   4.323   0.722 -0.1664  0.0840 -0.3745
  254SOL    HW1 1661   1.991   4.230   0.714 -1.3415 -0.3227 -1.3486
  254SOL    HW2 1662   2.005   4.373   0.792  0.9387 -1.0673 -0.3178
  255SOL     OW 1663   5.619   1.286   3.443  0.1317 -0.0921 -0.3893
  255SOL    HW1 1664   5.706   1.333   3.455  0.6641 -0.7041 -1.6771
  255SOL    HW2 1665   5.553   1.347   3.399  0.5041 -0.2108 -1.1273
  256SOL     OW 1666   5.914   5.700   4.744  0.3071 -0.4510 -0.3069
  256SOL    HW1 1667   5.850   5.730   4.673  0.2210  0.3637  0.1041
  256SOL    HW2 1668   5.972   5.776   4.772  0.1275 -0.6703  0.7236
  257SOL     OW 1669   6.144   3.109   2.461 -0.2693  0.2921 -0.0537
  257SOL    HW1 1670   6.137   3.195   2.411  0.1066  1.7902  2.2959
  257SOL    HW2 1671   6.240   3.084   2.471 -0.3088  0.2909  0.3484
  258SOL     OW 1672   0.581   2.667   6.494  0.1152 -0.1984  0.1811
  258SOL    HW1 1673   0.605   2.572   6.516  0.8804  0.1209  0.7516
  258SOL    HW2 1674   0.527   2.706   6.568  1.0635  0.2746  0.6346
  259SOL     OW 1675   2.425   5.611   1.397 -0.5571 -0.2173 -0.3443
  259SOL    HW1 1676   2.494   5.598   1.468 -0.7785 -0.0101 -0.0891
  259SOL    HW2 1677   2.446   5.552   1.318  1.0159  1.2628 -1.0909
  260SOL     OW 1678   5.038   4.199   6.262 -0.2774 -0.1041  0.0836
  260SOL    HW1 1679   5.060   4.262   6.337  0.4356  0.3247 -0.4726
  260SOL    HW2 1680   5.104   4.123   6.262  0.1843  0.2920 -0.5613
  261SOL     OW 1681   3.757   0.289   2.155  0.3016  0.5811  0.0336
  261SOL    HW1 1682   3.778   0.264   2.250 -0.8447  1.0742  0.4407
  261SOL    HW2 1683   3.658   0.286   2.142  0.5126 -0.6716 -1.5031
  262SOL     OW 1684   4.334   3.438   1.149 -0.0550  0.0147 -0.0669
  262SOL    HW1 1685   4.335   3.451   1.050 -1.5340  1.0294  0.0135
  262SOL    HW2 1686   4.425   3.410   1.180  0.7484  0.8241 -1.5631
  263SOL     OW 1687   2.137   2.625   3.056 -0.3002  0.6857 -0.0511
  263SOL    HW1 1688   2.086   2.689   3.114  0.6781  0.6344  0.8951
  263SOL    HW2 1689   2.228   2.662   3.038 -0.8671  1.1278 -2.3377
  264SOL     OW 1690   0.667   4.541   2.375  0.6594 -0.9254 -0.8016
  264SOL    HW1 1691   0.684   4.605   2.300 -0.8197  1.3755  0.6852
  264SOL    HW2 1692   0.594   4.477   2.348 -0.9273  0.8337 -0.8955
  265SOL     OW 1693   1.416   3.994   0.409 -0.2541  0.5169 -0.7616
  265SOL    HW1 1694   1.357   3.967   0.485  0.1891  1.1199 -0.1930
  265SOL    HW2 1695   1.386   3.948   0.325 -0.0276 -1.0800 -0.0011
  266SOL     OW 1696   6.821   1.856   6.452  0.1937  0.4729 -0.6054
  266SOL    HW1 1697   6.817   1.776   6.512 -1.3672  0.7144 -0.3280
  266SOL    HW2 1698   6.893   1.844   6.385  0.2585 -0.9911 -0.3128
  267SOL     OW 1699   2.582   1.426   6.849 -0.2408 -0.1454  0.4432
  267SOL    HW1 1700   2.578   1.330   6.819 -0.7571 -0.0850  0.3067
  267SOL    HW2 1701   2.493   1.453   6.886 -0.3322  0.5245 -0.2555
  268SOL     OW 1702   0.877   6.638   0.566 -0.4740 -0.1626 -0.0814
  268SOL    HW1 1703   0.800   6.578   0.587  0.2809 -0.3725  2.3914
  268SOL    HW2 1704   0.921   6.667   0.651  0.3573  2.3930 -1.2871
  269SOL     OW 1705   6.424   0.776   1.674 -0.6432 -0.4932  0.1128
  269SOL    HW1 1706   6.472   0.737   1.596  1.2119  1.7029  0.0210
  269SOL    HW2 1707   6.328   0.789   1.652 -0.4359 -1.2214 -1.2848
  270SOL     OW 1708   4.828   3.835   2.822 -0.5538  0.2905  0.2055
  270SOL    HW1 1709   4.743   3.874   2.857 -1.5003 -1.5506  0.0574
  270SOL    HW2 1710   4.841   3.743   2.859  1.3618  0.5124  0.1818
  271SOL     OW 1711   5.968   5.899   3.732 -0.1031  0.1207  0.2877
  271SOL    HW1 1712   5.914   5.852   3.802 -1.7758 -0.5869 -1.3973
  271SOL    HW2 1713   5.912   5.969   3.688  1.1419  1.0327  0.1145
  272SOL     OW 1714   0.729   4.142   6.237  0.0532 -0.5926  0.4019
  272SOL    HW1 1715   0.741   4.178   6.144  0.4245 -0.6481  0.4290
  272SOL    HW2 1716   0.686   4.212   6.294  1.4065  0.0780  0.6390
  273SOL     OW 1717   0.418   6.175   5.991  0.7830 -0.5542 -0.3277
  273SOL    HW1 1718   0.381   6.267   5.977 -0.3130 -0.9185 -0.0143
  273SOL    HW2 1719   0.502   6.180   6.045  0.2962  0.2215  0.3884
  274SOL     OW 1720   1.646   1.261   2.198  0.2519 -0.3779  0.4406
  274SOL    HW1 1721   1.571   1.310   2.243 -0.8576 -0.2307 -1.4867
  274SOL    HW2 1722   1.613   1.175   2.161  1.3321 -0.8691  0.5791
  275SOL     OW 1723   2.120   3.442   2.748  0.3750  0.5034  0.3462
  275SOL    HW1 1724   2.057   3.515   2.723 -1.4854 -1.2812 -0.5259
  275SOL    HW2 1725   2.152   3.395   2.665  0.3050 -0.6196  0.9288
  276SOL     OW 1726   6.306   0.100   0.661 -0.2858  0.0857 -0.0422
  276SOL    HW1 1727   6.292   0.182   0.605  2.0435  0.0090 -0.8304
  276SOL    HW2 1728   6.279   0.019   0.608  0.7595  0.1063 -0.6348
  277SOL     OW 1729   3.064   6.588   0.503 -0.2658 -0.4460  0.4631
  277SOL    HW1 1730   3.050   6.493   0.530 -0.2486 -0.2207  1.2749
  277SOL    HW2 1731   2.989   6.644   0.537 -1.1681 -0.4233 -1.4429
  278SOL     OW 1732   2.024   3.935   2.221 -0.1370 -0.1497 -0.5111
  278SOL    HW1 1733   1.986   3.947   2.129 -1.3489  0.4692  0.0599
  278SOL    HW2 1734   2.080   3.852   2.223 -1.0399 -0.8009 -1.5035
  279SOL     OW 1735   1.469   2.619   5.554  0.4086 -0.4454 -0.5767
  279SOL    HW1 1736   1.549   2.585   5.606  0.8826 -0.1948 -1.1336
  279SOL    HW2 1737   1.500   2.659   5.468 -0.4833 -2.3807 -1.8826
  280SOL     OW 1738   5.461   3.934   5.029  0.0232  0.2114 -0.3058
  280SOL    HW1 1739   5.486   3.837   5.029  1.3084  0.5169  0.4968
  280SOL    HW2 1740   5.418   3.958   5.116  1.4365  0.7512  0.2715
  281SOL     OW 1741   0.145   2.901   0.861 -0.0198  0.0296  0.0366
  281SOL    HW1 1742   0.120   2.871   0.953  2.5524 -0.5313  0.6427
  281SOL    HW2 1743   0.127   2.828   0.796 -0.6879 -0.0444  0.3028
  282SOL     OW 1744   3.534   5.520   5.962  0.0672 -0.1625  0.0252
  282SOL    HW1 1745   3.588   5.479   5.888 -0.4638 -0.2155 -0.3384
  282SOL    HW2 1746   3.474   5.591   5.924 -0.1789 -0.1647  0.4091
  283SOL     OW 1747   1.967   2.704   1.675 -0.4623 -0.0067  0.2333
  283SOL    HW1 1748   1.951   2.605   1.667 -0.1284 -0.1880  1.6854
  283SOL    HW2 1749   2.065   2.722   1.684 -0.3271  0.6288 -1.9146
  284SOL     OW 1750   3.770   6.730   6.861 -0.2248  0.1448 -0.0437
  284SOL    HW1 1751   3.741   6.826   6.856  0.0110  0.1837 -0.9367
  284SOL    HW2 1752   3.815   6.713   6.948 -1.0645  0.6160  0.4917
  285SOL     OW 1753   0.686   3.489   5.874  0.4349  0.0002 -0.4949
  285SOL    HW1 1754   0.752   3.489   5.799  0.4671  0.7987 -0.4732
  285SOL    HW2 1755   0.728   3.532   5.954 -0.1969  0.7423 -0.5584
  286SOL     OW 1756   2.085   1.697   0.962 -0.0501  0.2490  0.2658
  286SOL    HW1 1757   2.054   1.747   1.043  0.7819  1.2109  0.0046
  286SOL    HW2 1758   2.011   1.637   0.931 -0.9936  1.1099  0.7529
  287SOL     OW 1759   0.214   4.889   0.089 -0.4767 -0.5816  0.4972
  287SOL    HW1 1760   0.296   4.878   0.033 -0.5786 -2.3126  0.6182
  287SOL    HW2 1761   0.153   4.957   0.047  0.0614 -0.8463 -0.7458
  288SOL     OW 1762   4.194   0.434   3.634 -0.0954  0.2448 -0.2978
  288SOL    HW1 1763   4.176   0.448   3.537  0.3812 -0.9716 -0.5878
  288SOL    HW2 1764   4.147   0.504   3.688 -1.1357  0.3856 -1.3489
  289SOL     OW 1765   6.724   6.881   0.216 -0.0690 -0.1445  0.5143
  289SOL    HW1 1766   6.807   6.859   0.164 -0.9440  0.4650 -1.2018
  289SOL    HW2 1767   6.646   6.836   0.173 -1.1721  2.2446 -0.1509
  290SOL     OW 1768   0.197   1.312   0.804 -0.5363  0.2985  0.9812
  290SOL    HW1 1769   0.222   1.232   0.750  0.7181  1.6231 -0.5297
  290SOL    HW2 1770   0.277   1.344   0.855 -0.4707  1.6311  0.1066
  291SOL     OW 1771   3.339   2.156   2.673  0.0461  0.7956  0.1684
  291SOL    HW1 1772   3.327   2.136   2.576  1.5989  1.0474 -0.1008
  291SOL    HW2 1773   3.434   2.139   2.699  0.5959  4.1374  0.7702
  292SOL     OW 1774   4.391   3.594   6.722  0.0214 -0.3319  0.2492
  292SOL    HW1 1775   4.324   3.557   6.786  1.6596 -0.2640  2.1148
  292SOL    HW2 1776   4.420   3.685   6.752  2.2000 -1.0534  0.5494
  293SOL     OW 1777   0.448   3.522   4.458 -0.3913  0.3565  0.6924
  293SOL    HW1 1778   0.523   3.539   4.522  1.0495 -0.4646 -0.7037
  293SOL    HW2 1779   0.451   3.427   4.429 -0.7332  0.8104 -0.9103
  294SOL     OW 1780   2.908   3.391   1.451 -0.0874 -0.1366 -0.1210
  294SOL    HW1 1781   2.978   3.455   1.418 -0.2941 -0.4243 -1.1403
  294SOL    HW2 1782   2.826   3.442   1.477  0.4534  0.1973  1.0129
  295SOL     OW 1783   1.637   6.391   1.028 -0.6859 -0.0207  0.3298
  295SOL    HW1 1784   1.637   6.376   1.127 -1.9449  0.3727  0.4097
  295SOL    HW2 1785   1.644   6.489   1.009  1.8630 -0.1994 -0.0607
  296SOL     OW 1786   5.084   5.637   6.644  0.1895  0.7106 -0.2690
  296SOL    HW1 1787   5.146   5.560   6.656 -1.8544 -1.0688 -0.4488
  296SOL    HW2 1788   5.034   5.654   6.729 -0.3902  0.8848 -0.6336
  297SOL     OW 1789   4.723   0.474   0.686 -0.3458  0.1989 -0.5247
  297SOL    HW1 1790   4.817   0.489   0.716 -0.8782  1.8115  0.4318
  297SOL    HW2 1791   4.694   0.548   0.626 -1.7459  1.0377  1.0850
  298SOL     OW 1792   2.019   0.739   5.811  0.3302 -0.3778  0.2395
  298SOL    HW1 1793   1.955   0.768   5.882  0.6943  0.4723  0.2378
  298SOL    HW2 1794   2.002   0.644   5.787 -0.5780 -0.3172  0.6158
  299SOL     OW 1795   4.893   0.425   2.010 -0.2280  0.1300 -0.2047
  299SOL    HW1 1796   4.884   0.336   2.055  0.1970  0.9798  1.6260
  299SOL    HW2 1797   4.802   0.457   1.982 -0.6212 -0.0284  0.8523
  300SOL     OW 1798   0.836   0.188   0.167  0.0545  0.6296 -0.3392
  300SOL    HW1 1799   0.864   0.283   0.160 -0.6931  0.7551 -2.1582
  300SOL    HW2 1800   0.824   0.149   0.075 -0.3959 -0.9874  0.3591
  301SOL     OW 1801   6.328   2.514   0.409  0.0955 -0.5347  0.7677
  301SOL    HW1 1802   6.229   2.507   0.422  0.0551  0.6781  1.2419
  301SOL    HW2 1803   6.359   2.604   0.439  1.1412 -0.3777 -0.6777
  302SOL     OW 1804   5.186   5.610   2.640 -0.0688 -0.1766  0.0084
  302SOL    HW1 1805   5.181   5.617   2.540  0.6843  0.6401  0.0126
  302SOL    HW2 1806   5.114   5.667   2.680  0.1846  0.2102 -0.0711
  303SOL     OW 1807   5.531   0.379   5.613 -0.9416 -0.4588  0.4277
  303SOL    HW1 1808   5.449   0.367   5.557 -0.9232 -1.5752  0.6161
  303SOL    HW2 1809   5.587   0.296   5.609  1.3198  1.0088 -1.4603
  304SOL     OW 1810   6.023   3.863   0.053  0.3204 -0.5002 -0.4683
  304SOL    HW1 1811   6.018   3.831  -0.042  0.1085 -1.8045 -0.0307
  304SOL    HW2 1812   5.945   3.921   0.073 -0.4781 -1.4933 -0.6447
  305SOL     OW 1813   5.050   4.588   0.578 -0.5553 -0.3561 -0.4750
  305SOL    HW1 1814   5.018   4.619   0.489  0.6056 -1.7858 -1.4363
  305SOL    HW2 1815   5.148   4.606   0.587 -0.0598 -2.6203 -0.6519
  306SOL     OW 1816   0.137   2.461   6.774 -0.2093 -0.5690  0.3044
  306SOL    HW1 1817   0.055   2.404   6.782  0.1362 -0.8250  2.7887
  306SOL    HW2 1818   0.134   2.510   6.687 -1.8395 -2.3049 -0.7162
  307SOL     OW 1819   5.686   1.542   1.118  0.4043 -0.0514  0.0908
  307SOL    HW1 1820   5.680   1.551   1.217 -0.4004 -1.0358  0.1455
  307SOL    HW2 1821   5.612   1.595   1.076  0.6300  0.2104  0.0207
  308SOL     OW 1822   0.337   6.744   3.412  0.2306  0.6601  0.1474
  308SOL    HW1 1823   0.370   6.802   3.487  1.0255 -1.4143  1.4904
  308SOL    HW2 1824   0.407   6.677   3.389 -1.6058 -1.4907  0.5207
  309SOL     OW 1825   3.544   5.925   3.799 -0.1149 -0.0640 -0.3659
  309SOL    HW1 1826   3.500   5.873   3.872 -0.1827  0.9161  0.3037
  309SOL    HW2 1827   3.629   5.966   3.833  0.0076  0.1540 -0.9192
  310SOL     OW 1828   2.131   6.635   2.916 -0.0168 -0.0415 -0.6868
  310SOL    HW1 1829   2.115   6.698   2.840 -0.7554  1.2034  0.4550
  310SOL    HW2 1830   2.043   6.603   2.950  0.2711  0.0267  0.1335
  311SOL     OW 1831   5.849   6.576   0.518  0.0480 -0.0872  0.0798
  311SOL    HW1 1832   5.890   6.656   0.561 -0.1199  1.0396 -1.7319
  311SOL    HW2 1833   5.864   6.580   0.419 -1.9780 -1.0742 -0.3323
  312SOL     OW 1834   6.580   4.129   0.345  0.3590 -0.5532 -0.2229
  312SOL    HW1 1835   6.535   4.104   0.260  0.4263  0.0051 -0.4298
  312SOL    HW2 1836   6.513   4.133   0.419 -0.0682  0.8873 -0.6541
  313SOL     OW 1837   2.256   5.709   4.484  0.5946  0.2962 -0.4321
  313SOL    HW1 1838   2.345   5.673   4.510 -0.5893 -2.4935  0.1843
  313SOL    HW2 1839   2.239   5.795   4.533  1.6267 -0.8000  1.9845
  314SOL     OW 1840   3.574   0.237   5.425 -0.2797 -0.6503  0.1981
  314SOL    HW1 1841   3.489   0.187   5.404  0.9153 -2.0804 -1.5315
  314SOL    HW2 1842   3.644   0.172   5.456  0.5622  0.3348  0.4062
  315SOL     OW 1843   3.936   1.266   1.195  0.0186 -0.6151  0.3990
  315SOL    HW1 1844   3.978   1.308   1.276  0.3989  1.1723 -0.6896
  315SOL    HW2 1845   3.849   1.311   1.176  0.0966 -0.7954 -0.3841
  316SOL     OW 1846   3.263   2.175   5.322  0.1427 -0.4965 -0.3620
  316SOL    HW1 1847   3.268   2.087   5.274 -2.9775 -1.6761  1.1980
  316SOL    HW2 1848   3.207   2.238   5.269  0.3576 -0.2673 -0.3197
  317SOL     OW 1849   1.749   0.457   0.707 -0.1483 -0.5801 -0.1432
  317SOL    HW1 1850   1.670   0.498   0.662  0.6475 -0.7615 -1.7803
  317SOL    HW2 1851   1.732   0.451   0.806 -2.2731 -0.9002 -0.4923
  318SOL     OW 1852   2.159   5.286   1.344  0.8162  0.3152  0.0149
  318SOL    HW1 1853   2.145   5.344   1.264 -0.8281  1.2210  0.8955
  318SOL    HW2 1854   2.091   5.213   1.345  1.8908 -0.7237 -0.2629
  319SOL     OW 1855   6.759   4.036   3.880  0.7083  0.3273  0.2549
  319SOL    HW1 1856   6.723   3.955   3.928 -0.9770  1.4822  1.0436
  319SOL    HW2 1857   6.791   4.103   3.947  2.9651 -0.0103 -0.4111
  320SOL     OW 1858   5.613   0.385   1.421 -0.0093 -0.5245 -0.2399
  320SOL    HW1 1859   5.633   0.387   1.519  1.6688 -0.5528 -0.5422
  320SOL    HW2 1860   5.613   0.478   1.386 -2.1406 -0.3791  0.0271
  321SOL     OW 1861   5.355   3.745   0.486  0.2349 -0.8387  0.2530
  321SOL    HW1 1862   5.296   3.683   0.537 -1.0588 -0.0842 -0.2803
  321SOL    HW2 1863   5.397   3.696   0.409 -1.4267 -0.9001 -0.6646
  322SOL     OW 1864   2.030   1.018   3.231 -0.0984 -0.1750  0.3426
  322SOL    HW1 1865   1.942   1.062   3.250  0.0531  0.8761 -1.1709
  322SOL    HW2 1866   2.104   1.080   3.257  0.2345 -1.1141  1.7504
  323SOL     OW 1867   4.268   2.018   6.956 -0.3885  0.3085  0.6477
  323SOL    HW1 1868   4.174   2.051   6.949 -0.6988 -0.8334 -1.0272
  323SOL    HW2 1869   4.331   2.093   6.933 -1.0753  0.0336 -2.7038
  324SOL     OW 1870   2.588   5.819   1.721  0.2515 -0.0226  0.0888
  324SOL    HW1 1871   2.666   5.765   1.753 -0.1802  0.0892  1.4050
  324SOL    HW2 1872   2.521   5.827   1.795 -0.9007  0.0897 -0.9490
  325SOL     OW 1873   0.533   1.124   2.014  0.4545  0.2448  0.2484
  325SOL    HW1 1874   0.461   1.139   1.945 -0.1773  0.7170  0.9944
  325SOL    HW2 1875   0.573   1.033   2.000 -0.4826 -0.1445 -0.0139
  326SOL     OW 1876   2.829   6.483   3.881  0.1951  0.5530 -0.3050
  326SOL    HW1 1877   2.764   6.515   3.812  2.8534  2.9414 -1.8834
  326SOL    HW2 1878   2.871   6.398   3.850  1.1009  1.4158 -1.5303
  327SOL     OW 1879   4.169   3.836   6.137 -0.3791  0.2219  0.3630
  327SOL    HW1 1880   4.110   3.775   6.085  1.9892 -2.0356  0.1049
  327SOL    HW2 1881   4.261   3.835   6.097  0.3520  2.0704  1.8499
  328SOL     OW 1882   1.103   3.186   0.637  0.8141  0.4750  0.5248
  328SOL    HW1 1883   1.188   3.207   0.589  0.5865  0.7877  0.2524
  328SOL    HW2 1884   1.053   3.271   0.656 -0.0228  0.2107 -0.4111
  329SOL     OW 1885   4.775   4.685   0.371  0.5424 -0.6112 -0.1729
  329SOL    HW1 1886   4.800   4.778   0.342 -0.5827 -0.6835 -1.4903
  329SOL    HW2 1887   4.676   4.680   0.383  0.5410 -1.7778 -0.6128
  330SOL     OW 1888   2.039   2.487   2.257  0.1070  0.3077  0.2327
  330SOL    HW1 1889   1.976   2.524   2.189  2.1692  1.1914 -1.3217
  330SOL    HW2 1890   1.988   2.434   2.325 -2.0803 -0.3850 -1.8241
  331SOL     OW 1891   1.005   5.278   5.045 -0.1072 -0.3506  0.0272
  331SOL    HW1 1892   1.045   5.299   5.134 -3.6875 -2.9280  2.5351
  331SOL    HW2 1893   0.911   5.312   5.041 -0.2926 -0.9439 -2.5125
  332SOL     OW 1894   1.979   2.486   3.431  0.1549  0.1187  0.1474
  332SOL    HW1 1895   1.988   2.402   3.378 -0.4666  0.5689 -0.7237
  332SOL    HW2 1896   1.901   2.538   3.396  0.1412  0.7571  1.0890
  333SOL     OW 1897   4.402   6.511   4.190 -0.3496 -0.2260 -0.8740
  333SOL    HW1 1898   4.310   6.549   4.177 -1.2483 -1.9272  0.1525
  333SOL    HW2 1899   4.403   6.416   4.159  1.8302  0.4847 -3.3784
  334SOL     OW 1900   4.924   1.212   0.995 -0.3736  0.1381 -0.3376
  334SOL    HW1 1901   4.996   1.150   0.964 -0.1373  0.1761  0.1320
  334SOL    HW2 1902   4.965   1.298   1.026 -0.2423 -1.0359  3.1725
  335SOL     OW 1903   4.760   1.495   1.090 -0.3727 -0.8880  0.3139
  335SOL    HW1 1904   4.750   1.582   1.139 -0.3188 -1.7055  1.8488
  335SOL    HW2 1905   4.792   1.513   0.997 -1.2407  0.7824  0.2959
  336SOL     OW 1906   6.897   2.896   0.127 -0.6950 -0.3129 -0.4729
  336SOL    HW1 1907   6.884   2.954   0.207  1.2026 -0.8774  0.3180
  336SOL    HW2 1908   6.815   2.842   0.111 -1.6588  0.9333  0.1531
  337SOL     OW 1909   3.619   3.511   0.780  0.4358  0.0155  0.2521
  337SOL    HW1 1910   3.645   3.605   0.800 -0.3390  0.2138  0.3807
  337SOL    HW2 1911   3.539   3.511   0.720  1.1305 -0.5661 -0.7084
  338SOL     OW 1912   3.612   2.253   1.500  0.0659 -0.0492  0.0607
  338SOL    HW1 1913   3.542   2.314   1.537  1.2409  1.8109 -0.6663
  338SOL    HW2 1914   3.639   2.186   1.570 -0.1951  1.1986  1.4026
  339SOL     OW 1915   5.833   5.698   0.603  0.5011  0.6385 -0.2101
  339SOL    HW1 1916   5.753   5.652   0.564  1.4081 -2.6749  1.4107
  339SOL    HW2 1917   5.802   5.770   0.666 -1.0428  1.6220 -1.9733
  340SOL     OW 1918   6.402   6.719   3.463 -0.4799 -0.0245  0.0661
  340SOL    HW1 1919   6.446   6.629   3.466  1.2105  0.7846  1.8710
  340SOL    HW2 1920   6.341   6.730   3.541  0.3248  0.8291  0.6010
  341SOL     OW 1921   1.849   4.727   5.038  0.0284 -0.0061  0.7182
  341SOL    HW1 1922   1.941   4.705   5.005 -0.6717 -2.1689  0.0327
  341SOL    HW2 1923   1.834   4.684   5.127 -1.1658 -1.9922 -0.3707
  342SOL     OW 1924   1.216   1.493   5.741 -0.3683 -0.1887 -0.0327
  342SOL    HW1 1925   1.296   1.461   5.689 -0.8129  0.6964 -1.2971
  342SOL    HW2 1926   1.135   1.487   5.683 -1.1611 -0.6775  1.1091
  343SOL     OW 1927   2.561   5.179   3.536 -0.2104 -0.3493 -0.3726
  343SOL    HW1 1928   2.622   5.164   3.614  2.7058  0.1820 -2.3887
  343SOL    HW2 1929   2.577   5.110   3.467 -0.9369  0.6042 -1.5417
  344SOL     OW 1930   2.693   0.885   0.094 -0.4432 -0.2203  0.0038
  344SOL    HW1 1931   2.627   0.911   0.165  0.1674  1.3599  0.0294
  344SOL    HW2 1932   2.777   0.939   0.105 -0.5643  0.5597 -2.2759
  345SOL     OW 1933   4.012   5.139   2.021  0.0519  0.3516 -0.0424
  345SOL    HW1 1934   4.086   5.078   2.049 -0.4386 -0.5862 -0.7158
  345SOL    HW2 1935   4.037   5.184   1.935  0.2959  0.8861  0.3067
  346SOL     OW 1936   6.883   3.405   4.323  0.0981  0.6402  0.0308
  346SOL    HW1 1937   6.890   3.316   4.368  0.3121 -0.6002 -2.3055
  346SOL    HW2 1938   6.969   3.427   4.277 -0.5014  1.2379 -0.8503
  347SOL     OW 1939   1.882   6.399   0.621 -0.0126  0.2828 -0.0491
  347SOL    HW1 1940   1.822   6.453   0.680  1.0619  2.4629 -0.8621
  347SOL    HW2 1941   1.840   6.391   0.530 -0.0394 -0.0268 -0.0106
  348SOL     OW 1942   5.921   3.597   6.885  0.2791 -0.4046  0.2869
  348SOL    HW1 1943   6.021   3.590   6.880  0.2744  0.3003 -1.3111
  348SOL    HW2 1944   5.894   3.692   6.872 -0.6273 -0.6593  0.2828
  349SOL     OW 1945   6.604   2.411   2.538 -0.0655  0.0553 -0.2070
  349SOL    HW1 1946   6.507   2.407   2.513  0.2121 -0.4461 -1.2980
  349SOL    HW2 1947   6.647   2.323   2.515  0.7136  0.3816 -0.0198
  350SOL     OW 1948   3.422   2.477   0.973 -0.4943 -0.1466  0.2580
  350SOL    HW1 1949   3.479   2.529   0.909  0.7824 -1.0445  0.6297
  350SOL    HW2 1950   3.333   2.522   0.983 -0.2688  0.6764 -1.1939
  351SOL     OW 1951   5.802   3.092   0.237  0.0096  0.5708 -0.4069
  351SOL    HW1 1952   5.852   3.007   0.254 -1.1263 -0.0636 -0.1475
  351SOL    HW2 1953   5.707   3.081   0.266  0.0483  2.2255  0.4575
  352SOL     OW 1954   0.443   1.032   4.910  0.3377 -0.7412 -0.4818
  352SOL    HW1 1955   0.509   0.996   4.976 -0.1788  0.6504  0.8575
  352SOL    HW2 1956   0.470   1.006   4.818  1.7383 -1.7414  0.1820
  353SOL     OW 1957   6.027   6.849   0.633  0.4382 -0.9949 -0.2853
  353SOL    HW1 1958   5.974   6.932   0.646  0.6011 -1.0596  0.8891
  353SOL    HW2 1959   6.108   6.869   0.577  0.8247 -0.2121  0.5388
  354SOL     OW 1960   4.203   5.513   4.615  0.1227 -0.1564 -0.1242
  354SOL    HW1 1961   4.248   5.454   4.681 -2.9707 -1.4645  0.9856
  354SOL    HW2 1962   4.239   5.494   4.523  0.6203 -2.3387  0.4714
  355SOL     OW 1963   5.922   0.930   4.768 -0.8297  0.5157 -0.1518
  355SOL    HW1 1964   5.897   1.025   4.787  1.1878  0.6419  2.6578
  355SOL    HW2 1965   5.922   0.914   4.670 -0.9291  3.5240 -0.7380
  356SOL     OW 1966   3.762   2.029   3.826  0.8204 -0.1165 -0.0632
  356SOL    HW1 1967   3.801   1.938   3.812  2.0780  0.6140 -1.6045
  356SOL    HW2 1968   3.684   2.023   3.889 -0.1223 -2.4819 -1.3560
  357SOL     OW 1969   0.498   4.816   6.927 -0.2421  0.9798 -0.0987
  357SOL    HW1 1970   0.468   4.738   6.872 -0.4482  1.6794 -1.0000
  357SOL    HW2 1971   0.539   4.783   7.012  1.4765 -0.1951 -1.3165
  358SOL     OW 1972   2.907   1.453   5.063  0.3379  0.4489  0.2941
  358SOL    HW1 1973   2.862   1.397   4.993  0.5744 -0.6189  0.9746
  358SOL    HW2 1974   2.872   1.546   5.059 -0.0379  0.2703 -0.8919
  359SOL     OW 1975   3.418   1.658   1.722 -0.3959  0.1738 -0.0794
  359SOL    HW1 1976   3.470   1.582   1.684 -0.8139 -0.2328  0.1626
  359SOL    HW2 1977   3.395   1.722   1.649  0.3157  0.2896 -0.2156
  360SOL     OW 1978   1.464   6.454   0.684  0.1264  0.2946  0.9653
  360SOL    HW1 1979   1.539   6.509   0.720 -0.5747  2.0867 -0.2230
  360SOL    HW2 1980   1.380   6.475   0.734 -0.8507  2.7762 -1.4911
  361SOL     OW 1981   3.508   3.614   0.538 -0.4286  0.0697 -0.3696
  361SOL    HW1 1982   3.435   3.640   0.474 -1.4624  1.6841  1.3809
  361SOL    HW2 1983   3.579   3.684   0.538 -1.3253  1.0649  1.4986
  362SOL     OW 1984   4.625   4.625   6.692 -0.1737  0.2997 -0.4603
  362SOL    HW1 1985   4.719   4.639   6.721 -0.3060 -2.0013  1.4111
  362SOL    HW2 1986   4.573   4.710   6.703  1.0715  0.9036  1.0817
  363SOL     OW 1987   6.240   4.221   5.478  0.7858 -0.5560  0.5236
  363SOL    HW1 1988   6.206   4.264   5.562  1.9851 -0.8780  1.1853
  363SOL    HW2 1989   6.291   4.288   5.424 -0.0720 -0.3203 -0.0324
  364SOL     OW 1990   3.776   2.142   6.190  0.5115  0.3170 -0.3024
  364SOL    HW1 1991   3.840   2.214   6.164  1.6980 -0.5248  0.2080
  364SOL    HW2 1992   3.788   2.119   6.286 -0.1807 -0.2448 -0.3393
  365SOL     OW 1993   6.311   3.315   6.679 -0.5573 -0.0248  0.5607
  365SOL    HW1 1994   6.385   3.358   6.628 -0.1089 -1.0538  0.3182
  365SOL    HW2 1995   6.331   3.318   6.777  0.2714 -1.1256  0.4381
  366SOL     OW 1996   2.671   2.029   6.257  0.2722  0.3479  0.3748
  366SOL    HW1 1997   2.619   1.968   6.317  0.4208  1.3364  1.5356
  366SOL    HW2 1998   2.737   1.975   6.205 -1.0906 -0.7813 -0.2865
  367SOL     OW 1999   4.688   0.552   1.886 -0.5949 -0.1754  0.1751
  367SOL    HW1 2000   4.647   0.530   1.798  2.6695 -1.3572 -1.1910
  367SOL    HW2 2001   4.721   0.646   1.885  0.2482 -0.4665 -0.2438
  368SOL     OW 2002   6.316   5.623   1.733  0.5042 -0.6147 -0.0804
  368SOL    HW1 2003   6.267   5.672   1.805  1.3718  1.2111 -0.6802
  368SOL    HW2 2004   6.362   5.544   1.773  0.2465 -0.1469  1.2024
  369SOL     OW 2005   0.392   6.338   0.697 -0.1403 -0.9515 -0.3215
  369SOL    HW1 2006   0.373   6.399   0.620  0.9459 -1.9552 -1.4310
  369SOL    HW2 2007   0.306   6.301   0.732 -0.5757 -2.9660 -3.1692
  370SOL     OW 2008   3.924   1.437   6.729  0.0855  0.1372  0.1240
  370SOL    HW1 2009   4.003   1.431   6.789  0.9072  1.2854 -0.7954
  370SOL    HW2 2010   3.871   1.352   6.735 -0.4540  0.5825  3.2142
  371SOL     OW 2011   1.600   6.659   1.493  0.0330 -0.3287 -0.7128
  371SOL    HW1 2012   1.575   6.622   1.583  0.9610 -0.5242 -0.5243
  371SOL    HW2 2013   1.550   6.744   1.477  1.0718  0.6186  0.7448
  372SOL     OW 2014   5.923   0.133   6.713  0.1393 -0.0025 -0.1601
  372SOL    HW1 2015   5.977   0.059   6.674  0.1772 -0.3078  0.4502
  372SOL    HW2 2016   5.893   0.195   6.641  1.4446  0.2661 -0.4991
  373SOL     OW 2017   0.980   2.734   5.834 -1.0413  0.2603  0.1644
  373SOL    HW1 2018   0.888   2.699   5.818 -0.9982  0.4450 -0.5353
  373SOL    HW2 2019   1.046   2.677   5.784 -0.7064 -0.2689  1.1923
  374SOL     OW 2020   4.496   0.338   5.579  0.0348  0.3690  0.6552
  374SOL    HW1 2021   4.442   0.317   5.661 -0.1840  0.7829  0.6180
  374SOL    HW2 2022   4.578   0.280   5.578 -0.7028 -0.7097  0.4072
  375SOL     OW 2023   3.534   4.037   2.730 -0.2553  0.0370 -0.1016
  375SOL    HW1 2024   3.449   3.985   2.724 -0.6761  0.5770  0.8504
  375SOL    HW2 2025   3.557   4.074   2.640 -1.5267  0.6393 -0.2075
  376SOL     OW 2026   0.685   0.377   3.821  0.4743  0.0991  0.2423
  376SOL    HW1 2027   0.776   0.365   3.782  0.1404  0.0579 -0.5403
  376SOL    HW2 2028   0.693   0.394   3.919  1.4988  2.4093 -0.1756
  377SOL     OW 2029   0.132   2.874   6.687  0.0419  0.2301  0.2259
  377SOL    HW1 2030   0.119   2.908   6.780 -0.2803 -1.2758  0.7661
  377SOL    HW2 2031   0.095   2.781   6.680 -1.4934  0.9281 -1.8764
  378SOL     OW 2032   1.831   4.840   1.307 -0.5659  0.5382  0.6936
  378SOL    HW1 2033   1.805   4.936   1.299 -0.4895  0.4957 -0.1646
  378SOL    HW2 2034   1.847   4.802   1.216  0.4923  0.0133  1.0748
  379SOL     OW 2035   1.803   4.528   5.247  0.4149 -0.0907 -0.3080
  379SOL    HW1 2036   1.874   4.489   5.306 -0.2851  0.9791  1.3191
  379SOL    HW2 2037   1.715   4.523   5.295 -0.5963 -1.1312 -2.1646
  380SOL     OW 2038   0.935   3.647   4.364 -0.1580  0.1586 -0.1078
  380SOL    HW1 2039   1.005   3.620   4.298 -2.0341 -0.6570 -1.8843
  380SOL    HW2 2040   0.951   3.742   4.393  0.7231  0.5507 -1.7699
  381SOL     OW 2041   6.177   2.509   0.094  0.8937 -0.3524 -0.5317
  381SOL    HW1 2042   6.156   2.483   0.188  0.4650  0.4052 -0.4134
  381SOL    HW2 2043   6.092   2.530   0.045  0.9610 -2.2311 -1.5577
  382SOL     OW 2044   4.691   0.709   0.564  0.1850  0.2053 -0.6320
  382SOL    HW1 2045   4.667   0.802   0.537 -0.1108  0.2578 -0.1952
  382SOL    HW2 2046   4.789   0.695   0.549  0.9627  1.6591  2.2470
  383SOL     OW 2047   4.244   1.655   2.291 -0.2045  0.0285 -0.4556
  383SOL    HW1 2048   4.153   1.620   2.313 -0.1853  0.0940 -0.2661
  383SOL    HW2 2049   4.311   1.580   2.296  0.2068  0.4903  2.2019
  384SOL     OW 2050   4.537   4.673   1.798  0.2942 -0.1640 -0.3563
  384SOL    HW1 2051   4.602   4.749   1.806 -0.8924  0.8884 -0.4618
  384SOL    HW2 2052   4.585   4.592   1.765  1.5400  0.6083 -0.5049
  385SOL     OW 2053   0.417   1.451   2.461  0.2538  0.5611  0.5962
  385SOL    HW1 2054   0.342   1.433   2.398  0.0004  2.4555  0.2969
  385SOL    HW2 2055   0.398   1.407   2.549 -0.6526  0.0937  0.1796
  386SOL     OW 2056   3.609   6.011   2.482  0.6547 -0.4098 -0.2115
  386SOL    HW1 2057   3.688   6.061   2.517 -0.5741  0.8071  0.9264
  386SOL    HW2 2058   3.544   6.075   2.440 -0.1805 -1.2518 -0.2413
  387SOL     OW 2059   1.306   0.535   2.442  0.3643  0.0545 -0.2272
  387SOL    HW1 2060   1.235   0.583   2.494  0.3317  0.1434 -0.3505
  387SOL    HW2 2061   1.326   0.448   2.485 -0.7856 -0.5884 -0.9343
  388SOL     OW 2062   2.934   6.979   5.702 -0.0905  0.0336 -0.5771
  388SOL    HW1 2063   2.926   6.971   5.602 -1.5885 -2.9753 -0.3385
  388SOL    HW2 2064   3.012   6.925   5.733  1.1882  2.0397 -0.1613
  389SOL     OW 2065   2.716   2.554   1.485 -0.2454  0.4022  0.7833
  389SOL    HW1 2066   2.789   2.602   1.438 -0.7816 -1.2930 -1.9855
  389SOL    HW2 2067   2.629   2.572   1.439 -0.7340 -1.6882  0.8113
  390SOL     OW 2068   1.020   1.888   6.836  0.0268  0.2785  0.2756
  390SOL    HW1 2069   0.994   1.799   6.875  2.1635 -0.1707  0.7790
  390SOL    HW2 2070   1.035   1.953   6.911  0.2902  0.5308  0.0035
  391SOL     OW 2071   0.979   6.468   0.783 -0.0180  0.4035 -0.6680
  391SOL    HW1 2072   0.936   6.452   0.872  0.0057 -0.1024 -0.7426
  391SOL    HW2 2073   0.943   6.402   0.717  1.3487 -0.4998 -0.5737
  392SOL     OW 2074   0.610   4.160   0.512  0.4015  0.3546 -0.3894
  392SOL    HW1 2075   0.598   4.087   0.580 -1.7930 -1.3724 -2.4705
  392SOL    HW2 2076   0.659   4.123   0.433 -0.0485  1.3610 -1.1483
  393SOL     OW 2077   5.711   0.129   6.419 -0.5561 -0.0368 -0.7644
  393SOL    HW1 2078   5.759   0.199   6.473 -0.0439 -0.7580 -0.2743
  393SOL    HW2 2079   5.668   0.063   6.480  0.5944 -1.2381 -1.2121
  394SOL     OW 2080   5.838   4.382   0.871  0.0230  0.5539  0.5920
  394SOL    HW1 2081   5.889   4.466   0.857  0.7989  0.3220  1.8773
  394SOL    HW2 2082   5.743   4.395   0.842  0.7278  1.0307 -1.7008
  395SOL     OW 2083   7.009   3.641   1.421  0.5594 -0.4095 -0.2684
  395SOL    HW1 2084   6.918   3.683   1.414  1.1627  1.1111  0.5959
  395SOL    HW2 2085   7.076   3.698   1.374  0.8209 -2.6282 -2.8950
  396SOL     OW 2086   3.320   0.645   1.197  0.2910 -0.0095 -0.1519
  396SOL    HW1 2087   3.383   0.720   1.178  0.3761 -0.1622 -0.4772
  396SOL    HW2 2088   3.234   0.681   1.233  0.0757  0.2940 -0.9481
  397SOL     OW 2089   0.246   2.055   2.408 -0.1006  0.1444 -0.1719
  397SOL    HW1 2090   0.313   2.129   2.410 -1.1375  1.1514 -1.2162
  397SOL    HW2 2091   0.282   1.980   2.352  1.1933 -0.4200  1.3448
  398SOL     OW 2092   4.793   4.117   1.513  0.0775 -0.3738 -0.1326
  398SOL    HW1 2093   4.882   4.071   1.521 -0.5168 -1.2074  2.6220
  398SOL    HW2 2094   4.807   4.216   1.520  0.7856 -0.5039  0.4575
  399SOL     OW 2095   1.595   1.083   3.418  0.6462  0.9678 -0.2524
  399SOL    HW1 2096   1.556   1.113   3.505 -0.5802  0.7909 -0.7157
  399SOL    HW2 2097   1.550   1.132   3.343  0.9050  0.3171 -0.8477
  400SOL     OW 2098   0.248   5.950   6.004 -0.1024 -0.2025 -0.4147
  400SOL    HW1 2099   0.298   6.036   6.009 -0.5602  0.3022 -3.1710
  400SOL    HW2 2100   0.312   5.873   6.003  0.3619  0.1530  0.4522
  401SOL     OW 2101   6.280   0.488   4.900  0.3026  0.2064  0.3210
  401SOL    HW1 2102   6.321   0.545   4.972  0.0713  1.5303 -0.5524
  401SOL    HW2 2103   6.340   0.412   4.879 -0.0265 -0.7523  2.5281
  402SOL     OW 2104   3.752   6.753   3.726  0.0927 -0.3943  0.2392
  402SOL    HW1 2105   3.704   6.791   3.647  0.0707  2.3308  1.4689
  402SOL    HW2 2106   3.844   6.725   3.699  0.6056  1.8574 -0.5030
  403SOL     OW 2107   1.996   1.925   1.135 -0.3197 -0.3131  0.6092
  403SOL    HW1 2108   1.939   2.003   1.112  1.7590  0.9231 -0.7249
  403SOL    HW2 2109   2.093   1.950   1.125  0.5484 -2.1031  3.3323
  404SOL     OW 2110   1.377   0.388   6.250 -0.4191 -0.3649 -0.4564
  404SOL    HW1 2111   1.304   0.327   6.278  1.7133 -2.6056  0.5897
  404SOL    HW2 2112   1.371   0.404   6.151 -3.2155  0.9152 -0.1660
  405SOL     OW 2113   0.702   6.527   5.565 -0.8068 -0.1623 -0.5292
  405SOL    HW1 2114   0.751   6.449   5.525 -1.3617 -0.2218 -1.1175
  405SOL    HW2 2115   0.672   6.588   5.491  1.9639  2.0717  0.0104
  406SOL     OW 2116   1.894   2.320   5.219  0.0112 -0.3544  0.2286
  406SOL    HW1 2117   1.824   2.358   5.279  0.9733  0.0609  1.1191
  406SOL    HW2 2118   1.861   2.321   5.125 -1.1819 -0.2020  0.6267
  407SOL     OW 2119   2.051   0.318   1.117  0.0066  0.5012  0.1513
  407SOL    HW1 2120   2.142   0.301   1.080  0.7925 -0.3192  2.3125
  407SOL    HW2 2121   2.009   0.394   1.068  0.8575 -0.6077 -2.4795
  408SOL     OW 2122   4.323   4.261   0.693 -0.3132 -0.1402  0.7926
  408SOL    HW1 2123   4.388   4.251   0.769  0.7085  1.8253  0.2370
  408SOL    HW2 2124   4.255   4.331   0.717 -0.1526  0.2837  0.0336
  409SOL     OW 2125   4.831   6.855   3.066 -0.1639  0.4833 -0.0465
  409SOL    HW1 2126   4.867   6.944   3.038  0.7784  0.3456  0.6850
  409SOL    HW2 2127   4.850   6.787   2.995  3.1877 -0.1073  1.2274
  410SOL     OW 2128   2.352   6.227   4.568  0.2457 -0.0430  0.3480
  410SOL    HW1 2129   2.423   6.161   4.543  1.7603  0.9061  1.8540
  410SOL    HW2 2130   2.277   6.180   4.615  0.1622 -0.9774 -0.6860
  411SOL     OW 2131   4.104   5.201   1.755  0.0294 -0.1724 -0.3201
  411SOL    HW1 2132   4.202   5.196   1.772  0.4862  0.5586 -2.3880
  411SOL    HW2 2133   4.081   5.145   1.676 -1.4417 -1.2322  0.8048
  412SOL     OW 2134   6.826   4.563   4.898  0.7413 -0.3266  0.1820
  412SOL    HW1 2135   6.819   4.471   4.860  0.8220 -0.6620  0.9583
  412SOL    HW2 2136   6.810   4.631   4.826 -0.7323 -0.9543 -0.1211
  413SOL     OW 2137   5.365   4.785   2.222 -0.2616  0.2481  0.1072
  413SOL    HW1 2138   5.368   4.705   2.281 -1.4308  0.3097  0.2874
  413SOL    HW2 2139   5.316   4.858   2.268 -0.0872  0.7222 -0.4524
  414SOL     OW 2140   6.846   5.638   6.967  0.3453  0.9740  0.1293
  414SOL    HW1 2141   6.844   5.630   6.867 -0.5786  0.9762  0.1357
  414SOL    HW2 2142   6.874   5.731   6.992  0.3646  1.0396 -0.1303
  415SOL     OW 2143   3.841   1.510   5.481 -0.2512  0.3811  0.2792
  415SOL    HW1 2144   3.844   1.501   5.382 -0.9408  0.0451  0.2820
  415SOL    HW2 2145   3.858   1.606   5.506  0.4413  0.3681 -0.1264
  416SOL     OW 2146   4.974   4.671   1.590 -0.3787  0.4325  0.0787
  416SOL    HW1 2147   4.938   4.745   1.533  1.8595  1.0950 -0.5904
  416SOL    HW2 2148   5.061   4.700   1.631  0.5341 -1.7563 -0.1520
  417SOL     OW 2149   2.991   1.197   0.770 -0.1746 -0.0167 -0.3204
  417SOL    HW1 2150   2.940   1.283   0.769 -0.6795 -0.3051  0.2483
  417SOL    HW2 2151   2.927   1.120   0.768  0.1670 -0.3995  1.4576
  418SOL     OW 2152   0.820   6.123   1.711 -0.5028  0.8695  0.2052
  418SOL    HW1 2153   0.844   6.100   1.805  2.1543 -1.2457 -0.8376
  418SOL    HW2 2154   0.730   6.085   1.689 -0.0937 -0.7858  1.2074
  419SOL     OW 2155   0.658   3.796   4.281  0.2528 -0.7325  0.3881
  419SOL    HW1 2156   0.708   3.714   4.307  1.7259  0.1204  0.3788
  419SOL    HW2 2157   0.618   3.838   4.362  2.2700  0.2780  0.9186
  420SOL     OW 2158   0.799   3.094   6.165  0.7987 -0.1186  0.1541
  420SOL    HW1 2159   0.864   3.166   6.140 -0.6842  0.9211 -0.8533
  420SOL    HW2 2160   0.780   3.037   6.085  0.2140 -0.1971  0.3459
  421SOL     OW 2161   0.140   6.559   4.233 -0.1977 -0.0188 -0.1680
  421SOL    HW1 2162   0.172   6.481   4.179 -1.3983 -0.1107 -0.7893
  421SOL    HW2 2163   0.212   6.589   4.296  0.3470 -1.5018 -0.0540
  422SOL     OW 2164   5.308   0.552   4.798  0.5296  0.1292 -0.5836
  422SOL    HW1 2165   5.308   0.597   4.887 -1.5449 -0.6445 -0.1158
  422SOL    HW2 2166   5.312   0.453   4.811 -0.4371 -0.0186 -1.2785
  423SOL     OW 2167   4.217   6.942   5.595  0.7429  0.2586 -0.1899
  423SOL    HW1 2168   4.220   7.031   5.549  0.3643  0.2786 -0.1807
  423SOL    HW2 2169   4.219   6.869   5.527 -1.4341  0.2962 -0.3663
  424SOL     OW 2170   1.785   3.379   5.070  0.7881  0.1657  0.0505
  424SOL    HW1 2171   1.719   3.326   5.122  1.0895  0.7414  1.0372
  424SOL    HW2 2172   1.741   3.418   4.989  0.4651 -1.2290 -0.4726
  425SOL     OW 2173   1.032   5.349   2.537 -0.5786  0.0377 -0.1425
  425SOL    HW1 2174   1.060   5.352   2.633  0.9444 -0.9416 -0.5263
  425SOL    HW2 2175   0.943   5.394   2.527 -0.2175  1.2023  1.5187
  426SOL     OW 2176   0.916   4.336   6.446  0.1292  0.1029  0.1403
  426SOL    HW1 2177   0.931   4.239   6.462  0.2586 -0.2566 -1.9163
  426SOL    HW2 2178   0.828   4.364   6.485 -0.2379 -0.9964  0.1245
  427SOL     OW 2179   1.124   2.639   6.356  0.4179  0.0134 -0.6458
  427SOL    HW1 2180   1.153   2.634   6.260 -0.3630  0.2449 -0.9053
  427SOL    HW2 2181   1.086   2.730   6.374  1.4850  0.3189  0.1657
  428SOL     OW 2182   0.232   4.558   1.070  0.0499 -0.0219 -0.3971
  428SOL    HW1 2183   0.304   4.623   1.046  0.3310 -0.8446 -1.8781
  428SOL    HW2 2184   0.258   4.467   1.038 -0.1241 -0.9937  2.0449
  429SOL     OW 2185   1.216   0.293   0.284  0.4031 -0.3771 -0.5813
  429SOL    HW1 2186   1.226   0.391   0.264 -0.5015  0.0861  1.0163
  429SOL    HW2 2187   1.250   0.275   0.376 -0.9141 -1.2434 -0.2363
  430SOL     OW 2188   2.266   5.489   4.052  0.0525 -0.1508  0.4118
  430SOL    HW1 2189   2.240   5.410   3.996 -1.5721  1.2876 -0.9715
  430SOL    HW2 2190   2.204   5.496   4.130  0.5384 -0.5329  0.8384
  431SOL     OW 2191   4.619   2.523   2.930  0.1029 -0.4642 -0.1927
  431SOL    HW1 2192   4.710   2.482   2.935 -0.2716 -1.4259 -0.8002
  431SOL    HW2 2193   4.551   2.450   2.915 -0.7567  0.2404  0.2057
  432SOL     OW 2194   2.840   0.646   2.328 -0.0410  0.0473 -0.0471
  432SOL    HW1 2195   2.922   0.647   2.271  0.4145 -1.4582  0.5400
  432SOL    HW2 2196   2.799   0.555   2.326 -1.2841  0.5773  0.2719
  433SOL     OW 2197   3.330   0.027   4.750 -0.7896 -0.7904 -0.5321
  433SOL    HW1 2198   3.348   0.113   4.703  0.7495 -0.2208  0.9937
  433SOL    HW2 2199   3.377  -0.047   4.703  1.1753 -0.1452  0.3218
  434SOL     OW 2200   0.671   0.511   5.368  0.0641  0.1501 -0.2304
  434SOL    HW1 2201   0.595   0.473   5.315 -0.6877  0.3168  0.7060
  434SOL    HW2 2202   0.679   0.462   5.455  0.7670  0.4110 -0.1391
  435SOL     OW 2203   5.168   3.419   0.902  0.3288  0.2642  0.0044
  435SOL    HW1 2204   5.174   3.319   0.913 -0.1093  0.2082 -0.2174
  435SOL    HW2 2205   5.177   3.463   0.991  0.7721  0.0406  0.0750
  436SOL     OW 2206   5.184   1.064   4.714 -0.1458  0.0074  0.6005
  436SOL    HW1 2207   5.122   1.100   4.645 -0.7418 -0.3253  0.9564
  436SOL    HW2 2208   5.277   1.064   4.678 -0.5179 -0.6673 -0.4224
  437SOL     OW 2209   2.087   0.724   6.555  0.1513 -0.4845 -0.2283
  437SOL    HW1 2210   2.134   0.710   6.468 -1.2452 -0.4845 -1.0210
  437SOL    HW2 2211   2.031   0.807   6.549  0.6380 -0.0534  0.9555
  438SOL     OW 2212   0.224   3.366   2.939  0.1718 -0.0360 -0.1065
  438SOL    HW1 2213   0.154   3.436   2.945 -0.1128 -0.3724  0.6114
  438SOL    HW2 2214   0.204   3.304   2.863  1.4936  1.7876 -2.0641
  439SOL     OW 2215   6.422   5.205   0.655 -0.3212  0.7415  0.3865
  439SOL    HW1 2216   6.384   5.287   0.699 -2.6224  0.2017 -0.4450
  439SOL    HW2 2217   6.393   5.124   0.706 -0.7981  0.2737 -0.6078
  440SOL     OW 2218   2.090   5.675   4.774 -0.2666  0.4557  0.2324
  440SOL    HW1 2219   2.091   5.742   4.699 -0.3030 -0.6259 -0.7622
  440SOL    HW2 2220   2.036   5.711   4.849 -2.0245  0.7111 -1.0890
  441SOL     OW 2221   3.051   6.227   5.717 -0.7138 -0.0577  0.3410
  441SOL    HW1 2222   3.098   6.175   5.645 -0.6359 -0.6177  0.7920
  441SOL    HW2 2223   2.954   6.233   5.696 -0.7941 -0.7610  0.5034
  442SOL     OW 2224   2.117   6.978   5.433  0.3058 -0.1548  0.0017
  442SOL    HW1 2225   2.133   6.958   5.530 -0.4945 -1.3971 -0.0961
  442SOL    HW2 2226   2.044   6.920   5.399  1.3690 -0.5929 -1.6614
  443SOL     OW 2227   4.744   4.704   2.239  0.0590  0.6167 -0.2412
  443SOL    HW1 2228   4.756   4.784   2.181  0.8430  0.8575  0.2289
  443SOL    HW2 2229   4.702   4.630   2.187 -2.9575  2.0757 -0.0507
  444SOL     OW 2230   1.653   1.324   4.872  0.1107 -0.2136  0.0318
  444SOL    HW1 2231   1.679   1.245   4.927 -0.9286 -0.4832  0.1579
  444SOL    HW2 2232   1.576   1.371   4.915  0.3105  0.5049 -0.3724
  445SOL     OW 2233   5.389   0.058   0.922  0.1991 -0.3110 -0.5524
  445SOL    HW1 2234   5.356  -0.022   0.972 -2.0588  0.6457 -0.4327
  445SOL    HW2 2235   5.370   0.141   0.974 -0.3245  0.5486 -2.0498
  446SOL     OW 2236   6.539   5.394   1.536  0.4477 -0.8723  0.2886
  446SOL    HW1 2237   6.544   5.298   1.566 -1.1508 -1.0559  0.0341
  446SOL    HW2 2238   6.589   5.404   1.450 -0.0696 -1.6744 -0.1246
  447SOL     OW 2239   3.390   2.225   1.062  0.1650  0.5234 -0.3851
  447SOL    HW1 2240   3.429   2.296   1.003  1.0693  0.3594  0.0035
  447SOL    HW2 2241   3.295   2.247   1.081  0.0113  0.8682 -1.4528
  448SOL     OW 2242   0.511   2.002   1.061  0.2518  0.4077  0.0288
  448SOL    HW1 2243   0.422   1.959   1.072  0.6418 -0.1441  1.1836
  448SOL    HW2 2244   0.506   2.071   0.988 -0.5075 -1.2085 -1.5224
  449SOL     OW 2245   3.883   6.645   2.500  0.6090  0.3991 -0.3718
  449SOL    HW1 2246   3.849   6.726   2.452  0.8412 -0.2537 -1.6732
  449SOL    HW2 2247   3.847   6.563   2.456  2.7355 -0.2839 -0.9280
  450SOL     OW 2248   5.832   2.487   1.510  0.1145  0.8176  0.4901
  450SOL    HW1 2249   5.755   2.543   1.541  0.6553  3.4230 -2.3806
  450SOL    HW2 2250   5.803   2.392   1.500 -1.8847  1.1985  2.1275
  451SOL     OW 2251   0.484   2.095   6.040 -0.5681  0.5570 -0.0464
  451SOL    HW1 2252   0.578   2.110   6.068 -0.7313 -0.0814  0.8998
  451SOL    HW2 2253   0.473   2.001   6.007 -1.4267 -0.3333  2.4846
  452SOL     OW 2254   1.317   4.370   0.627  0.2439  0.1119 -0.8205
  452SOL    HW1 2255   1.335   4.432   0.551  1.0244  0.1840 -0.5815
  452SOL    HW2 2256   1.374   4.395   0.705 -0.8164  0.2686 -0.0733
  453SOL     OW 2257   5.525   0.960   0.578  0.2239  0.0231  0.0673
  453SOL    HW1 2258   5.536   0.866   0.608  1.0558  0.4564  1.2100
  453SOL    HW2 2259   5.495   1.016   0.656  1.0876  0.9425 -0.2505
  454SOL     OW 2260   6.109   0.008   5.586 -0.1315  0.1874 -0.7435
  454SOL    HW1 2261   6.106  -0.085   5.550  0.8635  0.2931 -1.1450
  454SOL    HW2 2262   6.203   0.033   5.606 -0.1113  1.7577 -2.4573
  455SOL     OW 2263   4.759   0.587   6.509  0.9133  0.3843  0.6979
  455SOL    HW1 2264   4.792   0.634   6.591  2.6198 -0.6368  0.6375
  455SOL    HW2 2265   4.714   0.502   6.535 -0.9648  1.3473  0.7178
  456SOL     OW 2266   1.570   6.094   3.734  0.1559 -0.2402 -0.6550
  456SOL    HW1 2267   1.573   6.151   3.817 -1.7585  0.1687 -0.8082
  456SOL    HW2 2268   1.658   6.050   3.721  1.0799  1.1197  0.5934
  457SOL     OW 2269   2.617   6.278   2.448  0.2803 -0.3739 -0.4049
  457SOL    HW1 2270   2.552   6.225   2.393  1.0304 -1.3245 -0.3950
  457SOL    HW2 2271   2.601   6.259   2.545  0.4924 -0.5059 -0.3968
  458SOL     OW 2272   1.814   2.339   0.020  0.1893 -0.2414 -0.0808
  458SOL    HW1 2273   1.892   2.279   0.036 -0.3174 -1.0109 -0.4256
  458SOL    HW2 2274   1.839   2.434   0.041  0.8679 -0.6300  0.9099
  459SOL     OW 2275   6.594   2.647   3.679  0.0676 -0.3117 -0.1908
  459SOL    HW1 2276   6.583   2.707   3.758 -0.1844 -1.9752  1.0891
  459SOL    HW2 2277   6.505   2.616   3.647  0.2436 -1.1621  0.1080
  460SOL     OW 2278   0.479   0.974   4.665  0.3120 -0.1360 -0.2364
  460SOL    HW1 2279   0.482   0.877   4.685  1.1770  0.0486  0.5988
  460SOL    HW2 2280   0.393   0.996   4.619 -1.1620 -0.8336  2.0413
  461SOL     OW 2281   3.397   3.411   6.417 -0.4257 -0.7488  0.2919
  461SOL    HW1 2282   3.414   3.430   6.320  1.4145  0.5058  0.8207
  461SOL    HW2 2283   3.420   3.491   6.472  1.1457 -2.2785  2.0146
  462SOL     OW 2284   5.387   2.553   5.028 -0.0940  0.5405  0.5503
  462SOL    HW1 2285   5.434   2.501   5.099  0.4512  0.5395  0.1933
  462SOL    HW2 2286   5.291   2.567   5.055  0.3350  1.3906  1.7666
  463SOL     OW 2287   0.050   2.816   3.723  0.4965  0.6149 -0.0227
  463SOL    HW1 2288   0.102   2.782   3.802 -1.7940 -3.3917  0.0378
  463SOL    HW2 2289   0.109   2.822   3.644  2.1718  1.6348  1.2420
  464SOL     OW 2290   0.972   2.918   6.702  0.1340  0.2544 -0.0427
  464SOL    HW1 2291   0.917   2.893   6.782  2.1166  1.4285  1.7779
  464SOL    HW2 2292   0.955   3.014   6.679  2.1562  0.9937  1.2791
  465SOL     OW 2293   2.373   4.931   5.014  0.3589 -0.4482 -0.2475
  465SOL    HW1 2294   2.336   4.874   5.087  0.2184  1.3820  1.1772
  465SOL    HW2 2295   2.471   4.913   5.003  0.4172 -0.6141  0.5305
  466SOL     OW 2296   0.097   1.698   3.556  0.0323  0.3381  0.5225
  466SOL    HW1 2297   0.127   1.680   3.462 -0.5401 -0.3733  0.4657
  466SOL    HW2 2298   0.048   1.785   3.560 -1.3852 -0.3967 -0.1742
  467SOL     OW 2299   6.825   3.930   0.369  0.3417 -0.6172  0.4268
  467SOL    HW1 2300   6.813   3.999   0.440 -0.3147 -0.0369 -0.2328
  467SOL    HW2 2301   6.760   3.947   0.294  2.8845  0.5439 -1.6847
  468SOL     OW 2302   2.587   6.317   1.670  0.0494  0.5286  0.4484
  468SOL    HW1 2303   2.544   6.300   1.581  0.0936 -0.9599  0.6863
  468SOL    HW2 2304   2.547   6.400   1.710 -0.3821  0.9011 -0.6922
  469SOL     OW 2305   3.204   1.659   6.260 -0.0735  0.0207  0.2829
  469SOL    HW1 2306   3.261   1.612   6.193  0.9327 -0.2799  1.3115
  469SOL    HW2 2307   3.132   1.710   6.213 -1.2420 -2.5219 -0.9112
  470SOL     OW 2308   4.823   4.221   0.777  0.4609  0.1184  0.1440
  470SOL    HW1 2309   4.837   4.158   0.853 -1.2338 -1.7177 -0.9496
  470SOL    HW2 2310   4.909   4.266   0.754  0.9169  1.2187  3.4585
  471SOL     OW 2311   3.115   2.099   3.130 -1.0431 -0.1006 -0.4646
  471SOL    HW1 2312   3.095   2.002   3.140 -1.3450  0.0909  0.8621
  471SOL    HW2 2313   3.184   2.127   3.197  1.1425  0.0404 -2.5940
  472SOL     OW 2314   2.403   0.975   3.167  0.0070 -0.1510 -0.3341
  472SOL    HW1 2315   2.440   1.042   3.230  0.2160  1.3484 -1.9685
  472SOL    HW2 2316   2.327   0.927   3.209 -0.5569  1.5552  0.6644
  473SOL     OW 2317   6.016   1.272   5.603  0.1919  0.0421  0.2100
  473SOL    HW1 2318   5.972   1.242   5.688 -0.6153 -0.6104 -0.4085
  473SOL    HW2 2319   6.069   1.197   5.565 -1.4729 -0.5284 -1.1219
  474SOL     OW 2320   1.664   2.566   1.708  0.2743  0.0619 -0.0532
  474SOL    HW1 2321   1.649   2.564   1.609 -1.7385  1.0356  0.1939
  474SOL    HW2 2322   1.656   2.659   1.742 -0.0230 -0.3848  1.1633
  475SOL     OW 2323   3.282   6.157   3.835  0.1694 -0.8798  0.3690
  475SOL    HW1 2324   3.323   6.208   3.910  1.1538 -1.6488  0.3678
  475SOL    HW2 2325   3.351   6.140   3.765 -0.7658 -0.0429 -0.7970
  476SOL     OW 2326   5.065   1.974   3.298  0.1223  0.2635  0.0466
  476SOL    HW1 2327   4.978   1.971   3.347  1.0183 -0.3190  1.6662
  476SOL    HW2 2328   5.078   2.066   3.259 -1.1908  0.3600 -0.2029
  477SOL     OW 2329   1.556   2.505   6.518  0.0080 -0.0969  0.0998
  477SOL    HW1 2330   1.466   2.535   6.550  0.2002  0.5926  0.0101
  477SOL    HW2 2331   1.566   2.407   6.536 -0.3781  0.0142  1.0150
  478SOL     OW 2332   6.541   0.536   0.956  0.1362 -0.4285  0.4436
  478SOL    HW1 2333   6.624   0.482   0.944 -0.8835 -2.6261  2.6035
  478SOL    HW2 2334   6.476   0.513   0.883 -0.0420 -1.6764  0.9733
  479SOL     OW 2335   3.823   2.943   4.879  0.2573 -0.2051  0.3444
  479SOL    HW1 2336   3.910   2.894   4.867 -0.0020 -0.3794 -0.9116
  479SOL    HW2 2337   3.834   3.038   4.849 -0.0198 -0.2507  0.1062
  480SOL     OW 2338   4.794   0.137   4.740  0.2039  0.0990 -0.1377
  480SOL    HW1 2339   4.729   0.200   4.697  0.1880 -0.0139 -0.2825
  480SOL    HW2 2340   4.833   0.179   4.822 -1.7036 -0.6582  1.2316
  481SOL     OW 2341   4.575   2.691   3.965  0.4649  0.2565 -0.7485
  481SOL    HW1 2342   4.538   2.670   3.874 -3.2883  0.4174  0.5705
  481SOL    HW2 2343   4.541   2.624   4.031  2.2812  0.7418  0.7627
  482SOL     OW 2344   4.179   2.210   4.900  0.3877 -0.6430  0.4721
  482SOL    HW1 2345   4.193   2.293   4.955  0.2187 -0.1722 -0.1763
  482SOL    HW2 2346   4.098   2.162   4.933  2.2041 -2.2375  2.8523
  483SOL     OW 2347   4.116   4.832   4.563 -0.0503 -0.0373  0.1213
  483SOL    HW1 2348   4.106   4.929   4.587  0.3971 -0.0001  0.1622
  483SOL    HW2 2349   4.170   4.785   4.633  0.5899 -0.0966 -0.4000
  484SOL     OW 2350   3.784   2.777   6.036 -0.6086 -0.1725  0.3866
  484SOL    HW1 2351   3.727   2.835   5.979 -0.6287  0.2094  0.7921
  484SOL    HW2 2352   3.817   2.829   6.115  2.0963  0.3277 -0.9226
  485SOL     OW 2353   5.940   2.690   5.081 -0.2857  0.2957  0.2568
  485SOL    HW1 2354   5.888   2.740   5.151 -0.1901 -0.3081  0.7791
  485SOL    HW2 2355   6.034   2.722   5.079  0.2829 -1.0853  1.9094
  486SOL     OW 2356   1.358   0.061   4.354 -0.1704  0.0304 -0.3273
  486SOL    HW1 2357   1.456   0.054   4.374 -0.4512 -2.3245  0.4459
  486SOL    HW2 2358   1.306   0.060   4.439 -0.8811  3.0609 -0.6008
  487SOL     OW 2359   1.155   0.637   1.892 -0.1559 -0.3830 -0.3605
  487SOL    HW1 2360   1.069   0.687   1.884 -0.4926 -1.0306 -0.8887
  487SOL    HW2 2361   1.204   0.668   1.974 -0.2980  0.8720 -0.7257
  488SOL     OW 2362   0.878   3.865   3.212  0.2700 -0.3704  0.2045
  488SOL    HW1 2363   0.783   3.894   3.228  0.3224 -1.1150  2.1653
  488SOL    HW2 2364   0.879   3.768   3.187  0.4683 -0.1438 -0.6872
  489SOL     OW 2365   4.357   3.501   5.899  0.0351 -0.0263  0.6796
  489SOL    HW1 2366   4.307   3.574   5.852 -0.5170 -1.7326 -1.5434
  489SOL    HW2 2367   4.446   3.488   5.856  0.7213  0.2305  1.9690
  490SOL     OW 2368   5.872   4.676   6.666  1.0334 -0.5499  0.0911
  490SOL    HW1 2369   5.937   4.692   6.740 -0.1893  1.0397  0.8788
  490SOL    HW2 2370   5.779   4.696   6.697  0.0789 -2.9318 -0.9585
  491SOL     OW 2371   1.803   0.895   2.873  0.1661  0.2223  0.0958
  491SOL    HW1 2372   1.771   0.820   2.815  1.7637  1.3533 -2.4688
  491SOL    HW2 2373   1.894   0.873   2.909  0.4051  0.6625 -0.2177
  492SOL     OW 2374   0.398   1.992   3.788  0.8679 -0.0975  0.2535
  492SOL    HW1 2375   0.315   2.048   3.788  1.4519  0.8392 -1.1277
  492SOL    HW2 2376   0.395   1.928   3.712  1.5994  0.2803 -0.1096
  493SOL     OW 2377   1.468   1.649   0.118  0.5650  0.1044  0.0402
  493SOL    HW1 2378   1.561   1.625   0.146  1.1011  0.3571 -1.4450
  493SOL    HW2 2379   1.458   1.634   0.020 -1.2593 -0.7974  0.3208
  494SOL     OW 2380   0.201   0.679   6.272 -0.2447  0.3458 -0.4507
  494SOL    HW1 2381   0.255   0.760   6.248 -0.2067  0.0590 -1.4002
  494SOL    HW2 2382   0.175   0.631   6.188  1.7912 -1.9934  0.1407
  495SOL     OW 2383   6.294   4.852   0.213 -0.8178 -0.3548 -0.8191
  495SOL    HW1 2384   6.205   4.896   0.221  0.0872  1.6893 -1.4219
  495SOL    HW2 2385   6.335   4.843   0.303 -0.6705  0.7972 -0.7666
  496SOL     OW 2386   1.032   4.043   0.892 -0.0341 -0.1096 -0.3420
  496SOL    HW1 2387   1.037   4.110   0.818  0.6126 -1.4413 -1.5641
  496SOL    HW2 2388   1.109   3.979   0.884 -0.9977 -1.3997  0.3646
  497SOL     OW 2389   7.017   5.130   5.072  0.7778 -0.5514 -0.1278
  497SOL    HW1 2390   6.946   5.137   5.142  1.0798  2.4676  0.0342
  497SOL    HW2 2391   6.992   5.059   5.006 -1.8268 -0.3561  0.5259
  498SOL     OW 2392   6.477   2.569   6.272  0.2478 -0.2440  0.1666
  498SOL    HW1 2393   6.473   2.658   6.227  0.8085  0.5467  1.6220
  498SOL    HW2 2394   6.513   2.580   6.365  0.4018 -2.0017  0.3486
  499SOL     OW 2395   4.441   2.775   0.406  0.3612 -0.3047  0.3704
  499SOL    HW1 2396   4.401   2.786   0.497  1.7602 -0.3310  1.0071
  499SOL    HW2 2397   4.398   2.840   0.343  1.0912  1.4723  1.6173
  500SOL     OW 2398   4.003   5.082   2.379 -0.0265  0.2052  0.2884
  500SOL    HW1 2399   4.065   5.139   2.433  1.0021 -0.7252  0.1268
  500SOL    HW2 2400   3.983   4.998   2.429  0.6485 -0.5015 -0.6046
  501SOL     OW 2401   4.645   1.153   3.159  0.6066  0.2108  0.2619
  501SOL    HW1 2402   4.679   1.130   3.068  1.1115  1.4444  0.1234
  501SOL    HW2 2403   4.722   1.161   3.223  0.3909  0.8024  0.4595
  502SOL     OW 2404   5.261   0.306   4.931 -0.8892 -0.2222 -0.3123
  502SOL    HW1 2405   5.214   0.231   4.885 -0.7456 -0.2314 -0.4457
  502SOL    HW2 2406   5.194   0.362   4.980 -0.9164 -0.8496  0.3914
  503SOL     OW 2407   2.069   0.454   4.985 -0.5080  0.3523  0.0435
  503SOL    HW1 2408   1.984   0.448   5.037 -0.2332  0.2764  0.4966
  503SOL    HW2 2409   2.125   0.528   5.023 -0.3402  0.3511 -0.2004
  504SOL     OW 2410   6.184   6.890   1.235 -0.4032  0.1550  0.3328
  504SOL    HW1 2411   6.265   6.845   1.274  0.5283  0.3072 -1.3726
  504SOL    HW2 2412   6.156   6.965   1.295  0.7271  0.1138  0.9429
  505SOL     OW 2413   1.064   4.143   1.851 -0.0238 -0.0949 -0.1706
  505SOL    HW1 2414   1.060   4.207   1.928  0.1660 -0.7647  0.4116
  505SOL    HW2 2415   1.093   4.191   1.769  0.4537  0.4985  0.3353
  506SOL     OW 2416   0.293   0.825   5.136  0.6529 -0.2825 -0.4533
  506SOL    HW1 2417   0.272   0.744   5.191 -1.8655  0.3009 -0.4456
  506SOL    HW2 2418   0.330   0.796   5.047 -0.9775 -1.5175 -0.7789
  507SOL     OW 2419   4.583   3.325   1.706 -0.0134 -0.4056  0.4507
  507SOL    HW1 2420   4.549   3.310   1.613  1.6545  0.4279 -0.3475
  507SOL    HW2 2421   4.596   3.237   1.751  1.2024 -0.9780 -0.9194
  508SOL     OW 2422   6.915   2.301   2.829  0.3195 -0.3931  0.3914
  508SOL    HW1 2423   6.952   2.226   2.885  0.4296 -0.8646 -0.3007
  508SOL    HW2 2424   6.837   2.267   2.776  0.2096  0.0511  0.2687
  509SOL     OW 2425   0.311   2.625   5.519 -0.1539 -0.2432  0.0301
  509SOL    HW1 2426   0.291   2.592   5.427  0.6929 -1.7717  0.3462
  509SOL    HW2 2427   0.233   2.676   5.554 -0.9927 -0.7342 -1.0573
  510SOL     OW 2428   2.597   1.427   2.243  0.1232 -0.0789 -0.4810
  510SOL    HW1 2429   2.644   1.343   2.214 -1.5661 -0.7034 -1.5650
  510SOL    HW2 2430   2.577   1.483   2.163  0.1039  0.7655  0.1024
  511SOL     OW 2431   0.749   5.307   5.188  0.3473 -0.4405  0.1147
  511SOL    HW1 2432   0.651   5.300   5.168  0.2931 -0.8193  0.4812
  511SOL    HW2 2433   0.768   5.393   5.235  0.6162  0.9010 -2.2824
  512SOL     OW 2434   3.160   1.141   5.367 -0.3413 -0.2849  0.5458
  512SOL    HW1 2435   3.137   1.047   5.341  2.5248 -1.8464  3.0425
  512SOL    HW2 2436   3.259   1.148   5.381 -0.5793  2.9410  1.2284
  513SOL     OW 2437   0.961   6.108   2.000  0.3555  0.6306  0.3960
  513SOL    HW1 2438   0.996   6.201   1.990  2.1321  0.1806  1.7870
  513SOL    HW2 2439   1.038   6.045   2.010 -0.8229 -0.6441  2.0734
  514SOL     OW 2440   0.215   4.755   0.745 -0.1203  0.6387 -0.4160
  514SOL    HW1 2441   0.300   4.740   0.796 -1.2486 -1.1126  1.0528
  514SOL    HW2 2442   0.193   4.674   0.691 -1.6759  0.4160  0.4980
  515SOL     OW 2443   2.999   2.889   6.655 -0.9409 -0.3051  0.3306
  515SOL    HW1 2444   3.097   2.870   6.662 -1.1731 -1.5948  0.2721
  515SOL    HW2 2445   2.950   2.842   6.728 -1.1240  4.1927  3.5184
  516SOL     OW 2446   2.486   3.879   6.731  0.0777 -0.5709 -0.6219
  516SOL    HW1 2447   2.471   3.976   6.747  2.1237  0.0604 -2.0080
  516SOL    HW2 2448   2.409   3.841   6.681 -1.4654 -0.0854  1.2847
  517SOL     OW 2449   5.755   6.206   4.532  0.6377 -0.1688  0.0412
  517SOL    HW1 2450   5.691   6.198   4.608  1.3927 -0.4402  0.6649
  517SOL    HW2 2451   5.776   6.115   4.495 -0.3767  0.0194 -1.0680
  518SOL     OW 2452   5.292   5.192   1.545 -0.0700 -0.0651  0.3587
  518SOL    HW1 2453   5.299   5.163   1.640  1.4134 -1.7607 -0.2053
  518SOL    HW2 2454   5.292   5.112   1.486 -0.7601  0.9627 -1.0964
  519SOL     OW 2455   6.279   5.682   2.203 -0.1719 -0.2807 -0.4182
  519SOL    HW1 2456   6.361   5.642   2.244 -0.6754 -0.3393  0.5603
  519SOL    HW2 2457   6.282   5.781   2.213  0.3683 -0.1717 -1.5154
  520SOL     OW 2458   1.896   2.814   6.172 -0.3000 -0.0643  0.2877
  520SOL    HW1 2459   1.850   2.808   6.260 -1.1163 -1.1242 -0.1907
  520SOL    HW2 2460   1.854   2.886   6.117  0.7854  1.2132  1.0601
  521SOL     OW 2461   4.329   6.903   2.952 -0.6536 -0.4686 -0.1613
  521SOL    HW1 2462   4.380   6.972   2.901  1.4687 -2.6621 -1.1631
  521SOL    HW2 2463   4.231   6.916   2.936 -0.1920  0.7565 -2.3591
  522SOL     OW 2464   4.268   1.297   2.592  0.2984  0.5808 -0.3811
  522SOL    HW1 2465   4.217   1.310   2.507  0.0211 -1.4573 -0.5763
  522SOL    HW2 2466   4.323   1.214   2.586  3.2534  2.3516  0.0625
  523SOL     OW 2467   5.208   5.341   6.329  0.3844 -0.2322 -0.0252
  523SOL    HW1 2468   5.287   5.351   6.268  0.7920 -1.4649  0.2645
  523SOL    HW2 2469   5.231   5.382   6.418 -0.4452  2.1518 -0.8214
  524SOL     OW 2470   4.070   1.128   3.382  0.3761  0.4234  0.3339
  524SOL    HW1 2471   4.157   1.078   3.381 -0.3665 -0.8975 -0.3187
  524SOL    HW2 2472   4.066   1.189   3.302  1.1437  1.3454  0.9609
  525SOL     OW 2473   3.742   6.465   6.747  0.5621 -0.3653  0.0462
  525SOL    HW1 2474   3.749   6.561   6.776  0.5705  0.0947 -1.3961
  525SOL    HW2 2475   3.833   6.425   6.742  0.5581 -0.4609  0.6608
  526SOL     OW 2476   6.125   2.454   6.328  0.7718  0.2614  0.4001
  526SOL    HW1 2477   6.188   2.524   6.293 -1.1151  1.5190 -0.6182
  526SOL    HW2 2478   6.057   2.497   6.387  1.4349 -1.2428  2.3854
  527SOL     OW 2479   3.758   2.321   0.382 -0.2518 -0.2116  0.4982
  527SOL    HW1 2480   3.667   2.352   0.356 -1.1071 -2.7949  0.1567
  527SOL    HW2 2481   3.765   2.317   0.482 -1.0848 -1.5255  0.5122
  528SOL     OW 2482   6.538   1.155   6.706 -0.1878 -0.0694  0.3736
  528SOL    HW1 2483   6.627   1.165   6.661  0.2864 -1.0382  1.0445
  528SOL    HW2 2484   6.465   1.182   6.642  0.5279 -0.1653 -0.5133
  529SOL     OW 2485   6.789   4.048   5.257  0.3686  0.5240 -0.1734
  529SOL    HW1 2486   6.851   3.970   5.264 -1.1565 -0.6942  0.1110
  529SOL    HW2 2487   6.781   4.092   5.346 -3.8936 -3.1315  1.5656
  530SOL     OW 2488   2.378   1.539   0.671  0.4616  0.4457  0.0704
  530SOL    HW1 2489   2.467   1.562   0.631  0.9049 -0.2141  0.6434
  530SOL    HW2 2490   2.324   1.622   0.681 -0.2641  0.4974 -3.1859
  531SOL     OW 2491   3.356   1.403   6.612 -0.4022 -0.0625 -0.2418
  531SOL    HW1 2492   3.273   1.355   6.641  0.2244 -0.8976  0.2236
  531SOL    HW2 2493   3.428   1.336   6.595  0.3280  0.6860 -0.1481
  532SOL     OW 2494   6.228   6.553   5.720 -0.6686  0.6236  0.3200
  532SOL    HW1 2495   6.261   6.507   5.637 -0.0260 -2.2090  2.0077
  532SOL    HW2 2496   6.306   6.581   5.775 -1.0840  0.8272  0.8076
  533SOL     OW 2497   4.154   5.269   1.022 -0.1719  0.5653  0.7740
  533SOL    HW1 2498   4.162   5.216   0.937  2.2354  0.0564  1.2443
  533SOL    HW2 2499   4.108   5.213   1.091  0.5475 -0.1952  0.6617
  534SOL     OW 2500   6.544   2.891   2.333 -0.1085  0.1719 -0.5605
  534SOL    HW1 2501   6.483   2.880   2.255  1.9492  1.5318 -2.4845
  534SOL    HW2 2502   6.624   2.945   2.306 -1.0652  4.2035  3.4239
  535SOL     OW 2503   0.354   5.804   4.905 -0.0819  0.0641 -0.6904
  535SOL    HW1 2504   0.342   5.830   5.001  0.8234  0.6787 -0.7271
  535SOL    HW2 2505   0.452   5.798   4.884 -0.2723 -0.3093 -1.5105
  536SOL     OW 2506   2.019   3.136   5.501  0.1448 -0.0572 -0.1540
  536SOL    HW1 2507   1.948   3.069   5.524 -1.4129  1.0193 -1.5222
  536SOL    HW2 2508   2.085   3.095   5.439 -0.2277 -0.6188 -0.1813
  537SOL     OW 2509   3.072   6.721   3.196  0.0405 -0.1556  0.2402
  537SOL    HW1 2510   2.986   6.736   3.246 -0.6039 -1.8323 -0.2865
  537SOL    HW2 2511   3.052   6.682   3.107  1.2056  2.4091 -1.2602
  538SOL     OW 2512   1.577   6.938   5.921 -0.1961  0.1844  0.8929
  538SOL    HW1 2513   1.546   6.930   6.016  0.9010 -0.6906  1.2117
  538SOL    HW2 2514   1.677   6.934   5.919 -0.2265 -0.3407 -0.3411
  539SOL     OW 2515   3.161   4.223   5.182 -0.1611 -0.3958 -0.7277
  539SOL    HW1 2516   3.147   4.164   5.103 -0.7935 -1.5586  0.2272
  539SOL    HW2 2517   3.074   4.264   5.210 -0.1288 -0.7709 -0.0453
  540SOL     OW 2518   4.321   2.888   0.196  0.7148  0.2558 -0.1696
  540SOL    HW1 2519   4.358   2.951   0.128  1.3880 -0.9076 -0.9186
  540SOL    HW2 2520   4.222   2.885   0.189  0.6325  1.5228  0.1651
  541SOL     OW 2521   2.448   4.374   4.545  0.0360  0.2252  0.0563
  541SOL    HW1 2522   2.384   4.422   4.605  0.2357  0.7927 -0.1817
  541SOL    HW2 2523   2.508   4.315   4.600 -0.6004 -0.2136  0.2935
  542SOL     OW 2524   0.191   2.255   1.068  0.1195 -0.3294  0.2020
  542SOL    HW1 2525   0.147   2.182   1.016 -1.4321 -1.2362  2.6244
  542SOL    HW2 2526   0.132   2.336   1.069  0.0369 -0.3892  0.6746
  543SOL     OW 2527   1.068   6.879   0.122  0.0444 -0.0215  0.0192
  543SOL    HW1 2528   1.026   6.801   0.077 -0.8467  0.2227  0.3974
  543SOL    HW2 2529   1.101   6.852   0.213  0.0742 -0.0451  0.0014
  544SOL     OW 2530   0.104   4.477   4.663 -0.2317  0.3413 -0.5609
  544SOL    HW1 2531   0.077   4.477   4.760  0.5658 -0.0239 -0.3304
  544SOL    HW2 2532   0.072   4.562   4.620 -2.3975 -0.3816 -0.5100
  545SOL     OW 2533   5.282   0.892   6.929 -0.1285  0.0113  0.6656
  545SOL    HW1 2534   5.229   0.831   6.987 -0.0553 -3.8522 -2.8961
  545SOL    HW2 2535   5.378   0.867   6.932 -0.1300 -0.3586 -1.0865
  546SOL     OW 2536   6.574   2.452   4.719  0.0842 -0.5997  0.0261
  546SOL    HW1 2537   6.558   2.361   4.759  0.2020  0.1692  1.9265
  546SOL    HW2 2538   6.623   2.441   4.632 -0.8936 -2.3946 -0.3573
  547SOL     OW 2539   0.397   4.089   6.526 -0.4378  0.3333 -0.0915
  547SOL    HW1 2540   0.338   4.023   6.571  0.5642  0.7885  1.9931
  547SOL    HW2 2541   0.425   4.054   6.437  0.8307 -2.5073  1.3232
  548SOL     OW 2542   3.952   0.406   4.493 -0.3927  0.7295 -0.5896
  548SOL    HW1 2543   3.935   0.371   4.585 -1.2977  1.2986 -0.5369
  548SOL    HW2 2544   4.030   0.357   4.453 -0.1735  0.2803  0.3616
  549SOL     OW 2545   1.327   2.788   1.935 -0.4013 -0.1796 -0.1951
  549SOL    HW1 2546   1.261   2.833   1.995  0.1144 -1.1159  1.1162
  549SOL    HW2 2547   1.366   2.708   1.981  0.6802 -0.4209 -1.4460
  550SOL     OW 2548   0.046   5.329   0.747 -0.2141 -0.2880  0.2038
  550SOL    HW1 2549   0.131   5.284   0.774  0.4113  0.5152 -0.3671
  550SOL    HW2 2550   0.035   5.322   0.648 -0.8752 -0.4725  0.2838
  551SOL     OW 2551   0.370   2.336   6.404  0.2417  0.1651  0.0672
  551SOL    HW1 2552   0.435   2.365   6.475  0.5046 -0.6945  0.1895
  551SOL    HW2 2553   0.415   2.335   6.315  0.6097 -1.0663  0.2446
  552SOL     OW 2554   4.145   4.667   1.937  0.3666  0.7371  0.0204
  552SOL    HW1 2555   4.230   4.620   1.958  1.0914  1.8135 -0.3803
  552SOL    HW2 2556   4.099   4.693   2.022 -0.2957 -1.0710  0.2483
  553SOL     OW 2557   5.368   1.266   2.961  0.4894 -0.4793 -0.1434
  553SOL    HW1 2558   5.419   1.323   2.896  1.2024 -1.6522 -0.6520
  553SOL    HW2 2559   5.289   1.317   2.995  0.4118  0.3803 -1.5080
  554SOL     OW 2560   4.114   3.613   5.581 -0.0732 -0.3766 -0.4770
  554SOL    HW1 2561   4.100   3.701   5.627 -1.0516 -0.6143 -0.2919
  554SOL    HW2 2562   4.201   3.614   5.533  0.7336  0.0788  0.9367
  555SOL     OW 2563   5.174   3.074   0.413  0.7123  0.1035  0.0449
  555SOL    HW1 2564   5.125   3.151   0.373  1.0254  0.6028  0.6197
  555SOL    HW2 2565   5.187   3.088   0.511 -0.6140 -1.4152  0.4778
  556SOL     OW 2566   6.827   6.644   2.085  0.0743  0.7929 -0.7246
  556SOL    HW1 2567   6.806   6.678   1.994 -0.1418  2.6970 -0.0034
  556SOL    HW2 2568   6.902   6.578   2.080 -0.2938  0.4703 -2.3171
  557SOL     OW 2569   5.765   0.538   2.411 -0.0425 -0.5120  0.3937
  557SOL    HW1 2570   5.685   0.486   2.443  0.6267 -1.1475  1.0548
  557SOL    HW2 2571   5.845   0.479   2.410  0.0564 -0.4617 -2.2222
  558SOL     OW 2572   3.429   3.688   2.630  0.7021 -0.2746  0.0010
  558SOL    HW1 2573   3.510   3.630   2.634  0.9687  0.0662 -0.3349
  558SOL    HW2 2574   3.362   3.658   2.697  0.2767 -1.8335 -1.0588
  559SOL     OW 2575   2.517   6.109   4.040  0.0048 -0.0462 -0.4320
  559SOL    HW1 2576   2.438   6.089   3.981 -0.8172 -0.4572  0.7636
  559SOL    HW2 2577   2.503   6.196   4.086  0.3066 -0.0659 -0.3028
  560SOL     OW 2578   1.665   3.736   4.347 -0.1909 -0.2482 -0.3985
  560SOL    HW1 2579   1.698   3.641   4.355 -2.4860 -1.0693  0.1435
  560SOL    HW2 2580   1.666   3.779   4.437  0.3520  0.0672 -0.5543
  561SOL     OW 2581   2.766   0.291   1.435  0.4332 -0.6409 -0.7094
  561SOL    HW1 2582   2.684   0.245   1.400 -0.8824  1.5937 -0.7678
  561SOL    HW2 2583   2.754   0.312   1.532  1.3106 -1.0362 -0.5065
  562SOL     OW 2584   5.921   4.506   5.639 -0.1066 -0.2620 -0.3998
  562SOL    HW1 2585   6.011   4.480   5.675  0.4882  1.1522 -0.7889
  562SOL    HW2 2586   5.913   4.475   5.545  1.1273  1.9553 -1.3098
  563SOL     OW 2587   0.597   1.499   2.182 -0.3830  0.1185 -0.2479
  563SOL    HW1 2588   0.545   1.563   2.125 -0.9477  0.3041  0.4591
  563SOL    HW2 2589   0.630   1.546   2.264  1.4679  0.1694 -0.9791
  564SOL     OW 2590   1.563   3.607   3.620  0.2117  0.4761 -0.2233
  564SOL    HW1 2591   1.575   3.524   3.676  0.0552 -0.0426 -0.9373
  564SOL    HW2 2592   1.611   3.596   3.534 -0.1478  0.9678 -0.4911
  565SOL     OW 2593   4.348   3.041   1.281  0.3088 -0.8482  0.5082
  565SOL    HW1 2594   4.271   3.069   1.338 -0.7308 -1.2610 -0.6450
  565SOL    HW2 2595   4.329   3.062   1.185  0.9967 -2.2633  0.0207
  566SOL     OW 2596   6.953   5.068   6.654 -0.1308  0.2028  0.2087
  566SOL    HW1 2597   6.854   5.053   6.653 -0.1748  0.4680  0.2395
  566SOL    HW2 2598   6.971   5.167   6.649  0.1305  0.1573  0.2348
  567SOL     OW 2599   0.808   5.929   3.124  0.2125 -0.1942  0.0960
  567SOL    HW1 2600   0.802   6.029   3.130 -0.3664 -0.0316 -2.2717
  567SOL    HW2 2601   0.891   5.903   3.076  1.3985 -1.0114  2.4180
  568SOL     OW 2602   1.513   1.730   0.793  0.0531 -0.1477  0.0622
  568SOL    HW1 2603   1.600   1.739   0.842  0.2941 -2.1100  0.0821
  568SOL    HW2 2604   1.449   1.798   0.827  1.2730  0.7107  0.7281
  569SOL     OW 2605   0.428   0.904   1.764 -0.7005  0.0633  0.3956
  569SOL    HW1 2606   0.330   0.897   1.777 -0.5853 -1.5225  0.6044
  569SOL    HW2 2607   0.473   0.825   1.805  0.4503 -0.4539 -1.7012
  570SOL     OW 2608   3.854   4.985   5.251 -0.0331  0.5338  0.2851
  570SOL    HW1 2609   3.886   5.065   5.301  1.5710  0.4836 -0.5918
  570SOL    HW2 2610   3.874   4.903   5.305 -1.5025  0.6754  1.0964
  571SOL     OW 2611   4.131   1.200   4.084  0.4541  0.1590  0.3177
  571SOL    HW1 2612   4.068   1.153   4.022  0.7839 -0.4322  0.4248
  571SOL    HW2 2613   4.168   1.282   4.040  1.0751 -0.5275 -0.4558
  572SOL     OW 2614   1.881   0.714   3.835 -0.4513 -0.0002  0.1122
  572SOL    HW1 2615   1.784   0.697   3.848 -0.9320  1.6523 -0.9563
  572SOL    HW2 2616   1.914   0.774   3.909 -0.5988  0.5804 -0.2842
  573SOL     OW 2617   2.834   1.424   1.789  0.3420 -0.0907  0.1532
  573SOL    HW1 2618   2.813   1.437   1.692 -0.3719 -0.0775  0.3018
  573SOL    HW2 2619   2.867   1.331   1.804 -0.2668 -0.3318  0.0136
  574SOL     OW 2620   5.400   5.422   3.553 -0.0447  0.4034 -0.9277
  574SOL    HW1 2621   5.498   5.420   3.532 -0.4120  0.3574 -2.7573
  574SOL    HW2 2622   5.363   5.329   3.543 -0.4328  0.5716 -1.0427
  575SOL     OW 2623   6.019   7.004   5.864  0.6670  0.6894 -0.4803
  575SOL    HW1 2624   6.058   7.004   5.772  2.4554  0.8665  0.2291
  575SOL    HW2 2625   6.088   6.973   5.929 -1.0798 -1.1208  0.6314
  576SOL     OW 2626   0.736   2.982   1.652  0.4895  0.2646  0.0390
  576SOL    HW1 2627   0.781   3.070   1.663  0.6432 -0.1619  5.3025
  576SOL    HW2 2628   0.641   2.989   1.682  0.5420 -1.3429  0.6761
  577SOL     OW 2629   4.158   5.099   5.410  0.2966 -0.1255  0.1297
  577SOL    HW1 2630   4.163   5.152   5.325 -1.8591 -0.5188 -0.2976
  577SOL    HW2 2631   4.198   5.009   5.395 -0.5516 -0.3906 -0.6672
  578SOL     OW 2632   4.222   0.909   2.188 -0.0750  0.6043  0.2079
  578SOL    HW1 2633   4.150   0.932   2.253 -1.4467  2.3692 -1.8116
  578SOL    HW2 2634   4.252   0.814   2.203 -0.9015  0.6877  2.7966
  579SOL     OW 2635   6.059   3.561   3.181  0.0047 -0.1095  0.1200
  579SOL    HW1 2636   6.090   3.475   3.222 -0.8437 -1.0164 -1.0854
  579SOL    HW2 2637   5.960   3.559   3.169  0.0839  0.6422 -0.8226
  580SOL     OW 2638   5.999   3.725   3.739  0.1049 -0.0890 -0.1568
  580SOL    HW1 2639   5.966   3.660   3.671  0.9861  0.1850 -0.8748
  580SOL    HW2 2640   5.950   3.812   3.730 -1.5168 -0.8236  1.2212
  581SOL     OW 2641   1.250   2.526   5.688  0.1845 -0.1712 -0.8961
  581SOL    HW1 2642   1.255   2.515   5.787  2.0374 -0.5437 -0.9913
  581SOL    HW2 2643   1.337   2.563   5.654  0.2334 -1.6796 -2.5654
  582SOL     OW 2644   0.934   0.428   0.149 -0.1595  0.3419 -0.1507
  582SOL    HW1 2645   0.900   0.496   0.213  1.1199 -0.6011  1.6094
  582SOL    HW2 2646   1.034   0.421   0.158 -0.1817 -1.2233 -0.8245
  583SOL     OW 2647   1.535   4.979   3.393 -0.0508  0.6120 -0.2920
  583SOL    HW1 2648   1.613   5.038   3.371  2.3087 -2.0264  0.4643
  583SOL    HW2 2649   1.530   4.904   3.328 -0.5151 -0.5076  0.9813
  584SOL     OW 2650   4.987   5.004   3.628  0.2252  0.3109 -0.2058
  584SOL    HW1 2651   5.042   5.045   3.555  0.6802 -1.7171 -1.0790
  584SOL    HW2 2652   5.046   4.953   3.690 -0.2596  1.3831  1.1819
  585SOL     OW 2653   5.559   1.996   1.395 -0.5005 -0.2187  0.7322
  585SOL    HW1 2654   5.572   2.003   1.296  0.3975  0.6124  0.9029
  585SOL    HW2 2655   5.556   2.087   1.435 -1.4827 -0.5281  1.4073
  586SOL     OW 2656   0.540   6.126   0.042  0.6449  0.3509 -0.1516
  586SOL    HW1 2657   0.514   6.039   0.083 -0.0295  1.4376  1.8487
  586SOL    HW2 2658   0.640   6.129   0.030  0.7918 -0.2319  0.8494
  587SOL     OW 2659   4.942   6.607   6.897  0.2638 -0.1769 -0.2215
  587SOL    HW1 2660   4.994   6.664   6.833 -1.8274  0.0981 -1.7899
  587SOL    HW2 2661   4.911   6.664   6.973  0.6645  0.0870 -0.2511
  588SOL     OW 2662   1.744   4.280   1.435 -0.0903  0.2938 -0.2033
  588SOL    HW1 2663   1.842   4.298   1.435 -0.0531  0.1081  0.1573
  588SOL    HW2 2664   1.727   4.188   1.400 -0.1393  0.3428 -0.3086
  589SOL     OW 2665   4.628   1.937   6.718  0.1994 -0.0849  0.5505
  589SOL    HW1 2666   4.537   1.900   6.735 -0.3006  1.0978  0.5246
  589SOL    HW2 2667   4.653   2.000   6.792  1.5079 -1.2858  1.1888
  590SOL     OW 2668   4.831   6.894   1.153  0.5742  0.4410  0.1505
  590SOL    HW1 2669   4.807   6.935   1.241  1.0468  2.2680 -0.5192
  590SOL    HW2 2670   4.931   6.895   1.142  0.6322 -1.3336  0.2835
  591SOL     OW 2671   5.478   1.820   0.607  0.1414 -0.0515  0.1093
  591SOL    HW1 2672   5.578   1.825   0.599  0.0317  1.5976 -0.7365
  591SOL    HW2 2673   5.448   1.726   0.593  1.5240 -0.4340 -0.4505
  592SOL     OW 2674   5.273   6.442   5.835 -0.3616  0.1852 -0.1223
  592SOL    HW1 2675   5.331   6.522   5.853  0.6591 -0.8235  1.2063
  592SOL    HW2 2676   5.323   6.376   5.779  0.2936 -1.2009  1.9711
  593SOL     OW 2677   5.334   2.658   0.590  0.3824 -0.0644  0.0330
  593SOL    HW1 2678   5.348   2.592   0.516 -0.0407  0.0752 -0.1744
  593SOL    HW2 2679   5.277   2.733   0.556 -0.9234 -0.6462  0.8673
  594SOL     OW 2680   4.531   0.858   5.795 -0.0265 -0.4569  0.5249
  594SOL    HW1 2681   4.534   0.830   5.891 -0.5886 -1.6402  0.2249
  594SOL    HW2 2682   4.485   0.787   5.742  0.0458  0.3035 -0.5825
  595SOL     OW 2683   2.333   0.150   2.718  0.3437  0.0686  0.8147
  595SOL    HW1 2684   2.424   0.180   2.690  0.5105 -0.6675  0.5521
  595SOL    HW2 2685   2.278   0.230   2.744  0.3965  0.7479 -1.0029
  596SOL     OW 2686   1.187   0.489   3.842 -0.4908 -0.4799  0.2803
  596SOL    HW1 2687   1.151   0.489   3.936 -0.3657 -1.0861  0.3303
  596SOL    HW2 2688   1.257   0.418   3.833 -0.4007 -0.3274 -0.2346
  597SOL     OW 2689   5.496   6.660   5.834  0.0636  0.1999 -0.4943
  597SOL    HW1 2690   5.552   6.579   5.853  1.7695  1.3779 -0.3263
  597SOL    HW2 2691   5.555   6.739   5.818 -1.4725  0.9772 -2.9267
  598SOL     OW 2692   4.572   0.440   2.500 -0.6699 -0.6939  0.5743
  598SOL    HW1 2693   4.601   0.435   2.404 -1.5312  0.0193  0.2621
  598SOL    HW2 2694   4.503   0.371   2.517 -0.2371 -1.0782  0.7913
  599SOL     OW 2695   6.615   5.886   2.629  0.3720  0.1496 -1.0907
  599SOL    HW1 2696   6.576   5.953   2.565 -0.3736  1.5290  0.6954
  599SOL    HW2 2697   6.700   5.922   2.667 -1.7088  1.8913  2.4689
  600SOL     OW 2698   2.785   4.457   0.191 -0.2460  0.3093  0.4919
  600SOL    HW1 2699   2.768   4.370   0.147  0.9173  1.0412 -1.5229
  600SOL    HW2 2700   2.698   4.500   0.216 -0.8612 -0.8044  0.3112
  601SOL     OW 2701   5.141   6.855   3.897 -0.6091  0.0656 -0.0060
  601SOL    HW1 2702   5.161   6.948   3.926 -0.5645 -0.2333  0.9636
  601SOL    HW2 2703   5.061   6.820   3.947  0.8639 -1.2765  1.5544
  602SOL     OW 2704   5.943   1.530   5.576 -0.3607  0.2346 -0.0537
  602SOL    HW1 2705   5.849   1.516   5.545 -0.6345  0.9214  0.4347
  602SOL    HW2 2706   5.984   1.442   5.600 -1.2244  0.0248  0.7054
  603SOL     OW 2707   4.857   3.285   4.626 -0.5592 -0.0546 -0.0711
  603SOL    HW1 2708   4.774   3.342   4.627 -0.7115 -0.2556  1.3342
  603SOL    HW2 2709   4.851   3.217   4.699  1.2245  0.4948  0.6426
  604SOL     OW 2710   6.462   5.490   5.907  0.2030  0.4719 -0.1662
  604SOL    HW1 2711   6.394   5.514   5.976  0.2003 -0.6990  0.2681
  604SOL    HW2 2712   6.469   5.390   5.901  0.1057  0.5490 -1.9739
  605SOL     OW 2713   2.368   0.024   5.340 -0.1383  0.6362 -0.5618
  605SOL    HW1 2714   2.383   0.091   5.267 -1.4040  2.0820  0.4120
  605SOL    HW2 2715   2.273   0.031   5.372  0.2134 -0.3900  0.7940
  606SOL     OW 2716   1.808   1.609   3.536 -0.1412  0.6368 -0.5477
  606SOL    HW1 2717   1.846   1.517   3.535 -2.4618 -0.3959 -0.7548
  606SOL    HW2 2718   1.882   1.676   3.531  1.6753 -1.1681  0.4552
  607SOL     OW 2719   4.436   6.515   5.475 -0.1365  0.2752 -0.5678
  607SOL    HW1 2720   4.431   6.614   5.461 -2.9162  0.2236 -0.4691
  607SOL    HW2 2721   4.453   6.496   5.572 -1.8527  0.7136 -0.1417
  608SOL     OW 2722   3.194   5.646   4.008  0.0739  0.2408  0.3718
  608SOL    HW1 2723   3.168   5.572   4.071 -0.4786  0.4686  0.4204
  608SOL    HW2 2724   3.121   5.660   3.942  0.2420  0.6445  0.2691
  609SOL     OW 2725   2.808   2.217   2.899  0.1617 -0.0691 -0.0391
  609SOL    HW1 2726   2.902   2.197   2.872 -0.1139 -2.3549  0.4672
  609SOL    HW2 2727   2.744   2.178   2.832 -0.4492  0.8712 -0.0259
  610SOL     OW 2728   2.566   3.234   0.470  0.9412  0.6260 -0.0938
  610SOL    HW1 2729   2.599   3.190   0.554  1.8917  0.2352 -0.6534
  610SOL    HW2 2730   2.634   3.301   0.439  0.7457  0.5483 -0.7104
  611SOL     OW 2731   6.482   4.123   6.780  0.0666  0.0659 -0.1180
  611SOL    HW1 2732   6.533   4.166   6.855  1.3899 -1.4085 -0.0969
  611SOL    HW2 2733   6.516   4.029   6.768 -3.2072 -1.3236  0.4192
  612SOL     OW 2734   1.593   5.671   4.350 -0.0664  0.6855 -0.3269
  612SOL    HW1 2735   1.624   5.587   4.396 -2.0645  0.6315  1.0934
  612SOL    HW2 2736   1.504   5.654   4.308  1.2464  1.0326 -3.5299
  613SOL     OW 2737   1.757   5.409   1.909  0.3376  0.3728 -0.2621
  613SOL    HW1 2738   1.672   5.378   1.866 -0.1686  2.3783 -0.8155
  613SOL    HW2 2739   1.774   5.354   1.991 -2.2702  0.7696  0.6604
  614SOL     OW 2740   5.561   5.091   2.537 -0.2077  0.0492  0.3022
  614SOL    HW1 2741   5.553   5.053   2.445  1.8121  1.2718 -0.4398
  614SOL    HW2 2742   5.478   5.072   2.588 -2.1929  0.9441 -2.3771
  615SOL     OW 2743   0.670   4.010   1.605  0.6284 -0.4283  0.0011
  615SOL    HW1 2744   0.576   3.976   1.607 -0.6427  2.4806 -2.3061
  615SOL    HW2 2745   0.688   4.062   1.689  0.7665 -2.1888  1.1160
  616SOL     OW 2746   5.760   6.951   3.813 -0.5370  0.0527  0.1437
  616SOL    HW1 2747   5.670   6.934   3.854 -0.8551  0.3467 -0.4114
  616SOL    HW2 2748   5.750   7.019   3.741  0.1310  0.0521  0.0517
  617SOL     OW 2749   2.287   1.388   1.576 -0.1765  0.2594  0.3381
  617SOL    HW1 2750   2.294   1.425   1.483 -0.7300  0.5995  0.4266
  617SOL    HW2 2751   2.279   1.463   1.641  2.2346  0.1177  0.8770
  618SOL     OW 2752   2.344   2.160   1.094 -0.0811  0.2502  0.4459
  618SOL    HW1 2753   2.357   2.075   1.043 -0.6194 -0.0170  0.7458
  618SOL    HW2 2754   2.433   2.198   1.119  0.3495  1.6472 -2.7164
  619SOL     OW 2755   0.410   5.241   4.550 -0.4747 -0.3758 -0.3887
  619SOL    HW1 2756   0.419   5.144   4.527 -0.9171 -0.4073 -0.4336
  619SOL    HW2 2757   0.314   5.262   4.570 -0.4841  0.1877 -0.9898
  620SOL     OW 2758   6.383   1.807   2.573 -0.4799  0.2584 -0.5205
  620SOL    HW1 2759   6.467   1.857   2.552 -0.1162 -0.6769 -1.3722
  620SOL    HW2 2760   6.406   1.717   2.609 -1.1213  0.1102 -0.4658
  621SOL     OW 2761   0.506   5.408   2.531 -0.3746  0.6653  0.2560
  621SOL    HW1 2762   0.558   5.387   2.614 -1.5217  1.0578  1.0921
  621SOL    HW2 2763   0.570   5.433   2.457  0.6064  2.1012  1.5219
  622SOL     OW 2764   1.003   5.749   0.105 -0.1156 -0.1860  0.3113
  622SOL    HW1 2765   0.994   5.829   0.164 -0.3648 -0.1339  0.2037
  622SOL    HW2 2766   0.977   5.774   0.012 -1.7259 -0.7813  0.5736
  623SOL     OW 2767   3.600   1.523   6.653 -0.4039  0.1930 -0.1376
  623SOL    HW1 2768   3.516   1.553   6.607 -0.1921 -0.3420 -0.8957
  623SOL    HW2 2769   3.676   1.525   6.588 -0.2834 -1.4937 -0.0941
  624SOL     OW 2770   0.251   1.888   2.908 -0.6980 -0.2158  0.1403
  624SOL    HW1 2771   0.327   1.859   2.849 -0.0352  1.1702  0.2783
  624SOL    HW2 2772   0.198   1.808   2.934 -0.2088 -1.0349 -1.2341
  625SOL     OW 2773   6.343   1.840   5.926 -0.1353 -0.5031  0.5667
  625SOL    HW1 2774   6.298   1.764   5.880  0.5079  0.1259 -1.2068
  625SOL    HW2 2775   6.437   1.848   5.892 -0.6237  1.9272 -0.3963
  626SOL     OW 2776   3.807   5.391   1.149 -0.2769  0.1239  0.4035
  626SOL    HW1 2777   3.882   5.330   1.122 -0.9342 -0.1261 -0.9151
  626SOL    HW2 2778   3.755   5.347   1.222  0.6391  0.1456  1.0928
  627SOL     OW 2779   2.922   5.640   2.444  0.3479 -0.5324 -0.7164
  627SOL    HW1 2780   2.923   5.587   2.529 -0.3215  1.6601  0.7547
  627SOL    HW2 2781   3.012   5.680   2.430  0.6870 -1.5344 -1.5142
  628SOL     OW 2782   3.378   4.886   2.551 -0.3790 -0.1696 -0.1845
  628SOL    HW1 2783   3.471   4.915   2.526 -0.2555 -0.1907  0.2421
  628SOL    HW2 2784   3.313   4.923   2.484 -0.0304 -0.4324 -0.6760
  629SOL     OW 2785   2.121   6.072   3.373  0.3344  0.1678 -0.2578
  629SOL    HW1 2786   2.098   6.158   3.418  1.4955  0.3250  0.0925
  629SOL    HW2 2787   2.220   6.057   3.380 -0.1029 -2.6132  2.2681
  630SOL     OW 2788   6.569   2.117   0.736  0.1310  0.2850 -0.2325
  630SOL    HW1 2789   6.594   2.034   0.786  1.4072  0.5402 -0.4229
  630SOL    HW2 2790   6.544   2.188   0.801 -0.3691 -0.0448 -0.0509
  631SOL     OW 2791   4.793   1.477   3.826  0.5940 -0.4556 -0.3204
  631SOL    HW1 2792   4.742   1.409   3.880 -1.3961  0.6693 -0.6662
  631SOL    HW2 2793   4.747   1.490   3.738  1.8852  0.1770 -0.9173
  632SOL     OW 2794   4.596   6.261   3.245 -0.1701  0.3707 -0.7543
  632SOL    HW1 2795   4.524   6.283   3.310 -0.3627  0.5225 -1.0182
  632SOL    HW2 2796   4.653   6.342   3.229 -0.8449  0.6711 -1.6815
  633SOL     OW 2797   6.355   6.804   1.663 -0.1796 -0.4433  0.4720
  633SOL    HW1 2798   6.379   6.716   1.704  0.9260  0.3940  1.7166
  633SOL    HW2 2799   6.270   6.795   1.611 -0.4357 -2.0802  1.1249
  634SOL     OW 2800   0.034   2.585   4.863 -0.1927 -0.1713  0.3384
  634SOL    HW1 2801   0.030   2.487   4.844 -0.1840 -0.4126  1.4897
  634SOL    HW2 2802  -0.059   2.620   4.876 -0.1347 -0.3004  1.1654
  635SOL     OW 2803   1.461   5.588   4.994 -0.3596 -0.0567 -0.3561
  635SOL    HW1 2804   1.445   5.548   5.084 -1.1296  1.4450  0.2102
  635SOL    HW2 2805   1.388   5.561   4.932 -1.7503  1.6036  0.4503
  636SOL     OW 2806   1.318   4.462   5.627  0.4591  0.0347  0.1210
  636SOL    HW1 2807   1.288   4.390   5.565 -0.9545  0.2404  0.5254
  636SOL    HW2 2808   1.358   4.537   5.575 -0.5531  0.1320 -0.5441
  637SOL     OW 2809   2.333   3.827   0.594  0.2877 -0.6103  0.1079
  637SOL    HW1 2810   2.416   3.789   0.554  0.9811  0.2909  0.6785
  637SOL    HW2 2811   2.262   3.834   0.523  1.9804  2.4820 -1.4834
  638SOL     OW 2812   0.680   1.849   0.828 -0.0657 -0.0444 -0.7759
  638SOL    HW1 2813   0.763   1.904   0.843 -0.5995  0.9083 -1.1976
  638SOL    HW2 2814   0.608   1.881   0.890  0.3710 -2.0221  0.8305
  639SOL     OW 2815   1.617   5.441   3.023 -0.0561  0.0114  0.4332
  639SOL    HW1 2816   1.518   5.442   3.039  0.0810 -0.3906  1.4142
  639SOL    HW2 2817   1.636   5.415   2.929 -0.8376 -2.3152  0.8523
  640SOL     OW 2818   2.254   3.848   1.851 -0.3377  0.1130 -0.0577
  640SOL    HW1 2819   2.177   3.806   1.804  1.3615 -1.8252 -1.2663
  640SOL    HW2 2820   2.257   3.815   1.946 -1.1723  0.4961  0.1117
  641SOL     OW 2821   5.114   4.308   3.120  0.5863 -0.3780 -0.0665
  641SOL    HW1 2822   5.089   4.218   3.085  0.2867 -0.7408  1.0300
  641SOL    HW2 2823   5.031   4.358   3.146  0.7570  0.1808 -0.5514
  642SOL     OW 2824   2.597   0.169   0.325 -0.6712 -0.0980  0.3978
  642SOL    HW1 2825   2.670   0.130   0.269 -0.5315 -1.9382  1.7408
  642SOL    HW2 2826   2.585   0.266   0.303  1.5148  0.0164 -0.5123
  643SOL     OW 2827   1.724   5.947   1.552 -0.2110  0.4033 -0.8039
  643SOL    HW1 2828   1.630   5.919   1.573  0.5123 -2.3766 -0.9523
  643SOL    HW2 2829   1.734   5.960   1.454 -0.0102 -1.2410 -1.0255
  644SOL     OW 2830   5.334   4.254   5.282  0.2639 -0.1289  0.2726
  644SOL    HW1 2831   5.279   4.308   5.346 -0.9591  1.3373 -1.8731
  644SOL    HW2 2832   5.323   4.156   5.302 -2.5976  0.1406  0.3984
  645SOL     OW 2833   4.583   4.421   3.516 -0.6089  0.4497 -0.1288
  645SOL    HW1 2834   4.660   4.359   3.527 -1.1306 -0.8286 -2.7226
  645SOL    HW2 2835   4.613   4.515   3.529  0.6262 -0.1830  2.0507
  646SOL     OW 2836   6.832   0.054   0.914 -0.1835 -0.5493  0.1812
  646SOL    HW1 2837   6.854   0.065   0.817 -2.0562 -0.0205 -0.2293
  646SOL    HW2 2838   6.773  -0.025   0.926 -0.1470 -0.4813  0.8585
  647SOL     OW 2839   0.238   2.570   6.308  0.3959  0.0903 -0.0790
  647SOL    HW1 2840   0.290   2.488   6.332  0.7917 -0.3624 -2.2765
  647SOL    HW2 2841   0.297   2.650   6.315 -0.3948  0.5484  3.6380
  648SOL     OW 2842   6.790   2.865   5.047 -0.5870 -0.4747  0.1284
  648SOL    HW1 2843   6.880   2.902   5.023 -1.7407  1.9121 -0.8477
  648SOL    HW2 2844   6.773   2.782   4.994 -0.0665  0.6033 -1.8183
  649SOL     OW 2845   6.441   3.173   1.832  0.7174 -0.4916 -0.3361
  649SOL    HW1 2846   6.466   3.246   1.768 -2.4740  0.6883 -0.4122
  649SOL    HW2 2847   6.359   3.127   1.800  2.4260 -4.0420 -0.1017
  650SOL     OW 2848   1.991   2.813   3.190 -0.1312 -0.3770  0.5482
  650SOL    HW1 2849   1.907   2.787   3.238 -0.3860 -1.6240 -0.5359
  650SOL    HW2 2850   2.040   2.881   3.245 -0.6341 -1.4112  2.3689
  651SOL     OW 2851   4.758   2.813   1.051  0.8155 -0.3142  0.6556
  651SOL    HW1 2852   4.762   2.866   1.136 -0.2832 -0.0186  0.5321
  651SOL    HW2 2853   4.676   2.838   1.000  1.3099 -0.7079 -0.3600
  652SOL     OW 2854   1.797   0.040   1.760  0.1194  0.3726  0.2351
  652SOL    HW1 2855   1.811   0.021   1.663 -1.9178 -2.7857  0.4162
  652SOL    HW2 2856   1.875   0.005   1.812  0.8173  1.2893 -0.1844
  653SOL     OW 2857   5.245   5.564   0.986 -0.3844  0.5047 -0.1996
  653SOL    HW1 2858   5.174   5.612   0.934 -0.6754  1.8774  1.3954
  653SOL    HW2 2859   5.257   5.608   1.075  2.0560 -0.0625 -0.1735
  654SOL     OW 2860   3.589   4.179   4.721  0.4220 -0.3239  0.0490
  654SOL    HW1 2861   3.658   4.107   4.730  0.7287  0.1089  1.4745
  654SOL    HW2 2862   3.558   4.184   4.626  0.1214 -2.5732 -0.0262
  655SOL     OW 2863   3.507   0.742   2.981 -0.2153  0.0712  0.1811
  655SOL    HW1 2864   3.491   0.645   2.999 -2.1857 -0.0003 -1.6066
  655SOL    HW2 2865   3.463   0.796   3.053  0.1656 -0.3293  0.7256
  656SOL     OW 2866   4.116   5.215   5.160  0.2078 -0.2734 -0.5660
  656SOL    HW1 2867   4.209   5.192   5.130 -0.0201 -1.7304 -0.2138
  656SOL    HW2 2868   4.076   5.281   5.096  0.4962 -1.6957 -2.3108
  657SOL     OW 2869   0.257   2.470   0.715 -0.1717 -0.7298 -0.2395
  657SOL    HW1 2870   0.285   2.507   0.804  0.6591 -1.7413 -0.0725
  657SOL    HW2 2871   0.337   2.455   0.658 -0.8050  1.5997 -1.8887
  658SOL     OW 2872   3.340   2.883   2.163 -0.2483 -0.4882 -0.2745
  658SOL    HW1 2873   3.407   2.930   2.105  0.0534 -1.3578 -0.6517
  658SOL    HW2 2874   3.287   2.819   2.108 -1.3241  0.1130  0.0503
  659SOL     OW 2875   4.362   3.108   0.993  0.3875 -0.3510 -0.1084
  659SOL    HW1 2876   4.412   3.184   0.951  0.3566 -0.6401 -0.6726
  659SOL    HW2 2877   4.266   3.111   0.965  0.6525 -1.3507 -1.2054
  660SOL     OW 2878   1.397   2.395   1.425 -0.5212 -0.3144  0.2953
  660SOL    HW1 2879   1.387   2.402   1.524  0.7350 -1.4094  0.5169
  660SOL    HW2 2880   1.323   2.338   1.388 -0.5495 -0.5349  0.6884
  661SOL     OW 2881   4.546   6.424   6.951  0.2723  0.7386 -0.3184
  661SOL    HW1 2882   4.588   6.399   6.864 -0.4195 -2.4426  0.1490
  661SOL    HW2 2883   4.450   6.395   6.952  0.2080  0.8951  1.3935
  662SOL     OW 2884   6.133   1.236   4.194  0.3926 -0.2523  0.1668
  662SOL    HW1 2885   6.128   1.256   4.292 -2.0197 -0.2301  0.1001
  662SOL    HW2 2886   6.042   1.208   4.161  1.4061 -1.4074 -1.8367
  663SOL     OW 2887   4.935   6.779   4.071  0.6882 -0.3457 -0.2253
  663SOL    HW1 2888   4.961   6.774   4.167 -0.7584  0.6530  0.2544
  663SOL    HW2 2889   4.860   6.844   4.060  1.0997 -0.1271 -2.0981
  664SOL     OW 2890   1.506   6.132   6.812  0.1319  0.2676 -0.6887
  664SOL    HW1 2891   1.591   6.179   6.790 -0.2150 -0.1913 -3.2962
  664SOL    HW2 2892   1.432   6.171   6.757 -1.3381  0.4538  1.2913
  665SOL     OW 2893   0.417   1.535   3.374  0.1028  0.5027  0.1615
  665SOL    HW1 2894   0.499   1.485   3.346 -0.3150 -0.5225  0.7341
  665SOL    HW2 2895   0.376   1.491   3.453 -0.4034  1.6439  0.5603
  666SOL     OW 2896   6.999   4.287   4.487  0.2722  0.0658  0.0394
  666SOL    HW1 2897   7.079   4.339   4.516  0.4203  1.2634 -2.2493
  666SOL    HW2 2898   7.025   4.192   4.473  1.0108  0.2060  0.4075
  667SOL     OW 2899   6.014   5.442   4.299 -0.0128  0.0919  0.2942
  667SOL    HW1 2900   6.085   5.461   4.367  1.0726 -1.1902 -0.4109
  667SOL    HW2 2901   6.024   5.348   4.267 -2.6129 -0.4030  0.7871
  668SOL     OW 2902   4.551   6.028   1.476  0.0034 -0.7860 -0.3768
  668SOL    HW1 2903   4.634   6.039   1.421 -0.5607 -2.6810 -1.7087
  668SOL    HW2 2904   4.572   5.973   1.557  0.2436 -0.4351 -0.1998
  669SOL     OW 2905   1.368   2.690   3.674 -0.1929 -0.1156 -0.5378
  669SOL    HW1 2906   1.417   2.772   3.704 -2.5458  0.1879  3.1276
  669SOL    HW2 2907   1.290   2.716   3.617 -2.3404  0.6470  2.5225
  670SOL     OW 2908   3.424   0.079   1.761 -0.5313 -0.0117 -0.3100
  670SOL    HW1 2909   3.356   0.078   1.835 -2.0157  1.8454 -1.5614
  670SOL    HW2 2910   3.419  -0.006   1.710 -0.7047 -0.5980  0.6519
  671SOL     OW 2911   4.321   1.876   2.003  0.5917 -0.2058 -0.2456
  671SOL    HW1 2912   4.365   1.936   1.936 -1.3475  1.0034 -0.5229
  671SOL    HW2 2913   4.252   1.928   2.053  1.4192 -1.3047  2.1515
  672SOL     OW 2914   4.342   6.462   3.007 -0.5373  0.3241  0.2542
  672SOL    HW1 2915   4.437   6.484   3.030 -0.8127  0.1978  1.5924
  672SOL    HW2 2916   4.313   6.517   2.928  0.5212  0.6321  0.0633
  673SOL     OW 2917   2.572   3.178   6.361  0.1055 -0.2054 -0.3971
  673SOL    HW1 2918   2.530   3.094   6.394 -0.2989  0.0930 -0.1339
  673SOL    HW2 2919   2.671   3.167   6.357  0.2143 -0.0813  1.4219
  674SOL     OW 2920   0.149   3.634   5.964 -0.3751 -0.2257 -0.6350
  674SOL    HW1 2921   0.180   3.712   6.019 -0.3836 -0.9887  0.4875
  674SOL    HW2 2922   0.175   3.648   5.869 -0.9108  1.4368 -0.5783
  675SOL     OW 2923   2.657   4.815   3.927 -0.4550  0.0798 -0.4547
  675SOL    HW1 2924   2.687   4.828   4.021 -2.6973  0.8376  0.2149
  675SOL    HW2 2925   2.737   4.816   3.866  1.0196 -0.2657  1.3795
  676SOL     OW 2926   6.850   2.449   4.246 -0.2551 -0.0733  0.1331
  676SOL    HW1 2927   6.950   2.458   4.247 -0.3478  1.3884 -0.9055
  676SOL    HW2 2928   6.825   2.372   4.187  0.2348  0.3521 -0.6576
  677SOL     OW 2929   4.491   6.115   2.773 -0.3168  0.0040  0.0540
  677SOL    HW1 2930   4.449   6.121   2.864  3.2543  1.2104  1.8153
  677SOL    HW2 2931   4.502   6.206   2.735  0.7407 -0.2535 -0.2897
  678SOL     OW 2932   5.822   4.047   0.076 -0.1874 -0.2353  0.1180
  678SOL    HW1 2933   5.843   4.129   0.129 -0.3547  0.3576 -0.7208
  678SOL    HW2 2934   5.766   4.071  -0.003 -2.8637 -1.5431  1.4656
  679SOL     OW 2935   0.026   3.842   6.933 -0.1493  0.3145  0.0897
  679SOL    HW1 2936  -0.011   3.935   6.931  1.1112  0.8896  1.5062
  679SOL    HW2 2937  -0.048   3.776   6.941 -1.2122  1.0258 -2.5904
  680SOL     OW 2938   0.339   0.860   5.954  0.6126 -0.4413  0.2126
  680SOL    HW1 2939   0.314   0.951   5.922 -0.3920 -0.7605  0.0558
  680SOL    HW2 2940   0.283   0.792   5.908 -0.0559 -0.9933  1.7575
  681SOL     OW 2941   6.181   2.772   0.919  0.0625 -0.5677  0.3776
  681SOL    HW1 2942   6.163   2.709   0.844  0.4662 -1.7758  1.2628
  681SOL    HW2 2943   6.096   2.816   0.947  0.0379  0.5147 -1.2968
  682SOL     OW 2944   1.043   6.755   3.845  0.3277 -0.0430 -0.5455
  682SOL    HW1 2945   1.046   6.704   3.931 -3.1493 -0.1341 -0.3396
  682SOL    HW2 2946   1.060   6.852   3.863 -0.4361 -0.0537  0.2953
  683SOL     OW 2947   1.540   5.305   1.777  0.2065  0.1176 -0.0048
  683SOL    HW1 2948   1.506   5.295   1.684 -1.0601 -1.2626  0.5778
  683SOL    HW2 2949   1.471   5.350   1.834  0.4253 -0.2742  0.5809
  684SOL     OW 2950   3.111   1.436   5.234  0.7731 -0.2820 -0.0230
  684SOL    HW1 2951   3.038   1.444   5.166 -1.1219  1.5861  2.0324
  684SOL    HW2 2952   3.098   1.352   5.287  0.1972 -0.0512  0.2103
  685SOL     OW 2953   5.848   4.136   2.214  0.1735  0.0681  0.2793
  685SOL    HW1 2954   5.796   4.173   2.292  0.0161  1.4267 -0.4473
  685SOL    HW2 2955   5.850   4.204   2.140 -0.0541 -1.3563 -1.0844
  686SOL     OW 2956   1.466   1.142   1.276  0.3608  0.5691 -0.4916
  686SOL    HW1 2957   1.453   1.210   1.349 -1.0048 -1.3462  1.1614
  686SOL    HW2 2958   1.377   1.104   1.250  1.1506 -1.1006 -0.8491
  687SOL     OW 2959   0.370   1.035   5.674 -0.5717 -0.0883 -0.3472
  687SOL    HW1 2960   0.389   0.982   5.591 -1.3814 -0.1126 -0.5286
  687SOL    HW2 2961   0.401   1.129   5.661 -2.0069  0.2984 -1.2679
  688SOL     OW 2962   6.947   6.704   4.101 -0.3387 -0.3719 -0.3494
  688SOL    HW1 2963   7.024   6.648   4.134 -0.2707 -0.0796 -0.0071
  688SOL    HW2 2964   6.879   6.645   4.057 -0.0362 -0.6632 -0.4282
  689SOL     OW 2965   5.450   6.216   6.631 -0.4502  0.5734 -0.3077
  689SOL    HW1 2966   5.545   6.187   6.640 -0.9086 -1.0604 -0.4693
  689SOL    HW2 2967   5.423   6.267   6.713  0.4445  0.7234 -0.0959
  690SOL     OW 2968   6.569   6.738   0.054 -0.0248 -0.0995  0.4278
  690SOL    HW1 2969   6.478   6.779   0.041  0.9077  2.2644  0.8398
  690SOL    HW2 2970   6.604   6.705  -0.033 -0.6185  0.4230 -0.0159
  691SOL     OW 2971   0.232   2.703   2.202  0.2963 -0.0056 -0.1226
  691SOL    HW1 2972   0.202   2.688   2.296  0.6116  0.7298  0.1032
  691SOL    HW2 2973   0.166   2.663   2.139 -1.7547  2.4349  0.3125
  692SOL     OW 2974   2.135   3.257   0.514 -0.1364  0.2475  0.3534
  692SOL    HW1 2975   2.180   3.198   0.447  1.5852  0.3786  1.3455
  692SOL    HW2 2976   2.180   3.247   0.603 -0.8336  1.8668  0.9236
  693SOL     OW 2977   1.247   6.152   0.818  0.3654 -1.0394 -0.0604
  693SOL    HW1 2978   1.334   6.147   0.768 -0.3483 -0.5169 -1.3954
  693SOL    HW2 2979   1.232   6.246   0.848  0.6453 -1.2931  0.9162
  694SOL     OW 2980   4.869   1.647   0.163  0.4215  0.0857 -0.2395
  694SOL    HW1 2981   4.950   1.629   0.219  1.9918  0.9227 -2.1385
  694SOL    HW2 2982   4.837   1.562   0.121  0.0402 -0.3139  0.8234
  695SOL     OW 2983   0.781   3.202   3.618  0.5828  0.0025 -0.3070
  695SOL    HW1 2984   0.717   3.142   3.667 -1.2975  2.4063  0.4101
  695SOL    HW2 2985   0.732   3.251   3.546  1.6417  1.7493  0.0919
  696SOL     OW 2986   1.640   5.834   5.084  0.4258 -0.4522  0.1756
  696SOL    HW1 2987   1.675   5.845   5.177  0.6141 -0.6072  0.1219
  696SOL    HW2 2988   1.576   5.758   5.081 -0.5765  0.3547  0.4608
  697SOL     OW 2989   4.604   6.567   0.165  0.6062  0.2274 -0.1067
  697SOL    HW1 2990   4.667   6.533   0.234 -0.0929 -0.5700  0.1541
  697SOL    HW2 2991   4.614   6.513   0.081  0.2213  0.0528 -0.0407
  698SOL     OW 2992   1.185   6.698   3.474  0.0955  0.5470  0.4743
  698SOL    HW1 2993   1.125   6.775   3.497  0.1219  1.0209 -0.9437
  698SOL    HW2 2994   1.176   6.627   3.543 -1.5919  0.8938  0.6582
  699SOL     OW 2995   5.546   1.177   1.451 -0.2377 -0.8213 -0.7874
  699SOL    HW1 2996   5.602   1.137   1.379  0.0537 -2.3126  0.2158
  699SOL    HW2 2997   5.576   1.143   1.540 -3.1480 -2.2878 -0.2279
  700SOL     OW 2998   6.334   2.241   5.374 -0.3428  0.0969 -0.1164
  700SOL    HW1 2999   6.434   2.251   5.379 -0.3177  0.4658 -1.0396
  700SOL    HW2 3000   6.296   2.321   5.328 -0.8820 -0.8392 -1.3473
  701SOL     OW 3001   0.853   0.196   5.156 -0.8832  0.0687 -0.5699
  701SOL    HW1 3002   0.853   0.295   5.138 -2.1109  0.2966  0.5744
  701SOL    HW2 3003   0.784   0.174   5.224  1.1041 -1.2575  1.1366
  702SOL     OW 3004   1.529   5.465   5.831  0.2336 -0.1804 -0.6423
  702SOL    HW1 3005   1.511   5.549   5.882  0.0403 -1.1147  0.9232
  702SOL    HW2 3006   1.563   5.395   5.894  0.2032 -1.3397 -1.8631
  703SOL     OW 3007   2.932   1.191   4.020  0.0020 -0.3260 -0.3458
  703SOL    HW1 3008   2.953   1.217   3.926 -1.7739 -0.7649 -0.8910
  703SOL    HW2 3009   2.943   1.270   4.081 -0.0182  0.2659 -1.1061
  704SOL     OW 3010   0.309   3.754   4.340 -0.3649  0.5454  0.2557
  704SOL    HW1 3011   0.329   3.664   4.379  0.7874  1.3423  1.5668
  704SOL    HW2 3012   0.349   3.825   4.397 -2.9257  2.0315  0.3850
  705SOL     OW 3013   3.127   7.005   5.048 -0.2252  0.5366 -0.1382
  705SOL    HW1 3014   3.077   7.042   4.969  0.4255  2.0339  0.1232
  705SOL    HW2 3015   3.215   7.052   5.056  0.8407 -1.3741 -0.0157
  706SOL     OW 3016   4.707   2.220   1.489  0.5185  0.1070  0.4054
  706SOL    HW1 3017   4.782   2.188   1.547  0.0953  0.3225  1.0852
  706SOL    HW2 3018   4.733   2.212   1.393  0.8997 -1.0742  0.6006
  707SOL     OW 3019   6.784   0.592   4.737 -0.7575 -0.3546 -0.5858
  707SOL    HW1 3020   6.718   0.643   4.791 -0.2753  0.1374 -0.4552
  707SOL    HW2 3021   6.748   0.501   4.718 -1.3897 -0.1564 -0.3587
  708SOL     OW 3022   3.361   0.101   6.521  0.1100 -0.1251  0.1531
  708SOL    HW1 3023   3.320   0.135   6.436 -0.5506 -1.8658 -0.2655
  708SOL    HW2 3024   3.457   0.082   6.505  0.2338  0.5070  0.0964
  709SOL     OW 3025   4.082   4.937   5.793 -0.7473  0.2661 -0.1318
  709SOL    HW1 3026   4.013   5.008   5.794 -0.5900  0.4345  1.3586
  709SOL    HW2 3027   4.063   4.871   5.866  0.4982  0.1668  0.1240
  710SOL     OW 3028   0.857   3.291   4.455  0.1241  0.0598  0.2451
  710SOL    HW1 3029   0.938   3.234   4.468 -1.1319 -1.4524  1.9501
  710SOL    HW2 3030   0.799   3.251   4.383 -0.4240 -0.4619  0.9619
  711SOL     OW 3031   0.306   5.969   2.481 -0.5019 -0.7040  0.0008
  711SOL    HW1 3032   0.349   5.881   2.460  2.5196  0.6915 -0.2288
  711SOL    HW2 3033   0.297   6.022   2.396  0.5114  0.3191  0.5065
  712SOL     OW 3034   0.552   6.773   0.766  0.4037  0.0366  0.5823
  712SOL    HW1 3035   0.550   6.786   0.865  1.0654 -0.9590  0.7410
  712SOL    HW2 3036   0.593   6.853   0.723  2.0087 -0.3463  1.3000
  713SOL     OW 3037   0.727   4.725   4.886 -0.0333 -0.0134 -0.5698
  713SOL    HW1 3038   0.766   4.741   4.976 -2.6955  0.7515  0.5580
  713SOL    HW2 3039   0.757   4.797   4.823  1.1771 -0.0779 -0.0721
  714SOL     OW 3040   2.579   4.093   1.420  0.0405 -0.0955  0.2976
  714SOL    HW1 3041   2.486   4.055   1.414  0.1966 -0.5733  0.7981
  714SOL    HW2 3042   2.645   4.019   1.424  0.8041  0.1235 -3.8549
  715SOL     OW 3043   5.596   0.377   0.878  0.1342 -0.3354 -0.0089
  715SOL    HW1 3044   5.628   0.391   0.784  0.6415 -1.1791  0.0256
  715SOL    HW2 3045   5.594   0.279   0.898 -1.1258 -0.2253  0.4698
  716SOL     OW 3046   6.946   2.071   1.468  0.3092 -0.0494  0.1421
  716SOL    HW1 3047   6.996   2.114   1.393  0.4151 -0.0320  0.2220
  716SOL    HW2 3048   6.880   2.136   1.507  1.2966  0.4410  1.0397
  717SOL     OW 3049   5.141   1.028   6.680 -0.1365  0.5087  0.5342
  717SOL    HW1 3050   5.155   1.042   6.778 -0.9501 -0.4624  0.8062
  717SOL    HW2 3051   5.196   0.951   6.649 -0.0829  0.6491  0.2747
  718SOL     OW 3052   2.034   2.188   4.875  0.4372 -0.3138 -0.6777
  718SOL    HW1 3053   1.970   2.264   4.882 -1.6430 -2.0897  1.3170
  718SOL    HW2 3054   2.008   2.129   4.799  1.1209  0.1315 -1.2700
  719SOL     OW 3055   4.380   5.853   4.511 -0.8266 -0.5689 -0.3489
  719SOL    HW1 3056   4.299   5.856   4.453 -0.6173  1.7134 -0.6306
  719SOL    HW2 3057   4.394   5.943   4.553  1.5481 -0.9008 -0.2891
  720SOL     OW 3058   5.910   3.643   4.780  0.3161  0.2480  0.2835
  720SOL    HW1 3059   5.964   3.640   4.865  1.0156  0.8000 -0.1281
  720SOL    HW2 3060   5.890   3.739   4.758  0.3479  0.1171 -0.3103
  721SOL     OW 3061   4.184   3.868   0.949  0.4175 -0.1356  0.4018
  721SOL    HW1 3062   4.177   3.916   0.861  0.5997 -0.9578 -0.0749
  721SOL    HW2 3063   4.270   3.819   0.953  0.7781  0.5486  1.3966
  722SOL     OW 3064   6.442   1.154   1.580 -0.1780 -0.3709 -0.1906
  722SOL    HW1 3065   6.366   1.219   1.582 -0.7708 -1.0470  1.1154
  722SOL    HW2 3066   6.409   1.066   1.546  0.2019 -0.4713 -0.3022
  723SOL     OW 3067   3.194   1.025   3.831  0.2770 -0.3356 -0.3063
  723SOL    HW1 3068   3.220   1.039   3.927 -0.4865  3.2332 -0.4785
  723SOL    HW2 3069   3.274   1.000   3.778  1.1052 -0.4430  0.9527
  724SOL     OW 3070   0.673   3.367   3.400  0.1384  0.4851 -0.2951
  724SOL    HW1 3071   0.590   3.353   3.346 -0.6820  0.3068  0.9635
  724SOL    HW2 3072   0.680   3.463   3.426  0.5413  0.5749 -0.7261
  725SOL     OW 3073   4.146   5.856   3.777 -0.2568 -0.3241  0.4076
  725SOL    HW1 3074   4.083   5.778   3.774 -1.5709  0.6694  1.2640
  725SOL    HW2 3075   4.127   5.916   3.699 -1.1851  0.5646  1.2951
  726SOL     OW 3076   0.212   3.945   3.468  0.3439 -0.2078  0.1021
  726SOL    HW1 3077   0.241   3.858   3.507  0.0476 -0.2212  0.2983
  726SOL    HW2 3078   0.157   3.927   3.386 -1.0839 -0.2766  1.0411
  727SOL     OW 3079   4.571   4.935   5.855 -0.3397 -0.1097 -0.1467
  727SOL    HW1 3080   4.652   4.907   5.803 -1.5071 -2.9137 -0.6183
  727SOL    HW2 3081   4.498   4.960   5.792 -0.8480 -0.7215  0.1902
  728SOL     OW 3082   4.958   0.664   0.525 -0.0003 -0.0558  0.2812
  728SOL    HW1 3083   5.035   0.621   0.572  0.1934 -0.4904 -0.4353
  728SOL    HW2 3084   4.986   0.694   0.434  0.2892  2.8820  1.2284
  729SOL     OW 3085   4.479   2.490   4.104  0.4562  0.1996 -0.2559
  729SOL    HW1 3086   4.425   2.440   4.037  0.3713  1.5429 -1.2141
  729SOL    HW2 3087   4.443   2.471   4.196 -1.0184  0.2844 -0.7894
  730SOL     OW 3088   5.917   1.192   6.711 -0.5922  0.0270 -0.2643
  730SOL    HW1 3089   5.838   1.145   6.674 -0.4311 -0.5786  0.1539
  730SOL    HW2 3090   6.000   1.140   6.692 -0.2090  0.9315 -1.1971
  731SOL     OW 3091   3.457   4.915   6.464 -0.1481 -0.2503 -0.2679
  731SOL    HW1 3092   3.490   5.005   6.437  1.0615 -0.7570 -0.5463
  731SOL    HW2 3093   3.414   4.871   6.385 -0.8237  0.1147 -0.1074
  732SOL     OW 3094   1.156   5.093   4.518  0.3418  0.1840 -0.3338
  732SOL    HW1 3095   1.220   5.168   4.500 -0.6651  1.4218  1.0098
  732SOL    HW2 3096   1.116   5.104   4.609 -1.7078 -0.5982 -1.0732
  733SOL     OW 3097   6.197   3.749   1.505 -0.6334  0.4962  0.4196
  733SOL    HW1 3098   6.157   3.799   1.428 -0.7664  0.4554  0.4621
  733SOL    HW2 3099   6.235   3.662   1.472  0.9782  1.2961  0.0708
  734SOL     OW 3100   1.971   5.288   4.385  0.1548  0.0590 -0.4220
  734SOL    HW1 3101   1.934   5.269   4.295  1.1989 -0.5588 -0.7357
  734SOL    HW2 3102   1.921   5.236   4.454 -0.3428  0.1751 -0.6958
  735SOL     OW 3103   3.725   4.464   1.693 -0.4517  0.0108  0.5468
  735SOL    HW1 3104   3.804   4.524   1.685 -1.6503  1.5864  0.0438
  735SOL    HW2 3105   3.654   4.509   1.746 -2.3511  0.1472 -1.9151
  736SOL     OW 3106   2.030   6.955   2.696  0.3942 -0.0851  0.7698
  736SOL    HW1 3107   1.984   6.991   2.777  0.1906  0.0501  0.5957
  736SOL    HW2 3108   1.966   6.956   2.618  0.7869  0.4149  0.4446
  737SOL     OW 3109   4.319   3.140   1.728 -0.0068  0.1881  1.0589
  737SOL    HW1 3110   4.267   3.172   1.807  0.0571  1.7005  0.5247
  737SOL    HW2 3111   4.415   3.127   1.753  0.0840  1.0084  1.1521
  738SOL     OW 3112   3.489   2.918   4.193  0.2687  0.5579  0.4518
  738SOL    HW1 3113   3.400   2.963   4.200 -0.3861 -0.6823  0.4780
  738SOL    HW2 3114   3.551   2.974   4.139 -1.5343  0.0394 -2.3975
  739SOL     OW 3115   3.282   4.096   6.992  0.1233  0.2594  0.2501
  739SOL    HW1 3116   3.378   4.075   6.973  0.2787  0.4412  0.8276
  739SOL    HW2 3117   3.271   4.118   7.089 -0.7044 -0.9287  0.4448
  740SOL     OW 3118   4.376   6.234   4.160 -0.3991  0.2352 -0.1130
  740SOL    HW1 3119   4.430   6.216   4.242 -0.8703 -0.7807 -0.0105
  740SOL    HW2 3120   4.290   6.183   4.164 -0.8867  0.9819 -0.7713
  741SOL     OW 3121   2.438   0.999   5.709 -0.3010  0.0312  0.1196
  741SOL    HW1 3122   2.391   0.942   5.641 -0.3911  0.9968 -0.6466
  741SOL    HW2 3123   2.371   1.053   5.759 -0.1020  0.6687 -0.2875
  742SOL     OW 3124   5.362   4.283   1.424  0.4155 -0.2323 -0.7324
  742SOL    HW1 3125   5.390   4.280   1.520 -1.2349 -0.4262 -0.2313
  742SOL    HW2 3126   5.306   4.204   1.403 -0.1406  0.3631 -1.5531
  743SOL     OW 3127   1.680   2.668   3.709  0.4512 -0.0196 -0.1672
  743SOL    HW1 3128   1.671   2.612   3.792  0.4738  0.8697  0.4567
  743SOL    HW2 3129   1.660   2.612   3.629 -3.8730  0.0172  0.6445
  744SOL     OW 3130   4.201   4.399   1.313  0.6502  0.1527  0.3482
  744SOL    HW1 3131   4.251   4.485   1.326 -0.2327  0.4706  1.8386
  744SOL    HW2 3132   4.112   4.405   1.358 -0.7819 -0.4058 -2.1841
  745SOL     OW 3133   2.080   0.212   6.390 -0.2223 -0.7500 -0.5726
  745SOL    HW1 3134   2.116   0.150   6.460  1.7840  0.1595 -0.7110
  745SOL    HW2 3135   2.154   0.236   6.327 -1.4130  0.3005 -1.6126
  746SOL     OW 3136   4.327   1.756   3.415 -0.4357 -0.2582 -0.2925
  746SOL    HW1 3137   4.348   1.711   3.329  0.4743  1.1533 -0.8543
  746SOL    HW2 3138   4.411   1.791   3.456 -1.1237  1.4893 -0.2527
  747SOL     OW 3139   6.134   0.645   0.495  0.2756 -0.3315 -0.4163
  747SOL    HW1 3140   6.100   0.637   0.401  1.5422  0.3814 -0.9624
  747SOL    HW2 3141   6.150   0.742   0.516 -2.8305 -0.0930  1.6172
  748SOL     OW 3142   0.607   0.367   6.119  0.2794 -0.2566 -0.3184
  748SOL    HW1 3143   0.637   0.463   6.121  1.0971 -0.5189  0.1761
  748SOL    HW2 3144   0.507   0.364   6.109 -0.1426  0.7320  2.5057
  749SOL     OW 3145   3.567   4.863   5.954 -0.5123 -0.2448 -0.0101
  749SOL    HW1 3146   3.517   4.949   5.955  1.1505  0.8272 -1.7019
  749SOL    HW2 3147   3.583   4.834   5.859 -1.5298 -2.7780  0.4942
  750SOL     OW 3148   3.802   5.367   5.401 -0.4538 -0.3473  0.2521
  750SOL    HW1 3149   3.710   5.328   5.391 -0.2226 -0.9026  0.2657
  750SOL    HW2 3150   3.862   5.300   5.444  0.3208 -0.5257 -1.0531
  751SOL     OW 3151   4.830   2.949   1.296 -0.0638  0.0159 -0.3554
  751SOL    HW1 3152   4.860   2.854   1.290  0.3937  0.0524  1.0369
  751SOL    HW2 3153   4.735   2.952   1.327  0.0252  0.0085 -0.0743
  752SOL     OW 3154   0.366   0.699   1.208  0.6689 -0.4264  0.3441
  752SOL    HW1 3155   0.284   0.742   1.245  1.3440 -1.0906  2.8191
  752SOL    HW2 3156   0.354   0.599   1.209  0.9264 -0.4808 -0.7850
  753SOL     OW 3157   1.079   6.922   6.538 -0.4398 -0.2251  0.0743
  753SOL    HW1 3158   1.144   6.876   6.598 -0.9540  0.8610  1.5089
  753SOL    HW2 3159   0.989   6.924   6.582 -0.4622  2.0474  0.0399
  754SOL     OW 3160   4.129   3.454   4.073  0.3076  0.1302  0.0374
  754SOL    HW1 3161   4.166   3.413   4.157 -1.1875 -0.1790  0.5651
  754SOL    HW2 3162   4.108   3.382   4.007 -1.1772  0.1199  0.4996
  755SOL     OW 3163   0.285   2.929   0.101  0.3854 -0.1613  0.1076
  755SOL    HW1 3164   0.215   2.966   0.162  1.1346  1.3224  0.1087
  755SOL    HW2 3165   0.360   2.995   0.091  1.0870 -1.0803 -1.0772
  756SOL     OW 3166   5.479   3.555   5.414  0.4735  0.1258 -0.9315
  756SOL    HW1 3167   5.575   3.530   5.404  1.0160  1.9880 -0.7695
  756SOL    HW2 3168   5.446   3.526   5.504  1.8613  2.2313  0.3456
  757SOL     OW 3169   4.413   2.027   5.153  0.1976 -0.2066 -0.0761
  757SOL    HW1 3170   4.501   2.040   5.199 -1.2346 -2.4497  3.7428
  757SOL    HW2 3171   4.359   2.111   5.162  1.2525  0.5948 -0.9199
  758SOL     OW 3172   4.218   6.391   1.981  0.1294 -0.5394 -0.3453
  758SOL    HW1 3173   4.164   6.307   1.992  0.6245 -0.7445  0.6177
  758SOL    HW2 3174   4.267   6.388   1.895  0.0742 -1.2058 -0.3587
  759SOL     OW 3175   1.249   1.757   0.235 -0.4238 -0.3429  0.1302
  759SOL    HW1 3176   1.323   1.788   0.175 -2.5868  1.9638 -1.5110
  759SOL    HW2 3177   1.271   1.783   0.330  0.7533  0.4372 -0.3321
  760SOL     OW 3178   1.958   3.631   2.370 -0.2114 -0.1486 -0.6362
  760SOL    HW1 3179   1.878   3.573   2.355  0.1869 -1.6640  2.3604
  760SOL    HW2 3180   1.999   3.655   2.282 -3.8795  0.7104 -2.2908
  761SOL     OW 3181   3.402   0.379   6.223 -0.6906 -0.2033  0.1104
  761SOL    HW1 3182   3.316   0.429   6.238 -0.6952  0.0455 -0.6770
  761SOL    HW2 3183   3.476   0.423   6.274 -0.5933  0.9300 -0.9705
  762SOL     OW 3184   2.106   4.248   3.855 -0.4204 -0.0082 -0.0078
  762SOL    HW1 3185   2.143   4.202   3.775  0.6524  1.2176 -0.2558
  762SOL    HW2 3186   2.180   4.274   3.917 -1.2023 -0.6029  1.2111
  763SOL     OW 3187   3.189   0.137   5.832  0.3643  0.0411 -0.2950
  763SOL    HW1 3188   3.283   0.160   5.805  1.2182 -0.7139  1.8575
  763SOL    HW2 3189   3.168   0.044   5.800  0.3177  0.2226 -0.8082
  764SOL     OW 3190   1.627   6.720   4.807  0.4512  0.3653  0.3558
  764SOL    HW1 3191   1.704   6.672   4.763  0.9632  1.3488  0.1420
  764SOL    HW2 3192   1.566   6.654   4.849  1.0099 -0.4867 -0.1466
  765SOL     OW 3193   1.113   2.417   2.737 -0.2530  0.2639 -0.1074
  765SOL    HW1 3194   1.096   2.377   2.827  0.6999  3.1497  1.4809
  765SOL    HW2 3195   1.142   2.346   2.674  0.9578 -1.5942  2.3765
  766SOL     OW 3196   2.820   0.602   1.979  0.0213 -0.2180  0.2082
  766SOL    HW1 3197   2.796   0.612   1.883 -0.8684  0.9038  0.5309
  766SOL    HW2 3198   2.754   0.543   2.025  1.0661 -1.6878 -0.0649
  767SOL     OW 3199   6.849   4.350   1.125  0.4220  0.2564 -0.2394
  767SOL    HW1 3200   6.777   4.294   1.083  1.2265 -0.7377 -0.3462
  767SOL    HW2 3201   6.851   4.333   1.224  1.6363 -1.1046 -0.4580
  768SOL     OW 3202   6.604   5.247   3.048 -0.1509  0.4167  0.4217
  768SOL    HW1 3203   6.554   5.163   3.069 -0.8148  1.5396  3.9777
  768SOL    HW2 3204   6.539   5.318   3.020  0.4603 -0.2564 -3.1770
  769SOL     OW 3205   0.973   5.103   3.939 -0.3902  0.6190 -0.2993
  769SOL    HW1 3206   0.880   5.067   3.935 -0.8037  1.2280  1.9926
  769SOL    HW2 3207   0.971   5.201   3.916 -0.1480  0.4079 -1.2276
  770SOL     OW 3208   0.805   2.095   5.781 -0.8547  0.3749 -1.1736
  770SOL    HW1 3209   0.770   2.092   5.688  2.5495 -0.7301 -2.6059
  770SOL    HW2 3210   0.858   2.012   5.800 -0.8491  0.8779  1.5341
  771SOL     OW 3211   0.194   0.495   3.709  0.4659 -0.2566 -0.3137
  771SOL    HW1 3212   0.101   0.482   3.675  0.9297  0.2247 -1.8189
  771SOL    HW2 3213   0.230   0.583   3.676  1.4429 -0.4224  0.2758
  772SOL     OW 3214   0.099   4.947   3.252 -0.0010  0.3179  0.4054
  772SOL    HW1 3215   0.018   4.909   3.296  0.5686 -0.5263  0.7659
  772SOL    HW2 3216   0.098   5.046   3.258 -1.1500  0.3383  0.1406
  773SOL     OW 3217   1.838   3.093   4.399  0.3029  0.1993 -0.5298
  773SOL    HW1 3218   1.743   3.119   4.420 -1.4682 -1.5442 -5.0459
  773SOL    HW2 3219   1.896   3.175   4.401 -1.2403  1.3531  2.1471
  774SOL     OW 3220   6.146   5.549   1.486 -0.2638 -0.1015  0.0113
  774SOL    HW1 3221   6.210   5.543   1.410 -0.4476 -1.3275 -0.0777
  774SOL    HW2 3222   6.196   5.568   1.571  0.4873 -2.6609  0.2257
  775SOL     OW 3223   0.303   5.483   5.983 -0.2758 -0.4244  0.5356
  775SOL    HW1 3224   0.235   5.438   5.924  0.4970  1.9780 -2.4109
  775SOL    HW2 3225   0.393   5.444   5.965 -0.2878 -0.9288  1.5340
  776SOL     OW 3226   1.768   3.154   1.758 -0.3122  0.1460  0.1577
  776SOL    HW1 3227   1.808   3.173   1.848  1.6625 -0.0912 -0.6088
  776SOL    HW2 3228   1.797   3.063   1.728  0.3435  0.8079 -1.3346
  777SOL     OW 3229   4.066   0.727   2.418 -0.2587  0.0651  0.3501
  777SOL    HW1 3230   4.088   0.678   2.334  1.0881 -0.2399  0.8476
  777SOL    HW2 3231   4.022   0.814   2.395 -0.4042 -0.2586 -0.6462
  778SOL     OW 3232   5.686   5.454   3.485 -0.5591  0.2464 -0.4696
  778SOL    HW1 3233   5.756   5.503   3.537  0.5605 -2.6868  1.0696
  778SOL    HW2 3234   5.702   5.467   3.387  1.9868  0.0183 -0.1549
  779SOL     OW 3235   1.226   3.826   3.403  0.0665 -0.2120  0.4059
  779SOL    HW1 3236   1.275   3.823   3.490  0.8631 -0.8256 -0.0537
  779SOL    HW2 3237   1.223   3.735   3.363  1.6385  0.3886 -1.2512
  780SOL     OW 3238   0.433   4.967   4.840 -0.2480 -0.5006 -0.4716
  780SOL    HW1 3239   0.521   4.940   4.800  0.3369  1.0914 -0.3014
  780SOL    HW2 3240   0.423   4.924   4.930  0.8189  0.0894 -0.0513
  781SOL     OW 3241   2.596   5.926   0.388  0.4979  0.1676 -0.0354
  781SOL    HW1 3242   2.613   5.979   0.305 -1.6892 -0.3314 -0.8594
  781SOL    HW2 3243   2.683   5.895   0.426  1.6317  1.5997 -1.3175
  782SOL     OW 3244   3.218   3.272   1.020  0.4515 -0.6545 -0.0213
  782SOL    HW1 3245   3.205   3.253   1.117  0.5067 -1.2160 -0.1158
  782SOL    HW2 3246   3.206   3.187   0.968  1.7408 -0.6421 -0.3747
  783SOL     OW 3247   4.576   0.984   5.472 -0.1178  0.0153 -0.2662
  783SOL    HW1 3248   4.661   0.934   5.487  1.0218  2.3024  1.6457
  783SOL    HW2 3249   4.546   1.024   5.559 -0.5980  3.0587 -1.7036
  784SOL     OW 3250   2.215   1.144   6.601  0.3602  0.2523  0.5379
  784SOL    HW1 3251   2.267   1.109   6.679 -0.7856 -2.3093  0.2728
  784SOL    HW2 3252   2.269   1.135   6.517 -0.2508 -2.1087  0.3101
  785SOL     OW 3253   5.260   4.967   1.967  0.1146 -0.1127 -0.2318
  785SOL    HW1 3254   5.263   4.868   1.952  1.1271 -0.0325 -0.7082
  785SOL    HW2 3255   5.200   4.987   2.044 -0.0533 -1.1043 -0.0809
  786SOL     OW 3256   1.420   4.575   1.726  0.1510 -0.1765 -0.9454
  786SOL    HW1 3257   1.457   4.654   1.775  0.8644 -1.5408  0.8480
  786SOL    HW2 3258   1.401   4.599   1.631 -0.2637  2.3084 -0.2845
  787SOL     OW 3259   5.175   1.175   1.744 -0.0115 -0.2965 -0.3193
  787SOL    HW1 3260   5.212   1.107   1.807 -0.1181  0.0640  0.1416
  787SOL    HW2 3261   5.101   1.135   1.690  0.3001 -0.7007 -0.4523
  788SOL     OW 3262   1.554   3.921   1.918  0.6053 -0.3106  0.6692
  788SOL    HW1 3263   1.544   3.839   1.862  2.3040 -1.3217  1.7572
  788SOL    HW2 3264   1.491   3.916   1.996 -0.5500  0.3056 -0.1808
  789SOL     OW 3265   4.171   6.926   4.194  0.2645 -0.8326  0.0892
  789SOL    HW1 3266   4.190   6.910   4.097  1.0438  3.1339 -0.5565
  789SOL    HW2 3267   4.076   6.954   4.205  0.9880  1.8848 -0.0878
  790SOL     OW 3268   0.344   3.316   3.480  0.0039  0.2199  0.3527
  790SOL    HW1 3269   0.252   3.349   3.458  0.0246 -0.2973 -0.5488
  790SOL    HW2 3270   0.404   3.328   3.401 -0.0056 -2.0337 -0.0579
  791SOL     OW 3271   1.203   2.188   1.762  0.6780  0.2026 -0.1503
  791SOL    HW1 3272   1.284   2.246   1.757 -0.2372  1.5311 -0.3484
  791SOL    HW2 3273   1.123   2.245   1.784 -0.2492 -1.0067 -0.2688
  792SOL     OW 3274   4.778   6.777   6.403 -0.2113 -0.0694  0.1690
  792SOL    HW1 3275   4.856   6.721   6.429  0.6131  0.1704 -1.6457
  792SOL    HW2 3276   4.730   6.734   6.327 -2.6851 -0.8786  2.0421
  793SOL     OW 3277   3.483   1.635   6.133 -0.2823 -0.1559  0.2901
  793SOL    HW1 3278   3.495   1.536   6.140 -0.9693 -0.2012  0.9348
  793SOL    HW2 3279   3.499   1.664   6.039 -1.5420 -1.0867 -0.2320
  794SOL     OW 3280   5.528   5.130   4.709 -0.3353  0.4676  0.7662
  794SOL    HW1 3281   5.624   5.155   4.698 -0.4893  1.7798  2.1879
  794SOL    HW2 3282   5.520   5.055   4.775 -0.1110 -1.6058 -1.4234
  795SOL     OW 3283   5.572   6.959   6.955 -0.0179  0.1422 -0.6102
  795SOL    HW1 3284   5.662   7.001   6.946 -0.1899  0.6727  0.0716
  795SOL    HW2 3285   5.505   7.013   6.905 -0.1611  0.4270 -0.1136
  796SOL     OW 3286   4.795   4.862   3.426  0.1138  0.0087 -0.3441
  796SOL    HW1 3287   4.794   4.899   3.333 -0.5522 -0.6809 -0.6161
  796SOL    HW2 3288   4.878   4.894   3.473  0.7544 -0.1071 -1.3551
  797SOL     OW 3289   2.484   5.687   3.657 -0.2296 -0.1883 -0.3398
  797SOL    HW1 3290   2.430   5.635   3.590 -0.1050  1.0818 -1.4673
  797SOL    HW2 3291   2.581   5.665   3.647 -0.1574  0.3801 -0.9450
  798SOL     OW 3292   6.651   4.038   1.948 -0.1737  0.3000 -0.0186
  798SOL    HW1 3293   6.727   3.982   1.981  0.6484  1.0863 -0.5347
  798SOL    HW2 3294   6.679   4.087   1.866 -1.1442  0.8394 -0.0406
  799SOL     OW 3295   5.698   2.256   1.102  0.1605  0.4640  0.1558
  799SOL    HW1 3296   5.648   2.307   1.173 -1.2350 -1.4792  0.6646
  799SOL    HW2 3297   5.796   2.257   1.122  0.0085  1.7392  0.9144
  800SOL     OW 3298   5.217   0.113   4.396 -0.3110 -0.1327  0.5488
  800SOL    HW1 3299   5.131   0.087   4.441 -0.5906  0.2559  0.2397
  800SOL    HW2 3300   5.256   0.192   4.442  1.2696 -1.8738  2.3928
  801SOL     OW 3301   2.199   4.118   0.040  0.1979  0.1697  0.2517
  801SOL    HW1 3302   2.291   4.150   0.061  0.9456 -2.1739  0.7764
  801SOL    HW2 3303   2.198   4.068  -0.046 -0.8781  1.2679 -0.4095
  802SOL     OW 3304   6.933   2.433   0.081 -0.8781 -0.3728  0.0778
  802SOL    HW1 3305   6.899   2.523   0.054  1.8014  1.5129  2.3791
  802SOL    HW2 3306   6.889   2.405   0.166 -1.8927 -1.4196 -0.7645
  803SOL     OW 3307   0.178   2.121   5.982 -0.0216 -0.2460 -0.2405
  803SOL    HW1 3308   0.148   2.177   6.060 -0.7070  1.5525 -1.7327
  803SOL    HW2 3309   0.278   2.119   5.979  0.0541  2.0094 -0.8453
  804SOL     OW 3310   4.648   4.660   2.868  0.0937  0.2220  0.2090
  804SOL    HW1 3311   4.596   4.585   2.908 -0.1518  0.8784  1.1487
  804SOL    HW2 3312   4.588   4.715   2.810  0.0063  0.3368  0.4076
  805SOL     OW 3313   5.005   1.755   6.782  0.6580  0.5531  1.0267
  805SOL    HW1 3314   5.070   1.763   6.857  0.9592  1.7572  0.6627
  805SOL    HW2 3315   5.019   1.831   6.717 -1.2402  0.9774  1.0489
  806SOL     OW 3316   2.875   3.584   4.885 -0.2418 -0.3404 -0.3783
  806SOL    HW1 3317   2.810   3.511   4.907  0.4598 -0.5404  1.1575
  806SOL    HW2 3318   2.968   3.552   4.901  0.2265  0.1258 -2.0335
  807SOL     OW 3319   4.054   4.065   5.275  0.5435 -0.0978 -0.5533
  807SOL    HW1 3320   4.080   3.974   5.245 -1.2236 -0.7078 -0.3510
  807SOL    HW2 3321   4.135   4.124   5.277  1.9465 -1.9770  0.5882
  808SOL     OW 3322   0.481   3.312   5.944  0.1476 -0.3560 -0.5829
  808SOL    HW1 3323   0.537   3.394   5.929 -0.6255  0.2026 -0.4554
  808SOL    HW2 3324   0.392   3.339   5.980 -0.1711 -1.2459 -0.6932
  809SOL     OW 3325   4.718   6.107   0.838  0.1160 -0.0653  0.0847
  809SOL    HW1 3326   4.788   6.156   0.891  0.2164 -0.3250  0.1940
  809SOL    HW2 3327   4.718   6.140   0.744 -0.1970  0.5362  0.2932
  810SOL     OW 3328   3.697   3.986   6.155 -0.4233  0.0427  0.1618
  810SOL    HW1 3329   3.759   3.908   6.169 -1.7928 -1.3580 -1.1355
  810SOL    HW2 3330   3.682   4.032   6.242  1.2723 -0.4654  0.7705
  811SOL     OW 3331   2.863   5.121   5.359  0.1632  0.2633 -0.5300
  811SOL    HW1 3332   2.962   5.137   5.354  0.1653  2.2718  2.6758
  811SOL    HW2 3333   2.843   5.064   5.439 -1.3309  1.1925 -0.1962
  812SOL     OW 3334   3.101   6.254   6.053 -0.2070  0.0509  0.4508
  812SOL    HW1 3335   3.039   6.180   6.027  0.0350 -0.1499  0.4354
  812SOL    HW2 3336   3.056   6.342   6.040 -0.7689 -0.1180  1.1949
  813SOL     OW 3337   6.865   4.032   6.634  0.3936 -0.1192  0.0619
  813SOL    HW1 3338   6.896   3.969   6.562 -0.5267 -0.3609 -0.1262
  813SOL    HW2 3339   6.864   3.985   6.722  0.5229 -0.1215  0.0622
  814SOL     OW 3340   4.189   5.880   3.160  0.1697  0.1365  0.8361
  814SOL    HW1 3341   4.163   5.886   3.063  0.5896 -0.6624  0.6597
  814SOL    HW2 3342   4.139   5.804   3.202  0.5680 -0.0099  1.0467
  815SOL     OW 3343   6.624   2.513   6.803  0.1008 -0.0881  0.1910
  815SOL    HW1 3344   6.599   2.579   6.732  0.9848  0.7497  0.6189
  815SOL    HW2 3345   6.644   2.424   6.761 -0.7411  0.0125 -0.4424
  816SOL     OW 3346   1.154   2.711   4.820  0.0432 -0.3259 -0.0320
  816SOL    HW1 3347   1.203   2.679   4.902 -1.7913 -1.9121  0.5265
  816SOL    HW2 3348   1.149   2.637   4.754 -1.6402 -0.2318 -0.0383
  817SOL     OW 3349   1.709   5.765   2.906  0.2910  0.3650 -0.2315
  817SOL    HW1 3350   1.784   5.724   2.854  1.9283  2.0090  0.7161
  817SOL    HW2 3351   1.663   5.832   2.848 -0.5269 -0.6942 -0.8383
  818SOL     OW 3352   0.457   2.805   6.276  0.4658 -0.2809  0.0728
  818SOL    HW1 3353   0.513   2.750   6.339  0.7813  0.2725  0.2795
  818SOL    HW2 3354   0.395   2.863   6.328  0.3230 -0.2452 -0.1391
  819SOL     OW 3355   0.675   5.157   3.686 -0.6182  0.3526  0.2295
  819SOL    HW1 3356   0.731   5.217   3.630 -1.7181  2.1143  0.9333
  819SOL    HW2 3357   0.731   5.082   3.721  0.9776  1.3276 -0.1298
  820SOL     OW 3358   2.028   4.840   0.579 -0.0907  0.0821  0.1336
  820SOL    HW1 3359   2.082   4.848   0.495 -1.6257  1.3252 -0.7919
  820SOL    HW2 3360   2.011   4.743   0.599 -0.5472 -0.2217 -1.5704
  821SOL     OW 3361   0.696   6.132   3.729  0.6282  0.7706 -0.3016
  821SOL    HW1 3362   0.666   6.087   3.645  1.2614  1.4656 -0.9238
  821SOL    HW2 3363   0.715   6.063   3.799  1.0618  0.1011 -1.0566
  822SOL     OW 3364   6.784   2.975   2.174  0.7406  0.4145  0.5329
  822SOL    HW1 3365   6.743   3.037   2.107  0.0680 -1.8810 -1.2931
  822SOL    HW2 3366   6.883   2.987   2.173  0.6467  1.2382 -0.0087
  823SOL     OW 3367   5.361   4.718   2.676  0.6069  0.0172 -0.1047
  823SOL    HW1 3368   5.372   4.629   2.719  2.5820 -0.6507 -1.8335
  823SOL    HW2 3369   5.442   4.739   2.620  0.2629  2.9462  0.3143
  824SOL     OW 3370   2.811   0.042   4.148 -0.2755 -0.0439 -0.0509
  824SOL    HW1 3371   2.890  -0.004   4.188 -0.5884 -0.3037  0.2827
  824SOL    HW2 3372   2.797   0.008   4.055 -1.6954 -2.1845  0.8606
  825SOL     OW 3373   4.182   4.956   3.608 -0.0473 -0.6867  0.0518
  825SOL    HW1 3374   4.231   4.869   3.598 -2.9280 -2.3312 -1.0967
  825SOL    HW2 3375   4.164   4.973   3.705 -0.7412 -2.1945  0.2170
  826SOL     OW 3376   3.236   3.653   2.820  0.3457  0.5069 -0.0710
  826SOL    HW1 3377   3.191   3.581   2.873  0.6215  0.4867  0.1399
  826SOL    HW2 3378   3.193   3.741   2.838  1.2850  0.7183  1.2154
  827SOL     OW 3379   5.164   2.202   0.805 -0.0195 -0.2269  0.5102
  827SOL    HW1 3380   5.100   2.146   0.751  0.0222 -0.2060  0.4393
  827SOL    HW2 3381   5.119   2.232   0.889  0.0130 -0.5129  0.6307
  828SOL     OW 3382   1.908   0.650   0.034  0.2214  0.0493 -0.3907
  828SOL    HW1 3383   1.858   0.731   0.065  1.1253  0.7840 -0.8125
  828SOL    HW2 3384   1.852   0.599  -0.031 -0.3475  0.3435 -0.1386
  829SOL     OW 3385   1.185   0.246   2.538  0.0903 -0.2420 -0.0406
  829SOL    HW1 3386   1.103   0.280   2.492 -0.8040 -0.8565  1.0549
  829SOL    HW2 3387   1.190   0.283   2.630  1.4885  0.4156 -0.3460
  830SOL     OW 3388   6.910   1.149   2.367 -0.2541 -0.5618 -0.7683
  830SOL    HW1 3389   6.912   1.049   2.377 -0.6413 -0.7567 -2.3987
  830SOL    HW2 3390   6.857   1.173   2.286 -0.1344  0.9769 -0.4051
  831SOL     OW 3391   3.952   5.023   3.419  0.0650  0.6357  0.4065
  831SOL    HW1 3392   4.003   4.995   3.500 -1.9313 -2.9482  0.6445
  831SOL    HW2 3393   4.003   4.997   3.337  0.3478  0.6823  0.5666
  832SOL     OW 3394   5.009   3.626   4.606 -0.5839  0.0352  0.4155
  832SOL    HW1 3395   5.063   3.703   4.572 -0.0774 -0.3685  0.3050
  832SOL    HW2 3396   4.998   3.634   4.705 -1.0637  0.5799  0.3268
  833SOL     OW 3397   2.918   0.920   4.401 -0.1728 -0.0946  0.1346
  833SOL    HW1 3398   2.960   0.830   4.407  0.0744 -0.1678 -2.0823
  833SOL    HW2 3399   2.851   0.921   4.327 -0.1107  1.5770  0.0642
  834SOL     OW 3400   4.797   4.010   0.553  0.5099 -0.0119  0.2086
  834SOL    HW1 3401   4.713   4.020   0.499 -0.9609 -4.3758  1.2662
  834SOL    HW2 3402   4.789   4.065   0.637 -1.8014 -0.9867  0.7214
  835SOL     OW 3403   0.242   2.111   1.497  0.5228 -0.8910 -0.4393
  835SOL    HW1 3404   0.321   2.102   1.437  1.6460 -0.7225  0.9704
  835SOL    HW2 3405   0.190   2.193   1.472  1.4723 -0.3383 -0.6244
  836SOL     OW 3406   5.133   1.483   5.418 -0.1801 -0.4015  0.3640
  836SOL    HW1 3407   5.154   1.515   5.510 -0.2935  0.7240  0.0147
  836SOL    HW2 3408   5.034   1.475   5.407 -0.1252 -2.2588  0.8808
  837SOL     OW 3409   1.047   2.985   2.438 -0.4037 -0.0827  0.0533
  837SOL    HW1 3410   0.984   3.045   2.487  0.0392  0.5469 -0.1369
  837SOL    HW2 3411   1.121   3.039   2.398  0.1175 -0.7796  0.0495
  838SOL     OW 3412   0.796   4.264   5.802  0.7497  0.2585  0.3288
  838SOL    HW1 3413   0.878   4.297   5.847  0.7805  1.1821 -0.3843
  838SOL    HW2 3414   0.785   4.309   5.714  0.7926 -1.6364 -0.7039
  839SOL     OW 3415   5.850   3.754   3.454  0.9665 -0.6792 -0.8068
  839SOL    HW1 3416   5.927   3.815   3.436  1.2634 -1.1004 -0.9804
  839SOL    HW2 3417   5.855   3.675   3.394  0.0908 -0.4498 -1.2109
  840SOL     OW 3418   0.835   0.615   0.840 -0.2271 -0.0652 -0.0358
  840SOL    HW1 3419   0.891   0.697   0.848 -1.1068  0.5946 -0.4090
  840SOL    HW2 3420   0.745   0.632   0.882 -0.9570 -0.3143 -1.4350
  841SOL     OW 3421   3.321   3.347   2.863 -0.0620 -0.2689  0.0384
  841SOL    HW1 3422   3.350   3.325   2.770  0.5607 -3.1794  0.8201
  841SOL    HW2 3423   3.227   3.380   2.861 -0.4095 -1.2254 -1.5518
  842SOL     OW 3424   4.132   4.195   5.804  0.6601  0.0599 -0.6712
  842SOL    HW1 3425   4.050   4.138   5.819 -1.0693  2.1549 -1.6042
  842SOL    HW2 3426   4.149   4.250   5.885  2.5336 -1.8685  0.3598
  843SOL     OW 3427   5.702   6.379   6.160  0.8598  0.3585  0.3925
  843SOL    HW1 3428   5.604   6.377   6.145  1.1417 -0.5323 -1.6402
  843SOL    HW2 3429   5.734   6.474   6.164  0.2464  0.6920 -1.6414
  844SOL     OW 3430   3.687   3.506   1.750  0.3879  0.1661  0.4011
  844SOL    HW1 3431   3.648   3.586   1.793  1.7921 -0.4204  2.9582
  844SOL    HW2 3432   3.785   3.520   1.735  0.4370 -0.6599 -0.1705
  845SOL     OW 3433   5.883   3.275   2.100  0.9043 -0.4177  0.5449
  845SOL    HW1 3434   5.967   3.305   2.055  0.5523 -0.3550 -0.0813
  845SOL    HW2 3435   5.868   3.178   2.081  0.9454 -0.4822  0.8364
  846SOL     OW 3436   4.794   0.020   0.236  0.0638  0.4332 -0.3189
  846SOL    HW1 3437   4.705   0.049   0.200 -0.3060  1.4129  1.3058
  846SOL    HW2 3438   4.781  -0.022   0.325  1.2388  0.5330 -0.0946
  847SOL     OW 3439   5.139   1.692   1.566 -0.1467 -0.4604  0.3433
  847SOL    HW1 3440   5.232   1.658   1.581 -0.2919 -0.5441  1.0974
  847SOL    HW2 3441   5.143   1.779   1.517  0.3200 -0.5745  0.1732
  848SOL     OW 3442   0.172   0.549   1.793 -0.3295 -0.4703 -0.1784
  848SOL    HW1 3443   0.078   0.571   1.817 -0.4913  0.2258 -1.3755
  848SOL    HW2 3444   0.220   0.513   1.874 -1.2767  0.2583  0.7272
  849SOL     OW 3445   1.464   6.225   1.228 -0.4808 -0.1274 -0.6844
  849SOL    HW1 3446   1.403   6.229   1.308 -0.0795 -1.7669 -0.2694
  849SOL    HW2 3447   1.548   6.275   1.248  0.1799 -1.6261  0.4646
  850SOL     OW 3448   1.558   1.761   5.793 -0.4415 -0.1464  0.1182
  850SOL    HW1 3449   1.561   1.765   5.893 -2.3128 -2.2637  0.3477
  850SOL    HW2 3450   1.627   1.696   5.760  0.9411  1.3802 -0.1071
  851SOL     OW 3451   4.156   5.231   6.176  0.4447  0.2383 -0.2036
  851SOL    HW1 3452   4.195   5.251   6.087  1.3883 -1.3239 -0.1850
  851SOL    HW2 3453   4.229   5.215   6.243 -0.2283  0.0610  0.5178
  852SOL     OW 3454   2.447   5.342   2.134 -0.0790 -0.1997  0.0562
  852SOL    HW1 3455   2.524   5.279   2.141 -0.3180 -0.4158  0.8371
  852SOL    HW2 3456   2.471   5.417   2.073  1.4953  0.7890  1.7858
  853SOL     OW 3457   0.051   1.463   3.291  0.1281 -0.0337 -0.1941
  853SOL    HW1 3458   0.100   1.541   3.251 -0.7357  1.0672  0.8058
  853SOL    HW2 3459  -0.020   1.497   3.353  0.1684 -1.6443  0.7849
  854SOL     OW 3460   2.109   0.516   0.148  0.0997  0.1061  0.4469
  854SOL    HW1 3461   2.027   0.560   0.111  0.1391  0.8086  1.1883
  854SOL    HW2 3462   2.091   0.418   0.161 -0.5495  0.2212  0.4270
  855SOL     OW 3463   1.423   4.144   4.931 -0.0317  0.5743 -0.1975
  855SOL    HW1 3464   1.518   4.135   4.901 -0.0413  1.7304 -0.6123
  855SOL    HW2 3465   1.406   4.237   4.962 -1.1839  0.5439 -0.6681
  856SOL     OW 3466   1.709   6.664   1.164  0.1027 -0.1469  0.4920
  856SOL    HW1 3467   1.618   6.684   1.129 -0.4546 -0.6064  1.6446
  856SOL    HW2 3468   1.702   6.622   1.254  1.4655  0.0287  0.7030
  857SOL     OW 3469   0.965   0.160   6.933  0.2413  0.0866  0.3580
  857SOL    HW1 3470   1.045   0.217   6.951 -1.1628  1.6593  1.8972
  857SOL    HW2 3471   0.908   0.203   6.864 -0.0927 -0.1930  0.4573
  858SOL     OW 3472   2.227   2.900   5.761 -0.2155  0.4821  0.2440
  858SOL    HW1 3473   2.316   2.873   5.797  0.1822  0.3657 -0.7790
  858SOL    HW2 3474   2.240   2.964   5.685 -0.9796  0.0966 -0.2257
  859SOL     OW 3475   1.962   3.375   4.510 -0.5790  0.1519  0.1523
  859SOL    HW1 3476   1.939   3.470   4.530  0.6558  0.5196 -0.0930
  859SOL    HW2 3477   2.003   3.332   4.591  0.2246  0.2798 -0.1778
  860SOL     OW 3478   1.788   2.241   2.726 -0.2111 -0.1254  0.0582
  860SOL    HW1 3479   1.781   2.149   2.764  1.4999 -0.8113 -1.1391
  860SOL    HW2 3480   1.877   2.281   2.751 -0.4338  0.7110 -0.4469
  861SOL     OW 3481   2.249   2.383   5.417  0.0261  0.3277  0.1539
  861SOL    HW1 3482   2.183   2.309   5.415  0.3662  0.0259 -1.6933
  861SOL    HW2 3483   2.226   2.447   5.490 -0.9529 -0.9593  1.0108
  862SOL     OW 3484   3.216   4.859   6.089 -0.2389  0.0980  0.1936
  862SOL    HW1 3485   3.123   4.878   6.120  0.4158 -0.7645  3.0595
  862SOL    HW2 3486   3.249   4.935   6.034 -2.5692  0.4711 -0.7986
  863SOL     OW 3487   6.172   3.445   6.978  0.4647  0.0005 -0.6815
  863SOL    HW1 3488   6.217   3.365   6.938  1.0531 -0.2933  0.5229
  863SOL    HW2 3489   6.208   3.528   6.936  2.2876 -0.2119  0.3166
  864SOL     OW 3490   4.274   5.845   2.672 -0.0070 -0.0059 -0.0751
  864SOL    HW1 3491   4.366   5.825   2.637 -0.5176 -1.3728 -0.7130
  864SOL    HW2 3492   4.222   5.760   2.679 -1.8041  0.9223 -1.3671
  865SOL     OW 3493   2.091   3.861   3.812  0.3721 -0.1063  0.1001
  865SOL    HW1 3494   2.009   3.918   3.803  0.7101  0.3175 -0.3423
  865SOL    HW2 3495   2.123   3.862   3.907 -1.6737 -2.4428  0.9380
  866SOL     OW 3496   1.647   5.730   1.755  0.1241 -0.0668 -0.2771
  866SOL    HW1 3497   1.710   5.678   1.698  1.2981 -0.4728  1.3193
  866SOL    HW2 3498   1.591   5.790   1.697 -0.8205 -2.5694 -2.0947
  867SOL     OW 3499   2.663   3.172   5.620 -1.1682 -0.1508 -0.3845
  867SOL    HW1 3500   2.598   3.181   5.544 -0.6993 -0.6261 -0.8461
  867SOL    HW2 3501   2.733   3.243   5.613  0.0095 -1.3687 -1.5376
  868SOL     OW 3502   4.178   0.773   1.392  0.8385  0.3599  0.2322
  868SOL    HW1 3503   4.211   0.749   1.301  0.3360  0.3819  0.0367
  868SOL    HW2 3504   4.107   0.844   1.383  0.8895  0.4641  0.6505
  869SOL     OW 3505   0.782   3.575   4.842 -0.1342 -0.4707 -0.0701
  869SOL    HW1 3506   0.799   3.559   4.745  0.7092  1.3373 -0.2686
  869SOL    HW2 3507   0.705   3.638   4.853  0.0604 -0.3036  0.4076
  870SOL     OW 3508   6.462   6.099   6.205  0.5003  0.1353 -0.3721
  870SOL    HW1 3509   6.467   6.090   6.305 -0.0652  0.5943 -0.2985
  870SOL    HW2 3510   6.519   6.028   6.163 -0.1710 -0.7982  0.2521
  871SOL     OW 3511   2.876   1.546   3.041 -0.2775 -0.1912 -0.0086
  871SOL    HW1 3512   2.812   1.475   3.012  0.5638 -0.4746 -1.2742
  871SOL    HW2 3513   2.879   1.550   3.141 -2.2119 -0.1886  0.0827
  872SOL     OW 3514   3.013   6.789   4.025  0.0035  0.2969 -0.3018
  872SOL    HW1 3515   3.074   6.710   4.026 -1.7780 -1.1316 -0.1363
  872SOL    HW2 3516   2.929   6.767   3.975 -0.5600  2.0845 -0.2400
  873SOL     OW 3517   3.813   4.691   0.071 -0.2149  0.5879  0.6544
  873SOL    HW1 3518   3.907   4.659   0.060  0.5927  2.1817  2.2585
  873SOL    HW2 3519   3.757   4.619   0.111 -0.1917 -0.9993 -1.9555
  874SOL     OW 3520   0.149   2.391   1.956  0.0508 -0.0375  0.1739
  874SOL    HW1 3521   0.110   2.483   1.964  0.3493  0.1160 -0.1311
  874SOL    HW2 3522   0.088   2.334   1.900 -0.5299 -0.2573  1.0021
  875SOL     OW 3523   4.139   3.894   1.789 -0.1552 -0.5391  0.0104
  875SOL    HW1 3524   4.216   3.928   1.844 -0.4826 -0.3482  0.3578
  875SOL    HW2 3525   4.096   3.817   1.836 -0.8917  0.0831  0.3960
  876SOL     OW 3526   0.365   2.074   5.738  0.7981 -0.4371 -0.5391
  876SOL    HW1 3527   0.461   2.056   5.716  0.9600  1.3306 -1.5135
  876SOL    HW2 3528   0.360   2.156   5.797 -0.1337 -0.1141 -1.0585
  877SOL     OW 3529   3.740   1.175   6.911  0.0414 -0.3187  0.7421
  877SOL    HW1 3530   3.673   1.247   6.924  1.0777  0.6829  0.6635
  877SOL    HW2 3531   3.699   1.100   6.858 -0.8354  0.5067  0.2252
  878SOL     OW 3532   5.583   0.585   5.088 -0.0310 -0.0366 -0.8206
  878SOL    HW1 3533   5.674   0.626   5.097  0.3464 -1.0867  0.4059
  878SOL    HW2 3534   5.574   0.509   5.153 -1.2500 -0.9139 -1.9634
  879SOL     OW 3535   2.225   1.279   2.587 -0.4385 -0.1246  0.4139
  879SOL    HW1 3536   2.135   1.310   2.616 -0.5121 -1.5793  1.8641
  879SOL    HW2 3537   2.216   1.196   2.532  0.0516 -0.8893  1.4632
  880SOL     OW 3538   0.775   5.374   1.166 -0.5153 -0.0424  0.7559
  880SOL    HW1 3539   0.828   5.450   1.202  0.9319 -0.0067 -1.2964
  880SOL    HW2 3540   0.696   5.409   1.115  0.1601  0.0969 -0.2031
  881SOL     OW 3541   1.669   1.959   6.435 -0.4295  0.2900 -0.6353
  881SOL    HW1 3542   1.612   1.939   6.355  0.3929  0.3876 -1.2688
  881SOL    HW2 3543   1.750   1.900   6.432 -1.4062 -1.2843  1.2984
  882SOL     OW 3544   3.317   3.313   5.669 -0.1776  0.2071  0.2858
  882SOL    HW1 3545   3.405   3.269   5.683 -0.0024  0.1562 -0.9017
  882SOL    HW2 3546   3.327   3.389   5.605 -0.6336  1.4859  1.6682
  883SOL     OW 3547   4.994   6.028   2.681  0.1414  0.5704  0.0404
  883SOL    HW1 3548   4.982   5.930   2.666  0.7197  0.8864 -3.4818
  883SOL    HW2 3549   5.050   6.043   2.762  1.5766 -2.1319 -0.3339
  884SOL     OW 3550   2.070   4.822   6.337  0.4488 -0.2942 -0.0787
  884SOL    HW1 3551   2.067   4.919   6.358 -0.0994 -0.2769 -0.2079
  884SOL    HW2 3552   1.985   4.795   6.292  0.4374 -0.9069  0.2922
  885SOL     OW 3553   0.469   5.907   3.074 -0.2973 -0.2072 -0.4355
  885SOL    HW1 3554   0.420   5.844   3.015  1.4560 -1.2298 -0.8665
  885SOL    HW2 3555   0.541   5.858   3.124 -0.2904  1.0460  0.8731
  886SOL     OW 3556   0.668   3.335   4.907 -0.1529 -0.0624 -0.2810
  886SOL    HW1 3557   0.707   3.424   4.887 -1.5419  0.4969 -0.6338
  886SOL    HW2 3558   0.648   3.287   4.821 -2.0851  0.5293 -0.2204
  887SOL     OW 3559   5.970   1.222   2.190 -0.0580 -0.1334 -0.8696
  887SOL    HW1 3560   5.894   1.233   2.126 -2.1222 -2.5407  1.0093
  887SOL    HW2 3561   5.955   1.280   2.270 -0.0874 -0.8699 -0.3399
  888SOL     OW 3562   2.451   5.556   4.639  0.2304 -0.8272 -0.6613
  888SOL    HW1 3563   2.366   5.569   4.690  0.1699 -0.4072 -0.8716
  888SOL    HW2 3564   2.497   5.474   4.673  1.3823  0.6897  1.7137
  889SOL     OW 3565   5.539   2.728   1.015  0.0190 -0.5067 -0.8376
  889SOL    HW1 3566   5.622   2.752   0.966 -0.2062  2.0814 -0.0888
  889SOL    HW2 3567   5.477   2.679   0.953  0.8480  0.2151 -2.2990
  890SOL     OW 3568   1.188   4.426   4.917  0.7953  0.3041  0.5103
  890SOL    HW1 3569   1.132   4.360   4.867  1.5156 -0.3673  0.5719
  890SOL    HW2 3570   1.132   4.505   4.942  0.2051  0.2460 -0.5685
  891SOL     OW 3571   5.621   6.530   3.546 -0.1484  0.1790 -0.2761
  891SOL    HW1 3572   5.700   6.583   3.578 -0.7674 -0.1739  2.0657
  891SOL    HW2 3573   5.549   6.592   3.516 -0.8786  0.7966  2.4749
  892SOL     OW 3574   5.700   0.811   0.237  0.1714 -0.7480  0.3099
  892SOL    HW1 3575   5.740   0.769   0.155 -0.1332 -0.2111 -0.1194
  892SOL    HW2 3576   5.700   0.744   0.311  0.9852 -1.0589  0.0435
  893SOL     OW 3577   4.759   6.583   5.577 -0.1823  0.1368 -0.7433
  893SOL    HW1 3578   4.752   6.517   5.651 -2.0397 -0.1416 -1.1150
  893SOL    HW2 3579   4.828   6.651   5.599 -0.9164  0.2475  1.3804
  894SOL     OW 3580   2.576   0.991   5.219 -0.4981 -0.5883  0.8345
  894SOL    HW1 3581   2.616   1.073   5.260 -1.0860 -1.0762  2.4815
  894SOL    HW2 3582   2.584   0.915   5.284 -0.1103 -1.8050 -0.5900
  895SOL     OW 3583   4.084   6.578   5.379  0.3500 -0.0700 -0.2089
  895SOL    HW1 3584   4.110   6.527   5.461  0.5631 -1.6136 -1.1955
  895SOL    HW2 3585   3.993   6.549   5.349  1.4743 -1.8597 -2.2132
  896SOL     OW 3586   1.138   2.529   1.673 -0.0500 -0.1282  0.3481
  896SOL    HW1 3587   1.106   2.622   1.691  0.1646  0.1453 -0.5925
  896SOL    HW2 3588   1.150   2.518   1.574 -0.8997 -1.4235  0.3730
  897SOL     OW 3589   1.595   5.358   0.299  0.5231  0.2899 -0.2635
  897SOL    HW1 3590   1.658   5.282   0.283  0.7981  0.2722  0.7768
  897SOL    HW2 3591   1.613   5.397   0.390 -0.7220  0.5332 -0.1052
  898SOL     OW 3592   4.269   0.587   0.314 -0.1736  0.2832  0.1310
  898SOL    HW1 3593   4.227   0.635   0.391  1.1560  0.6721  0.6536
  898SOL    HW2 3594   4.352   0.541   0.346 -0.4861 -0.9259 -0.7361
  899SOL     OW 3595   4.584   6.089   6.265  0.2461  0.1247  0.5097
  899SOL    HW1 3596   4.660   6.143   6.229 -0.3489  1.3343  1.0080
  899SOL    HW2 3597   4.535   6.143   6.334 -1.6127 -0.2763 -0.4336
  900SOL     OW 3598   7.007   6.216   6.058  0.5380 -0.4849  0.5578
  900SOL    HW1 3599   6.914   6.184   6.040  1.0240 -2.0824  0.7301
  900SOL    HW2 3600   7.042   6.263   5.976  1.0392 -3.5818 -1.1619
  901SOL     OW 3601   0.062   4.480   0.834  0.1965 -0.2193 -0.6612
  901SOL    HW1 3602   0.056   4.547   0.908  0.6819 -0.1204 -0.7076
  901SOL    HW2 3603   0.067   4.528   0.747  0.2569 -0.3248 -0.7155
  902SOL     OW 3604   5.902   5.587   5.720  0.6748 -0.1398 -0.2251
  902SOL    HW1 3605   5.909   5.567   5.818  2.7596  2.4422  0.2703
  902SOL    HW2 3606   5.922   5.684   5.704  1.4003 -0.6826 -3.3053
  903SOL     OW 3607   5.603   4.209   4.818  0.0357 -0.0666  0.2458
  903SOL    HW1 3608   5.573   4.115   4.803 -1.1090  0.6252 -2.5052
  903SOL    HW2 3609   5.562   4.244   4.902 -2.0380 -1.0884 -0.2687
  904SOL     OW 3610   1.896   1.351   5.511 -0.0317 -0.3264  0.2347
  904SOL    HW1 3611   1.944   1.292   5.446 -0.3416 -1.2214  0.7958
  904SOL    HW2 3612   1.929   1.445   5.502  0.3382 -0.5457 -0.8087
  905SOL     OW 3613   3.466   0.488   3.005  0.4085  0.1533  0.7416
  905SOL    HW1 3614   3.392   0.468   2.941  0.8583  0.6315  0.0448
  905SOL    HW2 3615   3.474   0.415   3.072 -1.6650  0.8114  1.7775
  906SOL     OW 3616   5.054   6.350   2.125 -0.2622 -0.0986  0.1696
  906SOL    HW1 3617   5.152   6.342   2.146 -0.2127 -1.0470 -0.3461
  906SOL    HW2 3618   5.038   6.433   2.072  0.1503  0.4411  0.8747
  907SOL     OW 3619   0.845   2.619   1.113  0.0389 -0.2251  0.6541
  907SOL    HW1 3620   0.818   2.523   1.121 -0.0829 -0.3923 -1.2366
  907SOL    HW2 3621   0.818   2.654   1.023  0.3889  1.4922  1.1727
  908SOL     OW 3622   1.644   3.343   1.156 -0.2196 -0.3172 -0.1033
  908SOL    HW1 3623   1.566   3.300   1.109 -1.5321 -0.0347  1.7093
  908SOL    HW2 3624   1.712   3.274   1.179 -1.2179 -1.0570  0.6992
  909SOL     OW 3625   2.678   2.314   4.664 -0.6731  0.3033  0.0125
  909SOL    HW1 3626   2.759   2.255   4.662 -0.4356  0.3444  2.9218
  909SOL    HW2 3627   2.596   2.258   4.680 -0.8418  0.5103 -0.1117
  910SOL     OW 3628   6.036   1.762   2.878  0.3375 -0.0305 -1.0159
  910SOL    HW1 3629   5.983   1.743   2.796 -1.0548  1.3381 -0.4640
  910SOL    HW2 3630   6.067   1.675   2.918 -1.6060 -0.8904 -1.2749
  911SOL     OW 3631   4.251   5.709   1.479 -0.4597 -0.3131 -0.1174
  911SOL    HW1 3632   4.305   5.750   1.405  1.7910 -0.5097  1.3020
  911SOL    HW2 3633   4.224   5.616   1.452 -0.9840  0.1494 -1.2555
  912SOL     OW 3634   1.571   4.186   1.797  0.2862  0.5637 -0.1271
  912SOL    HW1 3635   1.565   4.095   1.837 -0.1971  1.2310  1.4252
  912SOL    HW2 3636   1.654   4.231   1.829 -0.5703  1.4506  0.9571
  913SOL     OW 3637   0.089   4.863   6.506  0.0339 -0.7266  0.3473
  913SOL    HW1 3638   0.059   4.870   6.411  1.8995 -0.2442 -0.2606
  913SOL    HW2 3639   0.046   4.935   6.560  1.0686  0.7907 -0.7663
  914SOL     OW 3640   0.991   0.205   1.475 -0.1349 -0.7928  0.2193
  914SOL    HW1 3641   1.027   0.247   1.558  0.5541 -0.9332  0.0019
  914SOL    HW2 3642   1.059   0.141   1.438 -0.8000 -1.4019  0.0414
  915SOL     OW 3643   0.380   4.835   5.094 -0.4347 -0.2945 -0.5638
  915SOL    HW1 3644   0.343   4.870   5.180 -0.9524 -0.8804 -0.5331
  915SOL    HW2 3645   0.308   4.782   5.047 -0.0019 -0.4061 -1.1053
  916SOL     OW 3646   5.628   6.180   3.757  0.7006 -0.6934  0.1817
  916SOL    HW1 3647   5.590   6.136   3.675 -0.5120  1.6493 -0.5944
  916SOL    HW2 3648   5.723   6.206   3.739  0.4333 -0.1681 -0.5030
  917SOL     OW 3649   2.527   6.140   1.957 -0.2222  0.3467 -0.4682
  917SOL    HW1 3650   2.610   6.167   1.908  1.3375  0.3702  2.0080
  917SOL    HW2 3651   2.511   6.042   1.943 -0.7881  0.6562 -2.2875
  918SOL     OW 3652   4.373   0.827   1.095  0.2237 -0.0131  0.0562
  918SOL    HW1 3653   4.301   0.825   1.026  0.0068  0.1335  0.2790
  918SOL    HW2 3654   4.352   0.897   1.163  0.5918  0.0519  0.1030
  919SOL     OW 3655   0.311   6.594   4.878  0.3487  0.0281  0.2064
  919SOL    HW1 3656   0.281   6.545   4.960 -0.5870  1.9417  1.0695
  919SOL    HW2 3657   0.374   6.667   4.904  1.1029 -0.1914 -0.9533
  920SOL     OW 3658   1.231   1.493   2.099 -0.0134  0.1008  0.3671
  920SOL    HW1 3659   1.251   1.532   2.009 -1.4047 -0.2079 -0.0980
  920SOL    HW2 3660   1.211   1.396   2.090  1.5804 -0.3425  1.2726
  921SOL     OW 3661   3.623   0.312   4.592  0.5450  0.0219  0.0003
  921SOL    HW1 3662   3.615   0.225   4.543 -3.3319  1.2156 -1.8761
  921SOL    HW2 3663   3.648   0.384   4.528  0.8144  0.7598  0.9162
  922SOL     OW 3664   5.307   0.347   1.423 -0.4225  0.1917 -0.4946
  922SOL    HW1 3665   5.315   0.249   1.443 -2.2404  0.0616 -0.2802
  922SOL    HW2 3666   5.343   0.400   1.500  1.4715 -0.2685 -1.0150
  923SOL     OW 3667   3.166   0.008   6.707  0.3600 -0.6345  0.1538
  923SOL    HW1 3668   3.217   0.041   6.627  1.0863 -2.4395 -0.1694
  923SOL    HW2 3669   3.226  -0.048   6.764 -1.1721 -2.7003 -0.1631
  924SOL     OW 3670   1.225   3.196   2.003 -0.1715  0.0089 -0.1815
  924SOL    HW1 3671   1.317   3.193   1.966  0.2973 -0.9232  0.9793
  924SOL    HW2 3672   1.188   3.288   1.993  1.0486  0.5082 -0.2793
  925SOL     OW 3673   6.611   5.663   2.023  0.4760  0.1249 -0.6931
  925SOL    HW1 3674   6.571   5.598   2.088 -0.5160  1.9354  0.6044
  925SOL    HW2 3675   6.639   5.614   1.941 -2.8501 -1.5631 -1.0147
  926SOL     OW 3676   4.027   1.048   0.286  0.4340  0.1786 -0.6075
  926SOL    HW1 3677   4.083   0.998   0.220  0.0668  1.0196 -1.5951
  926SOL    HW2 3678   3.940   1.071   0.244  0.1596  0.6675  0.2106
  927SOL     OW 3679   3.312   4.537   6.851 -0.0961 -0.0728 -0.2574
  927SOL    HW1 3680   3.227   4.521   6.901 -0.2140 -1.0154 -0.7534
  927SOL    HW2 3681   3.374   4.590   6.909 -0.9399  0.4636  0.1823
  928SOL     OW 3682   5.111   6.780   6.751 -0.0506  0.2801  0.7440
  928SOL    HW1 3683   5.134   6.844   6.825  1.0660  0.2122  0.4706
  928SOL    HW2 3684   5.098   6.831   6.666 -1.2857  0.3526  0.9555
  929SOL     OW 3685   4.112   3.394   0.366 -0.6568  0.1092  0.6261
  929SOL    HW1 3686   4.058   3.417   0.285  1.2259 -1.2904 -1.1292
  929SOL    HW2 3687   4.181   3.465   0.382  0.0927 -0.4377 -0.0857
  930SOL     OW 3688   4.615   2.345   0.497 -0.5510 -0.3098  0.3787
  930SOL    HW1 3689   4.547   2.382   0.560  0.9968  2.4396  0.5908
  930SOL    HW2 3690   4.687   2.299   0.549 -0.7268 -0.5585  0.4000
  931SOL     OW 3691   0.552   4.685   3.852 -0.0999 -0.4486  0.3839
  931SOL    HW1 3692   0.637   4.661   3.900  0.6794 -1.0440 -1.2054
  931SOL    HW2 3693   0.562   4.665   3.754 -1.1015  2.0487 -0.3201
  932SOL     OW 3694   3.456   2.893   2.397  0.4079  0.2821 -0.3205
  932SOL    HW1 3695   3.385   2.902   2.327  0.8171  1.2668 -0.6396
  932SOL    HW2 3696   3.544   2.876   2.353  0.4870 -0.2174  0.0276
  933SOL     OW 3697   5.492   3.671   5.014 -0.5900  0.2330 -0.3289
  933SOL    HW1 3698   5.521   3.620   4.932  0.3433 -0.5637  0.4734
  933SOL    HW2 3699   5.422   3.618   5.062 -0.7049  0.4159 -0.2960
  934SOL     OW 3700   2.412   6.528   5.667 -0.1206 -0.2865  0.5030
  934SOL    HW1 3701   2.372   6.560   5.581 -1.7770  1.8622  1.9575
  934SOL    HW2 3702   2.343   6.477   5.720  1.0988 -2.2504  0.2960
  935SOL     OW 3703   6.954   4.248   5.149 -0.5012  0.3812  0.0234
  935SOL    HW1 3704   6.974   4.306   5.229 -0.7130  0.3488  0.0998
  935SOL    HW2 3705   6.868   4.200   5.164 -1.0250  1.0920 -0.6304
  936SOL     OW 3706   5.090   0.726   6.282  0.0769  0.7616  0.2795
  936SOL    HW1 3707   5.008   0.672   6.265  0.9382 -1.1793  1.8510
  936SOL    HW2 3708   5.103   0.792   6.208 -1.2598 -0.9083 -1.5404
  937SOL     OW 3709   3.178   1.411   3.049  0.1906 -0.4646 -0.1577
  937SOL    HW1 3710   3.097   1.463   3.023 -0.8122 -1.6911  0.4148
  937SOL    HW2 3711   3.193   1.419   3.148 -0.1259 -1.4676 -0.0248
  938SOL     OW 3712   0.182   0.433   2.172 -1.0259 -0.4841  0.2060
  938SOL    HW1 3713   0.232   0.432   2.258  0.6195 -1.4337 -0.7097
  938SOL    HW2 3714   0.109   0.365   2.174 -2.1381  0.6933  1.4445
  939SOL     OW 3715   2.410   5.771   0.850  0.2542 -0.2371  0.0870
  939SOL    HW1 3716   2.465   5.773   0.934 -1.3554 -0.4446  1.1808
  939SOL    HW2 3717   2.354   5.853   0.845  1.1073  0.2923 -1.3638
  940SOL     OW 3718   1.983   5.984   6.474  0.3650  0.3950 -0.1051
  940SOL    HW1 3719   1.901   5.926   6.472  1.1833 -0.9466  1.7073
  940SOL    HW2 3720   2.054   5.945   6.415  0.4865  0.2465  0.1374
  941SOL     OW 3721   6.001   1.127   2.573  0.3339 -0.8085 -0.2370
  941SOL    HW1 3722   5.946   1.064   2.518  0.6545 -1.8718  0.6288
  941SOL    HW2 3723   6.026   1.084   2.660  0.9641  0.3447  0.1894
  942SOL     OW 3724   3.068   3.713   3.112 -0.1814  0.3470 -0.3193
  942SOL    HW1 3725   3.047   3.755   3.023 -1.1642  2.0744  0.6923
  942SOL    HW2 3726   3.046   3.776   3.185  1.6190 -0.6520  1.1632
  943SOL     OW 3727   2.240   2.625   1.455  0.6450  0.3188  0.5108
  943SOL    HW1 3728   2.290   2.689   1.397 -0.0262 -0.2295 -0.7183
  943SOL    HW2 3729   2.291   2.539   1.463 -0.0637 -0.2494 -0.7629
  944SOL     OW 3730   4.684   2.844   4.602 -0.1061 -0.4119 -0.3720
  944SOL    HW1 3731   4.657   2.897   4.682  0.2770 -3.1419  1.7423
  944SOL    HW2 3732   4.784   2.846   4.594 -0.2260  1.5824 -2.1694
  945SOL     OW 3733   4.189   5.835   4.313 -0.3864 -0.2333  0.2412
  945SOL    HW1 3734   4.182   5.803   4.218 -1.0062 -0.8695  0.4924
  945SOL    HW2 3735   4.101   5.820   4.359 -0.2839  0.6437  0.7413
  946SOL     OW 3736   3.879   6.413   0.530  0.2122  0.2537 -0.4714
  946SOL    HW1 3737   3.887   6.322   0.489  0.6256  0.8493 -1.7639
  946SOL    HW2 3738   3.905   6.408   0.627 -0.5596 -1.1443 -0.3162
  947SOL     OW 3739   2.598   3.389   1.377  0.4354  0.0778 -0.1802
  947SOL    HW1 3740   2.590   3.479   1.335  1.3373  0.1651 -0.1771
  947SOL    HW2 3741   2.589   3.398   1.476  0.2779  0.1232 -0.1969
  948SOL     OW 3742   6.578   2.759   5.647 -0.3847  0.6068 -0.2924
  948SOL    HW1 3743   6.662   2.714   5.678 -1.3135  0.3475  1.9805
  948SOL    HW2 3744   6.530   2.699   5.583  1.9477  1.4686 -3.0803
  949SOL     OW 3745   3.358   6.022   4.179 -0.1029  0.7790 -0.6725
  949SOL    HW1 3746   3.424   6.092   4.153 -0.0658  1.6011  1.4403
  949SOL    HW2 3747   3.265   6.053   4.156 -0.1147  1.6965  0.5762
  950SOL     OW 3748   6.416   1.472   6.005 -0.0295  0.0070  0.6889
  950SOL    HW1 3749   6.332   1.514   6.040  0.9049 -0.0147  3.2138
  950SOL    HW2 3750   6.492   1.537   6.013  0.1583  0.2467 -2.1302
  951SOL     OW 3751   5.551   0.785   6.925 -0.3743  0.3027 -0.0175
  951SOL    HW1 3752   5.533   0.696   6.966 -0.4750 -0.4068 -1.5324
  951SOL    HW2 3753   5.597   0.773   6.837  1.1521  1.8217  0.5047
  952SOL     OW 3754   2.572   1.921   4.768 -0.2653  0.0792 -0.1862
  952SOL    HW1 3755   2.477   1.896   4.788 -0.6661  0.9161 -0.9506
  952SOL    HW2 3756   2.573   1.989   4.694  1.0045 -1.1573 -1.3641
  953SOL     OW 3757   6.121   0.920   5.437 -0.1887  0.9060  0.0551
  953SOL    HW1 3758   6.076   0.862   5.369 -0.3680 -1.2883  1.9139
  953SOL    HW2 3759   6.119   1.015   5.406  0.0996 -0.0052 -3.1458
  954SOL     OW 3760   6.166   0.926   4.160  0.3998 -0.1897  0.6040
  954SOL    HW1 3761   6.209   0.974   4.084  0.5190 -1.4246 -0.1325
  954SOL    HW2 3762   6.216   0.946   4.244 -0.4934  2.2206  0.6541
  955SOL     OW 3763   3.016   3.872   3.322  0.2154 -0.6495  0.1015
  955SOL    HW1 3764   3.021   3.832   3.414  0.1165 -0.2440  0.2884
  955SOL    HW2 3765   2.943   3.941   3.320  1.1858  0.4042  0.1432
  956SOL     OW 3766   6.286   3.476   3.527 -0.5404  0.5460 -0.3030
  956SOL    HW1 3767   6.385   3.478   3.536 -0.6029 -0.0430  0.7431
  956SOL    HW2 3768   6.248   3.412   3.594 -1.6542  1.0777 -0.4026
  957SOL     OW 3769   5.155   1.898   4.237 -0.6295  0.4273  0.1544
  957SOL    HW1 3770   5.236   1.954   4.222 -1.5091  1.3093 -1.5410
  957SOL    HW2 3771   5.116   1.870   4.149 -2.0613 -0.1256  0.9290
  958SOL     OW 3772   6.919   6.855   1.550 -0.0048  0.6449 -1.1018
  958SOL    HW1 3773   6.931   6.942   1.502 -1.0602  0.5104 -1.6441
  958SOL    HW2 3774   6.871   6.790   1.490  2.3814 -0.9531 -1.3992
  959SOL     OW 3775   6.632   2.002   2.272 -0.1370 -0.1205 -0.0599
  959SOL    HW1 3776   6.711   1.950   2.241 -1.0399 -1.6898  0.2108
  959SOL    HW2 3777   6.549   1.966   2.230 -0.9970 -0.1609  1.5940
  960SOL     OW 3778   6.403   4.342   1.933 -0.4943  0.1556 -0.0013
  960SOL    HW1 3779   6.343   4.405   1.885 -0.7882  0.0188  0.1862
  960SOL    HW2 3780   6.486   4.328   1.879 -0.3404  0.8455  0.0391
  961SOL     OW 3781   3.066   0.641   1.566  0.0027  0.4200  0.0186
  961SOL    HW1 3782   3.081   0.552   1.522  1.0461  1.1248 -1.1066
  961SOL    HW2 3783   3.104   0.639   1.659 -0.6874 -0.5367  0.3023
  962SOL     OW 3784   1.929   4.687   2.086 -0.1760  0.0571 -0.6526
  962SOL    HW1 3785   1.855   4.733   2.036 -2.7875  1.2921  3.7622
  962SOL    HW2 3786   1.984   4.755   2.135  0.6602 -1.1329  0.1213
  963SOL     OW 3787   5.944   1.363   5.276 -0.9226  0.0460 -0.5918
  963SOL    HW1 3788   5.986   1.445   5.235 -1.7837  0.4765 -0.6337
  963SOL    HW2 3789   5.993   1.340   5.360  1.2761 -1.2273 -2.1369
  964SOL     OW 3790   4.480   4.402   1.420  0.3894  0.0062  0.0201
  964SOL    HW1 3791   4.460   4.355   1.505  1.0071 -0.0160  0.1516
  964SOL    HW2 3792   4.533   4.342   1.360 -0.4955 -0.1799 -0.6039
  965SOL     OW 3793   3.294   5.083   2.993  0.1532 -0.6083 -0.5407
  965SOL    HW1 3794   3.283   5.011   3.062 -1.4667  0.6818  0.6325
  965SOL    HW2 3795   3.351   5.049   2.918 -2.2166 -3.8439 -1.0784
  966SOL     OW 3796   5.907   3.254   3.928  0.1425  0.0531  0.1982
  966SOL    HW1 3797   5.990   3.226   3.976 -1.3426 -1.2359  2.1474
  966SOL    HW2 3798   5.864   3.174   3.887 -0.0837  0.7382 -0.9389
  967SOL     OW 3799   6.699   0.262   6.303  0.3289  0.0723 -0.1541
  967SOL    HW1 3800   6.632   0.334   6.289  0.7236  0.1333 -1.9493
  967SOL    HW2 3801   6.652   0.174   6.316 -0.1498  0.5927  2.0939
  968SOL     OW 3802   6.555   2.014   0.256 -0.7433  0.3624  0.1836
  968SOL    HW1 3803   6.567   2.037   0.353  0.9320  2.1031 -0.3710
  968SOL    HW2 3804   6.638   2.038   0.205 -1.4452 -0.8553 -1.6536
  969SOL     OW 3805   1.453   5.055   1.959 -0.2022 -0.1416 -0.1596
  969SOL    HW1 3806   1.515   5.042   2.036  0.7980  0.6552 -0.8060
  969SOL    HW2 3807   1.427   5.151   1.952  2.7359  0.6459 -2.9673
  970SOL     OW 3808   4.633   5.352   2.674  0.3050  0.1541  0.6751
  970SOL    HW1 3809   4.722   5.395   2.685  0.7801 -0.7765  0.5808
  970SOL    HW2 3810   4.600   5.319   2.762  0.9375 -1.1800  0.4336
  971SOL     OW 3811   3.464   6.325   4.449 -0.4147 -0.4450  0.1286
  971SOL    HW1 3812   3.519   6.381   4.387  0.5123 -2.0601 -0.5716
  971SOL    HW2 3813   3.367   6.337   4.428 -0.3204  1.6499  0.6956
  972SOL     OW 3814   1.886   0.693   5.280 -0.4607 -0.3574  0.4132
  972SOL    HW1 3815   1.803   0.676   5.333 -0.2483 -2.0687  0.2784
  972SOL    HW2 3816   1.966   0.679   5.338 -0.2175 -2.5230 -0.3288
  973SOL     OW 3817   3.818   4.294   5.731  0.1485  0.2829  0.2046
  973SOL    HW1 3818   3.858   4.202   5.726  0.6273  0.4900  0.1707
  973SOL    HW2 3819   3.745   4.303   5.663 -0.1304 -0.1819  0.4360
  974SOL     OW 3820   3.832   1.587   3.161  0.7836 -0.3690  0.0695
  974SOL    HW1 3821   3.859   1.635   3.244  0.3098 -2.7512  1.6933
  974SOL    HW2 3822   3.838   1.488   3.176 -0.1668 -0.8858 -2.4594
  975SOL     OW 3823   3.871   1.356   5.718  0.0477  0.0192 -0.0837
  975SOL    HW1 3824   3.821   1.415   5.655 -0.6669  0.1830  0.6108
  975SOL    HW2 3825   3.847   1.261   5.700 -0.8636  0.1183  0.5042
  976SOL     OW 3826   6.761   2.161   2.465 -0.0616  0.0403 -0.1610
  976SOL    HW1 3827   6.757   2.125   2.372  1.4098  0.7703 -0.5367
  976SOL    HW2 3828   6.718   2.096   2.528  2.9424 -2.7148 -0.7171
  977SOL     OW 3829   1.512   3.800   5.769 -0.0062 -0.2925  0.1058
  977SOL    HW1 3830   1.506   3.855   5.852  2.2053  0.9190 -0.4470
  977SOL    HW2 3831   1.536   3.706   5.793  0.8712  0.1054  0.8502
  978SOL     OW 3832   7.001   1.366   5.354 -0.0877  0.4399 -0.4976
  978SOL    HW1 3833   7.084   1.312   5.364 -0.5003 -0.0936  0.0945
  978SOL    HW2 3834   7.025   1.461   5.335  0.6627  0.4678  0.5468
  979SOL     OW 3835   2.024   1.174   0.446 -0.0617  0.1771 -0.1462
  979SOL    HW1 3836   2.061   1.188   0.538 -1.2040  0.8805  0.2245
  979SOL    HW2 3837   2.083   1.220   0.380  0.6915 -0.2159  0.2364
  980SOL     OW 3838   2.774   2.313   3.901  0.3755 -0.0674 -0.5014
  980SOL    HW1 3839   2.706   2.359   3.843  0.1800  2.8392  1.7873
  980SOL    HW2 3840   2.727   2.268   3.977  0.8680 -0.8575 -0.6489
  981SOL     OW 3841   4.410   4.654   1.338  0.0392  0.1674 -0.1281
  981SOL    HW1 3842   4.451   4.726   1.394  1.5647 -1.6331  1.2486
  981SOL    HW2 3843   4.438   4.565   1.374 -0.1398 -1.1292 -2.9221
  982SOL     OW 3844   1.869   6.239   0.182 -0.1226  0.4066 -0.0663
  982SOL    HW1 3845   1.958   6.201   0.207 -0.5619 -0.7762 -0.2511
  982SOL    HW2 3846   1.805   6.165   0.165 -0.8213  1.2249 -1.1339
  983SOL     OW 3847   6.463   1.740   1.068 -0.3734  0.4346  0.5834
  983SOL    HW1 3848   6.532   1.762   1.138 -0.1993 -1.3890  1.0394
  983SOL    HW2 3849   6.447   1.641   1.068 -2.3757  0.7319 -0.1221
  984SOL     OW 3850   5.701   6.014   3.439  0.0662  0.0375 -0.0652
  984SOL    HW1 3851   5.760   5.934   3.427  0.0380  0.1221 -0.8106
  984SOL    HW2 3852   5.695   6.064   3.353 -1.5127 -0.2493 -0.1490
  985SOL     OW 3853   3.365   1.539   4.537  0.2393 -0.0952  0.9643
  985SOL    HW1 3854   3.393   1.549   4.441  0.1802 -0.7644  0.8726
  985SOL    HW2 3855   3.272   1.504   4.541 -0.6100  2.0453  1.2715
  986SOL     OW 3856   4.381   1.745   5.095 -0.0002  0.6242 -0.2743
  986SOL    HW1 3857   4.393   1.829   5.146  0.9887  1.0252 -1.1278
  986SOL    HW2 3858   4.463   1.726   5.041 -0.4897 -0.4944 -0.6712
  987SOL     OW 3859   3.271   6.573   1.999 -0.3121 -0.0886  0.1353
  987SOL    HW1 3860   3.308   6.619   2.080 -0.1544 -0.3316  0.2016
  987SOL    HW2 3861   3.231   6.486   2.026  2.2214 -1.4973 -0.4219
  988SOL     OW 3862   0.697   1.194   1.445 -0.2798  0.1850  0.4266
  988SOL    HW1 3863   0.657   1.224   1.358  1.4287 -0.8333 -0.7783
  988SOL    HW2 3864   0.628   1.145   1.498 -1.1067 -0.0346 -0.8133
  989SOL     OW 3865   4.596   3.546   6.392  0.4053  0.3643 -0.1226
  989SOL    HW1 3866   4.594   3.499   6.480  2.9373  0.9196  0.3146
  989SOL    HW2 3867   4.669   3.614   6.392  1.6564 -0.7890 -3.2231
  990SOL     OW 3868   4.521   2.045   0.503 -0.2741  0.9123 -0.2904
  990SOL    HW1 3869   4.557   2.031   0.595  0.7301 -1.6023 -0.9904
  990SOL    HW2 3870   4.530   2.142   0.478  0.8060  1.3716  1.6720
  991SOL     OW 3871   3.686   5.329   1.968 -0.2515  0.2672  0.3855
  991SOL    HW1 3872   3.728   5.285   2.047  0.2722 -1.2889 -0.7140
  991SOL    HW2 3873   3.589   5.345   1.987 -0.3569 -0.9796  1.0019
  992SOL     OW 3874   5.109   2.888   5.061 -0.2715 -0.1508  0.5009
  992SOL    HW1 3875   5.057   2.974   5.053  0.9948  0.5860 -0.0666
  992SOL    HW2 3876   5.174   2.895   5.136 -1.3640 -1.2994  1.5973
  993SOL     OW 3877   0.716   6.212   0.301  0.0563 -0.3905  0.2182
  993SOL    HW1 3878   0.766   6.174   0.224  1.6663  2.1974 -0.1357
  993SOL    HW2 3879   0.775   6.214   0.382 -0.2115  0.6369  0.4041
  994SOL     OW 3880   5.136   4.909   0.673 -0.2888 -0.1894  0.3640
  994SOL    HW1 3881   5.172   5.002   0.669  1.5428 -0.8203  0.8616
  994SOL    HW2 3882   5.157   4.862   0.586 -0.3663 -0.4175  0.4670
  995SOL     OW 3883   1.045   2.873   6.449 -0.8607 -0.0408  0.0091
  995SOL    HW1 3884   1.025   2.868   6.547  2.1242  1.4490  0.8021
  995SOL    HW2 3885   1.018   2.963   6.414 -0.2484  0.1173 -0.0749
  996SOL     OW 3886   0.295   6.492   1.391 -0.2067  0.0888  0.6442
  996SOL    HW1 3887   0.359   6.524   1.462 -0.3052  2.6903 -0.3409
  996SOL    HW2 3888   0.326   6.524   1.302 -0.4787 -2.5331 -0.4885
  997SOL     OW 3889   6.967   6.429   3.578  0.4637 -0.4728 -0.5067
  997SOL    HW1 3890   7.027   6.508   3.561  0.0759 -0.2310 -0.7597
  997SOL    HW2 3891   6.880   6.442   3.530 -0.0386 -0.5279  0.3660
  998SOL     OW 3892   2.744   0.375   4.674  0.1984 -0.0385  0.5378
  998SOL    HW1 3893   2.697   0.462   4.656 -0.5354 -0.3966  0.6884
  998SOL    HW2 3894   2.821   0.366   4.612 -1.4765 -0.6452 -1.5716
  999SOL     OW 3895   6.444   4.430   3.682 -0.1966  0.1656  0.0354
  999SOL    HW1 3896   6.402   4.501   3.738 -1.1956 -0.2279 -0.1856
  999SOL    HW2 3897   6.475   4.355   3.741  3.0407  1.7296  0.5648
 1000SOL     OW 3898   6.516   5.356   5.391 -0.1361 -0.6073  0.0392
 1000SOL    HW1 3899   6.484   5.262   5.386 -1.4592 -0.2019  0.4082
 1000SOL    HW2 3900   6.472   5.402   5.469 -1.7266  1.1043 -1.7727
 1001SOL     OW 3901   0.302   6.593   4.455 -0.2502 -0.1137  0.0920
 1001SOL    HW1 3902   0.396   6.628   4.465 -0.7724  0.9540  1.5813
 1001SOL    HW2 3903   0.288   6.517   4.518  0.4727 -2.3259 -2.2242
 1002SOL     OW 3904   6.924   4.103   0.834  0.3441 -0.3749 -0.4721
 1002SOL    HW1 3905   6.850   4.146   0.783  0.3753 -1.1381 -1.1898
 1002SOL    HW2 3906   6.983   4.173   0.875 -1.5617  0.2687  1.3383
 1003SOL     OW 3907   0.829   6.143   5.046  0.0315  0.6613 -0.0096
 1003SOL    HW1 3908   0.927   6.157   5.059  0.1119  0.4308 -0.3435
 1003SOL    HW2 3909   0.800   6.061   5.095  0.4048 -0.4137 -1.5099
 1004SOL     OW 3910   3.259   6.574   4.587  0.2913 -0.1169 -0.4360
 1004SOL    HW1 3911   3.239   6.589   4.490  0.5757  0.2676 -0.4377
 1004SOL    HW2 3912   3.174   6.552   4.636  0.1518 -0.3380 -0.7764
 1005SOL     OW 3913   2.633   3.860   6.207 -0.2312  0.3662 -0.3668
 1005SOL    HW1 3914   2.588   3.940   6.166  1.4161  0.1451 -2.8257
 1005SOL    HW2 3915   2.694   3.818   6.140  0.5051 -1.7831  1.5152
 1006SOL     OW 3916   1.456   2.337   1.749 -0.0697  0.6216 -0.1034
 1006SOL    HW1 3917   1.489   2.418   1.797  0.8863 -0.3343  0.9322
 1006SOL    HW2 3918   1.527   2.305   1.686 -0.0327  0.0163  0.2394
 1007SOL     OW 3919   3.996   6.444   5.747 -0.4270  0.6754  0.5920
 1007SOL    HW1 3920   4.090   6.425   5.776 -0.1271  0.0745 -0.6944
 1007SOL    HW2 3921   3.932   6.406   5.813  0.2341  0.1911  0.9566
 1008SOL     OW 3922   0.866   3.159   6.695  0.3677 -0.6302 -0.4326
 1008SOL    HW1 3923   0.808   3.179   6.617 -0.0306  0.0311  0.0258
 1008SOL    HW2 3924   0.878   3.242   6.750  2.6972 -0.4169 -1.1363
 1009SOL     OW 3925   4.124   6.088   6.848 -0.4693  1.0132  0.5330
 1009SOL    HW1 3926   4.192   6.088   6.921 -0.5484  2.1221  0.6145
 1009SOL    HW2 3927   4.103   5.993   6.823  1.4666  0.6403  0.1489
 1010SOL     OW 3928   3.795   0.310   1.569  0.4514 -0.2465 -0.1444
 1010SOL    HW1 3929   3.709   0.329   1.522  0.8476 -1.4579 -1.4625
 1010SOL    HW2 3930   3.871   0.332   1.508  0.9955 -1.6536 -0.0044
 1011SOL     OW 3931   0.753   6.541   1.280 -0.3750  0.0159 -0.0015
 1011SOL    HW1 3932   0.745   6.486   1.363 -0.2575 -1.1478 -0.7503
 1011SOL    HW2 3933   0.680   6.611   1.280 -0.3054  0.1043  1.1192
 1012SOL     OW 3934   0.030   4.331   3.806  0.5083  1.1611  0.2719
 1012SOL    HW1 3935  -0.029   4.299   3.881  1.1407  1.3737  0.8755
 1012SOL    HW2 3936   0.061   4.252   3.753  1.0673  0.8801  1.0033
 1013SOL     OW 3937   4.640   1.299   2.085  0.0046  0.5035 -0.4832
 1013SOL    HW1 3938   4.549   1.278   2.122 -0.2357  2.1127 -0.0766
 1013SOL    HW2 3939   4.663   1.234   2.013  0.2135 -2.4042  2.0214
 1014SOL     OW 3940   2.559   4.941   5.996  0.1186  0.2086  0.3176
 1014SOL    HW1 3941   2.478   4.985   6.034  0.2305 -0.8326  1.8713
 1014SOL    HW2 3942   2.545   4.842   5.993  1.6301 -0.0889  1.4915
 1015SOL     OW 3943   0.542   1.129   2.728  0.3491  0.3746  0.0873
 1015SOL    HW1 3944   0.545   1.066   2.805  0.4767  0.0080 -0.2099
 1015SOL    HW2 3945   0.502   1.082   2.649 -0.3835  0.9469  0.1146
 1016SOL     OW 3946   3.529   0.514   3.894 -0.1315 -0.0783 -0.2061
 1016SOL    HW1 3947   3.617   0.467   3.889  0.0434  0.2345 -0.1046
 1016SOL    HW2 3948   3.462   0.466   3.839 -1.1086 -2.9987  3.1644
 1017SOL     OW 3949   3.470   6.293   2.939  0.0625  0.3808  0.2428
 1017SOL    HW1 3950   3.444   6.321   2.847  0.4649 -0.2886 -0.0798
 1017SOL    HW2 3951   3.460   6.370   3.002 -0.4243  0.7772 -0.3174
 1018SOL     OW 3952   1.460   4.559   2.167 -0.0023  0.1990  0.0217
 1018SOL    HW1 3953   1.465   4.491   2.093  0.0962 -2.0533  1.9807
 1018SOL    HW2 3954   1.464   4.651   2.128  0.5142 -0.8890 -2.7209
 1019SOL     OW 3955   6.890   5.523   0.176 -0.1003 -0.5284 -0.0018
 1019SOL    HW1 3956   6.854   5.554   0.089 -0.9881 -0.9469  0.2101
 1019SOL    HW2 3957   6.988   5.504   0.166  0.2645  1.3060 -0.3949
 1020SOL     OW 3958   0.478   3.568   2.554 -0.3005 -0.7540  0.4612
 1020SOL    HW1 3959   0.527   3.589   2.470 -0.7517 -0.4881  0.2591
 1020SOL    HW2 3960   0.385   3.540   2.532 -0.7898  0.4217  0.9199
 1021SOL     OW 3961   1.803   5.192   4.882 -0.1732 -0.0178 -0.9484
 1021SOL    HW1 3962   1.747   5.274   4.895  1.9806  1.6024 -1.1263
 1021SOL    HW2 3963   1.758   5.113   4.922 -0.9982  1.8319  2.0966
 1022SOL     OW 3964   0.033   3.934   5.312 -0.4626 -0.3680  0.1497
 1022SOL    HW1 3965   0.110   3.890   5.357 -0.7206 -1.1716 -0.1650
 1022SOL    HW2 3966   0.054   3.949   5.215 -0.2338  0.5660  0.3326
 1023SOL     OW 3967   3.700   0.976   1.575 -0.3713  0.0590  0.0444
 1023SOL    HW1 3968   3.778   0.956   1.516 -1.3886  1.1178 -1.7550
 1023SOL    HW2 3969   3.711   1.066   1.616 -0.7826  0.3607 -0.4915
 1024SOL     OW 3970   6.023   2.860   1.299  0.2290 -0.3458  0.3623
 1024SOL    HW1 3971   5.983   2.889   1.212  2.3277  0.8583 -0.2610
 1024SOL    HW2 3972   6.014   2.761   1.308 -1.3065 -0.3256 -0.5225
 1025SOL     OW 3973   2.437   2.135   1.883  0.2220  0.2819 -0.2225
 1025SOL    HW1 3974   2.407   2.229   1.900  1.5241  0.8043 -0.6906
 1025SOL    HW2 3975   2.480   2.098   1.965  0.1938  0.2944 -0.2022
 1026SOL     OW 3976   6.118   6.251   5.869  0.3664 -0.4004 -0.0923
 1026SOL    HW1 3977   6.087   6.250   5.964  0.6968 -3.1706  0.0608
 1026SOL    HW2 3978   6.060   6.314   5.816 -2.0931 -1.3917  1.2409
 1027SOL     OW 3979   6.188   2.572   1.136 -0.1520  0.0063  0.7088
 1027SOL    HW1 3980   6.209   2.507   1.063 -1.0776 -0.4990  0.8717
 1027SOL    HW2 3981   6.218   2.664   1.110 -0.9041 -0.0808 -0.5187
 1028SOL     OW 3982   1.426   6.853   1.462 -0.2205  0.6144 -0.2074
 1028SOL    HW1 3983   1.404   6.898   1.376  0.5964  1.1013 -0.1714
 1028SOL    HW2 3984   1.395   6.911   1.538 -3.3186 -0.9585 -0.0986
 1029SOL     OW 3985   5.768   0.412   6.962 -0.1391  0.3433 -0.4809
 1029SOL    HW1 3986   5.695   0.390   6.896  0.2676  0.2398 -0.8983
 1029SOL    HW2 3987   5.854   0.372   6.931  0.2919  1.2369 -0.4714
 1030SOL     OW 3988   3.756   4.101   3.933  0.5340 -0.3423 -0.3148
 1030SOL    HW1 3989   3.663   4.129   3.911  1.2535  1.7062 -1.0219
 1030SOL    HW2 3990   3.765   4.089   4.032 -0.3888 -0.2114 -0.2079
 1031SOL     OW 3991   1.626   0.695   2.225 -0.3655  0.2323 -0.4361
 1031SOL    HW1 3992   1.675   0.741   2.151 -0.5000  0.4582 -0.3874
 1031SOL    HW2 3993   1.686   0.629   2.270 -0.1641  0.3824 -0.4874
 1032SOL     OW 3994   3.295   5.926   1.120  0.1722 -0.4453 -0.3279
 1032SOL    HW1 3995   3.265   6.016   1.090  0.1240 -0.4480 -0.2871
 1032SOL    HW2 3996   3.318   5.928   1.217 -1.5110 -0.8948  0.1160
 1033SOL     OW 3997   1.113   4.341   6.675 -0.3019 -0.0053  0.0013
 1033SOL    HW1 3998   1.027   4.372   6.715  0.1918 -0.3071  1.3563
 1033SOL    HW2 3999   1.130   4.390   6.590 -1.6129  0.3432 -0.0771
 1034SOL     OW 4000   5.269   4.022   4.183 -0.2702  0.8700 -0.2983
 1034SOL    HW1 4001   5.227   3.996   4.096  1.0359 -0.0293 -0.6821
 1034SOL    HW2 4002   5.283   3.941   4.240 -1.1213  1.4502  0.7800
 1035SOL     OW 4003   4.992   0.124   0.035  0.0331  0.3159 -0.0573
 1035SOL    HW1 4004   5.044   0.191   0.088 -0.3638  1.3436 -0.9440
 1035SOL    HW2 4005   4.901   0.113   0.074  0.3678 -0.3254  0.5675
 1036SOL     OW 4006   0.185   3.228   3.200  0.6930 -0.0509  0.5945
 1036SOL    HW1 4007   0.176   3.293   3.124  2.1865  0.2018  0.6190
 1036SOL    HW2 4008   0.142   3.266   3.282 -1.6771 -0.6651 -0.2683
 1037SOL     OW 4009   6.682   3.541   0.141 -0.1413  0.2832  0.6258
 1037SOL    HW1 4010   6.674   3.536   0.241 -2.0156  0.9797  0.5523
 1037SOL    HW2 4011   6.685   3.448   0.104 -1.7516 -0.0486  1.2217
 1038SOL     OW 4012   6.770   3.962   1.103  0.1553  0.1393 -0.1853
 1038SOL    HW1 4013   6.723   3.976   1.016 -0.3369  1.2006  0.2275
 1038SOL    HW2 4014   6.708   3.984   1.178  0.9627  0.4889  0.3957
 1039SOL     OW 4015   4.421   2.038   1.137 -0.3584 -0.5308  0.6001
 1039SOL    HW1 4016   4.445   1.982   1.058 -0.6082 -0.3831  0.4183
 1039SOL    HW2 4017   4.357   1.988   1.195 -0.6890 -0.3853  0.3671
 1040SOL     OW 4018   3.748   5.332   0.822 -0.7917 -0.5405 -0.3573
 1040SOL    HW1 4019   3.708   5.409   0.873 -0.4477 -0.0486 -0.8117
 1040SOL    HW2 4020   3.842   5.318   0.853 -1.2035 -1.5241  0.5227
 1041SOL     OW 4021   5.601   1.111   1.725 -0.5711 -0.0145  0.0967
 1041SOL    HW1 4022   5.656   1.053   1.786  0.7267  1.0464 -0.0305
 1041SOL    HW2 4023   5.586   1.200   1.768 -0.5550  0.3732 -0.6839
 1042SOL     OW 4024   1.126   1.772   0.659 -0.5321 -0.1078 -0.0469
 1042SOL    HW1 4025   1.207   1.775   0.600  0.4327 -0.1189  1.2290
 1042SOL    HW2 4026   1.056   1.715   0.616  0.3639 -0.5983 -0.9087
 1043SOL     OW 4027   0.237   4.693   0.286 -0.4540 -0.5492  0.5235
 1043SOL    HW1 4028   0.258   4.605   0.245 -1.2957 -0.7953  0.6143
 1043SOL    HW2 4029   0.230   4.763   0.214  1.2961 -0.3128  0.5353
 1044SOL     OW 4030   5.121   2.376   0.605 -0.2543  0.5397  0.1601
 1044SOL    HW1 4031   5.136   2.318   0.685 -0.8130  0.5915  0.3060
 1044SOL    HW2 4032   5.209   2.405   0.568  0.2066 -2.7720 -1.6773
 1045SOL     OW 4033   2.090   3.628   1.758 -0.9943  0.5608 -0.3962
 1045SOL    HW1 4034   2.001   3.658   1.793 -1.5668 -0.6273 -0.8001
 1045SOL    HW2 4035   2.120   3.546   1.808 -0.3879  0.6144 -0.6538
 1046SOL     OW 4036   5.941   3.563   1.701  0.1643  0.5054  0.4052
 1046SOL    HW1 4037   6.034   3.593   1.683  0.1643  1.0411  1.2422
 1046SOL    HW2 4038   5.926   3.474   1.659  0.8347  0.7260 -0.3122
 1047SOL     OW 4039   0.930   1.621   1.043  0.1534  0.3174 -0.0917
 1047SOL    HW1 4040   0.899   1.594   0.952  2.2089 -0.4644 -0.6052
 1047SOL    HW2 4041   1.029   1.614   1.048  0.1300  0.8737  2.0624
 1048SOL     OW 4042   1.554   0.284   0.160  0.0593  0.0803  0.2845
 1048SOL    HW1 4043   1.480   0.217   0.157 -0.3454  0.4918 -3.4843
 1048SOL    HW2 4044   1.516   0.377   0.158  0.5947  0.2988 -1.3312
 1049SOL     OW 4045   5.579   3.064   2.078 -0.4325  0.0053 -0.2101
 1049SOL    HW1 4046   5.486   3.050   2.110 -0.1910 -0.2077  0.4130
 1049SOL    HW2 4047   5.584   3.148   2.024 -0.3989  1.6902  2.2381
 1050SOL     OW 4048   3.089   3.406   4.140 -0.5281 -0.7056  0.0821
 1050SOL    HW1 4049   3.053   3.324   4.184 -0.3492 -1.5265 -1.2590
 1050SOL    HW2 4050   3.032   3.430   4.061  0.7710 -0.9596 -0.9704
 1051SOL     OW 4051   3.867   1.167   6.073  0.3319  0.5440  0.6825
 1051SOL    HW1 4052   3.873   1.093   6.005  1.6412  2.6056 -1.6244
 1051SOL    HW2 4053   3.918   1.141   6.155 -2.2689 -2.5158  1.5255
 1052SOL     OW 4054   6.451   2.871   6.863  0.3925  0.1838  0.0067
 1052SOL    HW1 4055   6.353   2.880   6.852  0.1073  0.0769  1.9971
 1052SOL    HW2 4056   6.480   2.778   6.844  0.0445  0.1194 -0.1909
 1053SOL     OW 4057   2.164   0.843   1.394  0.7569 -0.0116  0.3843
 1053SOL    HW1 4058   2.253   0.823   1.435  1.6830  1.9018 -0.5719
 1053SOL    HW2 4059   2.118   0.915   1.446  0.7840  0.5936 -0.4175
 1054SOL     OW 4060   5.861   4.426   2.535 -0.2063  0.4031 -0.5536
 1054SOL    HW1 4061   5.889   4.499   2.473  1.3991  1.2161  1.0228
 1054SOL    HW2 4062   5.929   4.416   2.608 -1.0253 -1.8359 -0.0015
 1055SOL     OW 4063   2.729   6.485   0.636  0.1236 -0.6340 -0.3308
 1055SOL    HW1 4064   2.821   6.469   0.603  0.4382 -0.4906  0.4590
 1055SOL    HW2 4065   2.667   6.415   0.601 -0.0030  0.6938 -2.9836
 1056SOL     OW 4066   1.193   1.654   1.416 -0.7544 -0.2796  0.0001
 1056SOL    HW1 4067   1.222   1.720   1.347 -1.6334 -0.5745 -0.6590
 1056SOL    HW2 4068   1.132   1.587   1.375 -2.3649  0.3165  1.3445
 1057SOL     OW 4069   5.764   0.210   2.890 -0.0250  0.2618 -0.1508
 1057SOL    HW1 4070   5.757   0.288   2.828  0.1954 -0.3125 -0.9030
 1057SOL    HW2 4071   5.688   0.147   2.873 -0.4690  0.5239  0.7701
 1058SOL     OW 4072   3.179   3.533   6.059 -0.0180  0.1370 -0.8235
 1058SOL    HW1 4073   3.098   3.547   6.115 -0.2999  1.3852 -1.4991
 1058SOL    HW2 4074   3.243   3.609   6.074  0.3591 -0.0596 -1.4097
 1059SOL     OW 4075   3.447   5.279   6.091  0.4153 -0.1060 -0.3213
 1059SOL    HW1 4076   3.516   5.236   6.150  2.0181 -1.2739 -2.8161
 1059SOL    HW2 4077   3.493   5.333   6.021 -1.2074 -0.7379 -1.9512
 1060SOL     OW 4078   1.328   6.028   2.702 -0.2232 -0.3627  0.7487
 1060SOL    HW1 4079   1.265   6.027   2.624  2.6036 -3.0877 -1.8104
 1060SOL    HW2 4080   1.334   5.936   2.740 -0.7908  0.7274  3.6668
 1061SOL     OW 4081   5.874   3.096   6.618 -0.0806 -0.6506 -0.1375
 1061SOL    HW1 4082   5.933   3.170   6.653 -1.1722 -0.1156  0.6466
 1061SOL    HW2 4083   5.850   3.035   6.694 -0.4975 -0.8875 -0.4594
 1062SOL     OW 4084   0.345   0.142   0.081  0.7124  0.4038 -0.0178
 1062SOL    HW1 4085   0.297   0.130  -0.006 -0.0781 -3.6187  0.7674
 1062SOL    HW2 4086   0.439   0.108   0.073  0.7848  0.4434  0.5832
 1063SOL     OW 4087   5.311   2.948   2.968  0.6647 -0.5153  0.4576
 1063SOL    HW1 4088   5.364   3.027   2.936  1.8848 -0.9203  1.4281
 1063SOL    HW2 4089   5.313   2.876   2.899 -1.1376  0.5427 -0.8078
 1064SOL     OW 4090   5.352   2.958   6.450 -0.2758 -0.2356 -0.4209
 1064SOL    HW1 4091   5.384   3.017   6.375 -0.1568 -0.0919 -0.2573
 1064SOL    HW2 4092   5.388   2.866   6.437  0.3083 -0.0451 -0.1743
 1065SOL     OW 4093   4.937   6.104   2.350 -0.7011 -0.1122  0.2715
 1065SOL    HW1 4094   5.010   6.052   2.306  0.4597  0.4903  1.4244
 1065SOL    HW2 4095   4.904   6.054   2.430 -2.0742 -0.7038 -0.6168
 1066SOL     OW 4096   4.983   1.084   5.035 -0.0857 -0.8413 -0.1085
 1066SOL    HW1 4097   4.961   1.097   5.132  1.3187  1.3413 -0.0318
 1066SOL    HW2 4098   4.930   1.149   4.980 -0.9919 -2.1697 -0.8695
 1067SOL     OW 4099   5.678   4.439   0.564 -0.2112  0.7902  0.3248
 1067SOL    HW1 4100   5.589   4.473   0.593 -1.3665 -1.7251  0.0241
 1067SOL    HW2 4101   5.666   4.360   0.503  2.1470 -1.0665  2.0333
 1068SOL     OW 4102   1.570   3.470   1.902 -0.7158  0.2661  0.2596
 1068SOL    HW1 4103   1.572   3.503   1.996 -0.1324 -0.1798  0.4067
 1068SOL    HW2 4104   1.539   3.375   1.901 -1.7208  0.5814 -0.1008
 1069SOL     OW 4105   4.389   2.298   2.115  0.4019 -0.0592  0.4071
 1069SOL    HW1 4106   4.391   2.336   2.022  2.0297  0.6782  0.7237
 1069SOL    HW2 4107   4.449   2.351   2.175 -0.1766 -0.8797  1.7634
 1070SOL     OW 4108   0.286   4.399   0.200 -0.4503  0.0025  0.4543
 1070SOL    HW1 4109   0.188   4.407   0.221 -0.5930 -1.4540  0.5017
 1070SOL    HW2 4110   0.318   4.310   0.232  0.8140  0.3213  0.0960
 1071SOL     OW 4111   1.836   0.543   2.309  0.2373  0.5124 -0.3160
 1071SOL    HW1 4112   1.863   0.480   2.382  0.4160 -0.8009 -1.4667
 1071SOL    HW2 4113   1.912   0.606   2.289  1.1989 -0.8411 -1.1191
 1072SOL     OW 4114   3.277   5.315   6.290  0.1009 -0.0119 -0.3035
 1072SOL    HW1 4115   3.257   5.220   6.314  0.4102 -0.2057 -0.7968
 1072SOL    HW2 4116   3.333   5.317   6.207 -2.9461  0.6934 -2.4949
 1073SOL     OW 4117   5.949   2.591   0.968 -0.3395  0.7114  0.0085
 1073SOL    HW1 4118   6.010   2.590   1.047 -1.5199 -1.0358  0.9681
 1073SOL    HW2 4119   5.918   2.498   0.949 -3.3007  1.5902  0.0478
 1074SOL     OW 4120   5.727   6.511   1.216  0.4591  0.2531 -0.0032
 1074SOL    HW1 4121   5.689   6.422   1.194 -0.5312  0.8099 -0.5866
 1074SOL    HW2 4122   5.827   6.505   1.219  0.4250 -0.7281 -0.6532
 1075SOL     OW 4123   2.162   5.409   6.353 -0.6598  0.0556  0.1565
 1075SOL    HW1 4124   2.146   5.360   6.267 -0.4825 -0.0544  0.1878
 1075SOL    HW2 4125   2.248   5.459   6.347  0.7227 -2.0777  1.2458
 1076SOL     OW 4126   3.757   0.300   3.399  0.3132  0.0404 -0.3396
 1076SOL    HW1 4127   3.844   0.251   3.401 -0.7311 -1.8971  0.5676
 1076SOL    HW2 4128   3.695   0.260   3.466 -1.4974  0.9680 -1.3873
 1077SOL     OW 4129   6.003   2.864   2.991 -0.0800  0.8326 -1.1102
 1077SOL    HW1 4130   5.962   2.860   3.082  1.3617 -0.1635 -0.4642
 1077SOL    HW2 4131   6.001   2.773   2.949  0.9329  0.8872 -1.2945
 1078SOL     OW 4132   3.543   5.264   5.339  0.1833  0.1495  0.1850
 1078SOL    HW1 4133   3.510   5.358   5.347  1.8715  0.7826  0.0107
 1078SOL    HW2 4134   3.532   5.233   5.245 -0.8216 -0.0107  0.3487
 1079SOL     OW 4135   2.455   5.305   4.422 -0.1774  0.7915  0.1126
 1079SOL    HW1 4136   2.463   5.366   4.500  1.5842  1.2042 -0.3526
 1079SOL    HW2 4137   2.515   5.226   4.435 -1.8829 -0.5527  0.3763
 1080SOL     OW 4138   1.294   0.624   4.765 -0.0906  0.1521  0.2242
 1080SOL    HW1 4139   1.383   0.654   4.801  1.0779 -0.9584 -1.5936
 1080SOL    HW2 4140   1.273   0.533   4.800  0.1711 -0.1644 -0.4262
 1081SOL     OW 4141   5.085   5.059   5.149 -0.2856  0.3457 -0.0612
 1081SOL    HW1 4142   4.999   5.008   5.146 -0.1560  0.1109  0.1746
 1081SOL    HW2 4143   5.152   5.015   5.089 -0.1827  0.2611  0.1186
 1082SOL     OW 4144   1.471   0.080   0.656 -0.0708 -0.5426  0.7943
 1082SOL    HW1 4145   1.561   0.093   0.616 -0.6970  0.3439 -0.3889
 1082SOL    HW2 4146   1.476   0.094   0.755  1.2599 -1.4996  0.8842
 1083SOL     OW 4147   5.466   2.319   2.403 -0.1678 -0.5705 -0.1486
 1083SOL    HW1 4148   5.524   2.273   2.335 -0.0227 -0.4925 -0.0796
 1083SOL    HW2 4149   5.392   2.258   2.430  0.0559 -0.7902 -0.0161
 1084SOL     OW 4150   5.341   0.586   6.811 -0.1913  0.6241 -0.2465
 1084SOL    HW1 4151   5.352   0.606   6.909  0.9734  0.9307 -0.4187
 1084SOL    HW2 4152   5.245   0.566   6.791 -0.2891 -0.3960  1.1261
 1085SOL     OW 4153   1.486   2.985   0.413  0.2659 -0.1965 -0.0357
 1085SOL    HW1 4154   1.428   3.065   0.427  0.1154 -0.5458  1.6619
 1085SOL    HW2 4155   1.439   2.904   0.449  1.5733 -0.5603  0.9286
 1086SOL     OW 4156   1.527   0.782   1.940  0.3455 -0.0088  0.3560
 1086SOL    HW1 4157   1.594   0.727   1.890  0.3258 -0.0476  0.3717
 1086SOL    HW2 4158   1.466   0.721   1.992 -0.7021 -0.0667 -0.8971
 1087SOL     OW 4159   0.237   3.482   0.920 -0.5551 -0.4748  0.0774
 1087SOL    HW1 4160   0.200   3.553   0.978 -1.5244 -0.4939 -0.4949
 1087SOL    HW2 4161   0.213   3.500   0.824  0.4414 -0.7920 -0.2558
 1088SOL     OW 4162   6.626   2.736   5.206  0.0087  0.2290  0.1787
 1088SOL    HW1 4163   6.575   2.667   5.155 -1.2678 -0.7002  2.5684
 1088SOL    HW2 4164   6.684   2.788   5.143 -1.2075 -1.0461 -2.1119
 1089SOL     OW 4165   0.646   0.077   1.721  0.6099 -0.0348  0.0299
 1089SOL    HW1 4166   0.592   0.102   1.802  0.3342  0.0649 -0.1841
 1089SOL    HW2 4167   0.727   0.025   1.750 -0.6079 -1.9483  0.2289
 1090SOL     OW 4168   6.806   6.337   2.808 -0.1665 -0.4481 -0.2029
 1090SOL    HW1 4169   6.884   6.302   2.860 -2.2217 -1.2919  2.5191
 1090SOL    HW2 4170   6.756   6.260   2.768 -0.6793 -0.0832 -0.2691
 1091SOL     OW 4171   0.928   4.691   2.767  0.0731  0.5374  0.1296
 1091SOL    HW1 4172   0.886   4.626   2.704  3.1780 -0.7651 -0.8214
 1091SOL    HW2 4173   1.022   4.662   2.787  0.4770  2.9833  2.3702
 1092SOL     OW 4174   5.018   2.712   2.814 -0.1101  0.4130 -0.2638
 1092SOL    HW1 4175   5.111   2.721   2.778  0.3079 -1.7662  0.1057
 1092SOL    HW2 4176   4.972   2.801   2.814  1.7363  1.3993 -1.0842
 1093SOL     OW 4177   0.727   5.343   3.155 -0.5455  0.2066 -0.1007
 1093SOL    HW1 4178   0.721   5.426   3.100  1.3479  0.2629 -0.2949
 1093SOL    HW2 4179   0.760   5.267   3.098 -2.1986 -0.7100  0.0851
 1094SOL     OW 4180   1.717   3.484   2.825  0.1766 -0.2367  0.1998
 1094SOL    HW1 4181   1.662   3.560   2.790  0.0879 -1.3827 -2.2904
 1094SOL    HW2 4182   1.799   3.520   2.870 -0.0738  1.3295 -0.5449
 1095SOL     OW 4183   4.744   2.130   3.195  0.3389  0.6013  0.8602
 1095SOL    HW1 4184   4.843   2.125   3.181 -0.1691 -1.3319 -3.7174
 1095SOL    HW2 4185   4.712   2.044   3.234  0.1040 -1.0162 -2.5355
 1096SOL     OW 4186   3.794   4.919   6.411 -0.1102 -0.7601  0.1741
 1096SOL    HW1 4187   3.879   4.939   6.459 -0.1943 -0.3708  0.1666
 1096SOL    HW2 4188   3.725   4.987   6.435  0.1956  0.1692 -1.4086
 1097SOL     OW 4189   2.231   0.495   6.573 -0.5414  0.1167 -0.3438
 1097SOL    HW1 4190   2.192   0.417   6.622  1.0787 -1.3847 -1.3472
 1097SOL    HW2 4191   2.171   0.574   6.585 -0.9829 -0.5595  2.7706
 1098SOL     OW 4192   6.797   6.162   2.256 -0.1484  0.4611  0.6757
 1098SOL    HW1 4193   6.828   6.232   2.192 -0.7677 -0.4897 -0.7174
 1098SOL    HW2 4194   6.707   6.185   2.291 -0.7176 -0.0077 -0.4237
 1099SOL     OW 4195   1.213   2.033   3.757  0.1995 -0.4394 -0.4526
 1099SOL    HW1 4196   1.182   1.997   3.669  3.2122 -1.1153 -1.3519
 1099SOL    HW2 4197   1.261   2.120   3.743  0.7080 -0.5462  0.5252
 1100SOL     OW 4198   1.880   6.121   5.264  0.2748  0.2539 -0.5723
 1100SOL    HW1 4199   1.941   6.165   5.330  0.3601 -0.4188 -0.1966
 1100SOL    HW2 4200   1.829   6.192   5.215  0.3982  0.7775  0.0301
 1101SOL     OW 4201   1.865   5.846   2.121 -0.2282 -0.2399  1.1831
 1101SOL    HW1 4202   1.823   5.894   2.044  0.4608  1.4530  1.8259
 1101SOL    HW2 4203   1.962   5.867   2.124 -0.1591 -0.6736  2.2470
 1102SOL     OW 4204   4.891   3.624   1.929 -0.1094 -0.1780  0.0824
 1102SOL    HW1 4205   4.839   3.591   1.850  0.6762  1.6957 -1.3004
 1102SOL    HW2 4206   4.926   3.546   1.981 -1.1569 -1.4647 -1.0567
 1103SOL     OW 4207   5.772   6.448   6.884  0.2303  0.3383  0.1830
 1103SOL    HW1 4208   5.821   6.443   6.797  1.7300  1.1211  0.9624
 1103SOL    HW2 4209   5.750   6.543   6.905  0.3445  0.2057  0.9232
 1104SOL     OW 4210   6.995   3.834   0.896 -0.1197 -0.1980 -0.3836
 1104SOL    HW1 4211   6.938   3.908   0.931  0.6197 -0.5047  1.5829
 1104SOL    HW2 4212   6.936   3.758   0.868 -0.8057  0.5783 -1.1099
 1105SOL     OW 4213   3.578   1.971   0.940 -0.2439  0.3493  0.7755
 1105SOL    HW1 4214   3.670   2.009   0.947  0.0110 -0.1088  0.0316
 1105SOL    HW2 4215   3.556   1.922   1.024  0.1533  0.5439  0.9981
 1106SOL     OW 4216   1.964   2.147   3.612 -0.7159  0.3018  0.3964
 1106SOL    HW1 4217   2.043   2.153   3.550 -0.5604 -0.6204  0.4849
 1106SOL    HW2 4218   1.995   2.118   3.702 -1.1862 -0.3502  0.3547
 1107SOL     OW 4219   5.635   1.915   6.075 -0.1825 -0.3510  0.2443
 1107SOL    HW1 4220   5.632   1.842   6.008  2.6558 -0.5691  0.2034
 1107SOL    HW2 4221   5.543   1.951   6.091 -1.2320 -1.8372 -2.0021
 1108SOL     OW 4222   2.303   0.494   5.770 -0.3678  0.6927  0.2954
 1108SOL    HW1 4223   2.391   0.461   5.804 -1.6645 -1.7073  1.5450
 1108SOL    HW2 4224   2.230   0.434   5.801 -2.4380  2.2843 -1.1785
 1109SOL     OW 4225   2.070   3.288   2.986 -0.6551 -0.2125  0.0047
 1109SOL    HW1 4226   2.006   3.211   2.981 -1.6306  0.5576  0.3218
 1109SOL    HW2 4227   2.083   3.327   2.896 -1.1796  0.0580  0.0426
 1110SOL     OW 4228   4.722   1.252   6.051 -0.8970  0.1479  0.3104
 1110SOL    HW1 4229   4.644   1.303   6.016 -0.2646  0.8958 -0.0270
 1110SOL    HW2 4230   4.740   1.173   5.992  0.2148  1.4389 -1.1714
 1111SOL     OW 4231   4.946   3.942   1.253  0.0468  0.1824 -0.0450
 1111SOL    HW1 4232   4.877   4.016   1.257  0.4346  0.5150  1.1087
 1111SOL    HW2 4233   4.918   3.869   1.315 -0.3889 -0.7133 -1.2697
 1112SOL     OW 4234   6.224   1.639   5.757  0.4499  0.4963 -0.2680
 1112SOL    HW1 4235   6.185   1.554   5.792  2.3925 -0.4221 -0.2153
 1112SOL    HW2 4236   6.156   1.687   5.703 -2.0124  0.9001  2.8632
 1113SOL     OW 4237   2.519   3.695   6.388 -0.2537  0.2262  0.7051
 1113SOL    HW1 4238   2.525   3.763   6.315  0.6548  0.5244  1.0454
 1113SOL    HW2 4239   2.572   3.614   6.361  1.5900  1.0147  1.7346
 1114SOL     OW 4240   2.465   1.101   1.304  0.3058 -0.5681  0.0429
 1114SOL    HW1 4241   2.461   1.121   1.402 -0.9686  1.1698 -0.3066
 1114SOL    HW2 4242   2.559   1.078   1.278  0.8594 -0.0382  1.4894
 1115SOL     OW 4243   4.129   3.650   2.226 -0.6577  0.5344  0.1884
 1115SOL    HW1 4244   4.221   3.689   2.215 -0.5849 -0.1880 -2.3051
 1115SOL    HW2 4245   4.100   3.660   2.322  2.1354  0.4591  1.1294
 1116SOL     OW 4246   4.087   6.167   6.457 -0.2296 -0.0221 -0.0255
 1116SOL    HW1 4247   4.163   6.156   6.522 -1.7971 -0.0810  1.8629
 1116SOL    HW2 4248   4.074   6.081   6.407  0.3654 -0.2829  0.2504
 1117SOL     OW 4249   6.461   3.869   1.786 -0.3406  0.5470  0.0877
 1117SOL    HW1 4250   6.362   3.874   1.801 -0.6081  1.0326 -1.5926
 1117SOL    HW2 4251   6.507   3.930   1.850 -1.4342  2.9650 -1.2657
 1118SOL     OW 4252   2.195   4.169   5.735 -0.2297 -0.3459 -0.0368
 1118SOL    HW1 4253   2.281   4.178   5.686  0.7494 -0.4679  1.5816
 1118SOL    HW2 4254   2.180   4.073   5.759 -0.4226 -0.2284  0.3279
 1119SOL     OW 4255   0.236   3.933   2.038  0.1343  0.4618 -0.5588
 1119SOL    HW1 4256   0.194   3.842   2.042  1.2817 -0.0566  0.9911
 1119SOL    HW2 4257   0.328   3.928   2.078 -0.1130  2.4883  0.3616
 1120SOL     OW 4258   5.712   4.352   2.319  0.7919 -0.3269 -0.0296
 1120SOL    HW1 4259   5.692   4.423   2.252  1.2593 -0.9524 -0.8546
 1120SOL    HW2 4260   5.712   4.391   2.410 -3.0615 -0.0113  0.0097
 1121SOL     OW 4261   1.526   4.027   2.213 -0.8040  0.5050  0.2545
 1121SOL    HW1 4262   1.435   4.068   2.216 -0.8314  1.1218 -3.6211
 1121SOL    HW2 4263   1.595   4.099   2.202 -0.3903 -0.1444 -1.7639
 1122SOL     OW 4264   4.055   2.065   1.442 -0.1172 -0.0778  0.5358
 1122SOL    HW1 4265   3.986   2.121   1.396  0.8092  0.2971 -0.4517
 1122SOL    HW2 4266   4.136   2.121   1.461  0.5998 -0.9307  0.0484
 1123SOL     OW 4267   1.307   2.106   2.267  0.0148  0.1515  0.0669
 1123SOL    HW1 4268   1.254   2.166   2.207 -1.6861 -0.1564  1.1906
 1123SOL    HW2 4269   1.322   2.152   2.354 -1.0205 -0.9104  0.8194
 1124SOL     OW 4270   5.356   3.460   6.518  0.5715  0.0493 -0.0333
 1124SOL    HW1 4271   5.326   3.365   6.527 -0.4439  0.3627 -0.0712
 1124SOL    HW2 4272   5.448   3.462   6.478 -0.3676 -0.8275 -2.4065
 1125SOL     OW 4273   3.081   6.379   2.541 -0.0534 -0.2115 -0.6448
 1125SOL    HW1 4274   3.037   6.384   2.630 -1.0497 -1.2618 -1.0470
 1125SOL    HW2 4275   3.013   6.393   2.469  0.6969  0.4190 -1.2551
 1126SOL     OW 4276   1.633   0.153   2.004 -0.5677  0.4790  0.3953
 1126SOL    HW1 4277   1.727   0.118   2.011 -0.5171 -0.0002 -2.0374
 1126SOL    HW2 4278   1.635   0.249   1.979 -0.6477 -0.1594 -2.3244
 1127SOL     OW 4279   6.133   3.620   0.183 -0.1835 -0.7448  0.4144
 1127SOL    HW1 4280   6.154   3.550   0.115 -0.7521 -0.6722  0.1569
 1127SOL    HW2 4281   6.064   3.682   0.146  2.6524  2.0002 -0.7376
 1128SOL     OW 4282   5.739   3.255   3.560 -0.0718  0.3691 -0.5584
 1128SOL    HW1 4283   5.640   3.266   3.548 -0.0410  1.0085 -0.3115
 1128SOL    HW2 4284   5.762   3.158   3.560 -0.8018  0.1824  0.1622
 1129SOL     OW 4285   5.996   4.705   2.801  0.2472 -0.1307 -0.0446
 1129SOL    HW1 4286   5.987   4.736   2.896 -1.2163  1.1664 -0.5708
 1129SOL    HW2 4287   5.999   4.605   2.799 -0.3860 -0.1974  1.3054
 1130SOL     OW 4288   6.509   5.450   6.659 -0.1492  0.1611 -0.4327
 1130SOL    HW1 4289   6.539   5.541   6.686  1.4412 -0.4356 -0.0572
 1130SOL    HW2 4290   6.511   5.443   6.559 -0.4996  0.5935 -0.4758
 1131SOL     OW 4291   6.394   6.187   5.419 -0.2515 -0.4101  0.8551
 1131SOL    HW1 4292   6.429   6.232   5.337 -0.8715  0.6561  1.1538
 1131SOL    HW2 4293   6.439   6.224   5.500 -0.3889 -0.7088  1.0699
 1132SOL     OW 4294   5.535   0.397   4.040 -0.4675  0.3759  0.4469
 1132SOL    HW1 4295   5.585   0.330   4.096 -0.6602 -0.7785 -0.7262
 1132SOL    HW2 4296   5.438   0.395   4.064 -0.8970 -1.5406 -1.2149
 1133SOL     OW 4297   3.335   3.439   4.961 -0.2487 -0.3235  0.0987
 1133SOL    HW1 4298   3.381   3.521   4.928  0.5979 -1.5087 -1.8383
 1133SOL    HW2 4299   3.373   3.412   5.050 -2.4527  2.8486  2.2553
 1134SOL     OW 4300   5.770   3.503   5.371  0.3059  0.6581 -0.1007
 1134SOL    HW1 4301   5.802   3.412   5.347 -1.9181  0.2104 -1.7565
 1134SOL    HW2 4302   5.848   3.566   5.377  1.5752 -0.1929 -4.4285
 1135SOL     OW 4303   5.458   0.340   3.157  0.4810 -0.0551  0.1246
 1135SOL    HW1 4304   5.527   0.370   3.223  1.4363  1.0746 -1.3300
 1135SOL    HW2 4305   5.367   0.351   3.196  1.0581 -1.0352  1.8705
 1136SOL     OW 4306   3.447   6.318   6.855  0.0117  0.0084  0.3704
 1136SOL    HW1 4307   3.474   6.314   6.951  0.1383  0.8725  0.3732
 1136SOL    HW2 4308   3.486   6.239   6.807  1.0317  0.2594  0.7529
 1137SOL     OW 4309   0.294   3.819   6.927  0.9318 -0.1779  0.5363
 1137SOL    HW1 4310   0.196   3.836   6.918  1.1060  1.8465  1.9263
 1137SOL    HW2 4311   0.311   3.767   7.011  1.0706 -0.3143  0.4242
 1138SOL     OW 4312   2.303   6.610   0.934  0.0842 -0.1377  0.3974
 1138SOL    HW1 4313   2.334   6.695   0.892 -0.6066  0.3839  0.9156
 1138SOL    HW2 4314   2.218   6.580   0.890  0.7620 -1.0249 -0.3514
 1139SOL     OW 4315   5.817   2.245   6.525  0.0869  0.2127 -0.5991
 1139SOL    HW1 4316   5.826   2.205   6.616  0.9924  2.3662  0.3089
 1139SOL    HW2 4317   5.882   2.201   6.463  0.5309 -0.2416  0.1706
 1140SOL     OW 4318   0.676   5.597   3.624 -0.4638 -0.0440 -0.3803
 1140SOL    HW1 4319   0.616   5.530   3.667 -1.1314  0.4557 -0.5210
 1140SOL    HW2 4320   0.758   5.609   3.680 -0.3929 -0.8756 -0.2866
 1141SOL     OW 4321   5.273   2.708   3.381 -0.0323  0.3185  0.5667
 1141SOL    HW1 4322   5.209   2.632   3.385  0.0860  0.2762  2.3101
 1141SOL    HW2 4323   5.285   2.736   3.285  0.4899 -2.2927 -0.2208
 1142SOL     OW 4324   2.301   4.847   3.782  0.0610  0.4070 -0.6987
 1142SOL    HW1 4325   2.385   4.824   3.733 -0.2003 -0.0961 -0.9128
 1142SOL    HW2 4326   2.228   4.785   3.754  0.0694 -0.3390  0.8138
 1143SOL     OW 4327   0.990   6.091   0.701  0.5995 -0.4205  0.5072
 1143SOL    HW1 4328   0.911   6.068   0.758  0.0391  1.1278  0.4034
 1143SOL    HW2 4329   1.072   6.094   0.758  0.6120 -2.0003  0.6237
 1144SOL     OW 4330   5.641   0.217   0.490  0.1228  0.2879  0.8806
 1144SOL    HW1 4331   5.608   0.193   0.398  0.1765 -0.9842  1.1810
 1144SOL    HW2 4332   5.599   0.303   0.518  0.6863  1.1057 -0.6395
 1145SOL     OW 4333   5.598   2.219   6.352 -0.6251  0.0940 -0.1342
 1145SOL    HW1 4334   5.603   2.178   6.261 -1.5807 -1.0506  0.3061
 1145SOL    HW2 4335   5.681   2.197   6.403  0.1384  1.1601 -0.8769
 1146SOL     OW 4336   4.121   3.722   4.170  0.2321  0.2100  0.3615
 1146SOL    HW1 4337   4.085   3.792   4.108  1.3370  0.7259  0.2687
 1146SOL    HW2 4338   4.122   3.634   4.123  2.5554  0.8673 -1.0329
 1147SOL     OW 4339   3.792   1.508   4.627 -0.1284 -0.1623  0.0062
 1147SOL    HW1 4340   3.708   1.506   4.682  0.6106 -0.0836  1.1833
 1147SOL    HW2 4341   3.871   1.490   4.686  0.5170 -2.6482 -1.4619
 1148SOL     OW 4342   0.759   3.496   4.608 -0.0533  0.3390  0.1175
 1148SOL    HW1 4343   0.675   3.445   4.629  0.1252  0.3867  0.9801
 1148SOL    HW2 4344   0.813   3.447   4.541 -0.2685 -0.2189  0.3512
 1149SOL     OW 4345   1.029   3.776   4.022 -0.2481  0.0736 -0.3429
 1149SOL    HW1 4346   1.050   3.811   3.930  2.4507  0.3398  0.2929
 1149SOL    HW2 4347   1.064   3.683   4.030  0.4842  0.4308  0.7398
 1150SOL     OW 4348   5.169   0.730   0.769  0.6210 -0.4370  0.3414
 1150SOL    HW1 4349   5.137   0.640   0.801 -0.8241  0.1360  0.5656
 1150SOL    HW2 4350   5.094   0.796   0.773  2.1046  1.2473  1.8593
 1151SOL     OW 4351   3.191   6.012   2.150 -0.2060 -0.0542  0.3606
 1151SOL    HW1 4352   3.186   6.038   2.246  0.0133 -2.4295  1.0658
 1151SOL    HW2 4353   3.258   5.940   2.138  0.1432  0.5370 -1.6963
 1152SOL     OW 4354   6.321   5.673   2.780 -0.3391  0.0380  0.3018
 1152SOL    HW1 4355   6.419   5.683   2.799 -0.4343 -1.1536  1.6174
 1152SOL    HW2 4356   6.270   5.678   2.866 -1.5146  1.2801 -0.4377
 1153SOL     OW 4357   1.485   1.617   4.611  0.2640 -0.1116 -0.0189
 1153SOL    HW1 4358   1.472   1.714   4.632  0.0157 -0.5139  1.9333
 1153SOL    HW2 4359   1.583   1.596   4.609  0.3172  0.1679 -0.4003
 1154SOL     OW 4360   4.429   0.957   3.101 -0.1717 -0.0644 -0.1015
 1154SOL    HW1 4361   4.523   0.992   3.103  0.0206 -0.5144 -0.9663
 1154SOL    HW2 4362   4.404   0.933   3.007 -0.5288 -1.6165  0.3633
 1155SOL     OW 4363   2.168   3.899   4.057  0.2842 -0.2279  0.5802
 1155SOL    HW1 4364   2.144   3.930   4.149  0.1495  0.6042  0.2750
 1155SOL    HW2 4365   2.252   3.944   4.027 -0.0618  0.0572  0.0192
 1156SOL     OW 4366   5.535   5.330   5.699 -0.5301  0.3485 -0.2719
 1156SOL    HW1 4367   5.605   5.344   5.630  0.6703  1.0507  1.0420
 1156SOL    HW2 4368   5.445   5.350   5.660  0.0826  0.4285 -1.6923
 1157SOL     OW 4369   4.269   5.471   4.352 -0.1456 -0.1886  0.1801
 1157SOL    HW1 4370   4.304   5.399   4.292 -0.1883  0.2381 -0.3644
 1157SOL    HW2 4371   4.213   5.534   4.299 -0.9923 -0.3426  0.8599
 1158SOL     OW 4372   5.856   6.311   0.618  0.4249  0.1245 -0.0828
 1158SOL    HW1 4373   5.949   6.298   0.584  0.8573  1.0518  0.6930
 1158SOL    HW2 4374   5.818   6.396   0.581  0.0156 -0.0823 -0.1396
 1159SOL     OW 4375   2.068   1.319   2.888  0.1667  0.2116 -0.1099
 1159SOL    HW1 4376   2.009   1.293   2.811  1.4501  0.6852 -1.3048
 1159SOL    HW2 4377   2.108   1.238   2.929 -2.3601 -0.2469  1.6531
 1160SOL     OW 4378   1.551   6.555   3.391 -0.2446 -0.2400 -0.3768
 1160SOL    HW1 4379   1.520   6.635   3.443  1.5028  1.0020 -1.1333
 1160SOL    HW2 4380   1.513   6.559   3.299 -0.9394 -0.8325 -0.1250
 1161SOL     OW 4381   0.261   2.680   4.986  0.4844 -0.2000 -0.1530
 1161SOL    HW1 4382   0.240   2.697   5.082 -0.0962  2.5202 -0.6871
 1161SOL    HW2 4383   0.177   2.656   4.938  0.0975  1.8610 -0.5878
 1162SOL     OW 4384   2.094   1.756   6.271  0.1396 -0.0139 -0.6006
 1162SOL    HW1 4385   2.162   1.806   6.217 -0.3214  0.9378 -0.3206
 1162SOL    HW2 4386   2.098   1.786   6.366 -1.2681  0.7099 -0.7487
 1163SOL     OW 4387   6.475   5.956   0.172 -0.2851  0.3043  0.0043
 1163SOL    HW1 4388   6.496   5.949   0.270  0.4167  1.6473 -0.0259
 1163SOL    HW2 4389   6.387   6.002   0.160 -0.7953 -0.6595  0.0175
 1164SOL     OW 4390   2.191   5.137   6.851  0.1388  0.1467  0.2058
 1164SOL    HW1 4391   2.283   5.156   6.884  0.8875 -2.1905 -0.3309
 1164SOL    HW2 4392   2.155   5.217   6.803  1.3930  1.5055  1.4281
 1165SOL     OW 4393   5.143   0.018   6.615  0.3062 -0.2225 -0.1065
 1165SOL    HW1 4394   5.156  -0.026   6.527  0.3203 -3.0088  1.1934
 1165SOL    HW2 4395   5.048   0.050   6.623  0.6728  1.4192 -1.6204
 1166SOL     OW 4396   4.420   0.496   1.966 -0.8322 -0.1074  0.4254
 1166SOL    HW1 4397   4.517   0.515   1.952 -1.0182  0.2203 -0.5002
 1166SOL    HW2 4398   4.410   0.409   2.014 -0.1086 -0.7835 -0.6116
 1167SOL     OW 4399   2.390   6.427   0.133  0.0033  0.3144 -0.3368
 1167SOL    HW1 4400   2.330   6.376   0.071 -2.2390  2.8139 -0.3734
 1167SOL    HW2 4401   2.383   6.525   0.114  2.0942  0.9003  1.4782
 1168SOL     OW 4402   4.147   4.861   1.018 -0.4316  0.3513  0.0038
 1168SOL    HW1 4403   4.151   4.861   1.118 -0.8751 -2.8662  0.1114
 1168SOL    HW2 4404   4.060   4.900   0.988 -0.5269  0.8375  0.8922
 1169SOL     OW 4405   3.289   6.491   5.324  0.0301  0.2063  0.1292
 1169SOL    HW1 4406   3.207   6.441   5.294  0.8452 -1.2533  0.2305
 1169SOL    HW2 4407   3.294   6.491   5.423 -1.0411  2.3510  0.2416
 1170SOL     OW 4408   6.473   6.477   0.592  0.0693 -0.0800  0.4068
 1170SOL    HW1 4409   6.508   6.489   0.499  1.1973 -0.3827  0.7794
 1170SOL    HW2 4410   6.479   6.563   0.642 -3.1374  0.8725 -0.6003
 1171SOL     OW 4411   4.226   0.990   4.246 -0.2343 -0.0641 -0.6043
 1171SOL    HW1 4412   4.325   0.977   4.233  0.0225  0.1674  0.9782
 1171SOL    HW2 4413   4.198   1.076   4.205  0.5636  0.7229  0.4670
 1172SOL     OW 4414   3.027   4.950   3.423 -0.8046  0.2010  0.4267
 1172SOL    HW1 4415   3.045   5.049   3.419  3.8267 -0.4145  0.2780
 1172SOL    HW2 4416   3.052   4.915   3.513 -1.5640 -0.9516  0.2090
 1173SOL     OW 4417   0.970   4.058   2.384 -0.7688 -0.2774 -0.4231
 1173SOL    HW1 4418   1.043   4.122   2.362 -0.3216 -0.1319  1.3398
 1173SOL    HW2 4419   0.969   4.041   2.483 -2.0344 -1.5958 -0.6282
 1174SOL     OW 4420   6.161   6.148   3.474 -0.0047 -0.0174  0.9979
 1174SOL    HW1 4421   6.114   6.203   3.405 -0.1689  0.7029  1.6707
 1174SOL    HW2 4422   6.260   6.163   3.465  0.0573 -0.8682  0.1406
 1175SOL     OW 4423   2.871   6.496   1.570 -0.6839  0.2417 -0.0833
 1175SOL    HW1 4424   2.827   6.586   1.569 -2.0817 -0.4108  0.2142
 1175SOL    HW2 4425   2.885   6.467   1.665  2.4423  1.3416 -0.0744
 1176SOL     OW 4426   3.309   1.224   0.079 -0.0076 -1.2455 -0.2746
 1176SOL    HW1 4427   3.221   1.272   0.077  0.6032 -0.1305 -0.7656
 1176SOL    HW2 4428   3.377   1.280   0.125  1.6145  0.0207 -3.8661
 1177SOL     OW 4429   2.058   3.861   3.362 -0.3866 -0.3269 -0.0334
 1177SOL    HW1 4430   2.038   3.820   3.274 -1.4603 -0.1116  0.0961
 1177SOL    HW2 4431   1.972   3.877   3.412  0.0546  1.1560  0.3192
 1178SOL     OW 4432   4.771   0.450   1.083  0.6579  0.5742  0.5082
 1178SOL    HW1 4433   4.792   0.526   1.022 -0.5872  0.6989  0.2066
 1178SOL    HW2 4434   4.813   0.466   1.173  2.2787  0.5119 -0.2073
 1179SOL     OW 4435   6.059   4.348   6.329  0.2232 -0.4774  0.1157
 1179SOL    HW1 4436   5.994   4.412   6.370  0.4485  0.2395 -0.6172
 1179SOL    HW2 4437   6.149   4.361   6.370  0.6582  0.8628 -1.1713
 1180SOL     OW 4438   3.474   1.265   4.311  0.3815  0.1154 -0.2681
 1180SOL    HW1 4439   3.516   1.258   4.401 -0.0983  1.9197  0.1503
 1180SOL    HW2 4440   3.479   1.360   4.280 -2.2935  0.1773 -0.7148
 1181SOL     OW 4441   5.415   0.796   0.926  0.1522 -0.3113  0.0987
 1181SOL    HW1 4442   5.386   0.856   1.000  0.4307 -1.4899  1.1996
 1181SOL    HW2 4443   5.340   0.786   0.860 -0.6775 -0.4603  1.0282
 1182SOL     OW 4444   2.767   5.141   1.624 -0.1160 -0.0654  0.1497
 1182SOL    HW1 4445   2.819   5.074   1.678 -2.2971 -1.7639  0.3005
 1182SOL    HW2 4446   2.802   5.233   1.641  0.6218 -0.7598  2.8525
 1183SOL     OW 4447   6.511   1.712   0.169 -0.3582 -0.1123  0.0081
 1183SOL    HW1 4448   6.512   1.808   0.197 -0.2008  0.3345 -1.4101
 1183SOL    HW2 4449   6.418   1.687   0.139  0.0962  0.3753 -1.9795
 1184SOL     OW 4450   0.083   5.313   6.958 -0.2025 -1.0225  0.2564
 1184SOL    HW1 4451   0.099   5.370   7.039 -1.4928  0.5765 -0.5666
 1184SOL    HW2 4452  -0.011   5.277   6.961 -0.3015 -0.8473 -0.5848
 1185SOL     OW 4453   5.967   3.680   5.048  0.1290  0.3532  0.6006
 1185SOL    HW1 4454   6.027   3.757   5.027  0.4707  0.0303  0.3899
 1185SOL    HW2 4455   5.879   3.715   5.081  0.2734  0.8344  0.4872
 1186SOL     OW 4456   6.665   3.769   4.393  0.2892  0.4048 -0.3893
 1186SOL    HW1 4457   6.726   3.694   4.420  0.4548  0.7587  0.2589
 1186SOL    HW2 4458   6.716   3.835   4.338  1.0751  1.6654  1.7033
 1187SOL     OW 4459   0.573   1.879   2.433  0.3468  0.2229 -0.3340
 1187SOL    HW1 4460   0.547   1.920   2.521 -0.7334 -0.9442 -0.0700
 1187SOL    HW2 4461   0.495   1.882   2.371  0.8458  0.2842 -0.9667
 1188SOL     OW 4462   3.154   3.610   0.015  0.4366 -0.1292  0.0477
 1188SOL    HW1 4463   3.178   3.518   0.045 -1.1028 -0.9242 -1.0624
 1188SOL    HW2 4464   3.094   3.605  -0.065  3.0322  1.8578 -2.2527
 1189SOL     OW 4465   1.110   4.508   2.407 -0.6845 -0.3466 -0.2952
 1189SOL    HW1 4466   1.041   4.535   2.474 -0.2421 -1.1977  0.5261
 1189SOL    HW2 4467   1.135   4.412   2.421  2.2683  0.4682  0.9485
 1190SOL     OW 4468   6.155   1.893   5.511 -0.3571 -0.2247  0.0980
 1190SOL    HW1 4469   6.194   1.972   5.559 -0.3135  0.1973 -0.6074
 1190SOL    HW2 4470   6.088   1.925   5.444 -1.8075 -0.9185  1.1404
 1191SOL     OW 4471   0.749   2.924   5.969  0.2508  0.2400  0.0986
 1191SOL    HW1 4472   0.707   2.842   5.930 -0.4447 -0.6659  2.5407
 1191SOL    HW2 4473   0.838   2.901   6.008 -0.0405  0.5765  0.9935
 1192SOL     OW 4474   0.509   3.661   1.937 -0.0579 -0.6584 -0.6434
 1192SOL    HW1 4475   0.605   3.678   1.912  0.1866 -2.0586 -0.7465
 1192SOL    HW2 4476   0.480   3.728   2.005  1.8711 -1.8123  1.4508
 1193SOL     OW 4477   2.216   5.016   4.791  1.0666  0.1602 -0.2117
 1193SOL    HW1 4478   2.172   5.101   4.819 -0.4217 -0.5877 -0.1624
 1193SOL    HW2 4479   2.273   4.981   4.865  1.0448  0.7036  0.0632
 1194SOL     OW 4480   1.421   1.493   6.316  0.0920 -0.0721  0.1033
 1194SOL    HW1 4481   1.402   1.562   6.246 -0.3558 -1.1438 -0.8728
 1194SOL    HW2 4482   1.353   1.500   6.389 -0.1290  0.3209 -0.1401
 1195SOL     OW 4483   4.307   4.909   5.290  0.1872  0.2075 -0.4073
 1195SOL    HW1 4484   4.289   4.813   5.268  2.2444 -0.4953  0.6836
 1195SOL    HW2 4485   4.323   4.960   5.205  0.4819 -0.7428 -0.9431
 1196SOL     OW 4486   3.704   4.260   5.964 -0.1410  0.6366 -0.2461
 1196SOL    HW1 4487   3.641   4.185   5.943 -0.6302  0.8719  0.3384
 1196SOL    HW2 4488   3.759   4.281   5.883  0.6158 -0.9233 -0.1628
 1197SOL     OW 4489   1.073   5.338   3.785 -0.0485  0.2910 -0.2094
 1197SOL    HW1 4490   1.046   5.433   3.801 -0.1213 -0.0427  2.0369
 1197SOL    HW2 4491   1.025   5.303   3.704 -1.7957  1.4936  0.2269
 1198SOL     OW 4492   5.431   4.549   0.628 -0.4226  0.1504 -0.1292
 1198SOL    HW1 4493   5.376   4.616   0.677 -1.4998 -0.6058 -0.2712
 1198SOL    HW2 4494   5.411   4.457   0.662 -0.3850 -0.2891 -1.2348
 1199SOL     OW 4495   5.995   3.187   2.972  0.2895  0.2452  0.1385
 1199SOL    HW1 4496   5.995   3.092   2.940 -0.3089  0.5802 -0.9011
 1199SOL    HW2 4497   6.086   3.226   2.961  0.3894 -0.0242  0.0042
 1200SOL     OW 4498   4.341   4.785   0.806 -0.3148  0.4315  0.0484
 1200SOL    HW1 4499   4.263   4.825   0.853 -1.4042  0.2166 -1.4889
 1200SOL    HW2 4500   4.422   4.790   0.864 -1.2569  1.4990  1.3138
 1201SOL     OW 4501   2.203   3.248   4.226 -0.0876 -0.0858 -0.1903
 1201SOL    HW1 4502   2.207   3.180   4.300 -1.7973  1.2172  1.1764
 1201SOL    HW2 4503   2.147   3.213   4.151  0.1750 -0.7117 -0.0981
 1202SOL     OW 4504   3.400   6.452   2.716  0.6583 -0.3708 -0.5723
 1202SOL    HW1 4505   3.461   6.526   2.743  0.1282 -0.4145  0.8262
 1202SOL    HW2 4506   3.387   6.453   2.617  2.3925  0.0391 -0.8191
 1203SOL     OW 4507   6.592   6.991   1.371  0.6550 -0.0094 -0.6533
 1203SOL    HW1 4508   6.682   7.020   1.404  0.9179 -0.5740 -0.8558
 1203SOL    HW2 4509   6.603   6.942   1.285  0.3686 -1.9038  0.3520
 1204SOL     OW 4510   6.772   1.292   2.176  0.0906  0.0458  0.0316
 1204SOL    HW1 4511   6.784   1.384   2.138 -0.0836  0.6567  1.4023
 1204SOL    HW2 4512   6.683   1.285   2.220 -0.0974 -0.9500 -0.4719
 1205SOL     OW 4513   2.901   2.696   6.845  0.3856  0.1069  0.8994
 1205SOL    HW1 4514   2.864   2.768   6.904  0.8950  0.9109  0.2652
 1205SOL    HW2 4515   2.960   2.635   6.898  1.7085  1.4521  1.0395
 1206SOL     OW 4516   3.203   0.609   0.325 -0.0931 -0.0179 -0.6461
 1206SOL    HW1 4517   3.124   0.551   0.345 -0.9138  0.6181 -1.8697
 1206SOL    HW2 4518   3.188   0.700   0.364  1.2585 -0.6167  1.4043
 1207SOL     OW 4519   5.821   2.680   0.160  0.1393  0.8889  0.2464
 1207SOL    HW1 4520   5.880   2.755   0.190  1.2294  0.7884 -1.5044
 1207SOL    HW2 4521   5.815   2.612   0.234  1.2100  1.4938  0.9289
 1208SOL     OW 4522   3.297   0.085   7.008 -0.1229 -0.4181  0.0339
 1208SOL    HW1 4523   3.345  -0.001   7.022  0.8654  0.2935  1.1756
 1208SOL    HW2 4524   3.207   0.080   7.051  0.4836 -0.4072  1.3359
 1209SOL     OW 4525   0.383   0.003   2.330  0.4053  0.1765  0.4136
 1209SOL    HW1 4526   0.400  -0.041   2.242  1.8633 -0.4009  0.9705
 1209SOL    HW2 4527   0.316  -0.051   2.382 -1.1187  0.9593 -0.6313
 1210SOL     OW 4528   1.344   3.243   6.192  0.1531  0.5736 -0.9921
 1210SOL    HW1 4529   1.421   3.179   6.203  1.1155  1.9516  0.6958
 1210SOL    HW2 4530   1.364   3.307   6.118  0.8223  1.1433 -0.3354
 1211SOL     OW 4531   2.398   0.395   2.448 -0.2313  0.1984 -0.0288
 1211SOL    HW1 4532   2.363   0.476   2.495  1.4305  1.2787 -0.6061
 1211SOL    HW2 4533   2.449   0.338   2.513  0.4624  0.7404 -0.0885
 1212SOL     OW 4534   3.502   4.938   4.862  0.4196  0.0576 -0.0412
 1212SOL    HW1 4535   3.484   4.900   4.953  0.2992 -0.5784 -0.3280
 1212SOL    HW2 4536   3.415   4.961   4.818  0.4232 -0.6672 -0.4314
 1213SOL     OW 4537   2.938   6.400   1.851 -0.2703  0.1209 -0.4772
 1213SOL    HW1 4538   2.953   6.397   1.950 -0.5072 -1.2394 -0.4671
 1213SOL    HW2 4539   2.872   6.330   1.825 -0.5772  0.7789 -1.5537
 1214SOL     OW 4540   5.730   6.571   4.804  0.1494  0.2347 -0.3322
 1214SOL    HW1 4541   5.680   6.485   4.802  1.3553 -0.4816 -0.7289
 1214SOL    HW2 4542   5.699   6.626   4.881 -0.3911 -0.6959  0.1312
 1215SOL     OW 4543   6.262   2.905   5.788 -0.2573 -0.1455 -0.0601
 1215SOL    HW1 4544   6.323   2.868   5.859  2.4476 -0.2308 -2.2647
 1215SOL    HW2 4545   6.315   2.964   5.727 -2.4429 -0.2293 -2.1569
 1216SOL     OW 4546   0.135   5.816   1.833  0.0217 -0.5475  0.0443
 1216SOL    HW1 4547   0.066   5.779   1.896  0.7857 -1.6417  0.2681
 1216SOL    HW2 4548   0.217   5.840   1.884  0.3006 -0.5347 -0.4050
 1217SOL     OW 4549   6.951   0.811   5.653 -0.1457  0.0743 -0.1492
 1217SOL    HW1 4550   6.909   0.722   5.635  1.6554 -0.4416 -2.2579
 1217SOL    HW2 4551   6.936   0.871   5.575  3.5464 -0.4210 -1.4298
 1218SOL     OW 4552   4.309   4.652   2.241  0.1264 -0.1111  0.4416
 1218SOL    HW1 4553   4.331   4.581   2.174  0.2810 -0.9200  1.3198
 1218SOL    HW2 4554   4.346   4.625   2.330 -0.4257  0.7495  0.9373
 1219SOL     OW 4555   1.593   4.838   5.650 -0.0391 -0.4326 -0.4692
 1219SOL    HW1 4556   1.582   4.888   5.736  1.0965 -0.5392 -0.2461
 1219SOL    HW2 4557   1.517   4.773   5.639  0.9374 -2.0472  1.5937
 1220SOL     OW 4558   6.142   0.274   5.061 -0.3173 -0.5096  0.0679
 1220SOL    HW1 4559   6.218   0.278   5.125 -1.4192 -1.6087  1.5095
 1220SOL    HW2 4560   6.118   0.367   5.032  0.1833  0.0197  1.2859
 1221SOL     OW 4561   4.789   5.209   0.796 -0.1734 -0.0260 -0.1559
 1221SOL    HW1 4562   4.745   5.274   0.858  0.1763 -1.0501  1.1965
 1221SOL    HW2 4563   4.887   5.204   0.816  0.4472  1.4075 -2.4102
 1222SOL     OW 4564   4.722   1.574   2.052  0.6269 -0.0575  0.2670
 1222SOL    HW1 4565   4.648   1.641   2.047  0.6562  0.0409  1.0588
 1222SOL    HW2 4566   4.682   1.483   2.063  0.5716 -0.2400 -1.2341
 1223SOL     OW 4567   4.662   2.630   0.441  0.3610  0.3170 -0.2091
 1223SOL    HW1 4568   4.636   2.554   0.500 -1.5353  0.9434 -0.1808
 1223SOL    HW2 4569   4.581   2.682   0.416  1.4564  1.5687 -1.3057
 1224SOL     OW 4570   4.307   4.666   0.573  0.3769  0.1427 -0.1438
 1224SOL    HW1 4571   4.345   4.717   0.651  0.1965 -0.3506  0.2703
 1224SOL    HW2 4572   4.361   4.584   0.557  0.7669  0.5466 -0.9200
 1225SOL     OW 4573   0.436   2.733   4.769  0.4660  0.4032  0.4766
 1225SOL    HW1 4574   0.394   2.729   4.860 -1.3547 -0.1203 -0.3484
 1225SOL    HW2 4575   0.535   2.743   4.779  0.4313 -0.7255  2.5250
 1226SOL     OW 4576   5.145   6.058   2.001 -0.3043 -0.6098 -0.0472
 1226SOL    HW1 4577   5.080   6.130   2.023 -0.3319 -0.7178  0.2283
 1226SOL    HW2 4578   5.202   6.087   1.924  1.6370  0.9169  1.8493
 1227SOL     OW 4579   4.270   0.465   0.037 -0.0404 -0.3458 -0.3983
 1227SOL    HW1 4580   4.240   0.517   0.117  2.5603 -0.0472  0.4898
 1227SOL    HW2 4581   4.358   0.421   0.057  0.2222 -1.0575 -2.7950
 1228SOL     OW 4582   0.233   5.317   3.680 -0.5617 -0.0392  0.0668
 1228SOL    HW1 4583   0.257   5.220   3.687  1.6772  0.4223 -0.4226
 1228SOL    HW2 4584   0.217   5.340   3.584  5.0015  1.2115 -0.9075
 1229SOL     OW 4585   2.376   6.490   2.556  0.1409  0.0732 -0.2202
 1229SOL    HW1 4586   2.370   6.398   2.595 -1.3136 -0.2763 -1.1661
 1229SOL    HW2 4587   2.413   6.484   2.463  2.0138  0.7080  0.4428
 1230SOL     OW 4588   5.567   5.408   6.881  0.2592 -0.4312 -0.5661
 1230SOL    HW1 4589   5.491   5.362   6.928 -1.3085  1.2839 -1.2761
 1230SOL    HW2 4590   5.654   5.371   6.913 -0.7490 -0.2880  2.6707
 1231SOL     OW 4591   4.723   0.288   4.100 -0.0959 -0.2563 -0.2654
 1231SOL    HW1 4592   4.724   0.250   4.192  0.1026 -0.6238 -0.4169
 1231SOL    HW2 4593   4.808   0.263   4.053 -1.0132 -1.7198 -1.2137
 1232SOL     OW 4594   6.636   5.441   2.529 -0.0226 -0.0171 -0.1764
 1232SOL    HW1 4595   6.683   5.394   2.454  0.8505 -1.3292  1.1292
 1232SOL    HW2 4596   6.578   5.376   2.577  0.9516  0.2670  1.4770
 1233SOL     OW 4597   5.045   5.308   2.193  0.0022 -0.1252  0.2693
 1233SOL    HW1 4598   4.967   5.368   2.213 -0.5166 -1.1943  1.6273
 1233SOL    HW2 4599   5.042   5.229   2.253 -0.0478 -2.2038 -2.2919
 1234SOL     OW 4600   5.879   4.060   2.654 -0.2160 -0.0907 -0.1944
 1234SOL    HW1 4601   5.941   3.982   2.648 -0.2190 -0.1398  0.3559
 1234SOL    HW2 4602   5.914   4.125   2.721 -1.3155 -0.6508  0.9649
 1235SOL     OW 4603   0.421   0.718   6.649  0.2080 -0.2898  0.0759
 1235SOL    HW1 4604   0.417   0.813   6.621  0.4498  0.0467  1.1461
 1235SOL    HW2 4605   0.348   0.666   6.603 -0.6906  0.6553  0.4036
 1236SOL     OW 4606   1.137   6.808   2.649  0.6966  0.1513  0.7190
 1236SOL    HW1 4607   1.218   6.750   2.657  0.9595  0.3964 -0.1159
 1236SOL    HW2 4608   1.099   6.825   2.740  0.7699 -1.1124  0.9978
 1237SOL     OW 4609   0.054   6.489   1.891  0.0119 -0.0567  0.1695
 1237SOL    HW1 4610   0.043   6.589   1.888 -2.4763 -0.2955 -0.6880
 1237SOL    HW2 4611   0.005   6.447   1.815  0.7573 -1.9871  0.6891
 1238SOL     OW 4612   2.981   0.426   0.320  0.1434 -0.1373 -0.2942
 1238SOL    HW1 4613   2.944   0.362   0.252  0.0682  0.2065 -0.5776
 1238SOL    HW2 4614   2.920   0.504   0.329 -0.6859 -0.9207  1.3296
 1239SOL     OW 4615   0.365   0.436   4.758  0.0355  0.3584  0.0800
 1239SOL    HW1 4616   0.355   0.350   4.707  1.1522 -0.0581  0.5293
 1239SOL    HW2 4617   0.372   0.512   4.694 -0.3621  0.0461 -0.3406
 1240SOL     OW 4618   4.693   6.880   3.584  0.4064  0.2056  0.2168
 1240SOL    HW1 4619   4.764   6.871   3.654  1.6568  0.1257 -1.0327
 1240SOL    HW2 4620   4.609   6.837   3.617  1.3957 -1.1423  1.0946
 1241SOL     OW 4621   1.515   6.109   3.472 -0.1362 -0.1212 -0.0300
 1241SOL    HW1 4622   1.440   6.173   3.450 -0.0008  0.0560  0.0215
 1241SOL    HW2 4623   1.540   6.118   3.568  0.5134  0.4223 -0.2386
 1242SOL     OW 4624   4.079   4.194   0.975 -1.0747  0.1786 -0.1544
 1242SOL    HW1 4625   4.061   4.138   0.894  1.8759 -1.2734  0.0389
 1242SOL    HW2 4626   4.085   4.136   1.056 -0.2808  1.0779  0.4586
 1243SOL     OW 4627   1.373   5.766   3.347  0.2822  0.1367 -0.6622
 1243SOL    HW1 4628   1.460   5.740   3.305  0.3428 -0.9464  0.1022
 1243SOL    HW2 4629   1.390   5.833   3.420  0.8619 -2.1509  1.4239
 1244SOL     OW 4630   0.081   4.005   3.945 -0.2676  0.0232 -0.0717
 1244SOL    HW1 4631   0.176   4.008   3.914 -0.7857 -1.3724 -2.0000
 1244SOL    HW2 4632   0.077   3.972   4.039  1.1588  0.3771  0.1322
 1245SOL     OW 4633   0.873   6.645   6.241 -1.0086  0.0771  0.3525
 1245SOL    HW1 4634   0.831   6.559   6.269 -3.0697  0.8771 -0.1379
 1245SOL    HW2 4635   0.973   6.637   6.251 -1.2820 -1.2539  3.3880
 1246SOL     OW 4636   5.407   3.007   3.973 -0.1954  0.3812  0.1673
 1246SOL    HW1 4637   5.322   3.024   4.022  0.4164  0.4464  1.2400
 1246SOL    HW2 4638   5.483   3.047   4.024  0.3482  1.4856 -1.4393
 1247SOL     OW 4639   2.351   6.729   4.570 -0.6879  0.2351 -0.4170
 1247SOL    HW1 4640   2.271   6.676   4.540  0.0536 -0.4984 -1.1317
 1247SOL    HW2 4641   2.415   6.739   4.494  0.8664 -0.9432  0.6884
 1248SOL     OW 4642   5.211   4.701   4.720  0.2450 -0.2318  0.1963
 1248SOL    HW1 4643   5.228   4.727   4.625  0.6387  0.4343  0.4439
 1248SOL    HW2 4644   5.243   4.607   4.735  0.0072 -0.4111 -0.3708
 1249SOL     OW 4645   2.446   4.719   1.321  0.1490  0.3642 -0.2162
 1249SOL    HW1 4646   2.434   4.814   1.350 -0.3796  0.7082 -1.4635
 1249SOL    HW2 4647   2.457   4.660   1.401 -2.2798  1.0995  0.7456
 1250SOL     OW 4648   4.371   5.353   1.902 -0.7085 -0.0298 -0.0487
 1250SOL    HW1 4649   4.291   5.398   1.940  0.6380  2.0688  0.4459
 1250SOL    HW2 4650   4.393   5.392   1.812 -1.7078 -2.4084 -1.4211
 1251SOL     OW 4651   6.687   3.516   6.005  0.0639  0.3072 -0.9515
 1251SOL    HW1 4652   6.594   3.483   6.018  0.7614 -0.7394  2.4041
 1251SOL    HW2 4653   6.728   3.467   5.928 -0.8138 -2.6509  0.2842
 1252SOL     OW 4654   6.217   3.287   3.714  0.2928  0.1907  0.3588
 1252SOL    HW1 4655   6.127   3.271   3.674 -0.4465  0.2760  1.9075
 1252SOL    HW2 4656   6.252   3.202   3.753  0.3598  0.4018  0.7692
 1253SOL     OW 4657   5.838   2.451   3.004 -0.3058  0.4590 -0.1981
 1253SOL    HW1 4658   5.883   2.429   3.091  0.2980  0.2943 -0.5461
 1253SOL    HW2 4659   5.901   2.503   2.946 -0.0871 -0.8574 -1.1939
 1254SOL     OW 4660   6.901   4.502   4.087  0.1341  0.3034  0.1426
 1254SOL    HW1 4661   7.001   4.495   4.094  0.0690 -0.8336  0.1770
 1254SOL    HW2 4662   6.860   4.471   4.173 -0.2908 -0.9970 -0.5134
 1255SOL     OW 4663   0.628   4.541   6.677 -0.8201  0.0079  0.3617
 1255SOL    HW1 4664   0.661   4.616   6.620 -0.3936  0.2641  0.9322
 1255SOL    HW2 4665   0.533   4.558   6.703 -0.3031  1.1064  1.6736
 1256SOL     OW 4666   4.474   1.496   0.993  0.2800 -0.3405 -0.3413
 1256SOL    HW1 4667   4.552   1.470   1.050 -0.6035  0.6105  1.3811
 1256SOL    HW2 4668   4.476   1.443   0.908  1.7899 -1.6318  0.4404
 1257SOL     OW 4669   1.135   5.615   2.105  0.6221  0.0498  0.1209
 1257SOL    HW1 4670   1.130   5.563   2.190  2.3601  1.4540  1.1766
 1257SOL    HW2 4671   1.219   5.591   2.056 -0.3919 -0.7853 -1.2687
 1258SOL     OW 4672   3.164   6.306   1.728 -0.3232  0.0164  0.4114
 1258SOL    HW1 4673   3.209   6.251   1.799 -0.1911  2.2046  2.1226
 1258SOL    HW2 4674   3.078   6.342   1.763 -1.3676 -0.6187 -1.3624
 1259SOL     OW 4675   5.623   3.446   6.431 -0.3198 -0.1550 -0.0621
 1259SOL    HW1 4676   5.607   3.452   6.332  0.2442 -0.9521 -0.2082
 1259SOL    HW2 4677   5.715   3.412   6.448 -0.7625 -1.0288  0.7228
 1260SOL     OW 4678   6.512   4.822   1.016 -0.2541  0.2937  0.6824
 1260SOL    HW1 4679   6.436   4.820   1.081 -2.0017 -0.6172 -1.2394
 1260SOL    HW2 4680   6.549   4.730   1.005 -1.9344 -0.1971 -1.6403
 1261SOL     OW 4681   2.761   1.263   1.080 -0.4838 -0.1224 -0.0120
 1261SOL    HW1 4682   2.679   1.263   1.022  0.4490 -1.0709 -1.4110
 1261SOL    HW2 4683   2.825   1.194   1.047  1.3719  1.3267  0.3305
 1262SOL     OW 4684   0.151   5.713   5.797 -0.9104 -0.2213 -0.1713
 1262SOL    HW1 4685   0.081   5.783   5.785  0.2764  0.6192 -3.4404
 1262SOL    HW2 4686   0.241   5.754   5.780  0.0365 -2.0291  0.2996
 1263SOL     OW 4687   5.225   0.126   3.863  0.2349 -0.1872 -0.2527
 1263SOL    HW1 4688   5.150   0.168   3.812  0.1454 -1.1704 -0.9383
 1263SOL    HW2 4689   5.276   0.064   3.804  0.3027 -1.1415  0.7640
 1264SOL     OW 4690   4.182   0.187   5.531 -0.3316  0.1162  0.0153
 1264SOL    HW1 4691   4.099   0.187   5.476  0.9710  0.0441 -2.0746
 1264SOL    HW2 4692   4.168   0.243   5.613 -2.8989 -1.1981  0.5577
 1265SOL     OW 4693   6.982   3.550   2.209  0.5118 -0.1209 -0.0398
 1265SOL    HW1 4694   6.895   3.572   2.253  0.6164  0.5213 -0.1418
 1265SOL    HW2 4695   6.977   3.459   2.169 -0.5533  0.3752 -1.1186
 1266SOL     OW 4696   3.059   5.358   5.828 -0.0728 -0.0029  0.6836
 1266SOL    HW1 4697   3.012   5.345   5.915 -1.3278  0.9260  0.1755
 1266SOL    HW2 4698   3.007   5.315   5.755  0.9479 -0.7375  0.3563
 1267SOL     OW 4699   2.421   5.033   4.138 -0.1175  0.2444  0.4220
 1267SOL    HW1 4700   2.350   5.077   4.194 -2.6882 -1.4342 -1.3170
 1267SOL    HW2 4701   2.420   5.073   4.047  2.2699  1.1695  0.7229
 1268SOL     OW 4702   2.132   6.183   0.255  0.0985 -0.6452  0.2170
 1268SOL    HW1 4703   2.173   6.178   0.346 -0.7756 -1.6453  0.5861
 1268SOL    HW2 4704   2.201   6.164   0.186  1.2937  2.2803  0.4789
 1269SOL     OW 4705   4.349   4.998   3.909 -0.3087  0.3760  0.8380
 1269SOL    HW1 4706   4.268   4.968   3.959 -0.4982 -0.3210  0.1202
 1269SOL    HW2 4707   4.351   5.098   3.907 -2.4843  0.4642 -1.1891
 1270SOL     OW 4708   6.285   0.177   2.018  0.4186  0.5219  0.5879
 1270SOL    HW1 4709   6.210   0.210   2.075 -1.4523  1.5131 -2.2246
 1270SOL    HW2 4710   6.268   0.082   1.992 -0.4492  1.0272 -0.8130
 1271SOL     OW 4711   2.804   3.021   5.969  0.9249 -0.0725  0.3242
 1271SOL    HW1 4712   2.883   3.067   6.011  0.2314  2.2458 -0.7252
 1271SOL    HW2 4713   2.737   3.000   6.040  1.1024  0.9554  0.8186
 1272SOL     OW 4714   2.232   3.558   5.902 -0.1814  0.1177  0.5321
 1272SOL    HW1 4715   2.249   3.497   5.825 -0.0754 -0.7924  1.2601
 1272SOL    HW2 4716   2.133   3.571   5.913 -0.1850  0.6667 -0.0573
 1273SOL     OW 4717   3.280   1.753   4.195 -0.4467  0.0975 -0.2514
 1273SOL    HW1 4718   3.268   1.829   4.131 -2.3455 -0.8063 -1.0451
 1273SOL    HW2 4719   3.195   1.738   4.245  0.3961 -0.5210  1.0447
 1274SOL     OW 4720   1.336   7.008   1.717 -0.7359  0.6801  0.6656
 1274SOL    HW1 4721   1.251   7.061   1.720  0.1863  2.2350  0.6059
 1274SOL    HW2 4722   1.414   7.071   1.726  0.3837 -0.9044  3.4679
 1275SOL     OW 4723   2.539   0.390   3.987  0.2225 -0.6343  0.1460
 1275SOL    HW1 4724   2.484   0.307   3.989 -0.3621 -0.2337  1.1824
 1275SOL    HW2 4725   2.483   0.468   4.013  0.5796  0.2099 -1.4917
 1276SOL     OW 4726   1.543   2.214   4.467 -0.5355 -0.3286  0.0159
 1276SOL    HW1 4727   1.496   2.132   4.499 -1.7382  0.4918  0.4415
 1276SOL    HW2 4728   1.480   2.269   4.413  0.6731 -0.3544 -1.4820
 1277SOL     OW 4729   6.224   3.677   6.879  0.0443  0.5252 -0.4182
 1277SOL    HW1 4730   6.303   3.706   6.933  0.4545  0.3455 -0.9225
 1277SOL    HW2 4731   6.198   3.750   6.816  1.1012 -0.1844 -1.7165
 1278SOL     OW 4732   2.231   6.029   4.322 -0.8527 -0.1330  0.3797
 1278SOL    HW1 4733   2.295   6.099   4.290 -2.1591  0.7997 -0.2847
 1278SOL    HW2 4734   2.246   6.010   4.419 -0.4128  0.9926  0.5363
 1279SOL     OW 4735   1.893   4.612   3.401  0.4995 -0.3590 -0.1397
 1279SOL    HW1 4736   1.935   4.597   3.312  0.3365 -1.0312 -0.1127
 1279SOL    HW2 4737   1.899   4.528   3.455 -0.5428 -0.3594 -0.0013
 1280SOL     OW 4738   2.983   3.096   6.925 -0.1036  0.2234 -0.1786
 1280SOL    HW1 4739   2.941   3.103   6.835  0.5552 -0.5429 -0.5604
 1280SOL    HW2 4740   3.074   3.054   6.916 -0.0336  0.1348  0.8392
 1281SOL     OW 4741   4.773   4.719   0.907  0.5170 -0.5523  0.0032
 1281SOL    HW1 4742   4.756   4.711   0.809  1.6564 -1.5810 -0.1404
 1281SOL    HW2 4743   4.835   4.796   0.924  0.7230 -0.6850 -0.1434
 1282SOL     OW 4744   0.252   5.442   6.734 -0.6856  0.2207  0.0456
 1282SOL    HW1 4745   0.186   5.428   6.808 -0.2395  1.5174  0.7202
 1282SOL    HW2 4746   0.340   5.400   6.759 -0.9317 -0.5769 -0.3882
 1283SOL     OW 4747   4.170   5.719   6.578 -0.3952 -0.3453  0.7910
 1283SOL    HW1 4748   4.140   5.732   6.672 -0.2943  0.1738  0.7558
 1283SOL    HW2 4749   4.101   5.668   6.527 -1.1229  0.6601  0.7578
 1284SOL     OW 4750   0.602   3.796   6.543 -0.4169  0.5506  0.1805
 1284SOL    HW1 4751   0.596   3.894   6.565 -0.6478  0.6486 -0.3023
 1284SOL    HW2 4752   0.693   3.762   6.567 -0.8664  0.4759  1.9487
 1285SOL     OW 4753   0.108   3.484   6.530  0.3579  0.4382  0.3034
 1285SOL    HW1 4754   0.073   3.431   6.453 -0.4659  2.1850 -0.5919
 1285SOL    HW2 4755   0.205   3.464   6.543  0.9726  1.2605 -2.2985
 1286SOL     OW 4756   2.794   1.166   5.578 -0.2039  0.5640 -0.3079
 1286SOL    HW1 4757   2.843   1.084   5.548  1.9906  1.7383 -0.1271
 1286SOL    HW2 4758   2.750   1.148   5.666 -0.3645 -0.6107 -0.6055
 1287SOL     OW 4759   5.680   2.448   5.828  0.3909  0.1209  0.3396
 1287SOL    HW1 4760   5.584   2.425   5.817 -0.5973  3.6458  0.4706
 1287SOL    HW2 4761   5.729   2.370   5.868 -2.1749 -2.0585 -0.5350
 1288SOL     OW 4762   1.564   3.346   3.714 -0.6281  0.2314 -0.3084
 1288SOL    HW1 4763   1.626   3.279   3.676 -0.5909  0.2360 -0.2552
 1288SOL    HW2 4764   1.515   3.307   3.791  1.0161  0.9429  1.1719
 1289SOL     OW 4765   1.093   5.072   3.023 -0.0622 -0.3127 -0.4173
 1289SOL    HW1 4766   1.175   5.064   3.080 -0.7038 -1.4049  0.4173
 1289SOL    HW2 4767   1.119   5.082   2.928  1.0482 -0.5883 -0.1596
 1290SOL     OW 4768   6.481   6.619   5.784  0.4586  0.5787 -0.1228
 1290SOL    HW1 4769   6.477   6.693   5.852  2.3774 -0.0040  0.7088
 1290SOL    HW2 4770   6.577   6.600   5.762  0.0036 -1.4840 -0.5239
 1291SOL     OW 4771   5.758   0.824   2.716 -0.0620 -0.3567 -0.0728
 1291SOL    HW1 4772   5.678   0.809   2.774  0.1625 -0.2058  0.2831
 1291SOL    HW2 4773   5.759   0.920   2.686  0.1005 -0.3010  0.1062
 1292SOL     OW 4774   2.400   1.474   2.596  0.4460  0.1586 -0.3302
 1292SOL    HW1 4775   2.374   1.561   2.554  1.5387  0.0093 -1.3698
 1292SOL    HW2 4776   2.329   1.406   2.577  0.6796  0.2262 -1.5413
 1293SOL     OW 4777   0.407   3.905   1.611  0.0772  0.5250  0.3863
 1293SOL    HW1 4778   0.416   3.812   1.647  1.4220  0.9114  1.1269
 1293SOL    HW2 4779   0.326   3.911   1.553  0.0387 -1.1363  0.2327
 1294SOL     OW 4780   2.168   1.292   3.207 -0.3364  0.4215  0.6047
 1294SOL    HW1 4781   2.168   1.289   3.107  0.6492 -1.9883  0.6090
 1294SOL    HW2 4782   2.158   1.387   3.237 -0.9376  1.1820 -1.7506
 1295SOL     OW 4783   0.425   1.434   6.125 -0.0910  0.6537  0.3208
 1295SOL    HW1 4784   0.361   1.451   6.200  0.0821  0.8505  0.4248
 1295SOL    HW2 4785   0.466   1.344   6.136  1.7669  1.6374  1.8234
 1296SOL     OW 4786   5.726   4.667   1.650 -0.3868  0.5268 -0.3242
 1296SOL    HW1 4787   5.694   4.741   1.591  0.7166  0.2803 -1.2749
 1296SOL    HW2 4788   5.807   4.696   1.700 -1.2489  0.6937  1.0284
 1297SOL     OW 4789   3.353   4.363   5.328 -0.2661  0.0265  0.3394
 1297SOL    HW1 4790   3.277   4.323   5.276 -1.6201  1.1636  1.3787
 1297SOL    HW2 4791   3.440   4.334   5.287 -1.2452  0.3811 -2.1926
 1298SOL     OW 4792   3.035   2.500   6.275 -0.2742 -0.3175  0.1970
 1298SOL    HW1 4793   3.070   2.553   6.197 -0.7710  0.2369  0.3438
 1298SOL    HW2 4794   2.949   2.456   6.249 -0.6834  0.2479  0.5718
 1299SOL     OW 4795   1.568   3.276   5.467 -0.1316  0.2546  0.0499
 1299SOL    HW1 4796   1.615   3.209   5.525 -2.2341 -1.7293 -0.3979
 1299SOL    HW2 4797   1.600   3.266   5.373  1.6029  1.9174  0.3827
 1300SOL     OW 4798   5.043   1.802   4.002  0.0058 -0.2069 -0.0518
 1300SOL    HW1 4799   4.955   1.761   4.026 -1.2787  2.9785  1.1645
 1300SOL    HW2 4800   5.062   1.787   3.905 -1.8192 -1.0234 -0.3092
 1301SOL     OW 4801   2.054   4.444   0.950 -0.2464 -0.2052  0.8051
 1301SOL    HW1 4802   1.976   4.504   0.936 -1.3998 -1.4423  1.6976
 1301SOL    HW2 4803   2.072   4.434   1.048 -0.0755 -1.2960  0.6779
 1302SOL     OW 4804   6.423   2.113   2.463  0.1244 -0.2364  0.9620
 1302SOL    HW1 4805   6.482   2.059   2.403  0.0249  1.1556 -0.4312
 1302SOL    HW2 4806   6.443   2.089   2.558  1.1706 -1.5794  0.4521
 1303SOL     OW 4807   3.350   1.243   1.318  0.5362 -0.2417  0.0139
 1303SOL    HW1 4808   3.370   1.288   1.405 -0.7664 -0.6109  0.5290
 1303SOL    HW2 4809   3.341   1.312   1.246  1.2506  0.0946  0.2376
 1304SOL     OW 4810   4.715   0.405   2.276 -0.4116 -0.4096  0.7607
 1304SOL    HW1 4811   4.766   0.330   2.235  0.6601  1.7214 -2.0708
 1304SOL    HW2 4812   4.766   0.490   2.267 -2.9462  1.2397  0.9559
 1305SOL     OW 4813   2.209   4.369   6.367 -0.6835 -0.3541  0.5638
 1305SOL    HW1 4814   2.293   4.316   6.372 -1.2077 -1.1177  1.7992
 1305SOL    HW2 4815   2.230   4.463   6.339  0.4687 -0.7507  0.0612
 1306SOL     OW 4816   1.867   1.878   4.846  0.1390 -0.6976  0.5119
 1306SOL    HW1 4817   1.868   1.950   4.777  0.1193  0.3423  1.5690
 1306SOL    HW2 4818   1.941   1.894   4.911 -0.5007 -1.0588  1.3371
 1307SOL     OW 4819   6.578   0.840   3.169 -0.6985 -0.7802 -0.0313
 1307SOL    HW1 4820   6.486   0.801   3.161 -0.9858  0.0149 -0.8908
 1307SOL    HW2 4821   6.571   0.940   3.172  0.0943 -0.7409  0.7332
 1308SOL     OW 4822   3.981   0.590   1.166  0.3589 -0.1349 -0.4871
 1308SOL    HW1 4823   3.948   0.565   1.075 -0.5780 -0.2812 -0.1293
 1308SOL    HW2 4824   4.079   0.605   1.164  1.0691 -3.8392 -0.7797
 1309SOL     OW 4825   2.481   5.530   2.785 -0.0343  0.2753  0.2603
 1309SOL    HW1 4826   2.462   5.587   2.864 -1.5793  0.4229 -0.1799
 1309SOL    HW2 4827   2.425   5.560   2.708 -1.4596 -2.2239  0.2124
 1310SOL     OW 4828   3.481   1.945   2.307 -0.3279  0.5840 -0.3357
 1310SOL    HW1 4829   3.411   1.886   2.266 -0.0699 -0.9386  1.3402
 1310SOL    HW2 4830   3.548   1.970   2.237 -1.2207  0.0858 -1.4010
 1311SOL     OW 4831   2.747   1.552   0.111  0.0539  0.4809  0.1546
 1311SOL    HW1 4832   2.780   1.572   0.203  1.7605  0.4516 -0.4121
 1311SOL    HW2 4833   2.693   1.468   0.112 -0.5370  0.8575  1.2269
 1312SOL     OW 4834   4.272   0.783   6.896 -0.5330 -0.3994  0.1339
 1312SOL    HW1 4835   4.178   0.751   6.883 -0.1730 -0.8366 -1.5767
 1312SOL    HW2 4836   4.302   0.835   6.816  0.3458  0.6530  1.0990
 1313SOL     OW 4837   5.395   3.855   2.095 -0.0086  0.2526 -0.4737
 1313SOL    HW1 4838   5.467   3.892   2.153  0.4716 -0.0577 -0.8666
 1313SOL    HW2 4839   5.422   3.861   1.999 -0.2502 -0.3974 -0.5930
 1314SOL     OW 4840   6.275   6.110   6.902 -0.4770 -0.3805 -0.3304
 1314SOL    HW1 4841   6.278   6.089   6.999  0.6127  1.4335  0.0820
 1314SOL    HW2 4842   6.335   6.188   6.883 -0.1576 -1.0911 -2.5675
 1315SOL     OW 4843   2.392   5.743   5.330 -0.5473  0.0364  0.0162
 1315SOL    HW1 4844   2.321   5.697   5.276 -0.0622 -0.3822 -0.2748
 1315SOL    HW2 4845   2.479   5.695   5.318 -0.3558  0.1483  0.8961
 1316SOL     OW 4846   0.520   5.020   6.616  0.1952  0.5775 -0.6259
 1316SOL    HW1 4847   0.516   5.072   6.530  1.1787  1.5088 -0.1306
 1316SOL    HW2 4848   0.460   5.063   6.683 -1.0131 -0.4780 -0.9870
 1317SOL     OW 4849   2.065   2.147   6.247  0.0442  0.2076  0.0678
 1317SOL    HW1 4850   2.096   2.134   6.153  1.1765  0.3238  0.4152
 1317SOL    HW2 4851   2.082   2.064   6.300 -1.1829 -0.0853  0.0230
 1318SOL     OW 4852   0.786   2.201   4.641  0.0778 -0.6780 -0.0172
 1318SOL    HW1 4853   0.758   2.296   4.658  2.0411 -0.2159  0.9533
 1318SOL    HW2 4854   0.814   2.191   4.545  1.2326  0.1552  0.2004
 1319SOL     OW 4855   6.335   4.770   5.218 -0.7353 -0.3634  0.6633
 1319SOL    HW1 4856   6.278   4.707   5.271 -1.1604 -1.1686 -0.6907
 1319SOL    HW2 4857   6.318   4.756   5.121 -0.8113  1.8418  0.3113
 1320SOL     OW 4858   5.412   6.593   6.223 -0.2135 -0.2575  0.0007
 1320SOL    HW1 4859   5.344   6.519   6.226 -0.1020 -0.4380 -1.3618
 1320SOL    HW2 4860   5.467   6.591   6.306 -1.6115 -0.3626  0.9458
 1321SOL     OW 4861   1.900   6.186   1.474  0.5015  0.2167 -0.2084
 1321SOL    HW1 4862   1.918   6.090   1.453  0.2699  0.6217 -2.5641
 1321SOL    HW2 4863   1.982   6.240   1.458  0.4553  0.5044  0.4954
 1322SOL     OW 4864   1.969   4.577   3.134  0.0446 -0.4640 -0.1110
 1322SOL    HW1 4865   1.972   4.487   3.090  2.7678 -0.9472  0.8524
 1322SOL    HW2 4866   2.028   4.640   3.084  0.6631 -0.1402  0.9993
 1323SOL     OW 4867   2.421   4.515   4.831 -0.3853 -0.8771  0.2355
 1323SOL    HW1 4868   2.343   4.557   4.785  0.3157  2.2900  1.7005
 1323SOL    HW2 4869   2.390   4.471   4.916 -0.7202 -0.3855  0.3737
 1324SOL     OW 4870   6.226   4.292   0.234  0.3366  0.6963  0.2322
 1324SOL    HW1 4871   6.173   4.266   0.314  0.4847  0.4916  0.2643
 1324SOL    HW2 4872   6.220   4.220   0.165  0.7786  0.5565  0.3367
 1325SOL     OW 4873   6.473   1.985   2.984  0.1623 -0.1029 -0.2639
 1325SOL    HW1 4874   6.559   1.936   3.002 -0.1281  0.1354  2.1378
 1325SOL    HW2 4875   6.428   1.945   2.904  2.0147 -0.8745 -0.9826
 1326SOL     OW 4876   3.397   1.740   2.983 -0.1448  0.0408 -0.0461
 1326SOL    HW1 4877   3.402   1.839   2.997  2.0875 -0.0291  0.1234
 1326SOL    HW2 4878   3.362   1.720   2.892 -1.4641  0.9435  0.2448
 1327SOL     OW 4879   6.315   4.272   4.713  0.5864  0.2324  0.4034
 1327SOL    HW1 4880   6.294   4.361   4.671 -0.1314  0.5015  1.3157
 1327SOL    HW2 4881   6.405   4.278   4.757  0.4387  0.5874  0.6657
 1328SOL     OW 4882   0.246   0.626   5.324  0.4366  0.4667 -0.5141
 1328SOL    HW1 4883   0.155   0.592   5.346  1.2437 -1.3408  0.2029
 1328SOL    HW2 4884   0.315   0.557   5.349  1.9262  1.3004 -2.0888
 1329SOL     OW 4885   0.200   1.736   3.302 -0.1309  0.1661 -0.1788
 1329SOL    HW1 4886   0.157   1.769   3.218 -0.0610 -0.2593 -0.3823
 1329SOL    HW2 4887   0.230   1.814   3.357 -1.9039  0.5008  0.3686
 1330SOL     OW 4888   4.558   4.271   0.831 -0.1366 -0.0357  0.3603
 1330SOL    HW1 4889   4.552   4.227   0.920  0.1695 -1.4786 -0.2991
 1330SOL    HW2 4890   4.646   4.248   0.788 -0.2497  0.6922 -0.2847
 1331SOL     OW 4891   6.802   0.032   3.083 -0.1382  0.1254  0.0415
 1331SOL    HW1 4892   6.798   0.131   3.098  0.4959 -0.0444  1.6005
 1331SOL    HW2 4893   6.897   0.001   3.092 -0.3579 -0.6517 -0.2345
 1332SOL     OW 4894   5.349   3.302   3.834 -0.5344  0.0216  0.3385
 1332SOL    HW1 4895   5.380   3.305   3.739 -2.2833 -0.4071 -0.3028
 1332SOL    HW2 4896   5.288   3.380   3.851 -1.1148 -0.5100  0.7434
 1333SOL     OW 4897   1.661   2.411   4.231  0.2689 -0.3795 -0.4728
 1333SOL    HW1 4898   1.585   2.474   4.247  1.0928  1.0197 -1.8473
 1333SOL    HW2 4899   1.629   2.317   4.245 -1.6972  0.1675 -0.9607
 1334SOL     OW 4900   5.294   2.623   1.142 -0.0696 -0.6373 -0.3037
 1334SOL    HW1 4901   5.358   2.664   1.208 -0.7940 -0.8008  0.5086
 1334SOL    HW2 4902   5.320   2.528   1.126 -0.1036 -0.7059  0.0323
 1335SOL     OW 4903   1.970   5.038   3.230  0.5481  0.3902  0.5887
 1335SOL    HW1 4904   2.068   5.053   3.246  1.0014 -1.4579 -0.1897
 1335SOL    HW2 4905   1.931   4.987   3.307  0.3373  0.6178  0.6320
 1336SOL     OW 4906   6.290   2.536   6.600  0.2962  0.5000  0.9140
 1336SOL    HW1 4907   6.276   2.438   6.616 -1.0617  0.0438 -2.2288
 1336SOL    HW2 4908   6.201   2.580   6.589  0.9339  1.5312 -0.3532
 1337SOL     OW 4909   6.122   4.154   0.874 -0.4435 -0.5750  0.2601
 1337SOL    HW1 4910   6.096   4.229   0.934 -1.2390 -1.3222  0.8599
 1337SOL    HW2 4911   6.217   4.167   0.845 -1.2658  2.0120 -1.6953
 1338SOL     OW 4912   1.499   3.418   0.588 -0.5264 -0.1336  0.1299
 1338SOL    HW1 4913   1.541   3.479   0.521 -1.7068 -0.6607 -1.1223
 1338SOL    HW2 4914   1.442   3.471   0.651 -1.0780  0.1280 -0.5836
 1339SOL     OW 4915   2.505   2.047   2.133 -0.0756 -0.0484 -0.1580
 1339SOL    HW1 4916   2.408   2.026   2.127  0.4065 -2.4781 -0.6420
 1339SOL    HW2 4917   2.532   2.052   2.229 -1.0217  2.7493  0.0292
 1340SOL     OW 4918   1.754   6.927   0.923 -0.2939  0.2833  0.1105
 1340SOL    HW1 4919   1.851   6.924   0.945  0.1822 -0.7047 -1.9320
 1340SOL    HW2 4920   1.735   7.005   0.863 -0.4759 -0.3523 -0.6756
 1341SOL     OW 4921   5.123   3.720   5.800  0.1343 -0.1873 -0.1868
 1341SOL    HW1 4922   5.050   3.787   5.815  0.4125  0.0486  0.1219
 1341SOL    HW2 4923   5.165   3.736   5.711  0.1908  0.0365 -0.1191
 1342SOL     OW 4924   4.762   4.128   2.455 -0.3407  0.8807 -0.5205
 1342SOL    HW1 4925   4.796   4.036   2.473 -3.4627  0.0010  1.5928
 1342SOL    HW2 4926   4.743   4.138   2.357 -1.2312 -1.2344 -0.6128
 1343SOL     OW 4927   6.572   6.561   4.798 -0.4177  0.1996 -0.2025
 1343SOL    HW1 4928   6.625   6.603   4.724  2.2076  2.8641  2.8869
 1343SOL    HW2 4929   6.486   6.611   4.809  0.5780  1.8522  0.4291
 1344SOL     OW 4930   5.218   1.000   4.180  0.3924  0.2308 -1.0666
 1344SOL    HW1 4931   5.173   0.911   4.176  1.3428 -0.2300 -1.7181
 1344SOL    HW2 4932   5.291   0.998   4.248 -0.5009  0.9578 -0.0565
 1345SOL     OW 4933   6.944   2.576   2.913 -0.1327 -0.8622 -0.2141
 1345SOL    HW1 4934   6.967   2.496   2.858 -0.2838  0.3424 -2.0811
 1345SOL    HW2 4935   7.028   2.626   2.936 -0.3386  1.2859 -3.5662
 1346SOL     OW 4936   6.798   5.585   4.385  0.1864 -0.4542 -0.2184
 1346SOL    HW1 4937   6.765   5.526   4.311 -2.1935 -0.6324  0.8910
 1346SOL    HW2 4938   6.786   5.538   4.473  0.0930  0.9072  0.5326
 1347SOL     OW 4939   4.174   1.885   4.320  0.0710 -0.4119  0.3454
 1347SOL    HW1 4940   4.144   1.810   4.379 -1.0603 -0.0807  0.2182
 1347SOL    HW2 4941   4.112   1.962   4.330  1.3106  0.5823  0.5933
 1348SOL     OW 4942   4.202   3.560   0.632  0.2880 -0.0862 -0.5525
 1348SOL    HW1 4943   4.239   3.545   0.723  0.4725 -1.9790 -0.9060
 1348SOL    HW2 4944   4.273   3.544   0.564 -0.7191 -2.3949 -1.1684
 1349SOL     OW 4945   5.072   0.737   4.140 -0.2637 -0.3260  0.5242
 1349SOL    HW1 4946   5.059   0.742   4.041  1.0776  3.0642  0.3825
 1349SOL    HW2 4947   5.130   0.659   4.162 -0.5880 -1.1467 -1.3433
 1350SOL     OW 4948   0.801   5.922   5.713 -0.5543 -0.5649 -0.0988
 1350SOL    HW1 4949   0.831   6.017   5.716 -1.1788 -0.3221 -1.0610
 1350SOL    HW2 4950   0.851   5.874   5.640  0.8114 -1.3769  1.3080
 1351SOL     OW 4951   2.279   5.221   5.053  0.0998  0.4864  0.7544
 1351SOL    HW1 4952   2.282   5.121   5.051  0.3704  0.4683 -2.2829
 1351SOL    HW2 4953   2.187   5.251   5.026  0.0482  1.0940  1.5739
 1352SOL     OW 4954   6.365   5.173   0.111 -0.0495 -0.1756  0.2523
 1352SOL    HW1 4955   6.417   5.131   0.185  0.3421 -1.5100 -0.7345
 1352SOL    HW2 4956   6.317   5.102   0.059 -0.3371  0.7214 -0.7571
 1353SOL     OW 4957   5.894   6.240   3.613  0.3761 -0.2384 -0.0572
 1353SOL    HW1 4958   5.970   6.193   3.567  0.5609  0.6400 -0.6843
 1353SOL    HW2 4959   5.829   6.272   3.544 -0.8343 -1.3905  0.4981
 1354SOL     OW 4960   5.292   1.153   1.239  0.2914 -0.0271 -0.3000
 1354SOL    HW1 4961   5.248   1.231   1.285  1.1507 -0.4578  1.3358
 1354SOL    HW2 4962   5.384   1.179   1.211  0.4538 -0.3316 -0.0598
 1355SOL     OW 4963   6.627   5.881   2.225 -0.0345 -0.3215  0.3301
 1355SOL    HW1 4964   6.611   5.800   2.169 -0.7827 -0.6650  1.0185
 1355SOL    HW2 4965   6.696   5.859   2.295  1.5635  0.3648 -0.9613
 1356SOL     OW 4966   6.021   2.216   0.892 -0.4473  0.4366  0.3787
 1356SOL    HW1 4967   5.925   2.235   0.871 -0.9442 -1.5520  0.6605
 1356SOL    HW2 4968   6.055   2.144   0.832  0.4549  0.1880  1.1622
 1357SOL     OW 4969   3.731   1.667   6.220 -0.1802 -0.1390  0.3020
 1357SOL    HW1 4970   3.632   1.661   6.213 -0.2030 -0.5431  0.9153
 1357SOL    HW2 4971   3.772   1.589   6.172 -0.1515  0.0750 -0.0268
 1358SOL     OW 4972   6.054   4.762   6.459  0.1188  0.3229  0.3736
 1358SOL    HW1 4973   6.002   4.742   6.541  2.0272 -1.1897  1.2888
 1358SOL    HW2 4974   6.008   4.835   6.407 -3.2920 -1.4109  0.6612
 1359SOL     OW 4975   2.960   5.563   6.727  0.1374 -0.2589 -0.5476
 1359SOL    HW1 4976   2.996   5.651   6.697 -1.4932  0.5012 -0.4137
 1359SOL    HW2 4977   2.864   5.555   6.698  0.0686 -1.7184  0.0002
 1360SOL     OW 4978   5.745   5.077   2.739  0.0843 -0.2712  0.9275
 1360SOL    HW1 4979   5.707   5.102   2.650 -0.3568  0.7935  1.4000
 1360SOL    HW2 4980   5.798   5.153   2.775 -0.6169 -0.2841  2.0333
 1361SOL     OW 4981   3.945   6.090   3.297  0.2745  0.4022  0.6406
 1361SOL    HW1 4982   3.975   6.111   3.204  0.5778  0.2731  0.7071
 1361SOL    HW2 4983   3.870   6.024   3.294 -0.7772  1.5623  0.4212
 1362SOL     OW 4984   3.478   3.652   4.875 -0.0381  0.5757 -0.0433
 1362SOL    HW1 4985   3.558   3.711   4.869  0.3952 -0.0611 -0.5850
 1362SOL    HW2 4986   3.405   3.700   4.924 -0.4936  2.4846 -2.3917
 1363SOL     OW 4987   2.223   5.253   3.914 -0.0515 -0.8971 -0.0507
 1363SOL    HW1 4988   2.273   5.231   3.831 -2.2575 -0.0769 -1.6880
 1363SOL    HW2 4989   2.179   5.170   3.950 -1.3248 -0.8341 -1.3312
 1364SOL     OW 4990   0.200   0.824   2.397 -0.0796  0.0175  0.4839
 1364SOL    HW1 4991   0.175   0.895   2.331 -1.4685 -1.0322 -0.1554
 1364SOL    HW2 4992   0.284   0.779   2.367 -0.2383  0.1139 -0.1210
 1365SOL     OW 4993   5.857   4.623   0.262  0.1164 -0.0505 -0.1993
 1365SOL    HW1 4994   5.865   4.620   0.162 -0.0490 -0.0808 -0.2125
 1365SOL    HW2 4995   5.799   4.700   0.289 -0.9743 -0.8517 -0.2031
 1366SOL     OW 4996   0.142   1.426   5.045  0.7441  0.3640  0.2161
 1366SOL    HW1 4997   0.065   1.367   5.068  1.5748 -0.4322  1.0182
 1366SOL    HW2 4998   0.110   1.501   4.986 -0.5326 -0.2304  0.1208
 1367SOL     OW 4999   6.872   5.640   0.562 -0.2237  0.7553  0.3059
 1367SOL    HW1 5000   6.858   5.729   0.606 -0.4854  0.4485  0.8489
 1367SOL    HW2 5001   6.825   5.569   0.615 -0.0959  0.3076 -0.1790
 1368SOL     OW 5002   5.515   0.703   3.331  0.0917  0.2470  0.1158
 1368SOL    HW1 5003   5.552   0.787   3.372 -0.1646  0.2570  0.3305
 1368SOL    HW2 5004   5.423   0.722   3.296  0.3620  0.2723 -0.5823
 1369SOL     OW 5005   4.704   5.901   2.082  0.5331 -0.5815 -0.1713
 1369SOL    HW1 5006   4.609   5.931   2.089  0.5376 -0.6927  0.3735
 1369SOL    HW2 5007   4.765   5.975   2.112  0.5893 -0.7399  0.1085
 1370SOL     OW 5008   3.946   6.718   1.329 -0.2368  0.2807 -0.1007
 1370SOL    HW1 5009   4.001   6.733   1.411 -0.9000 -0.1791  0.4419
 1370SOL    HW2 5010   3.923   6.806   1.288  1.3317  0.4547 -0.6377
 1371SOL     OW 5011   6.419   4.834   2.619 -0.2844  0.1739 -0.6391
 1371SOL    HW1 5012   6.450   4.750   2.663  0.5260  0.8898  0.1938
 1371SOL    HW2 5013   6.489   4.867   2.557 -0.4266  0.4475 -0.6548
 1372SOL     OW 5014   6.097   3.376   1.965  0.8287 -0.3781  0.1679
 1372SOL    HW1 5015   6.190   3.393   1.997  1.6145 -0.4629 -1.9097
 1372SOL    HW2 5016   6.040   3.455   1.987  2.0831  0.8792 -0.8973
 1373SOL     OW 5017   2.219   3.104   5.277 -0.8174 -0.3365  0.3372
 1373SOL    HW1 5018   2.302   3.076   5.228 -0.8900  0.3643 -0.2191
 1373SOL    HW2 5019   2.221   3.204   5.290 -1.2981 -0.3892  0.8426
 1374SOL     OW 5020   1.234   4.706   6.892 -0.1545  0.5723  0.2376
 1374SOL    HW1 5021   1.257   4.734   6.799  1.0141  0.2077  0.4118
 1374SOL    HW2 5022   1.290   4.628   6.919 -0.2992  0.8281  1.3367
 1375SOL     OW 5023   6.773   6.026   1.992 -0.5356  0.0363 -0.5346
 1375SOL    HW1 5024   6.803   5.935   1.962 -0.1211 -0.3369  0.9388
 1375SOL    HW2 5025   6.751   6.024   2.089 -0.7358  1.4710 -0.5237
 1376SOL     OW 5026   6.050   6.387   3.971 -0.4936 -0.6741  0.1158
 1376SOL    HW1 5027   6.046   6.296   4.012 -1.6048 -0.9388 -0.5454
 1376SOL    HW2 5028   5.967   6.404   3.919 -0.0165  0.4769 -0.3069
 1377SOL     OW 5029   0.034   2.382   3.627 -0.1270 -0.6150  0.3863
 1377SOL    HW1 5030   0.130   2.382   3.603 -0.4141 -1.0701 -0.8074
 1377SOL    HW2 5031  -0.018   2.330   3.559 -1.3633  0.5474  0.4104
 1378SOL     OW 5032   6.236   3.390   1.655  0.2989 -0.4701  0.2787
 1378SOL    HW1 5033   6.257   3.436   1.741  1.2435  1.0085 -0.6899
 1378SOL    HW2 5034   6.202   3.298   1.674 -1.5434  0.5133  2.3151
 1379SOL     OW 5035   6.749   3.309   2.720  0.5214  0.2200  0.0103
 1379SOL    HW1 5036   6.750   3.327   2.818  1.0000 -0.9738  0.2475
 1379SOL    HW2 5037   6.667   3.256   2.696  0.3331  0.6264 -0.2678
 1380SOL     OW 5038   3.053   1.268   3.789  1.4915  0.0678 -0.2082
 1380SOL    HW1 5039   3.128   1.202   3.782  0.3877 -1.1883 -0.6071
 1380SOL    HW2 5040   3.032   1.304   3.698  0.5932 -0.7687 -0.3382
 1381SOL     OW 5041   1.132   6.082   5.944  0.7313 -0.7750 -0.1918
 1381SOL    HW1 5042   1.180   6.056   5.860  1.3839  0.3519 -0.2027
 1381SOL    HW2 5043   1.092   6.173   5.932 -0.3453 -1.1810  0.2599
 1382SOL     OW 5044   5.286   2.881   5.249  0.7096  0.0604  0.5454
 1382SOL    HW1 5045   5.358   2.924   5.304  2.2369 -0.6484 -0.7960
 1382SOL    HW2 5046   5.242   2.809   5.302 -0.5559  1.9011  2.1413
 1383SOL     OW 5047   0.390   4.069   5.774 -0.7445 -0.3230  0.2510
 1383SOL    HW1 5048   0.291   4.065   5.791 -0.8600  2.9588  0.8589
 1383SOL    HW2 5049   0.437   4.108   5.853  0.5607  1.3929 -1.2752
 1384SOL     OW 5050   3.957   4.196   0.008 -0.0180  0.4589  0.5174
 1384SOL    HW1 5051   4.048   4.180   0.046  0.0104 -0.1281  0.2119
 1384SOL    HW2 5052   3.889   4.191   0.082 -0.1472 -2.3194  0.3105
 1385SOL     OW 5053   6.319   0.054   5.830  0.2964  0.1699 -0.3055
 1385SOL    HW1 5054   6.411   0.094   5.822  1.2171 -1.7975 -0.1816
 1385SOL    HW2 5055   6.262   0.115   5.885  1.2699  1.8177 -1.0231
 1386SOL     OW 5056   2.948   3.015   0.554  0.0106 -0.0003 -0.1461
 1386SOL    HW1 5057   2.912   3.003   0.647 -1.7193  1.3468 -0.5764
 1386SOL    HW2 5058   2.893   2.961   0.490 -1.0629  1.7736 -0.7749
 1387SOL     OW 5059   4.889   1.481   3.380 -0.1742 -0.6435  0.5277
 1387SOL    HW1 5060   4.854   1.401   3.332  0.4613 -0.8768  0.4461
 1387SOL    HW2 5061   4.983   1.464   3.409 -0.7505 -0.7960  2.4769
 1388SOL     OW 5062   5.131   0.747   6.547 -0.4876 -0.3092  0.0398
 1388SOL    HW1 5063   5.221   0.709   6.566 -0.1337  1.1184  1.3879
 1388SOL    HW2 5064   5.113   0.742   6.449  0.8821 -0.9592 -0.1989
 1389SOL     OW 5065   6.770   6.882   5.985  0.4252 -0.4923 -0.3320
 1389SOL    HW1 5066   6.775   6.982   5.983 -0.6416 -0.4357 -0.6725
 1389SOL    HW2 5067   6.674   6.854   5.992  0.6969 -1.4980 -0.5910
 1390SOL     OW 5068   0.477   6.886   4.454  0.0376  0.1805 -0.2854
 1390SOL    HW1 5069   0.538   6.854   4.527  0.1759 -0.6569 -0.7546
 1390SOL    HW2 5070   0.405   6.942   4.493 -1.5942 -2.5789  0.9325
 1391SOL     OW 5071   6.436   4.105   0.881  0.3956 -0.2635  0.0992
 1391SOL    HW1 5072   6.406   4.024   0.933  0.6386 -0.8189 -0.6136
 1391SOL    HW2 5073   6.447   4.182   0.944 -1.4410 -0.3229  0.5737
 1392SOL     OW 5074   4.928   1.332   2.788  0.3995 -0.1062  0.2107
 1392SOL    HW1 5075   4.832   1.340   2.763  0.7860 -0.8498 -1.6103
 1392SOL    HW2 5076   4.937   1.338   2.888 -1.6935 -1.6461  0.5414
 1393SOL     OW 5077   4.139   6.103   4.237 -0.2767  0.1149 -0.7292
 1393SOL    HW1 5078   4.060   6.141   4.287 -1.9220 -0.6970 -2.5817
 1393SOL    HW2 5079   4.162   6.013   4.276 -0.3119  0.3157 -0.2314
 1394SOL     OW 5080   6.396   0.976   5.584  0.5390  0.2130 -0.7171
 1394SOL    HW1 5081   6.361   0.999   5.675  0.4313 -1.6924 -0.2415
 1394SOL    HW2 5082   6.320   0.953   5.523  0.5633  2.0374 -1.4959
 1395SOL     OW 5083   2.106   4.691   4.018 -0.0570 -0.4687 -0.1308
 1395SOL    HW1 5084   2.197   4.698   4.060 -1.0524  0.0556  2.0861
 1395SOL    HW2 5085   2.064   4.604   4.045 -0.6850 -0.1585 -0.0991
 1396SOL     OW 5086   5.273   4.386   6.078 -0.2353  0.0581  0.2108
 1396SOL    HW1 5087   5.338   4.375   6.003 -1.3408  0.8566 -0.9069
 1396SOL    HW2 5088   5.300   4.327   6.154  0.8105 -0.9373 -0.8771
 1397SOL     OW 5089   6.068   0.575   6.173 -0.3998 -0.1447 -0.4053
 1397SOL    HW1 5090   6.083   0.476   6.166  2.0580  0.1315  0.0711
 1397SOL    HW2 5091   6.076   0.603   6.269 -2.1721  0.4094 -0.3829
 1398SOL     OW 5092   0.415   3.419   0.260  0.0031  0.1631 -0.2737
 1398SOL    HW1 5093   0.509   3.384   0.266 -0.8461 -2.1771  0.6908
 1398SOL    HW2 5094   0.363   3.363   0.195 -0.7683  1.3711 -0.7289
 1399SOL     OW 5095   1.895   1.462   1.776  0.3895 -0.0187 -0.4557
 1399SOL    HW1 5096   1.900   1.371   1.734  2.1574 -1.0249  1.7740
 1399SOL    HW2 5097   1.840   1.457   1.859 -0.0132  1.1344 -0.6333
 1400SOL     OW 5098   0.953   3.317   2.374 -0.4385  0.2875  0.2187
 1400SOL    HW1 5099   0.929   3.247   2.307 -1.5535 -0.0321  0.9273
 1400SOL    HW2 5100   1.046   3.301   2.407  0.1070  0.4149 -1.1843
 1401SOL     OW 5101   2.867   2.250   5.544 -0.8316 -0.6386  0.3789
 1401SOL    HW1 5102   2.883   2.157   5.511 -0.2652  0.3554 -2.4116
 1401SOL    HW2 5103   2.954   2.292   5.568 -0.9792 -0.4475  0.5854
 1402SOL     OW 5104   5.688   3.287   2.407 -0.2820 -0.3593 -0.3992
 1402SOL    HW1 5105   5.749   3.267   2.331 -0.0731  2.2722 -1.0372
 1402SOL    HW2 5106   5.733   3.264   2.493  1.8650  1.8307 -0.8260
 1403SOL     OW 5107   4.678   0.540   2.834  0.2211 -0.1219 -0.3495
 1403SOL    HW1 5108   4.586   0.571   2.859  0.3243  0.6779 -0.9189
 1403SOL    HW2 5109   4.695   0.560   2.737  0.0602 -2.5526 -0.9515
 1404SOL     OW 5110   4.039   2.927   0.212 -0.0861 -0.5860  0.4324
 1404SOL    HW1 5111   3.992   3.000   0.263  0.7425  1.6450 -1.8147
 1404SOL    HW2 5112   3.994   2.915   0.124 -0.4852 -3.2288  0.9212
 1405SOL     OW 5113   4.919   6.772   5.726 -0.1857 -0.2577 -0.1968
 1405SOL    HW1 5114   4.992   6.826   5.684 -0.4060 -0.5534 -0.9667
 1405SOL    HW2 5115   4.954   6.682   5.752 -0.2780 -0.4176 -0.6109
 1406SOL     OW 5116   1.142   2.269   2.111  0.2499  0.2938  0.1780
 1406SOL    HW1 5117   1.138   2.269   2.011  1.3626 -0.5117  0.1141
 1406SOL    HW2 5118   1.062   2.317   2.147 -1.1678 -1.0405 -1.0472
 1407SOL     OW 5119   0.695   3.653   1.396  0.2201  0.0057  0.6462
 1407SOL    HW1 5120   0.764   3.725   1.401 -0.9972  1.2832 -0.1330
 1407SOL    HW2 5121   0.689   3.606   1.484  0.9062  0.9919  1.2363
 1408SOL     OW 5122   4.619   3.008   5.697  0.1535 -0.2176 -0.0353
 1408SOL    HW1 5123   4.595   2.958   5.780 -0.8410 -1.4163 -0.9807
 1408SOL    HW2 5124   4.654   3.098   5.720 -0.0510 -0.5467  1.6720
 1409SOL     OW 5125   3.266   1.768   2.439  0.9170 -0.0974  0.1167
 1409SOL    HW1 5126   3.297   1.845   2.494  2.7247 -0.8261  0.2137
 1409SOL    HW2 5127   3.344   1.708   2.419 -0.2991 -1.5535 -0.5084
 1410SOL     OW 5128   6.358   2.794   0.414  0.5702 -0.8766 -0.3712
 1410SOL    HW1 5129   6.372   2.891   0.395 -1.2816 -0.4655  0.2002
 1410SOL    HW2 5130   6.372   2.742   0.330 -0.4029  0.1197 -1.1862
 1411SOL     OW 5131   1.843   0.910   1.829 -0.7498 -0.2451 -0.3881
 1411SOL    HW1 5132   1.938   0.941   1.820 -0.6937 -0.8256 -2.2698
 1411SOL    HW2 5133   1.839   0.832   1.892  0.4787 -1.8722 -2.2026
 1412SOL     OW 5134   6.941   1.482   0.084 -0.1921  0.5704 -0.3836
 1412SOL    HW1 5135   7.023   1.425   0.070 -0.2799  0.9060 -2.6921
 1412SOL    HW2 5136   6.963   1.557   0.147  0.1679 -1.4139  2.0224
 1413SOL     OW 5137   6.541   5.673   3.689 -0.0478 -0.3721 -0.8347
 1413SOL    HW1 5138   6.537   5.767   3.724  0.7593 -0.8726  0.7031
 1413SOL    HW2 5139   6.636   5.647   3.677 -0.2689 -1.0203 -1.1678
 1414SOL     OW 5140   4.853   5.343   3.301 -0.2263 -0.1482 -0.6141
 1414SOL    HW1 5141   4.816   5.335   3.209  0.0137  1.5219 -0.8828
 1414SOL    HW2 5142   4.780   5.367   3.365 -0.1886 -0.1072 -0.5857
 1415SOL     OW 5143   4.114   3.158   1.912  0.1275 -0.6975  0.0924
 1415SOL    HW1 5144   4.058   3.077   1.895 -0.5028 -0.2236 -0.1166
 1415SOL    HW2 5145   4.076   3.209   1.989 -0.6114  0.4154 -0.9746
 1416SOL     OW 5146   1.130   1.278   3.709  0.0381 -0.3302 -0.5686
 1416SOL    HW1 5147   1.095   1.289   3.801  0.1510  0.2588 -0.5948
 1416SOL    HW2 5148   1.199   1.205   3.708 -1.0991 -1.4378 -0.5008
 1417SOL     OW 5149   0.435   6.605   3.092 -0.1059 -0.0946 -0.1082
 1417SOL    HW1 5150   0.403   6.595   2.998 -0.4604  0.3767 -0.0442
 1417SOL    HW2 5151   0.415   6.522   3.144 -0.2224 -0.2239 -0.3619
 1418SOL     OW 5152   0.927   2.557   0.292 -0.2304 -0.8243 -0.2342
 1418SOL    HW1 5153   0.942   2.555   0.391 -0.0592  1.4710 -0.1485
 1418SOL    HW2 5154   0.995   2.499   0.247  0.4847 -0.9311  0.9352
 1419SOL     OW 5155   2.463   6.960   0.405 -0.3777 -0.7302  0.4672
 1419SOL    HW1 5156   2.505   7.046   0.376 -0.5347 -1.2947 -1.6180
 1419SOL    HW2 5157   2.405   6.976   0.484  0.5430  0.8401  0.8667
 1420SOL     OW 5158   0.736   6.682   1.951 -0.0852  0.0251  0.2668
 1420SOL    HW1 5159   0.643   6.705   1.923  1.2507  2.3477 -2.8472
 1420SOL    HW2 5160   0.776   6.618   1.885  0.6535 -0.7698  1.4412
 1421SOL     OW 5161   2.749   5.826   2.818 -0.2551  0.0040  0.0274
 1421SOL    HW1 5162   2.787   5.865   2.734 -0.4628  0.9338  0.3579
 1421SOL    HW2 5163   2.658   5.789   2.800  0.0400 -0.5561 -0.3426
 1422SOL     OW 5164   1.487   5.960   0.170  0.3861  0.2588  0.2692
 1422SOL    HW1 5165   1.501   5.972   0.269 -1.3182  0.3577  0.5247
 1422SOL    HW2 5166   1.482   6.049   0.126  0.5770  0.2253  0.1790
 1423SOL     OW 5167   6.484   2.331   0.306 -0.1354 -0.1547 -0.2444
 1423SOL    HW1 5168   6.452   2.317   0.212 -0.1526 -0.4903 -0.1920
 1423SOL    HW2 5169   6.422   2.393   0.354 -0.2030 -0.0910 -0.4165
 1424SOL     OW 5170   2.868   5.382   5.524 -0.1907 -0.1149  0.3547
 1424SOL    HW1 5171   2.858   5.311   5.454 -1.5274 -0.0831  0.4868
 1424SOL    HW2 5172   2.805   5.457   5.504  0.7745  0.7606  0.5611
 1425SOL     OW 5173   6.711   5.603   5.866  0.2168 -0.4482  0.1778
 1425SOL    HW1 5174   6.735   5.615   5.770 -0.9148  2.0513  0.1409
 1425SOL    HW2 5175   6.636   5.537   5.874 -0.0538 -0.2521 -0.6924
 1426SOL     OW 5176   1.275   6.326   3.854  0.8944 -0.5004  0.4812
 1426SOL    HW1 5177   1.175   6.324   3.852  0.8928  0.2311 -0.6669
 1426SOL    HW2 5178   1.310   6.235   3.831  0.4882 -0.1549 -1.7163
 1427SOL     OW 5179   3.272   4.909   3.210  0.1796  0.1339  0.2911
 1427SOL    HW1 5180   3.207   4.871   3.276  0.7141 -1.2154  0.0657
 1427SOL    HW2 5181   3.365   4.882   3.235  0.4209 -0.1199 -0.8201
 1428SOL     OW 5182   2.997   3.108   2.869 -0.6268  0.7197 -0.7237
 1428SOL    HW1 5183   2.958   3.035   2.812 -1.6681 -0.8807  1.8938
 1428SOL    HW2 5184   3.084   3.078   2.908 -2.4977 -0.6177  2.8830
 1429SOL     OW 5185   2.342   0.479   1.684 -0.4246  0.0121 -0.1327
 1429SOL    HW1 5186   2.268   0.525   1.635 -0.4500  0.8089  0.6249
 1429SOL    HW2 5187   2.313   0.386   1.709 -1.4974  0.5895  0.8708
 1430SOL     OW 5188   1.693   3.877   6.181 -0.5119  0.2933 -0.4280
 1430SOL    HW1 5189   1.624   3.893   6.252  0.7002  1.1994  0.5903
 1430SOL    HW2 5190   1.777   3.925   6.205  1.5652 -3.1916 -0.0649
 1431SOL     OW 5191   1.804   1.161   1.723 -0.1912  0.0262 -0.5784
 1431SOL    HW1 5192   1.788   1.062   1.721 -0.7081  0.0463  1.0797
 1431SOL    HW2 5193   1.836   1.188   1.814 -1.6436  1.6183 -0.4937
 1432SOL     OW 5194   4.829   2.337   2.659 -0.2192  0.2837 -0.1658
 1432SOL    HW1 5195   4.866   2.414   2.607 -0.6426  0.4821 -0.1755
 1432SOL    HW2 5196   4.745   2.304   2.616  1.2868 -1.8807 -1.6846
 1433SOL     OW 5197   0.654   0.869   2.006  0.0800 -0.2733  0.5698
 1433SOL    HW1 5198   0.745   0.831   2.021  0.5677 -0.9845 -3.2218
 1433SOL    HW2 5199   0.585   0.798   2.021  0.4832 -0.8320 -0.1622
 1434SOL     OW 5200   4.138   1.944   4.040  0.5981  0.1030  0.5694
 1434SOL    HW1 5201   4.089   2.028   4.015  1.1993 -0.0002 -1.0988
 1434SOL    HW2 5202   4.138   1.933   4.139 -0.5108  1.4506  0.7440
 1435SOL     OW 5203   6.743   0.257   2.569  0.0897  0.1694  0.3867
 1435SOL    HW1 5204   6.799   0.335   2.541 -1.2770  0.5995 -1.3314
 1435SOL    HW2 5205   6.725   0.199   2.489 -2.4960  0.4680  0.6575
 1436SOL     OW 5206   3.992   2.056   6.823 -0.1561  0.7657  0.1788
 1436SOL    HW1 5207   3.956   2.148   6.814 -0.1604  0.8264  0.7415
 1436SOL    HW2 5208   3.981   2.006   6.737 -0.7037  1.0906  0.0600
 1437SOL     OW 5209   4.799   5.940   5.599 -0.0757  0.5901 -0.1914
 1437SOL    HW1 5210   4.734   6.011   5.627  0.5580  1.4684 -0.8692
 1437SOL    HW2 5211   4.752   5.853   5.591 -1.2184  1.2311 -0.7814
 1438SOL     OW 5212   5.312   2.435   4.389 -0.5002 -0.0570 -0.2015
 1438SOL    HW1 5213   5.344   2.420   4.482  0.4746 -1.3265 -0.7177
 1438SOL    HW2 5214   5.213   2.421   4.385 -0.4855 -0.4061  0.5608
 1439SOL     OW 5215   2.870   4.754   3.779  0.2888 -0.1719 -0.7511
 1439SOL    HW1 5216   2.933   4.822   3.742 -0.8671  0.7011 -1.1690
 1439SOL    HW2 5217   2.870   4.673   3.721  0.8564 -0.0848 -0.8760
 1440SOL     OW 5218   3.852   6.448   0.014 -0.1805  0.4597 -0.0340
 1440SOL    HW1 5219   3.818   6.427   0.105 -3.5233  2.5320 -0.6547
 1440SOL    HW2 5220   3.813   6.384  -0.052  0.4046  0.3776 -0.3082
 1441SOL     OW 5221   6.900   2.993   6.052  0.0978  0.3114  0.8622
 1441SOL    HW1 5222   6.976   3.047   6.087  0.0578  0.7200  0.3310
 1441SOL    HW2 5223   6.821   3.053   6.036  0.4244  0.3295 -0.8634
 1442SOL     OW 5224   0.299   3.044   6.489 -0.2256  0.4111  0.3310
 1442SOL    HW1 5225   0.227   2.998   6.542 -0.1595  0.3325  0.3540
 1442SOL    HW2 5226   0.292   3.143   6.502 -1.4796  0.5369 -1.1231
 1443SOL     OW 5227   6.410   5.815   0.674  0.4544 -0.6516  0.3996
 1443SOL    HW1 5228   6.440   5.837   0.766 -0.4576 -1.4638  0.9044
 1443SOL    HW2 5229   6.332   5.753   0.678 -1.0588  1.0580 -0.8763
 1444SOL     OW 5230   0.917   3.224   1.403 -0.3590  0.0603  0.3401
 1444SOL    HW1 5231   0.964   3.139   1.379 -0.9240  0.5409 -2.9840
 1444SOL    HW2 5232   0.820   3.206   1.416 -0.7118  0.2681 -1.6214
 1445SOL     OW 5233   4.353   5.920   1.326 -0.2164  0.2996  0.2293
 1445SOL    HW1 5234   4.331   5.990   1.258 -0.4907  0.2973  0.3138
 1445SOL    HW2 5235   4.426   5.952   1.386 -0.2462  0.4562  0.1804
 1446SOL     OW 5236   6.968   2.139   6.537 -0.1283  0.5261 -0.3782
 1446SOL    HW1 5237   6.930   2.098   6.620  0.4157 -1.0073 -0.8443
 1446SOL    HW2 5238   7.067   2.121   6.534  0.0632  1.5823 -0.7977
 1447SOL     OW 5239   3.374   5.173   4.297  0.1458 -0.2215 -0.1915
 1447SOL    HW1 5240   3.352   5.252   4.239  1.8599 -0.3529 -1.0855
 1447SOL    HW2 5241   3.364   5.199   4.393 -1.4671  0.3936 -0.4909
 1448SOL     OW 5242   3.485   6.119   0.703  0.3298  0.0459 -0.0847
 1448SOL    HW1 5243   3.498   6.198   0.763 -3.5386  2.1453 -1.6558
 1448SOL    HW2 5244   3.408   6.064   0.737  1.7836 -2.1067 -0.0585
 1449SOL     OW 5245   1.842   0.960   5.651  0.0196  0.5304  0.4748
 1449SOL    HW1 5246   1.803   0.938   5.740  0.1873  1.4076  0.7805
 1449SOL    HW2 5247   1.937   0.929   5.648 -0.1529 -0.0037  0.3855
 1450SOL     OW 5248   6.584   4.369   3.244 -0.1441  0.0690  0.1024
 1450SOL    HW1 5249   6.681   4.374   3.222 -0.2632  0.6538 -0.3004
 1450SOL    HW2 5250   6.541   4.458   3.230 -0.9898 -0.4764 -0.9573
 1451SOL     OW 5251   2.780   0.598   0.230 -0.1420  0.2938  0.1011
 1451SOL    HW1 5252   2.791   0.561   0.138  1.8031 -0.4787  0.5909
 1451SOL    HW2 5253   2.683   0.617   0.247 -0.7495 -1.1044 -1.5032
 1452SOL     OW 5254   3.456   2.061   1.320 -0.0783 -0.1442  0.2646
 1452SOL    HW1 5255   3.493   2.117   1.394 -0.9472 -1.1320  1.5147
 1452SOL    HW2 5256   3.424   2.119   1.246 -0.4637  0.9904  1.2805
 1453SOL     OW 5257   5.292   0.265   4.135 -0.9281  0.2893  0.4732
 1453SOL    HW1 5258   5.276   0.205   4.057  3.8953  0.8741 -1.3056
 1453SOL    HW2 5259   5.307   0.209   4.217  1.5261 -0.9937 -0.7435
 1454SOL     OW 5260   3.851   2.165   2.394  0.2065  0.0754  0.4666
 1454SOL    HW1 5261   3.759   2.194   2.420  1.0077  3.9562 -0.3408
 1454SOL    HW2 5262   3.903   2.144   2.477  0.0763  3.2732  1.5342
 1455SOL     OW 5263   4.820   3.712   6.421  0.4436 -0.6745 -0.3792
 1455SOL    HW1 5264   4.860   3.732   6.510 -1.8645 -1.0057  0.8192
 1455SOL    HW2 5265   4.786   3.797   6.380  2.1362 -0.4132 -1.3317
 1456SOL     OW 5266   1.610   6.307   2.456  0.3468 -0.2322  0.1778
 1456SOL    HW1 5267   1.544   6.276   2.524  0.1582 -1.0010 -0.3463
 1456SOL    HW2 5268   1.663   6.229   2.423  0.2869  0.0942 -0.7130
 1457SOL     OW 5269   2.938   4.312   6.912  0.9799  0.7110 -0.0516
 1457SOL    HW1 5270   2.941   4.407   6.942  0.5653  0.1724  1.7739
 1457SOL    HW2 5271   3.001   4.257   6.967  0.0697 -0.3425 -0.0185
 1458SOL     OW 5272   0.267   0.317   5.790 -0.1669  0.3755  0.2098
 1458SOL    HW1 5273   0.314   0.265   5.719 -0.8671  0.4049 -0.2807
 1458SOL    HW2 5274   0.168   0.306   5.780 -0.3030  1.1750  0.5770
 1459SOL     OW 5275   0.408   1.594   6.920  0.3153 -0.1166 -0.0710
 1459SOL    HW1 5276   0.312   1.623   6.919  0.7084  1.4326 -2.5853
 1459SOL    HW2 5277   0.423   1.530   6.844  1.8967  2.3424 -1.9834
 1460SOL     OW 5278   1.648   1.299   5.617  0.8246 -0.0033  0.2336
 1460SOL    HW1 5279   1.747   1.303   5.603  0.6769 -0.5205 -1.1007
 1460SOL    HW2 5280   1.610   1.224   5.563 -0.4567  1.0031 -0.3107
 1461SOL     OW 5281   1.885   6.766   7.013 -0.8982  0.1190  0.2912
 1461SOL    HW1 5282   1.914   6.754   6.918 -1.4646 -0.5961  0.2007
 1461SOL    HW2 5283   1.844   6.856   7.024 -1.0037  0.1327 -0.1877
 1462SOL     OW 5284   6.115   6.778   1.536 -0.5671  0.2790 -0.2050
 1462SOL    HW1 5285   6.054   6.847   1.497 -0.7506 -0.4975 -1.3489
 1462SOL    HW2 5286   6.084   6.687   1.508 -0.8930 -0.3672  2.0436
 1463SOL     OW 5287   5.202   0.566   3.159  0.2433  0.4605  0.0479
 1463SOL    HW1 5288   5.239   0.559   3.252  0.8706  0.2292 -0.2168
 1463SOL    HW2 5289   5.105   0.590   3.164 -0.2339 -1.4292  0.8154
 1464SOL     OW 5290   5.145   6.488   4.359 -0.2260 -0.3534  0.3739
 1464SOL    HW1 5291   5.108   6.500   4.267  0.1412 -1.5946  0.0507
 1464SOL    HW2 5292   5.243   6.466   4.353 -0.3477 -1.1069  1.0148
 1465SOL     OW 5293   6.017   3.203   4.537  0.4618 -0.2967 -0.5608
 1465SOL    HW1 5294   6.048   3.276   4.598  0.3716  0.1157 -0.9983
 1465SOL    HW2 5295   5.930   3.166   4.572  0.4850 -0.1666 -0.3610
 1466SOL     OW 5296   2.782   4.801   4.431 -0.1083  0.1352 -0.0012
 1466SOL    HW1 5297   2.711   4.736   4.458 -1.1030  1.6295  1.1898
 1466SOL    HW2 5298   2.853   4.805   4.502  0.4819 -0.4029 -0.5620
 1467SOL     OW 5299   0.456   0.409   5.210 -0.0658  0.6353 -0.4383
 1467SOL    HW1 5300   0.380   0.414   5.145 -1.6838  1.0331  1.4027
 1467SOL    HW2 5301   0.435   0.341   5.280  1.7337  0.0695 -0.4025
 1468SOL     OW 5302   1.574   4.140   5.734 -0.6212 -0.2556 -0.0521
 1468SOL    HW1 5303   1.597   4.218   5.676 -0.9618 -0.4833 -0.4975
 1468SOL    HW2 5304   1.566   4.058   5.678 -1.0825 -0.4541  0.2957
 1469SOL     OW 5305   2.471   2.914   0.602  0.1640  0.0207  0.2284
 1469SOL    HW1 5306   2.512   2.994   0.557 -0.2772 -1.4349 -3.0967
 1469SOL    HW2 5307   2.374   2.909   0.579  0.2372 -1.5597  0.1810
 1470SOL     OW 5308   3.580   5.592   6.216  0.2757 -0.1119  0.5394
 1470SOL    HW1 5309   3.544   5.528   6.284  0.6463  0.6001  1.4316
 1470SOL    HW2 5310   3.537   5.574   6.127 -3.5856  1.6568  1.8014
 1471SOL     OW 5311   2.215   5.288   0.546  0.6507  0.6582 -0.7728
 1471SOL    HW1 5312   2.225   5.268   0.644 -1.4231  1.8968 -0.2477
 1471SOL    HW2 5313   2.162   5.216   0.503  1.3729  0.2263 -0.9512
 1472SOL     OW 5314   1.320   1.259   4.919 -0.7337  0.3159 -0.3114
 1472SOL    HW1 5315   1.269   1.181   4.883 -0.7748 -0.3114  1.0720
 1472SOL    HW2 5316   1.416   1.251   4.893 -0.0463 -1.9687  2.5102
 1473SOL     OW 5317   5.772   6.010   4.870  0.0599 -0.1750  0.5806
 1473SOL    HW1 5318   5.729   5.991   4.782  2.8516 -0.6754 -0.7565
 1473SOL    HW2 5319   5.709   5.983   4.944 -2.7397  1.1619 -1.1493
 1474SOL     OW 5320   6.859   0.104   1.401 -0.2048 -0.2557 -0.0775
 1474SOL    HW1 5321   6.955   0.099   1.376 -0.3772 -2.0625 -0.5364
 1474SOL    HW2 5322   6.821   0.192   1.374  0.6195 -0.5841 -2.5472
 1475SOL     OW 5323   6.563   3.641   6.289  0.2553  0.7556  0.1739
 1475SOL    HW1 5324   6.512   3.714   6.243  0.2203 -0.8723 -2.5840
 1475SOL    HW2 5325   6.653   3.631   6.247 -0.3332 -1.7682 -0.6329
 1476SOL     OW 5326   2.309   6.555   1.835  0.0177 -0.3191 -0.0231
 1476SOL    HW1 5327   2.235   6.546   1.768 -0.7606  0.7355  0.6594
 1476SOL    HW2 5328   2.286   6.628   1.899  2.2335  0.9142 -0.5447
 1477SOL     OW 5329   4.992   5.543   6.989  0.3872 -0.1182 -0.2039
 1477SOL    HW1 5330   4.987   5.635   6.951  0.4979  0.0619  0.2170
 1477SOL    HW2 5331   4.901   5.501   6.985  0.1236  0.3721  0.4948
 1478SOL     OW 5332   0.219   3.149   0.521 -0.0271 -0.2511  0.1399
 1478SOL    HW1 5333   0.200   3.117   0.428 -0.8908  0.7033 -0.0354
 1478SOL    HW2 5334   0.297   3.100   0.558 -0.5826 -1.7046 -0.5395
 1479SOL     OW 5335   3.062   5.615   0.542 -0.0086  0.2190 -0.0854
 1479SOL    HW1 5336   3.097   5.539   0.488 -0.3559 -0.0476  0.0575
 1479SOL    HW2 5337   2.964   5.628   0.522 -0.1539  0.0864  0.5099
 1480SOL     OW 5338   6.591   6.915   1.751 -0.3260 -0.9254  0.4667
 1480SOL    HW1 5339   6.503   6.877   1.722  0.1466 -2.2638  0.7104
 1480SOL    HW2 5340   6.575   6.996   1.807 -1.3057  0.8883 -2.2369
 1481SOL     OW 5341   4.290   4.705   4.713 -0.0362  0.0933 -0.3031
 1481SOL    HW1 5342   4.350   4.650   4.654 -1.4611  0.2143 -1.9456
 1481SOL    HW2 5343   4.289   4.666   4.805  1.6291 -0.5832 -0.5252
 1482SOL     OW 5344   3.412   2.923   3.413  0.2494  0.3833 -0.2287
 1482SOL    HW1 5345   3.328   2.924   3.468  1.1442 -1.0591  1.2384
 1482SOL    HW2 5346   3.489   2.950   3.469  0.6963  2.6747 -1.8205
 1483SOL     OW 5347   1.242   1.758   5.821 -0.3777 -0.1466 -0.3660
 1483SOL    HW1 5348   1.200   1.672   5.792 -0.0247  0.0863 -1.6517
 1483SOL    HW2 5349   1.341   1.753   5.809  0.1439 -0.8831  3.1321
 1484SOL     OW 5350   2.837   4.856   4.137  0.5872 -0.6915 -0.3777
 1484SOL    HW1 5351   2.834   4.817   4.229 -0.0903 -0.2213 -0.1951
 1484SOL    HW2 5352   2.922   4.829   4.092  0.7328 -1.2666  0.2328
 1485SOL     OW 5353   3.258   3.078   2.965  0.5486  0.1929  0.3408
 1485SOL    HW1 5354   3.316   3.023   3.025  0.7615 -0.1885 -0.2019
 1485SOL    HW2 5355   3.309   3.158   2.935 -0.1473  1.3374  2.0540
 1486SOL     OW 5356   3.565   1.387   6.175  0.1499 -0.6697  0.0271
 1486SOL    HW1 5357   3.647   1.402   6.119 -0.3732  1.3854 -0.2594
 1486SOL    HW2 5358   3.591   1.362   6.268  1.1541  0.8411  0.1828
 1487SOL     OW 5359   5.759   5.275   3.677  0.0010  0.2911  0.5267
 1487SOL    HW1 5360   5.855   5.286   3.701  0.1669 -0.1487  0.0815
 1487SOL    HW2 5361   5.734   5.342   3.606  1.4611 -2.9672 -3.4592
 1488SOL     OW 5362   0.337   0.025   6.195 -0.3289  0.1102  0.6170
 1488SOL    HW1 5363   0.257   0.084   6.199 -0.7308 -0.5096  2.0522
 1488SOL    HW2 5364   0.335  -0.041   6.270  0.9068 -0.7174 -0.0336
 1489SOL     OW 5365   5.102   0.032   2.603  0.1910  0.7867  0.0177
 1489SOL    HW1 5366   5.066   0.049   2.695 -1.2571 -0.2906 -0.3154
 1489SOL    HW2 5367   5.198   0.006   2.609 -0.4934 -1.6668  1.4951
 1490SOL     OW 5368   1.582   0.235   2.360 -0.4839 -0.0339 -0.2369
 1490SOL    HW1 5369   1.528   0.280   2.290  2.0707  1.0673 -1.6395
 1490SOL    HW2 5370   1.645   0.170   2.317  2.1434  1.6836  0.7795
 1491SOL     OW 5371   6.884   5.144   4.664  0.0236 -0.4886  0.1267
 1491SOL    HW1 5372   6.839   5.164   4.577  2.1091  1.2363 -0.6365
 1491SOL    HW2 5373   6.912   5.229   4.708  0.2269 -1.3893  1.8367
 1492SOL     OW 5374   6.273   3.451   4.531  0.1944  0.4295 -0.4572
 1492SOL    HW1 5375   6.305   3.458   4.626  0.5916  2.2653 -0.6888
 1492SOL    HW2 5376   6.320   3.376   4.485  0.8898  0.2945  0.4439
 1493SOL     OW 5377   1.121   0.832   5.032 -0.3732  0.5186  0.0822
 1493SOL    HW1 5378   1.125   0.882   4.946 -0.7299 -1.4404 -1.1167
 1493SOL    HW2 5379   1.061   0.753   5.022 -0.2690  0.1349  2.0868
 1494SOL     OW 5380   3.116   1.202   2.894  0.1100  0.1691 -0.6527
 1494SOL    HW1 5381   3.031   1.158   2.925  1.2025 -2.2422 -0.7989
 1494SOL    HW2 5382   3.144   1.270   2.961 -1.4415  0.3535 -0.1388
 1495SOL     OW 5383   5.125   0.306   0.218  0.2516  0.2384  0.3707
 1495SOL    HW1 5384   5.214   0.266   0.241  0.7392  1.5798  0.9229
 1495SOL    HW2 5385   5.075   0.326   0.302 -0.8951 -1.1345  0.0543
 1496SOL     OW 5386   0.643   2.739   5.553  0.2397  0.1759  0.6087
 1496SOL    HW1 5387   0.550   2.766   5.580 -1.6594 -1.2043 -3.6699
 1496SOL    HW2 5388   0.692   2.820   5.520 -1.0120  0.3681 -0.9043
 1497SOL     OW 5389   2.602   5.413   1.884 -0.3007  0.6605 -0.2959
 1497SOL    HW1 5390   2.679   5.477   1.885  0.2808 -0.0263 -0.7135
 1497SOL    HW2 5391   2.529   5.450   1.826 -0.5447  1.5880  0.5636
 1498SOL     OW 5392   3.198   6.942   4.460  0.3461  0.8603 -0.1592
 1498SOL    HW1 5393   3.194   6.906   4.554 -0.9238 -0.6320 -0.7522
 1498SOL    HW2 5394   3.271   6.894   4.410  0.4316  1.0260 -0.1932
 1499SOL     OW 5395   1.540   4.663   1.156  0.3483 -0.1602  0.1380
 1499SOL    HW1 5396   1.512   4.568   1.142  1.4233 -0.2019 -2.1951
 1499SOL    HW2 5397   1.622   4.666   1.212 -1.3450 -0.3260  2.8410
 1500SOL     OW 5398   0.984   1.482   5.580 -0.0321  0.2410  0.3858
 1500SOL    HW1 5399   0.961   1.549   5.510  0.9179  2.1029  1.7597
 1500SOL    HW2 5400   0.994   1.392   5.538 -0.4000  1.1106 -1.6963
 1501SOL     OW 5401   0.075   2.344   5.568 -0.7275 -0.1099  0.0587
 1501SOL    HW1 5402   0.152   2.396   5.531  0.7538 -0.1823  2.7734
 1501SOL    HW2 5403   0.082   2.248   5.539 -0.6401  0.1549 -0.8466
 1502SOL     OW 5404   1.488   7.004   5.111  0.4550 -0.7202 -0.6213
 1502SOL    HW1 5405   1.467   6.981   5.206  0.0336 -0.1032 -0.5612
 1502SOL    HW2 5406   1.557   6.940   5.076  1.8994  0.0776  0.6364
 1503SOL     OW 5407   5.233   1.609   2.645 -0.0212 -0.7764  0.5769
 1503SOL    HW1 5408   5.280   1.615   2.557 -1.8089 -1.8782 -0.5105
 1503SOL    HW2 5409   5.194   1.518   2.656 -1.0965 -0.1979  1.8545
 1504SOL     OW 5410   1.119   4.175   5.180  0.0374 -0.1835 -0.5096
 1504SOL    HW1 5411   1.131   4.083   5.218 -2.9396 -0.5025 -0.0642
 1504SOL    HW2 5412   1.090   4.168   5.085 -2.1339  0.0908  0.0623
 1505SOL     OW 5413   3.551   5.504   4.415 -0.0816 -0.0906  0.2482
 1505SOL    HW1 5414   3.595   5.414   4.423 -1.5565 -0.8054  0.7609
 1505SOL    HW2 5415   3.573   5.559   4.496  0.8589  0.0392 -0.0834
 1506SOL     OW 5416   6.127   3.855   4.181 -0.5525 -0.0948  0.0720
 1506SOL    HW1 5417   6.142   3.859   4.082 -0.3319 -0.2182  0.0991
 1506SOL    HW2 5418   6.211   3.826   4.226 -0.2320  1.3013  0.4243
 1507SOL     OW 5419   2.348   5.463   5.149 -0.1951 -0.0166 -0.4822
 1507SOL    HW1 5420   2.392   5.445   5.237  1.7390  0.3215 -1.3346
 1507SOL    HW2 5421   2.337   5.377   5.099  0.7520  0.0421 -0.8111
 1508SOL     OW 5422   6.996   2.919   1.755 -0.0741 -0.1265 -0.6559
 1508SOL    HW1 5423   6.989   2.974   1.838 -2.2090  2.7226 -2.5390
 1508SOL    HW2 5424   7.067   2.957   1.696 -0.2893 -0.5518 -1.1989
 1509SOL     OW 5425   3.420   1.718   4.961  0.3889  0.2671  0.0780
 1509SOL    HW1 5426   3.511   1.686   4.935  0.4311  1.5634 -1.5150
 1509SOL    HW2 5427   3.427   1.811   4.996 -0.5157  1.2466 -2.1350
 1510SOL     OW 5428   6.779   0.139   6.065  0.1302  0.4308  0.5365
 1510SOL    HW1 5429   6.769   0.184   6.154 -1.5628  1.1954 -0.0054
 1510SOL    HW2 5430   6.721   0.184   5.998 -0.8399 -1.9080 -0.2984
 1511SOL     OW 5431   3.812   1.337   3.288  0.2946  0.1298 -0.6031
 1511SOL    HW1 5432   3.910   1.326   3.270  1.3794  2.5562  2.7426
 1511SOL    HW2 5433   3.775   1.253   3.327  1.7919 -0.0072  0.6147
 1512SOL     OW 5434   0.530   6.578   6.458  0.6137 -0.6327  0.4398
 1512SOL    HW1 5435   0.498   6.494   6.502  0.1368  0.3964  2.1205
 1512SOL    HW2 5436   0.512   6.656   6.517  3.8958  0.3434  0.3660
 1513SOL     OW 5437   0.622   5.560   5.023 -0.1141 -0.4945  0.7055
 1513SOL    HW1 5438   0.532   5.536   4.989 -0.0789 -0.2844  0.4626
 1513SOL    HW2 5439   0.692   5.513   4.969  0.1044  2.3126 -1.7411
 1514SOL     OW 5440   6.857   4.701   6.762 -0.2382  0.1878  0.0886
 1514SOL    HW1 5441   6.881   4.798   6.767  1.4930 -0.2039  0.2021
 1514SOL    HW2 5442   6.908   4.651   6.833 -0.5912 -0.8924 -0.4060
 1515SOL     OW 5443   2.878   5.691   2.183 -0.4316  0.4161  0.2367
 1515SOL    HW1 5444   2.876   5.690   2.283 -2.1001  1.4173  0.2435
 1515SOL    HW2 5445   2.858   5.599   2.148  1.2766 -0.2107  0.7783
 1516SOL     OW 5446   4.969   1.336   1.856  0.2356  0.4454 -0.2538
 1516SOL    HW1 5447   4.955   1.429   1.821  0.3863  0.6521  0.2233
 1516SOL    HW2 5448   5.033   1.288   1.797  0.0721  0.6062 -0.5674
 1517SOL     OW 5449   6.096   6.485   6.055  0.4813  0.1220  0.0200
 1517SOL    HW1 5450   6.045   6.556   6.006  1.4588  1.1381  0.4215
 1517SOL    HW2 5451   6.037   6.407   6.071 -0.5327  0.6990 -0.7465
 1518SOL     OW 5452   2.257   4.105   1.987  0.2940 -0.0304 -0.0009
 1518SOL    HW1 5453   2.339   4.154   1.959  0.4512  0.0605  0.5912
 1518SOL    HW2 5454   2.232   4.038   1.917  0.1456  0.8030 -0.7672
 1519SOL     OW 5455   1.491   4.087   3.105 -0.0472  0.4161  0.2619
 1519SOL    HW1 5456   1.492   4.153   3.030  1.5675 -0.5325 -0.6200
 1519SOL    HW2 5457   1.565   4.107   3.169  0.1694 -0.2353  0.2307
 1520SOL     OW 5458   3.420   3.449   1.804 -0.3542  0.2921  0.2847
 1520SOL    HW1 5459   3.498   3.451   1.741 -1.6468  0.3803 -1.3976
 1520SOL    HW2 5460   3.425   3.527   1.866  2.0009 -0.8755  1.6787
 1521SOL     OW 5461   0.238   3.421   0.471 -0.2332  0.3291 -0.7572
 1521SOL    HW1 5462   0.224   3.324   0.491  1.9297  0.2490  0.7207
 1521SOL    HW2 5463   0.306   3.430   0.398 -0.6264  0.7325 -1.0740
 1522SOL     OW 5464   6.431   2.594   1.968 -0.7565  0.4664  0.0802
 1522SOL    HW1 5465   6.376   2.564   1.890 -0.0593  0.5251 -0.4382
 1522SOL    HW2 5466   6.448   2.517   2.029  1.6065 -0.4246 -1.5912
 1523SOL     OW 5467   6.449   0.671   6.172  0.1218 -0.2661  0.3079
 1523SOL    HW1 5468   6.508   0.668   6.092 -0.3693 -1.9206 -0.0303
 1523SOL    HW2 5469   6.361   0.713   6.148  0.4918  0.5674  0.3677
 1524SOL     OW 5470   5.935   1.582   3.364  0.4578  0.0894  0.2673
 1524SOL    HW1 5471   5.892   1.643   3.431  0.8047  0.5617  0.0653
 1524SOL    HW2 5472   5.928   1.488   3.396  1.2104  0.3638  1.3141
 1525SOL     OW 5473   2.221   4.927   2.471  0.0660 -0.8324  0.0272
 1525SOL    HW1 5474   2.315   4.900   2.456  0.7801  2.0724 -1.5817
 1525SOL    HW2 5475   2.188   4.888   2.557  2.7844 -1.7311  0.7528
 1526SOL     OW 5476   6.208   2.572   5.783 -0.2717  0.5817 -0.3254
 1526SOL    HW1 5477   6.120   2.561   5.736 -1.2589  1.5491  1.1731
 1526SOL    HW2 5478   6.270   2.625   5.726 -1.0619  0.8323 -0.9727
 1527SOL     OW 5479   6.089   6.224   1.717  0.0957 -0.3851 -0.0201
 1527SOL    HW1 5480   6.178   6.203   1.757  0.5617 -1.8186 -1.7176
 1527SOL    HW2 5481   6.100   6.260   1.625 -1.0795 -0.0399 -0.0510
 1528SOL     OW 5482   3.851   5.002   1.341  0.4378 -0.2993 -0.1035
 1528SOL    HW1 5483   3.782   5.074   1.333  0.2428 -0.4204  0.4312
 1528SOL    HW2 5484   3.922   5.032   1.405  0.9574 -0.1193 -0.7523
 1529SOL     OW 5485   3.081   2.197   6.336  0.1594  1.2952 -0.0545
 1529SOL    HW1 5486   3.056   2.163   6.427 -1.4286  1.4220 -0.4211
 1529SOL    HW2 5487   3.068   2.296   6.333  0.7694  1.3714 -0.2485
 1530SOL     OW 5488   5.320   1.033   2.821  0.5356 -0.1815 -0.4538
 1530SOL    HW1 5489   5.342   1.112   2.879 -1.7588  0.5738 -0.4799
 1530SOL    HW2 5490   5.363   1.044   2.732  0.1769  1.1329 -0.4916
 1531SOL     OW 5491   0.750   5.159   2.512 -0.0469 -0.2776  0.2951
 1531SOL    HW1 5492   0.798   5.073   2.500 -2.6284 -1.9715  1.2684
 1531SOL    HW2 5493   0.695   5.179   2.431 -0.2528 -0.0885  0.4767
 1532SOL     OW 5494   6.568   2.001   4.477  0.1873 -0.2427  1.3411
 1532SOL    HW1 5495   6.560   1.929   4.408 -0.4997  2.0566 -1.1487
 1532SOL    HW2 5496   6.632   2.070   4.445 -0.2254  0.9693  3.0011
 1533SOL     OW 5497   0.894   5.371   0.349  0.2092 -0.8351  0.6505
 1533SOL    HW1 5498   0.961   5.405   0.284 -0.2576 -3.2760 -1.2526
 1533SOL    HW2 5499   0.802   5.389   0.314 -0.1167  0.0336  1.8930
 1534SOL     OW 5500   5.607   5.691   6.772  0.2793  0.2396  0.3038
 1534SOL    HW1 5501   5.569   5.604   6.803 -0.5185  0.4359 -0.1013
 1534SOL    HW2 5502   5.701   5.677   6.741 -0.7115 -1.0910 -2.4400
 1535SOL     OW 5503   1.228   1.626   2.618  0.2274 -0.2739 -0.3731
 1535SOL    HW1 5504   1.314   1.577   2.634  0.0710 -0.8644 -1.3023
 1535SOL    HW2 5505   1.206   1.625   2.521 -0.6284  0.2365 -0.1979
 1536SOL     OW 5506   5.734   0.465   2.762 -0.4897  0.2637 -0.1309
 1536SOL    HW1 5507   5.643   0.458   2.804  0.1596 -1.6719  1.0998
 1536SOL    HW2 5508   5.784   0.540   2.804 -1.7664  1.9096 -1.4207
 1537SOL     OW 5509   6.792   4.792   1.919 -0.0732 -0.1223  0.1871
 1537SOL    HW1 5510   6.861   4.723   1.939 -0.1728 -0.6217 -1.0943
 1537SOL    HW2 5511   6.832   4.862   1.859 -0.5487 -0.1603 -0.1738
 1538SOL     OW 5512   2.905   0.478   2.757 -0.5903  0.1912  0.3739
 1538SOL    HW1 5513   2.894   0.488   2.856  1.7505 -0.9271  0.8123
 1538SOL    HW2 5514   2.966   0.550   2.723  0.2890 -0.6538  0.1301
 1539SOL     OW 5515   1.480   5.536   1.218 -0.4942 -0.0613 -0.1480
 1539SOL    HW1 5516   1.506   5.525   1.314  0.3994 -2.7509 -0.5981
 1539SOL    HW2 5517   1.523   5.463   1.164 -1.1182  1.2726 -2.5771
 1540SOL     OW 5518   5.653   4.824   0.708 -0.5260 -0.6463 -0.0603
 1540SOL    HW1 5519   5.661   4.857   0.802  3.4997  0.7923 -0.7171
 1540SOL    HW2 5520   5.715   4.747   0.695 -1.2923 -1.0480 -1.4908
 1541SOL     OW 5521   6.201   5.756   1.936  0.1232  0.4840 -0.0130
 1541SOL    HW1 5522   6.231   5.726   2.027 -2.9743 -0.0585  0.9265
 1541SOL    HW2 5523   6.143   5.837   1.945  0.1782  0.7251 -1.5831
 1542SOL     OW 5524   5.839   0.541   1.845 -0.2138  0.1766  0.2712
 1542SOL    HW1 5525   5.813   0.489   1.927 -0.5116  2.3464  1.6269
 1542SOL    HW2 5526   5.938   0.551   1.842 -0.0226 -1.5840 -0.7656
 1543SOL     OW 5527   0.601   2.975   0.818 -0.8828  0.6214 -0.3149
 1543SOL    HW1 5528   0.546   2.952   0.737 -1.2645  1.5841 -0.3417
 1543SOL    HW2 5529   0.653   3.058   0.800  0.3059 -0.0619 -0.1483
 1544SOL     OW 5530   1.908   2.126   0.863  0.5189  0.2712 -0.0288
 1544SOL    HW1 5531   1.846   2.151   0.789  1.2164  0.1435 -0.6655
 1544SOL    HW2 5532   1.869   2.156   0.950 -0.1420  0.7397 -0.4728
 1545SOL     OW 5533   2.876   1.832   0.672  0.3653  0.5777  0.2712
 1545SOL    HW1 5534   2.974   1.843   0.655  0.5239  0.9187  1.3146
 1545SOL    HW2 5535   2.827   1.913   0.640  0.3647  0.2236 -0.6420
 1546SOL     OW 5536   2.351   6.261   0.586 -0.7062  0.1216 -0.0515
 1546SOL    HW1 5537   2.362   6.196   0.661  0.6050  1.3947  0.8915
 1546SOL    HW2 5538   2.403   6.230   0.507 -0.0466  0.0548  0.4073
 1547SOL     OW 5539   6.339   4.124   4.171  0.5147  0.6157 -0.8218
 1547SOL    HW1 5540   6.327   4.035   4.127  3.9092 -0.4109  0.0730
 1547SOL    HW2 5541   6.299   4.121   4.263  1.7888 -0.5134 -0.2729
 1548SOL     OW 5542   0.460   4.614   2.634 -0.4048  1.2272  0.2998
 1548SOL    HW1 5543   0.541   4.667   2.610 -1.5006  2.2589 -1.2773
 1548SOL    HW2 5544   0.481   4.516   2.624  1.4668  1.2719  2.7084
 1549SOL     OW 5545   2.059   5.635   2.505 -0.0087  0.4324 -0.2190
 1549SOL    HW1 5546   2.044   5.717   2.450 -1.2901 -0.7234 -1.6831
 1549SOL    HW2 5547   1.976   5.578   2.505  0.8397 -0.8776  0.7291
 1550SOL     OW 5548   5.770   5.363   4.405 -0.1121  0.3048  0.4784
 1550SOL    HW1 5549   5.839   5.405   4.347 -0.6081 -0.1580 -0.4705
 1550SOL    HW2 5550   5.679   5.377   4.365 -0.2325 -2.4241 -0.4016
 1551SOL     OW 5551   1.631   2.289   1.520 -0.2292 -0.0427 -0.2713
 1551SOL    HW1 5552   1.665   2.208   1.474 -0.7442  0.8910 -2.4037
 1551SOL    HW2 5553   1.587   2.349   1.454 -1.0436  1.3710  1.4722
 1552SOL     OW 5554   1.496   1.485   5.040  0.2459  0.2612  0.0649
 1552SOL    HW1 5555   1.403   1.524   5.042 -0.0338 -0.3150 -1.0469
 1552SOL    HW2 5556   1.557   1.548   4.993 -0.1662 -0.4950 -1.5626
 1553SOL     OW 5557   3.490   6.825   3.615 -0.0466 -0.2659 -0.1781
 1553SOL    HW1 5558   3.404   6.818   3.564  0.5463  1.6277 -1.5767
 1553SOL    HW2 5559   3.484   6.901   3.680  0.9565  0.8325 -1.2907
 1554SOL     OW 5560   3.444   2.073   5.004  0.2348 -0.0155 -0.3894
 1554SOL    HW1 5561   3.429   2.156   4.949  0.7200 -0.5082 -1.2918
 1554SOL    HW2 5562   3.366   2.059   5.065  0.6972  1.8024  0.7185
 1555SOL     OW 5563   4.467   3.867   1.023 -0.1376  0.7619  0.2714
 1555SOL    HW1 5564   4.447   3.820   1.109  0.9734  0.0979  0.1948
 1555SOL    HW2 5565   4.472   3.965   1.038 -2.3255  0.8815  0.4743
 1556SOL     OW 5566   3.298   2.116   2.406 -0.0703  0.2153 -0.3319
 1556SOL    HW1 5567   3.241   2.153   2.333 -1.3350 -2.7041 -0.9386
 1556SOL    HW2 5568   3.366   2.053   2.367  0.8900  0.5047  0.8052
 1557SOL     OW 5569   4.682   3.226   0.989 -0.3373 -0.4855 -0.3966
 1557SOL    HW1 5570   4.769   3.225   1.038 -0.0288  1.7137 -0.8031
 1557SOL    HW2 5571   4.692   3.179   0.902  0.2635 -0.8120 -0.1561
 1558SOL     OW 5572   3.546   4.943   3.960 -0.6525 -0.6755 -0.6132
 1558SOL    HW1 5573   3.506   4.945   4.051 -1.6177 -0.8316 -1.0223
 1558SOL    HW2 5574   3.639   4.905   3.965 -0.3899  0.0723  0.4039
 1559SOL     OW 5575   1.884   3.859   5.741  0.3865 -0.2767  0.1096
 1559SOL    HW1 5576   1.890   3.955   5.714  2.0370 -0.9081 -2.1481
 1559SOL    HW2 5577   1.972   3.829   5.779 -0.2064 -0.8129  1.0827
 1560SOL     OW 5578   3.328   3.337   1.464  0.2758 -0.5080 -0.3274
 1560SOL    HW1 5579   3.314   3.342   1.563  0.1707 -1.4537 -0.2863
 1560SOL    HW2 5580   3.262   3.274   1.424  1.4081 -1.4563 -0.7603
 1561SOL     OW 5581   3.344   6.139   6.022 -0.4313  0.1982  0.7134
 1561SOL    HW1 5582   3.257   6.174   6.057 -1.2072  0.8366 -1.6917
 1561SOL    HW2 5583   3.419   6.177   6.077 -1.4983  2.2434  0.8582
 1562SOL     OW 5584   3.287   1.921   5.214  0.3531 -0.2022 -0.0221
 1562SOL    HW1 5585   3.214   1.861   5.183  0.0434 -0.3237  0.9371
 1562SOL    HW2 5586   3.322   1.890   5.302 -0.4819  1.5679  0.9791
 1563SOL     OW 5587   4.655   4.457   5.726 -0.5578  0.2480 -0.0755
 1563SOL    HW1 5588   4.634   4.503   5.812  0.9062 -0.9252  0.9489
 1563SOL    HW2 5589   4.669   4.359   5.742 -0.1200  0.0276 -1.6135
 1564SOL     OW 5590   1.380   0.136   5.924 -0.4604  0.2776  0.4270
 1564SOL    HW1 5591   1.480   0.136   5.934  0.0018  0.4725 -3.0161
 1564SOL    HW2 5592   1.344   0.225   5.953  0.9055  1.5782 -1.5442
 1565SOL     OW 5593   6.476   6.498   0.286 -0.4486 -0.3707  0.0532
 1565SOL    HW1 5594   6.575   6.486   0.274 -0.7709 -0.8154 -2.6765
 1565SOL    HW2 5595   6.428   6.423   0.240 -2.0921  0.3374  0.5542
 1566SOL     OW 5596   4.519   0.601   6.233 -0.2461 -0.1366  0.1053
 1566SOL    HW1 5597   4.597   0.544   6.207 -0.6248  0.3821 -2.4309
 1566SOL    HW2 5598   4.457   0.548   6.290 -0.1448 -1.9947 -1.4067
 1567SOL     OW 5599   6.776   4.859   3.232  0.1031  0.1178  0.1120
 1567SOL    HW1 5600   6.827   4.792   3.287 -0.6710 -0.4807  0.1188
 1567SOL    HW2 5601   6.721   4.916   3.293  0.3298  0.3892  0.0619
 1568SOL     OW 5602   1.554   2.776   6.353 -0.0697 -0.3300  0.2792
 1568SOL    HW1 5603   1.532   2.777   6.255  2.0440 -3.4189 -0.3802
 1568SOL    HW2 5604   1.499   2.706   6.398  0.8660 -0.7737  0.7447
 1569SOL     OW 5605   5.213   0.855   3.190  0.0240  0.3371 -0.1240
 1569SOL    HW1 5606   5.288   0.914   3.160  1.0074 -0.1004  1.3739
 1569SOL    HW2 5607   5.197   0.783   3.123  1.7798 -0.2819  0.0841
 1570SOL     OW 5608   1.095   6.436   2.701  0.3332 -0.5998 -0.4468
 1570SOL    HW1 5609   1.158   6.495   2.651 -0.6981  0.6099 -0.3572
 1570SOL    HW2 5610   1.056   6.368   2.639  0.6027 -0.4152 -0.8214
 1571SOL     OW 5611   4.762   0.572   0.011  0.0258  0.2851  0.5448
 1571SOL    HW1 5612   4.713   0.542  -0.070 -0.4372  2.8466 -0.2368
 1571SOL    HW2 5613   4.730   0.663   0.037  2.7650  1.1172  1.3666
 1572SOL     OW 5614   0.147   0.817   1.311 -0.4401 -0.3019 -0.3120
 1572SOL    HW1 5615   0.152   0.765   1.396 -1.8499 -2.4175 -1.4288
 1572SOL    HW2 5616   0.085   0.895   1.324 -0.6447 -0.6029  0.6062
 1573SOL     OW 5617   1.438   5.918   2.453 -0.5540  0.1200 -0.1463
 1573SOL    HW1 5618   1.344   5.935   2.425 -1.0502 -1.0140  0.7489
 1573SOL    HW2 5619   1.449   5.821   2.477  0.2320  0.6724  1.9714
 1574SOL     OW 5620   1.231   0.551   0.219 -0.0344  0.4669  0.0821
 1574SOL    HW1 5621   1.296   0.596   0.280 -0.2875  1.6233 -0.4652
 1574SOL    HW2 5622   1.206   0.614   0.145 -0.7113 -0.4518 -0.4930
 1575SOL     OW 5623   5.735   0.140   3.654  0.0691  0.3349  0.6750
 1575SOL    HW1 5624   5.698   0.202   3.723 -0.9325 -1.8683  2.1905
 1575SOL    HW2 5625   5.832   0.160   3.641 -0.4718  3.0907  0.0608
 1576SOL     OW 5626   2.307   0.754   6.733  0.8528 -0.0253  0.1639
 1576SOL    HW1 5627   2.235   0.742   6.665 -0.6874 -0.9393  1.8411
 1576SOL    HW2 5628   2.348   0.666   6.755  0.9550  0.1655  0.7717
 1577SOL     OW 5629   2.103   6.171   5.729 -0.2257  0.3903 -0.4474
 1577SOL    HW1 5630   2.096   6.177   5.629  0.3348  1.8724 -0.4146
 1577SOL    HW2 5631   2.057   6.088   5.760 -0.9011  0.1919 -1.8846
 1578SOL     OW 5632   2.494   6.837   2.660  0.1324  0.3369 -0.0086
 1578SOL    HW1 5633   2.524   6.843   2.565  1.9281  0.0931  0.5124
 1578SOL    HW2 5634   2.520   6.748   2.698  0.0388  0.6846  0.9003
 1579SOL     OW 5635   0.634   3.314   0.917 -0.7766 -0.0791 -0.0236
 1579SOL    HW1 5636   0.590   3.391   0.962 -4.2420 -1.3290 -0.9960
 1579SOL    HW2 5637   0.661   3.246   0.984 -1.6458  0.1003  0.5126
 1580SOL     OW 5638   2.748   5.607   3.624 -0.0746  0.3602  0.0818
 1580SOL    HW1 5639   2.745   5.508   3.609 -1.3260  0.4430 -0.3580
 1580SOL    HW2 5640   2.797   5.626   3.709  1.0528 -0.5618 -0.3319
 1581SOL     OW 5641   6.672   4.436   3.515 -0.2318 -0.2524  0.1277
 1581SOL    HW1 5642   6.592   4.435   3.575 -1.1620 -0.6263 -1.0537
 1581SOL    HW2 5643   6.653   4.379   3.434  1.3749 -0.6373 -0.0155
 1582SOL     OW 5644   2.717   5.391   2.689  0.3268 -0.3504 -0.0900
 1582SOL    HW1 5645   2.650   5.443   2.742 -0.0175 -1.3833  0.5044
 1582SOL    HW2 5646   2.805   5.440   2.690 -0.2210  0.6787 -0.3274
 1583SOL     OW 5647   3.250   2.214   6.644 -0.1546 -0.2934 -0.3240
 1583SOL    HW1 5648   3.321   2.267   6.599  0.1164  0.5271  0.9959
 1583SOL    HW2 5649   3.247   2.238   6.741 -0.6290 -2.0571  0.1472
 1584SOL     OW 5650   4.933   1.316   6.418 -0.3431 -0.2971 -0.7346
 1584SOL    HW1 5651   4.982   1.345   6.500 -3.3328  0.1542  1.0488
 1584SOL    HW2 5652   4.915   1.217   6.423 -1.3323 -0.1129 -0.3160
 1585SOL     OW 5653   5.343   6.294   3.292  0.6920  0.0387  0.0051
 1585SOL    HW1 5654   5.419   6.324   3.234  0.8651  3.4471  1.7638
 1585SOL    HW2 5655   5.259   6.291   3.239  1.3503  0.1601 -1.0728
 1586SOL     OW 5656   2.191   6.955   4.012 -0.2640 -0.2851  0.3460
 1586SOL    HW1 5657   2.153   6.932   3.923  0.3240 -1.8672  0.4649
 1586SOL    HW2 5658   2.277   7.005   4.000 -1.4031  1.7214  0.0784
 1587SOL     OW 5659   6.645   2.336   5.462  0.8551  0.1238 -0.4009
 1587SOL    HW1 5660   6.609   2.333   5.555  1.1341 -1.2895 -0.3184
 1587SOL    HW2 5661   6.684   2.426   5.445  0.0304  0.6845  0.5463
 1588SOL     OW 5662   2.420   0.846   2.411  0.1472  0.1522  0.3701
 1588SOL    HW1 5663   2.515   0.823   2.434  0.4084 -0.7135 -1.3619
 1588SOL    HW2 5664   2.389   0.788   2.335 -1.9601  0.0662  1.2297
 1589SOL     OW 5665   1.503   0.845   2.734  0.7735  0.3520  0.0574
 1589SOL    HW1 5666   1.503   0.944   2.747  3.5155  0.4071  0.2762
 1589SOL    HW2 5667   1.474   0.800   2.819 -2.8087  0.8939 -0.7356
 1590SOL     OW 5668   0.655   3.265   1.475  0.2116 -0.5626 -0.2216
 1590SOL    HW1 5669   0.577   3.211   1.504 -0.2891 -0.4742 -1.3684
 1590SOL    HW2 5670   0.669   3.341   1.540  0.4616 -1.5951  0.9716
 1591SOL     OW 5671   1.377   1.803   3.819  0.0992  0.0441 -0.2350
 1591SOL    HW1 5672   1.325   1.882   3.787  0.3214  0.3010  0.0320
 1591SOL    HW2 5673   1.460   1.793   3.765  0.4970  0.5048  0.2827
 1592SOL     OW 5674   5.160   5.903   4.909  0.2536 -0.2167 -0.5550
 1592SOL    HW1 5675   5.233   5.914   4.976  1.0046 -0.5216 -1.3026
 1592SOL    HW2 5676   5.078   5.951   4.941  0.7076 -0.0413  0.3941
 1593SOL     OW 5677   1.802   6.935   2.503  0.2517  0.7298  0.4184
 1593SOL    HW1 5678   1.744   6.998   2.555 -0.5660  1.7774 -1.6464
 1593SOL    HW2 5679   1.745   6.880   2.442  1.0053 -1.6980  1.7603
 1594SOL     OW 5680   6.024   6.706   3.961 -0.1945 -0.3487 -0.6392
 1594SOL    HW1 5681   6.011   6.727   3.864  0.9501 -1.4264 -1.0513
 1594SOL    HW2 5682   6.034   6.608   3.974 -3.4599 -0.6121  1.0122
 1595SOL     OW 5683   1.742   0.935   4.136  0.3481 -0.2727 -0.3052
 1595SOL    HW1 5684   1.710   0.855   4.186  1.5334 -0.7604 -0.2949
 1595SOL    HW2 5685   1.665   0.997   4.120 -0.2900 -0.6638  1.0587
 1596SOL     OW 5686   1.328   0.248   1.452  0.1143 -0.9238  0.0162
 1596SOL    HW1 5687   1.426   0.234   1.464  0.2668 -1.1326 -1.3802
 1596SOL    HW2 5688   1.305   0.341   1.480  0.3694 -1.4394  2.1058
 1597SOL     OW 5689   5.085   4.051   5.878 -0.1769  0.1991  0.4824
 1597SOL    HW1 5690   5.159   4.053   5.945 -0.0322 -0.9273  0.3703
 1597SOL    HW2 5691   5.008   4.105   5.912  0.4945  0.9612  0.8234
 1598SOL     OW 5692   5.592   3.316   6.743 -0.1893 -0.6000  0.4514
 1598SOL    HW1 5693   5.553   3.398   6.701 -0.3155 -0.5072  0.7509
 1598SOL    HW2 5694   5.630   3.339   6.832  1.3289 -0.5049 -0.1803
 1599SOL     OW 5695   4.388   3.786   6.996  1.3889  0.2229 -0.3813
 1599SOL    HW1 5696   4.480   3.764   7.028  1.6425 -0.7796 -1.7024
 1599SOL    HW2 5697   4.393   3.854   6.923  1.2387 -0.9135 -1.4869
 1600SOL     OW 5698   6.436   3.125   2.882 -0.1710 -0.5806 -0.7543
 1600SOL    HW1 5699   6.378   3.073   2.945  0.3104 -0.0435  0.1521
 1600SOL    HW2 5700   6.523   3.076   2.869 -0.0112 -0.3735 -0.4804
 1601SOL     OW 5701   6.943   0.776   4.418 -0.0393 -0.8237 -0.1907
 1601SOL    HW1 5702   6.844   0.765   4.430  0.0563 -1.0059  0.4312
 1601SOL    HW2 5703   6.970   0.869   4.443  0.1669 -1.2176  1.0895
 1602SOL     OW 5704   0.792   4.177   1.802 -0.7087  0.0963  0.5699
 1602SOL    HW1 5705   0.761   4.272   1.801  0.5199  0.5229  0.0902
 1602SOL    HW2 5706   0.892   4.175   1.807 -0.7416 -1.1896  1.1846
 1603SOL     OW 5707   4.041   5.907   2.111 -0.2681 -0.4258  0.2497
 1603SOL    HW1 5708   3.991   5.897   2.197 -2.1969  0.7402 -0.6648
 1603SOL    HW2 5709   3.981   5.883   2.034  0.9730 -0.1592 -0.8472
 1604SOL     OW 5710   6.369   3.763   2.511  0.1530 -0.5282  0.4659
 1604SOL    HW1 5711   6.407   3.815   2.435 -0.3256 -0.2680  0.4015
 1604SOL    HW2 5712   6.439   3.701   2.547 -0.0995 -1.9047 -1.2820
 1605SOL     OW 5713   6.958   4.015   4.515 -0.1032 -0.0672  0.3418
 1605SOL    HW1 5714   6.862   4.043   4.518  0.2968  1.4213 -0.2397
 1605SOL    HW2 5715   6.966   3.922   4.551 -1.6508  0.0833  1.1723
 1606SOL     OW 5716   2.045   1.033   4.717  0.1028 -0.3319  0.5228
 1606SOL    HW1 5717   2.113   0.961   4.717 -0.1172 -0.5974 -1.4549
 1606SOL    HW2 5718   1.972   1.011   4.652  0.7978  2.3205 -1.3307
 1607SOL     OW 5719   0.512   3.988   3.922 -0.4160  0.1541  0.0812
 1607SOL    HW1 5720   0.495   3.935   4.005 -0.0996 -0.0011  0.0446
 1607SOL    HW2 5721   0.573   3.938   3.861  0.5510  0.9095  0.4078
 1608SOL     OW 5722   6.820   3.548   6.259  0.1116 -0.4080  0.2611
 1608SOL    HW1 5723   6.754   3.517   6.190  0.3871  1.8709 -1.1501
 1608SOL    HW2 5724   6.903   3.494   6.252  0.0583 -0.3643 -1.0919
 1609SOL     OW 5725   5.992   2.420   5.429  0.1164 -0.4407 -0.2381
 1609SOL    HW1 5726   5.939   2.339   5.454  1.0793 -0.6881  1.1021
 1609SOL    HW2 5727   5.953   2.501   5.473 -1.1290 -0.0517 -1.9499
 1610SOL     OW 5728   4.933   2.695   1.261 -0.3758 -0.5287 -0.0382
 1610SOL    HW1 5729   4.972   2.727   1.175 -0.8980  0.6739  0.1474
 1610SOL    HW2 5730   4.965   2.602   1.280  1.7062  0.1073 -0.2764
 1611SOL     OW 5731   3.567   0.066   4.471 -0.1169  0.4680 -0.0343
 1611SOL    HW1 5732   3.494   0.019   4.421 -0.6617  1.1052  0.1458
 1611SOL    HW2 5733   3.634  -0.001   4.502  0.7486  0.1445 -2.4013
 1612SOL     OW 5734   4.601   2.468   2.182  0.4131  0.3996  0.0444
 1612SOL    HW1 5735   4.677   2.417   2.141 -0.1687 -1.3415  1.0368
 1612SOL    HW2 5736   4.638   2.537   2.244  1.2254 -0.4652  0.5677
 1613SOL     OW 5737   0.065   0.802   6.881  0.1647  0.1762 -0.1308
 1613SOL    HW1 5738   0.118   0.758   6.954  1.2871 -0.0768 -1.0796
 1613SOL    HW2 5739   0.073   0.901   6.890  2.4129  0.1597 -1.3641
 1614SOL     OW 5740   3.684   0.802   4.965  0.3149 -0.0238 -0.4269
 1614SOL    HW1 5741   3.666   0.742   4.887  2.4805 -1.3126 -0.0015
 1614SOL    HW2 5742   3.597   0.821   5.012 -0.6789 -1.3262 -1.6311
 1615SOL     OW 5743   6.874   4.056   6.943 -0.1118  0.4816 -0.2782
 1615SOL    HW1 5744   6.802   4.044   7.012  0.3273 -0.4730  0.0393
 1615SOL    HW2 5745   6.944   4.118   6.977  0.5319 -0.6404  0.5121
 1616SOL     OW 5746   6.927   0.680   1.579 -0.2939  0.2131 -0.3810
 1616SOL    HW1 5747   6.924   0.744   1.656 -0.8839  0.5787 -0.6986
 1616SOL    HW2 5748   6.911   0.587   1.612 -1.0305  0.4237 -0.1125
 1617SOL     OW 5749   6.382   6.486   5.496  0.4154  0.1609 -0.4005
 1617SOL    HW1 5750   6.479   6.482   5.518  0.5073  1.3739 -0.5132
 1617SOL    HW2 5751   6.369   6.539   5.413 -0.4887  2.0673  0.8707
 1618SOL     OW 5752   6.185   3.304   1.122  0.0511  0.3788  0.0674
 1618SOL    HW1 5753   6.091   3.314   1.155 -0.5798  1.6262 -1.9054
 1618SOL    HW2 5754   6.187   3.239   1.046  1.0681 -0.7473  1.0172
 1619SOL     OW 5755   4.499   0.850   0.048  0.1028 -0.1689 -0.1448
 1619SOL    HW1 5756   4.440   0.884   0.121  0.6772 -1.2209  0.8545
 1619SOL    HW2 5757   4.446   0.794  -0.015  0.4252 -3.8443  2.5199
 1620SOL     OW 5758   0.208   2.909   5.558  0.3813  0.0235  0.0376
 1620SOL    HW1 5759   0.284   2.848   5.581 -0.0858  0.3739  2.8219
 1620SOL    HW2 5760   0.240   2.979   5.494  2.2929 -0.0967  0.7955
 1621SOL     OW 5761   4.772   3.586   6.980 -0.8133 -0.1678 -0.3245
 1621SOL    HW1 5762   4.861   3.546   7.004  0.1570  1.8048 -0.4717
 1621SOL    HW2 5763   4.704   3.512   6.970  0.4204 -1.6100  1.2875
 1622SOL     OW 5764   5.593   6.984   5.739 -0.0099 -0.1747 -0.2671
 1622SOL    HW1 5765   5.658   6.974   5.815 -0.1011 -1.9042 -0.3922
 1622SOL    HW2 5766   5.501   6.997   5.776 -0.3090 -2.6428 -0.0096
 1623SOL     OW 5767   6.725   3.257   1.549 -0.0695 -0.0696 -0.4437
 1623SOL    HW1 5768   6.694   3.179   1.494 -1.3602  0.0380  0.0757
 1623SOL    HW2 5769   6.646   3.299   1.594  0.6746  1.2079 -0.2716
 1624SOL     OW 5770   6.375   3.714   2.200  0.5032 -0.1234 -0.5634
 1624SOL    HW1 5771   6.332   3.800   2.228  0.9716 -0.3456  0.8967
 1624SOL    HW2 5772   6.466   3.733   2.163  0.1036  0.1151 -1.4609
 1625SOL     OW 5773   2.483   1.800   6.209 -0.1451  0.1775 -0.0958
 1625SOL    HW1 5774   2.454   1.798   6.304  0.2900  0.8122  0.0555
 1625SOL    HW2 5775   2.406   1.824   6.150 -0.4455 -0.3482  0.0789
 1626SOL     OW 5776   1.997   0.373   0.589 -0.1675  0.0829 -0.3535
 1626SOL    HW1 5777   1.964   0.308   0.520 -1.1566 -1.2706  1.3005
 1626SOL    HW2 5778   1.923   0.391   0.655  1.4513 -0.7189  1.8050
 1627SOL     OW 5779   5.318   1.065   5.548 -0.1036 -0.2585  0.2264
 1627SOL    HW1 5780   5.315   0.966   5.535 -1.1895 -0.2555  0.3636
 1627SOL    HW2 5781   5.351   1.108   5.464  0.4482 -0.7365  0.1934
 1628SOL     OW 5782   4.564   2.567   3.720  1.0554  0.1749 -0.8827
 1628SOL    HW1 5783   4.493   2.513   3.677  1.0364  0.7654 -1.6277
 1628SOL    HW2 5784   4.643   2.509   3.740  0.0559 -0.6702  0.7573
 1629SOL     OW 5785   4.932   4.020   0.983  0.0566 -0.6045 -0.5563
 1629SOL    HW1 5786   4.940   3.984   1.076  0.6135 -0.1352 -0.4148
 1629SOL    HW2 5787   5.016   4.068   0.959  0.4152 -1.7993 -1.7802
 1630SOL     OW 5788   1.275   3.509   0.334 -0.0525  0.2759 -0.2856
 1630SOL    HW1 5789   1.372   3.500   0.358  0.6098  1.5663 -2.2465
 1630SOL    HW2 5790   1.266   3.518   0.235 -2.1570  0.6091 -0.1062
 1631SOL     OW 5791   4.349   3.779   5.794 -0.7377 -0.3274  0.0809
 1631SOL    HW1 5792   4.401   3.801   5.876  0.1268  2.4686 -1.1017
 1631SOL    HW2 5793   4.410   3.736   5.727 -0.9248 -0.6292  0.1007
 1632SOL     OW 5794   3.223   5.944   3.151 -0.5721 -0.0587 -0.2904
 1632SOL    HW1 5795   3.250   6.018   3.090  2.2035 -1.3062 -0.6897
 1632SOL    HW2 5796   3.128   5.919   3.133 -1.0681  2.2912 -1.2242
 1633SOL     OW 5797   5.164   1.590   3.060 -0.0346  0.2092  0.1697
 1633SOL    HW1 5798   5.161   1.632   3.150 -0.0095  2.6473 -0.8815
 1633SOL    HW2 5799   5.205   1.655   2.995 -1.5789 -0.8139 -1.9115
 1634SOL     OW 5800   0.026   5.361   2.861 -0.1279 -0.5414 -0.2215
 1634SOL    HW1 5801   0.093   5.343   2.933 -0.0617  0.4389 -0.0151
 1634SOL    HW2 5802  -0.006   5.275   2.823  0.8223 -1.0426  0.0695
 1635SOL     OW 5803   4.998   6.508   3.559  0.2259  0.5308  0.2123
 1635SOL    HW1 5804   4.912   6.458   3.548  0.3102  0.2743  0.7021
 1635SOL    HW2 5805   4.982   6.605   3.541 -0.2854  0.5650  0.7939
 1636SOL     OW 5806   4.875   3.593   2.934  0.6360 -0.3420 -0.4783
 1636SOL    HW1 5807   4.971   3.601   2.908  1.0555 -2.1406  0.3695
 1636SOL    HW2 5808   4.864   3.619   3.030 -0.3495  3.0657 -1.3672
 1637SOL     OW 5809   1.742   2.688   4.745 -0.1554  0.0357  0.3760
 1637SOL    HW1 5810   1.733   2.600   4.699 -0.9400  0.1384  0.3257
 1637SOL    HW2 5811   1.837   2.700   4.775  0.1091 -0.5286 -0.2059
 1638SOL     OW 5812   2.831   3.199   0.132 -0.1126 -0.1745 -0.4678
 1638SOL    HW1 5813   2.892   3.179   0.055  0.1889  0.9933 -0.5528
 1638SOL    HW2 5814   2.868   3.274   0.186 -0.7535 -0.4162  0.3283
 1639SOL     OW 5815   3.021   3.168   6.076 -0.3624  0.0812  0.0692
 1639SOL    HW1 5816   3.056   3.243   6.020 -0.6632 -0.7197 -1.2370
 1639SOL    HW2 5817   3.088   3.094   6.077 -0.7976 -0.3209 -0.1034
 1640SOL     OW 5818   4.173   1.589   6.146  0.3800 -0.5529  1.0827
 1640SOL    HW1 5819   4.233   1.509   6.139 -0.1275 -0.8786  0.3337
 1640SOL    HW2 5820   4.082   1.559   6.176  0.1139 -0.2958  0.5400
 1641SOL     OW 5821   4.400   1.952   6.190 -0.0781  0.5630 -0.5429
 1641SOL    HW1 5822   4.423   1.958   6.093 -0.4832  0.0906 -0.6711
 1641SOL    HW2 5823   4.304   1.926   6.200  0.1277 -0.0138 -0.0124
 1642SOL     OW 5824   5.953   2.168   1.764 -0.2119 -0.0194  0.1987
 1642SOL    HW1 5825   5.942   2.071   1.742  0.0223  0.0724 -0.3686
 1642SOL    HW2 5826   5.887   2.195   1.834 -0.0025 -0.6842  0.6613
 1643SOL     OW 5827   4.044   6.569   6.697  0.0032 -0.2302 -0.4463
 1643SOL    HW1 5828   4.140   6.585   6.719  0.0479 -1.8818  0.7719
 1643SOL    HW2 5829   3.999   6.657   6.679  1.4449  0.6761  0.1683
 1644SOL     OW 5830   1.421   1.760   1.854 -0.2923  0.2888  0.0694
 1644SOL    HW1 5831   1.460   1.852   1.857 -1.0128  0.6494 -1.0714
 1644SOL    HW2 5832   1.363   1.751   1.774 -1.8640 -0.5205  1.2525
 1645SOL     OW 5833   6.248   1.238   3.073  0.0270  0.3285 -0.2273
 1645SOL    HW1 5834   6.158   1.225   3.032 -0.1045  1.2770 -0.2682
 1645SOL    HW2 5835   6.314   1.260   3.001  0.5853 -1.6383 -0.3670
 1646SOL     OW 5836   2.731   4.763   6.830  0.3483  0.0077 -0.4065
 1646SOL    HW1 5837   2.744   4.692   6.761 -0.1454 -1.7414  1.1833
 1646SOL    HW2 5838   2.819   4.802   6.855  0.5145  0.8085 -2.0990
 1647SOL     OW 5839   4.348   1.193   3.831 -0.4745 -0.4434 -0.3021
 1647SOL    HW1 5840   4.311   1.218   3.741 -0.4333  0.1034 -0.1689
 1647SOL    HW2 5841   4.274   1.165   3.891 -0.6771  0.5175 -0.0781
 1648SOL     OW 5842   0.529   2.123   2.062  0.5208 -0.1456 -0.0882
 1648SOL    HW1 5843   0.589   2.095   2.138 -1.1987  1.3350  1.9490
 1648SOL    HW2 5844   0.546   2.218   2.039 -0.6411  0.1382  0.1581
 1649SOL     OW 5845   6.952   2.737   6.010 -0.1299  0.2743  0.9483
 1649SOL    HW1 5846   7.052   2.733   6.008 -0.1654 -1.8068 -1.5206
 1649SOL    HW2 5847   6.923   2.833   6.007  1.8910  0.9886 -3.1972
 1650SOL     OW 5848   2.665   1.442   0.566 -0.0507  0.0598  0.9231
 1650SOL    HW1 5849   2.629   1.509   0.501  1.4852  0.6537  0.6517
 1650SOL    HW2 5850   2.678   1.355   0.520 -0.3708  0.0590  0.8278
 1651SOL     OW 5851   0.855   0.913   0.492  0.1238  0.3759 -0.1251
 1651SOL    HW1 5852   0.787   0.846   0.461  2.4740 -1.3012 -2.0314
 1651SOL    HW2 5853   0.893   0.883   0.580  0.7176 -0.5305 -0.6687
 1652SOL     OW 5854   6.369   4.521   6.643 -0.1360  0.0654 -0.6584
 1652SOL    HW1 5855   6.453   4.573   6.661  0.7337 -2.1293  2.7709
 1652SOL    HW2 5856   6.296   4.583   6.616  1.4859  2.6966  0.5739
 1653SOL     OW 5857   6.544   1.339   5.142  0.1519  0.1991  0.1908
 1653SOL    HW1 5858   6.504   1.430   5.149 -0.6438 -0.1960  0.8485
 1653SOL    HW2 5859   6.536   1.291   5.230 -2.2535 -1.6561 -0.9131
 1654SOL     OW 5860   5.987   5.045   0.114  0.0332 -0.1830 -0.0473
 1654SOL    HW1 5861   6.067   5.046   0.055  0.3507  1.2752  0.3670
 1654SOL    HW2 5862   6.013   5.020   0.207 -0.0520 -0.0641  0.0097
 1655SOL     OW 5863   5.741   3.984   5.040  0.4624  0.3780  0.1993
 1655SOL    HW1 5864   5.776   4.004   5.131 -0.6348  0.7476  0.5616
 1655SOL    HW2 5865   5.646   3.955   5.047  0.4085  0.2795 -0.8182
 1656SOL     OW 5866   1.841   5.817   4.454  0.2754  0.5133  0.3071
 1656SOL    HW1 5867   1.765   5.796   4.393 -0.1230 -0.1679  1.0236
 1656SOL    HW2 5868   1.922   5.842   4.400  0.7001 -2.4979 -0.6393
 1657SOL     OW 5869   4.373   0.766   4.962  1.2779 -0.1664 -0.4974
 1657SOL    HW1 5870   4.416   0.746   5.049  0.2194  0.4541  0.1939
 1657SOL    HW2 5871   4.376   0.864   4.944  0.8487 -0.2024 -0.8074
 1658SOL     OW 5872   2.785   1.424   3.953 -0.3924  0.1559  0.4510
 1658SOL    HW1 5873   2.722   1.401   4.027  0.2038 -0.2153  0.8524
 1658SOL    HW2 5874   2.755   1.508   3.909 -0.9709  0.1747  0.8695
 1659SOL     OW 5875   1.797   4.474   1.253 -0.0621 -0.7205  0.3175
 1659SOL    HW1 5876   1.873   4.509   1.307 -0.9265  1.0233  0.4918
 1659SOL    HW2 5877   1.747   4.405   1.305  0.0835 -0.2394  1.1055
 1660SOL     OW 5878   4.193   6.992   2.631 -0.4377  0.3962 -0.0234
 1660SOL    HW1 5879   4.270   7.037   2.674  0.1858 -0.3735 -0.3136
 1660SOL    HW2 5880   4.166   6.912   2.684  0.2737 -0.5020 -0.9602
 1661SOL     OW 5881   1.780   2.191   0.476 -0.1724  0.3868 -0.3583
 1661SOL    HW1 5882   1.870   2.150   0.469 -0.1880  0.1921  0.4433
 1661SOL    HW2 5883   1.757   2.205   0.573 -1.4826 -0.6493 -0.4982
 1662SOL     OW 5884   5.341   5.596   4.489  0.3104 -0.3950  0.2954
 1662SOL    HW1 5885   5.380   5.564   4.575  0.0759 -1.5712 -0.0124
 1662SOL    HW2 5886   5.247   5.564   4.481  0.3740 -0.4149 -0.4516
 1663SOL     OW 5887   5.261   2.030   4.538 -0.1013 -0.3609  0.4215
 1663SOL    HW1 5888   5.295   2.039   4.445 -0.4013 -0.0278  0.3412
 1663SOL    HW2 5889   5.237   2.120   4.574 -1.1553 -0.6088  0.3714
 1664SOL     OW 5890   3.276   0.191   5.445 -0.1327  0.7571 -0.6391
 1664SOL    HW1 5891   3.229   0.117   5.396 -1.3879  0.5326  0.8400
 1664SOL    HW2 5892   3.208   0.256   5.480  0.5061 -0.0538  2.3539
 1665SOL     OW 5893   1.313   1.657   5.206 -0.6542  0.2384  0.4194
 1665SOL    HW1 5894   1.342   1.579   5.261 -1.2648 -0.0859  0.2995
 1665SOL    HW2 5895   1.239   1.628   5.145  0.3785  0.4492 -0.9689
 1666SOL     OW 5896   4.182   4.659   5.251  0.1287 -0.7895  0.7625
 1666SOL    HW1 5897   4.223   4.575   5.214 -0.3586 -0.8677  0.3939
 1666SOL    HW2 5898   4.167   4.724   5.177  0.2405 -0.4836  1.0057
 1667SOL     OW 5899   4.462   1.416   3.476  0.5768  0.1560 -0.2710
 1667SOL    HW1 5900   4.381   1.373   3.515  1.1307  0.2440  1.0513
 1667SOL    HW2 5901   4.474   1.386   3.381  0.3518 -1.7948  0.2592
 1668SOL     OW 5902   0.901   1.093   3.796  0.2701  0.2186  0.3975
 1668SOL    HW1 5903   0.973   1.085   3.727 -0.0256  0.2061  0.0844
 1668SOL    HW2 5904   0.891   1.189   3.823  0.2387  0.2556  0.2572
 1669SOL     OW 5905   2.249   0.854   4.749 -0.4703 -0.6477  0.2776
 1669SOL    HW1 5906   2.256   0.781   4.680 -1.5683 -3.2792  2.7503
 1669SOL    HW2 5907   2.339   0.891   4.768  0.0616 -1.0009 -1.3531
 1670SOL     OW 5908   5.892   1.734   2.652  0.3516 -0.0404 -0.3737
 1670SOL    HW1 5909   5.884   1.643   2.611  1.8780 -1.1553  1.6280
 1670SOL    HW2 5910   5.808   1.786   2.635 -0.4656 -1.7182 -1.7565
 1671SOL     OW 5911   0.109   4.625   2.620 -0.6150  0.1435 -0.8313
 1671SOL    HW1 5912   0.068   4.573   2.544 -0.3665 -1.2964 -0.0140
 1671SOL    HW2 5913   0.178   4.569   2.665 -0.1661  1.2937 -0.0443
 1672SOL     OW 5914   0.145   5.900   0.577 -0.4867 -0.2825 -0.0346
 1672SOL    HW1 5915   0.148   5.889   0.676 -0.9755 -2.8710 -0.2495
 1672SOL    HW2 5916   0.217   5.845   0.535  1.1237  2.4172 -1.0979
 1673SOL     OW 5917   5.957   3.507   4.537  0.6583  0.6222 -0.1804
 1673SOL    HW1 5918   5.933   3.552   4.623 -0.9845 -0.6051  0.0534
 1673SOL    HW2 5919   6.057   3.498   4.531  0.7842 -0.0273  2.0043
 1674SOL     OW 5920   2.890   6.461   1.118  0.1657 -0.1766 -0.3219
 1674SOL    HW1 5921   2.966   6.513   1.156 -0.7262  0.0478  1.2306
 1674SOL    HW2 5922   2.925   6.397   1.049  2.1957 -2.0097  2.2188
 1675SOL     OW 5923   5.865   6.729   4.266 -0.2658 -0.5780 -0.0411
 1675SOL    HW1 5924   5.785   6.669   4.259  0.1101 -0.9497 -1.4132
 1675SOL    HW2 5925   5.902   6.746   4.175 -1.7290  3.6247 -0.1066
 1676SOL     OW 5926   3.754   6.867   5.934  0.5533  0.1297 -0.3647
 1676SOL    HW1 5927   3.816   6.879   5.856  0.3350  2.8593 -0.2076
 1676SOL    HW2 5928   3.785   6.925   6.010 -1.6175  0.8200  0.0591
 1677SOL     OW 5929   3.879   2.946   6.220  0.1975  0.6969 -0.5536
 1677SOL    HW1 5930   3.890   2.994   6.307 -0.5650  0.9473 -0.5862
 1677SOL    HW2 5931   3.918   3.002   6.147  1.1062  0.3489 -0.3364
 1678SOL     OW 5932   4.411   5.407   3.559  0.0139 -0.1384  0.5200
 1678SOL    HW1 5933   4.324   5.437   3.520  0.5890  1.7546  0.6164
 1678SOL    HW2 5934   4.394   5.338   3.629 -1.5620  1.3981  1.7317
 1679SOL     OW 5935   1.470   1.213   2.502  0.0884  0.0249 -0.0837
 1679SOL    HW1 5936   1.483   1.132   2.446  1.3099  0.1262  0.0250
 1679SOL    HW2 5937   1.503   1.196   2.595 -0.7329  0.2726  0.2649
 1680SOL     OW 5938   6.990   2.802   6.269  0.4821 -0.2965  0.1741
 1680SOL    HW1 5939   6.948   2.719   6.306  2.8025 -1.4279  0.4344
 1680SOL    HW2 5940   6.985   2.800   6.169 -0.3363 -0.2367  0.2037
 1681SOL     OW 5941   2.553   1.837   2.589 -0.4047 -0.2636 -0.0963
 1681SOL    HW1 5942   2.614   1.880   2.655  0.9762  0.3645 -1.6912
 1681SOL    HW2 5943   2.461   1.831   2.627 -0.2159  2.2630  0.9797
 1682SOL     OW 5944   0.068   1.064   3.326  0.4063  0.3444  0.0580
 1682SOL    HW1 5945   0.126   0.982   3.319  0.7521  0.7074 -2.1657
 1682SOL    HW2 5946   0.101   1.132   3.261 -3.0711  0.2128 -2.0716
 1683SOL     OW 5947   6.397   5.693   0.165  0.7525  0.4803 -0.3390
 1683SOL    HW1 5948   6.448   5.634   0.102 -0.9731  0.1872 -1.5348
 1683SOL    HW2 5949   6.438   5.784   0.166  0.3260  0.7394 -2.5849
 1684SOL     OW 5950   5.325   5.752   5.658 -0.2988 -0.1192  0.2429
 1684SOL    HW1 5951   5.347   5.757   5.561 -0.5947 -0.6768  0.1406
 1684SOL    HW2 5952   5.374   5.823   5.708  0.1765 -0.0943 -0.2567
 1685SOL     OW 5953   1.831   1.526   6.059  0.5891 -0.1770  0.0850
 1685SOL    HW1 5954   1.750   1.521   6.000  0.2923  4.7530 -0.3638
 1685SOL    HW2 5955   1.909   1.558   6.006  1.3817  0.3398  1.5197
 1686SOL     OW 5956   3.142   0.588   6.078  1.2877  0.5154 -0.2242
 1686SOL    HW1 5957   3.151   0.495   6.042 -0.9155 -1.1087  3.0293
 1686SOL    HW2 5958   3.076   0.639   6.023 -0.5371 -1.2455  0.2163
 1687SOL     OW 5959   1.309   6.044   3.796  0.4518 -0.2384 -0.1722
 1687SOL    HW1 5960   1.257   6.055   3.711  0.8611 -0.2282 -0.4261
 1687SOL    HW2 5961   1.406   6.060   3.777  0.6068 -0.7241  0.1918
 1688SOL     OW 5962   6.082   6.195   2.189 -0.3630  0.1195  0.1299
 1688SOL    HW1 5963   6.004   6.157   2.239 -0.3155  0.3168  0.3573
 1688SOL    HW2 5964   6.096   6.290   2.217 -1.2269  0.6946 -1.3085
 1689SOL     OW 5965   0.898   1.911   2.749 -0.0304  0.2353  0.4224
 1689SOL    HW1 5966   0.870   1.870   2.836 -0.6985  1.3385  0.7449
 1689SOL    HW2 5967   0.908   1.839   2.680 -0.2448 -0.5694  1.2048
 1690SOL     OW 5968   2.493   5.966   3.631 -0.1101  0.1785 -0.4866
 1690SOL    HW1 5969   2.459   5.874   3.645  0.1098  0.2081  0.2906
 1690SOL    HW2 5970   2.572   5.982   3.690 -2.0837  1.9181  1.8943
 1691SOL     OW 5971   6.715   4.408   0.693  0.0094 -0.7445  0.2802
 1691SOL    HW1 5972   6.650   4.422   0.768 -0.5172  0.2614 -0.3422
 1691SOL    HW2 5973   6.672   4.433   0.606  0.8608 -1.1703 -0.2813
 1692SOL     OW 5974   4.552   5.286   6.859  0.3036 -0.0939 -0.1067
 1692SOL    HW1 5975   4.535   5.259   6.764  0.2136 -1.9462  0.3952
 1692SOL    HW2 5976   4.510   5.219   6.920  1.3977  0.4048  1.2293
 1693SOL     OW 5977   3.248   1.645   4.788  0.1659 -0.2495 -0.4782
 1693SOL    HW1 5978   3.294   1.603   4.710 -0.0087  2.6380 -2.2821
 1693SOL    HW2 5979   3.316   1.678   4.853  0.4665 -0.2746 -0.7751
 1694SOL     OW 5980   0.765   2.701   4.312 -0.0225  0.0219 -0.0037
 1694SOL    HW1 5981   0.770   2.605   4.337  0.8967  0.4232  1.4932
 1694SOL    HW2 5982   0.755   2.757   4.394 -0.8684  1.1957 -0.8696
 1695SOL     OW 5983   4.078   1.305   2.362 -0.6690 -0.7033  1.0761
 1695SOL    HW1 5984   4.009   1.374   2.388 -0.4194 -0.4400  1.0449
 1695SOL    HW2 5985   4.038   1.242   2.295 -0.0164  1.1933 -1.2263
 1696SOL     OW 5986   2.346   2.386   1.466  0.1793  0.9116  0.4455
 1696SOL    HW1 5987   2.436   2.368   1.506  0.0428 -1.1594 -0.0693
 1696SOL    HW2 5988   2.344   2.353   1.372 -1.8193 -1.3866  1.1883
 1697SOL     OW 5989   2.660   6.222   0.552  0.3290  0.2159  0.2523
 1697SOL    HW1 5990   2.716   6.164   0.492 -1.9321 -0.5132 -1.3055
 1697SOL    HW2 5991   2.606   6.164   0.613 -0.8489  0.7286 -0.2793
 1698SOL     OW 5992   3.782   0.612   0.632 -0.2969 -0.1348 -0.2961
 1698SOL    HW1 5993   3.760   0.522   0.595  0.5789 -0.7852  0.7135
 1698SOL    HW2 5994   3.879   0.616   0.658 -0.6706  0.5584  1.1211
 1699SOL     OW 5995   2.435   5.042   0.550  0.0388 -0.1797 -0.7966
 1699SOL    HW1 5996   2.497   5.081   0.618 -0.3404 -0.1890 -0.4410
 1699SOL    HW2 5997   2.424   5.105   0.474  1.3937 -0.6561 -1.4292
 1700SOL     OW 5998   3.530   0.753   5.528  0.3941 -0.1404 -0.6071
 1700SOL    HW1 5999   3.542   0.662   5.488 -1.5286 -0.7517  0.0894
 1700SOL    HW2 6000   3.542   0.823   5.458  0.2916 -1.0244 -1.5235
 1701SOL     OW 6001   6.846   4.335   4.739 -0.1712 -0.4724 -0.1878
 1701SOL    HW1 6002   6.878   4.253   4.786  2.0386  0.7440  0.5522
 1701SOL    HW2 6003   6.902   4.351   4.657  0.4044  1.0675  0.4803
 1702SOL     OW 6004   5.482   4.953   4.231 -0.0808 -0.1090  0.2074
 1702SOL    HW1 6005   5.484   4.930   4.134  2.0501 -0.2400  0.2377
 1702SOL    HW2 6006   5.418   5.028   4.246 -0.8287 -0.4395 -1.2104
 1703SOL     OW 6007   4.175   4.794   5.011 -0.0796 -0.0829 -0.9605
 1703SOL    HW1 6008   4.217   4.706   4.987  1.6051  0.2616  0.4947
 1703SOL    HW2 6009   4.244   4.867   5.003 -0.3356  0.5130  1.5096
 1704SOL     OW 6010   2.936   5.575   0.078 -0.3489  0.3013  0.4574
 1704SOL    HW1 6011   2.989   5.492   0.061  0.8662  1.5299 -2.5059
 1704SOL    HW2 6012   2.857   5.578   0.017 -1.4945  0.4962  1.8842
 1705SOL     OW 6013   4.748   0.774   3.742  0.7232  0.7037 -0.0343
 1705SOL    HW1 6014   4.787   0.691   3.701  1.3642  1.8950 -1.9572
 1705SOL    HW2 6015   4.735   0.759   3.841 -0.8172 -2.2688 -0.5579
 1706SOL     OW 6016   3.618   5.092   1.856  1.0463 -0.2602  0.2431
 1706SOL    HW1 6017   3.660   5.173   1.895 -0.4251  0.8217 -0.3283
 1706SOL    HW2 6018   3.518   5.103   1.855  0.7694 -2.2716  0.5855
 1707SOL     OW 6019   4.504   1.643   1.412  0.1462  0.1538 -0.3149
 1707SOL    HW1 6020   4.442   1.700   1.466  0.2176 -0.5338  0.5043
 1707SOL    HW2 6021   4.551   1.700   1.344 -1.8828  0.5805 -1.4271
 1708SOL     OW 6022   5.534   5.305   0.237  0.3038 -0.3774  0.4811
 1708SOL    HW1 6023   5.632   5.299   0.219  0.4637 -0.8629  1.4153
 1708SOL    HW2 6024   5.517   5.289   0.335 -0.6380  0.4654  0.4754
 1709SOL     OW 6025   1.438   6.566   4.917  0.0151  0.4989  0.7336
 1709SOL    HW1 6026   1.467   6.528   5.005 -1.1934  0.6672  1.2133
 1709SOL    HW2 6027   1.361   6.627   4.930 -1.1066 -0.5622 -0.5937
 1710SOL     OW 6028   6.449   3.346   6.007 -0.2453  0.0625  0.1062
 1710SOL    HW1 6029   6.439   3.394   6.094 -0.8081 -0.0154  0.0883
 1710SOL    HW2 6030   6.368   3.362   5.951  0.7327  1.3623 -1.0322
 1711SOL     OW 6031   2.638   4.758   2.797 -0.0154  0.1845 -0.3962
 1711SOL    HW1 6032   2.680   4.792   2.714 -1.5923  1.1660 -0.8313
 1711SOL    HW2 6033   2.685   4.795   2.877 -0.6435  2.0745 -0.8701
 1712SOL     OW 6034   3.138   5.326   1.104 -0.1323 -0.5028 -0.0624
 1712SOL    HW1 6035   3.120   5.411   1.053  0.1051 -0.3503  0.1063
 1712SOL    HW2 6036   3.235   5.303   1.097 -0.1897 -0.7417 -0.0763
 1713SOL     OW 6037   0.633   5.940   4.365  0.0175  0.2182 -0.0823
 1713SOL    HW1 6038   0.665   6.026   4.407 -1.3953  0.2641  0.9616
 1713SOL    HW2 6039   0.580   5.961   4.283  0.0529  0.3220 -0.0796
 1714SOL     OW 6040   3.342   3.518   1.097  0.1533  0.2419  0.0490
 1714SOL    HW1 6041   3.317   3.421   1.092  0.8711  0.0431  0.2291
 1714SOL    HW2 6042   3.414   3.530   1.166 -0.5606  1.0392  0.6808
 1715SOL     OW 6043   0.227   4.994   0.543 -0.3028 -0.1066  0.2986
 1715SOL    HW1 6044   0.142   4.959   0.581  0.2293  1.0256  2.7035
 1715SOL    HW2 6045   0.303   4.933   0.568 -0.4097 -1.5936 -2.5698
 1716SOL     OW 6046   3.597   1.471   0.544  0.6091  0.1540 -0.3756
 1716SOL    HW1 6047   3.694   1.449   0.553  1.1686  2.3605 -0.3146
 1716SOL    HW2 6048   3.587   1.554   0.488 -0.9579  1.9232  2.3302
 1717SOL     OW 6049   1.426   3.573   4.217 -0.0779  0.0580  0.3415
 1717SOL    HW1 6050   1.377   3.648   4.172  1.1442  0.8428  0.3005
 1717SOL    HW2 6051   1.417   3.582   4.316  0.6308  0.6530  0.3568
 1718SOL     OW 6052   1.249   2.142   5.889  0.4975 -0.1791  0.1339
 1718SOL    HW1 6053   1.258   2.079   5.966  2.0340  0.9092  0.9064
 1718SOL    HW2 6054   1.152   2.163   5.874  0.1757 -0.0837  2.0582
 1719SOL     OW 6055   2.646   6.399   6.989 -0.0809 -0.3409 -0.2835
 1719SOL    HW1 6056   2.571   6.403   7.054  0.9484 -0.6508  0.9583
 1719SOL    HW2 6057   2.718   6.340   7.025  1.0554  0.4823 -1.1298
 1720SOL     OW 6058   2.607   0.551   2.627  0.3288 -0.2333 -1.0394
 1720SOL    HW1 6059   2.600   0.508   2.717  0.7660  0.4315 -0.6806
 1720SOL    HW2 6060   2.703   0.552   2.599  0.3443  0.6459 -0.9704
 1721SOL     OW 6061   1.688   5.537   2.416 -0.0306  0.3650  0.7959
 1721SOL    HW1 6062   1.599   5.580   2.430 -0.1330  0.8441 -1.0329
 1721SOL    HW2 6063   1.723   5.562   2.326  1.1292 -1.2852  0.7448
 1722SOL     OW 6064   4.753   5.231   4.799  0.7423  0.4162  0.2699
 1722SOL    HW1 6065   4.754   5.319   4.847  1.0473  1.2837 -1.2614
 1722SOL    HW2 6066   4.669   5.182   4.821  0.8542  0.8027  1.6304
 1723SOL     OW 6067   1.637   0.214   3.456  0.2820  0.2456 -0.1607
 1723SOL    HW1 6068   1.686   0.296   3.487 -0.4827  0.3044  0.9446
 1723SOL    HW2 6069   1.702   0.139   3.446  0.7545  0.5798  0.3111
 1724SOL     OW 6070   6.437   4.408   0.047  0.3774 -0.9570  0.1336
 1724SOL    HW1 6071   6.367   4.369   0.108  0.5980 -0.1384  0.9359
 1724SOL    HW2 6072   6.414   4.503   0.027  3.0886  0.6306  3.5016
 1725SOL     OW 6073   2.549   5.312   3.258 -0.0870 -0.3741 -0.4693
 1725SOL    HW1 6074   2.494   5.284   3.178 -0.4523  1.2181 -0.8045
 1725SOL    HW2 6075   2.488   5.332   3.334  0.2892 -2.4754  0.4649
 1726SOL     OW 6076   2.802   0.283   5.997 -0.1410  0.4120  0.3062
 1726SOL    HW1 6077   2.820   0.272   5.899 -0.3284 -0.1144  0.3306
 1726SOL    HW2 6078   2.807   0.195   6.042 -1.5021  0.4275  0.5261
 1727SOL     OW 6079   3.826   3.302   3.435 -0.0423  0.5977  0.1880
 1727SOL    HW1 6080   3.898   3.362   3.398  0.0056  1.0818  1.0451
 1727SOL    HW2 6081   3.863   3.209   3.445  0.4735  0.8379  0.6098
 1728SOL     OW 6082   4.590   3.380   1.191 -0.1031 -0.0161 -0.1650
 1728SOL    HW1 6083   4.635   3.469   1.200 -0.6642  0.1373  1.4354
 1728SOL    HW2 6084   4.616   3.338   1.104  2.5181  0.4006  0.3349
 1729SOL     OW 6085   1.072   4.547   3.936 -0.5071 -0.2100 -0.4364
 1729SOL    HW1 6086   1.124   4.543   3.850  0.5389  1.6529  0.0600
 1729SOL    HW2 6087   1.130   4.584   4.008 -1.9114 -0.0868  0.6642
 1730SOL     OW 6088   0.885   0.806   3.250 -0.2546 -0.0920  0.2280
 1730SOL    HW1 6089   0.971   0.777   3.292  0.1138  0.4345 -0.1399
 1730SOL    HW2 6090   0.820   0.730   3.249  0.2236 -0.5055  0.4722
 1731SOL     OW 6091   1.228   4.697   3.127  0.1768  0.1578  0.2926
 1731SOL    HW1 6092   1.189   4.662   3.042  0.1865 -0.6686  0.6172
 1731SOL    HW2 6093   1.303   4.760   3.107 -0.6897  1.0278 -0.3282
 1732SOL     OW 6094   2.222   4.219   6.614 -0.3708  0.1269 -1.0261
 1732SOL    HW1 6095   2.248   4.138   6.561  2.7535  0.6300 -0.4875
 1732SOL    HW2 6096   2.211   4.297   6.552  2.2194  0.4707 -1.2037
 1733SOL     OW 6097   2.005   1.440   4.874 -0.0536 -0.0911 -0.5791
 1733SOL    HW1 6098   2.027   1.477   4.964 -0.4347  0.5204 -0.7360
 1733SOL    HW2 6099   1.906   1.432   4.864  0.0033 -0.6748 -0.7462
 1734SOL     OW 6100   2.765   4.720   1.272 -0.0466  0.1317  0.0069
 1734SOL    HW1 6101   2.702   4.675   1.208  0.1343 -1.1207  0.6982
 1734SOL    HW2 6102   2.712   4.763   1.345 -0.1154 -0.9313  0.5953
 1735SOL     OW 6103   4.091   2.389   0.143  0.0585  0.0816 -0.7689
 1735SOL    HW1 6104   4.074   2.308   0.199 -0.1389  0.1591 -0.7150
 1735SOL    HW2 6105   4.142   2.456   0.197 -0.2568  0.2141 -0.6349
 1736SOL     OW 6106   2.756   0.479   3.850 -0.5025 -0.1084  0.2685
 1736SOL    HW1 6107   2.740   0.565   3.801  0.6154 -0.0381  0.0117
 1736SOL    HW2 6108   2.676   0.459   3.907 -0.2418  1.8202  1.4208
 1737SOL     OW 6109   1.848   0.814   6.008 -0.1925 -0.0722  0.9209
 1737SOL    HW1 6110   1.765   0.843   5.961 -0.4134 -0.9274  0.7587
 1737SOL    HW2 6111   1.860   0.868   6.091 -0.4241  0.6625  0.4843
 1738SOL     OW 6112   3.243   3.744   1.431  0.6521 -0.4484  0.1985
 1738SOL    HW1 6113   3.290   3.750   1.519  0.3433  1.0925  0.2903
 1738SOL    HW2 6114   3.306   3.768   1.357  1.0496 -2.2273 -0.0817
 1739SOL     OW 6115   4.207   1.930   3.207 -0.1332 -0.3740  0.2587
 1739SOL    HW1 6116   4.278   1.960   3.271  1.8404  1.7289 -2.6264
 1739SOL    HW2 6117   4.250   1.892   3.125 -2.3031  0.8366 -1.5523
 1740SOL     OW 6118   4.106   6.870   6.105 -0.0777 -0.1141 -0.3413
 1740SOL    HW1 6119   4.134   6.774   6.101  0.7734  0.1669 -1.6646
 1740SOL    HW2 6120   4.068   6.898   6.017 -1.1722  0.5351  0.3083
 1741SOL     OW 6121   2.761   6.994   3.891 -0.0037 -0.0542  0.1004
 1741SOL    HW1 6122   2.698   7.070   3.907  0.0109  0.0157 -0.1643
 1741SOL    HW2 6123   2.716   6.926   3.833 -0.0149 -0.2449  0.3330
 1742SOL     OW 6124   6.432   0.729   2.342  0.3564 -0.7212  0.3823
 1742SOL    HW1 6125   6.342   0.737   2.385  0.0691  1.2026 -0.4725
 1742SOL    HW2 6126   6.498   0.785   2.391  0.4465  0.0304 -0.5636
 1743SOL     OW 6127   0.051   4.091   3.684  0.2633  0.0219 -0.1358
 1743SOL    HW1 6128   0.037   4.048   3.773  1.7682  1.2382  0.7610
 1743SOL    HW2 6129   0.129   4.048   3.638  0.4733  0.4096 -0.1490
 1744SOL     OW 6130   1.723   2.096   4.740  0.3930 -0.2233  0.5492
 1744SOL    HW1 6131   1.670   2.166   4.787 -0.4881  0.1407 -0.9307
 1744SOL    HW2 6132   1.777   2.138   4.668  0.5270 -0.9625  0.2098
 1745SOL     OW 6133   7.012   6.888   4.863  0.8536 -0.3354 -0.0108
 1745SOL    HW1 6134   7.048   6.818   4.802 -0.5727 -2.3388  1.2797
 1745SOL    HW2 6135   6.912   6.890   4.855  0.8112  0.8668  0.6886
 1746SOL     OW 6136   3.281   6.967   3.000 -0.6761  0.2627  0.1159
 1746SOL    HW1 6137   3.204   6.914   2.967 -0.2657 -2.0079  2.4939
 1746SOL    HW2 6138   3.251   7.061   3.020 -2.7189 -0.4277  0.5413
 1747SOL     OW 6139   1.249   2.654   2.758  0.0466 -0.0639 -0.2694
 1747SOL    HW1 6140   1.221   2.560   2.742 -2.6743  0.7866 -0.9024
 1747SOL    HW2 6141   1.207   2.714   2.690  2.1617  1.5961 -0.2325
 1748SOL     OW 6142   1.100   6.055   5.034 -0.2041  0.5011 -0.5162
 1748SOL    HW1 6143   1.182   6.029   4.984  1.7428  0.1670  2.5613
 1748SOL    HW2 6144   1.057   5.974   5.074 -2.7805  0.5288 -2.9389
 1749SOL     OW 6145   1.046   0.486   5.941 -0.1175  0.1339  0.0605
 1749SOL    HW1 6146   0.987   0.566   5.951 -1.0901 -0.4123 -1.0527
 1749SOL    HW2 6147   1.101   0.495   5.857 -0.0903 -0.2810  0.0322
 1750SOL     OW 6148   6.765   2.153   6.039 -0.4534  0.4593 -0.6935
 1750SOL    HW1 6149   6.702   2.087   6.077  0.5631 -1.0556 -1.5201
 1750SOL    HW2 6150   6.830   2.183   6.109 -1.0617  0.7560 -0.2586
 1751SOL     OW 6151   1.268   4.260   3.410  0.6882  0.2223 -0.3776
 1751SOL    HW1 6152   1.233   4.178   3.365  0.8368  0.1752 -0.4064
 1751SOL    HW2 6153   1.275   4.335   3.344  1.5139 -0.0266 -0.5757
 1752SOL     OW 6154   6.338   1.091   3.424 -0.1672 -0.3843 -0.4254
 1752SOL    HW1 6155   6.381   1.116   3.511 -0.1510 -1.1385 -0.2126
 1752SOL    HW2 6156   6.406   1.095   3.350 -0.3127  0.8178 -0.5130
 1753SOL     OW 6157   5.039   5.531   5.291 -0.4571  0.6727  0.3574
 1753SOL    HW1 6158   5.075   5.438   5.293 -1.1458  0.3297 -1.2009
 1753SOL    HW2 6159   5.034   5.562   5.196  0.0475  2.4334  0.8736
 1754SOL     OW 6160   2.491   2.688   3.666 -0.3857  0.0769 -0.1612
 1754SOL    HW1 6161   2.528   2.598   3.690 -2.4655 -0.3617  1.6964
 1754SOL    HW2 6162   2.475   2.692   3.567  0.1845 -1.3888 -0.3441
 1755SOL     OW 6163   4.311   2.429   4.716  0.5910  0.7485 -0.0015
 1755SOL    HW1 6164   4.256   2.473   4.787 -1.3497 -0.5475 -0.6170
 1755SOL    HW2 6165   4.319   2.331   4.735 -2.2991 -0.1886 -2.8244
 1756SOL     OW 6166   6.290   4.883   3.965 -0.9504 -0.4489  0.5356
 1756SOL    HW1 6167   6.199   4.870   3.925 -1.0664 -0.3278  0.7581
 1756SOL    HW2 6168   6.352   4.812   3.931 -1.1546 -0.5933  0.4646
 1757SOL     OW 6169   6.634   2.611   0.896  0.0919 -0.0158 -0.3620
 1757SOL    HW1 6170   6.695   2.545   0.852  0.5639  0.4487 -0.4047
 1757SOL    HW2 6171   6.586   2.664   0.827  1.1184  0.9768 -0.3307
 1758SOL     OW 6172   5.185   5.677   4.112  0.1890  0.5119 -0.1801
 1758SOL    HW1 6173   5.272   5.679   4.064 -0.2460 -0.0933 -1.0097
 1758SOL    HW2 6174   5.112   5.708   4.052 -0.0803  1.7419  0.7449
 1759SOL     OW 6175   1.019   6.150   4.450 -0.4314 -0.0241 -0.1167
 1759SOL    HW1 6176   0.933   6.185   4.487 -0.2490  0.0044  0.2860
 1759SOL    HW2 6177   1.058   6.083   4.514 -0.7306 -0.8984 -0.8262
 1760SOL     OW 6178   2.816   4.485   6.004 -0.2892 -0.0221 -0.4623
 1760SOL    HW1 6179   2.832   4.563   5.944  0.9238 -1.0682 -1.5786
 1760SOL    HW2 6180   2.872   4.408   5.974 -1.8390 -1.5135  0.2567
 1761SOL     OW 6181   2.091   2.595   2.638 -0.0652  0.2711 -0.0771
 1761SOL    HW1 6182   2.182   2.559   2.620 -0.1011 -0.6717  1.4870
 1761SOL    HW2 6183   2.094   2.695   2.640  1.3076  0.2256  1.7090
 1762SOL     OW 6184   1.130   1.263   0.105 -0.2668  0.2916 -0.6649
 1762SOL    HW1 6185   1.182   1.274   0.190 -0.3007  1.4356 -0.7844
 1762SOL    HW2 6186   1.040   1.224   0.126 -1.5214  3.3942  0.2688
 1763SOL     OW 6187   6.937   2.229   1.845  0.5398 -0.5569 -0.3596
 1763SOL    HW1 6188   6.983   2.142   1.824  1.9048  0.4127 -1.6250
 1763SOL    HW2 6189   6.887   2.259   1.764  2.7042  1.3559 -1.1078
 1764SOL     OW 6190   1.717   6.945   2.809  0.6084 -0.8847 -0.3773
 1764SOL    HW1 6191   1.629   6.910   2.777  0.5286 -0.7283 -0.3270
 1764SOL    HW2 6192   1.746   7.021   2.751  0.7107 -0.9372 -0.3950
 1765SOL     OW 6193   5.105   4.629   2.798 -0.5434  0.0058 -0.2251
 1765SOL    HW1 6194   5.017   4.615   2.752  0.6346  0.7766 -2.9235
 1765SOL    HW2 6195   5.158   4.697   2.747  0.1766  2.4929  3.4293
 1766SOL     OW 6196   6.659   2.615   2.316 -0.0971 -0.0425  0.7636
 1766SOL    HW1 6197   6.678   2.561   2.398  2.9546  0.1170  0.3015
 1766SOL    HW2 6198   6.614   2.700   2.341  2.1966  0.7450  2.5977
 1767SOL     OW 6199   4.422   6.215   6.443  0.2336  0.1362  0.0851
 1767SOL    HW1 6200   4.353   6.144   6.429 -0.0222  0.9843 -4.5036
 1767SOL    HW2 6201   4.393   6.275   6.518 -0.8255 -2.9493  2.3303
 1768SOL     OW 6202   5.712   6.655   6.229  0.0070 -0.1925 -0.2022
 1768SOL    HW1 6203   5.653   6.679   6.152  1.5610  0.6705 -1.1773
 1768SOL    HW2 6204   5.772   6.732   6.251 -1.1464 -0.0070  2.6397
 1769SOL     OW 6205   2.502   5.978   6.936 -0.2562 -0.0985 -0.4061
 1769SOL    HW1 6206   2.548   5.893   6.910  0.3027 -0.3477  1.2626
 1769SOL    HW2 6207   2.537   6.054   6.882  0.6124 -0.6338 -0.6025
 1770SOL     OW 6208   5.293   3.488   5.176  0.1870  0.5289 -0.4011
 1770SOL    HW1 6209   5.309   3.477   5.274 -0.1058  0.5721 -0.3466
 1770SOL    HW2 6210   5.196   3.508   5.160 -0.4513 -2.5416 -0.9513
 1771SOL     OW 6211   5.824   3.376   0.255  0.5061 -0.4168 -0.3952
 1771SOL    HW1 6212   5.916   3.379   0.294  0.2165 -1.1411  0.3988
 1771SOL    HW2 6213   5.791   3.281   0.256 -0.5404 -0.0657  0.0691
 1772SOL     OW 6214   4.147   5.691   2.376  0.1365 -0.0774  0.2994
 1772SOL    HW1 6215   4.135   5.790   2.385  1.9321  0.0134  3.0704
 1772SOL    HW2 6216   4.127   5.647   2.463 -0.8403 -2.2276 -0.9419
 1773SOL     OW 6217   1.749   3.553   5.368  0.5219  0.1036  0.6872
 1773SOL    HW1 6218   1.710   3.610   5.440  0.6571  0.0660  0.7909
 1773SOL    HW2 6219   1.804   3.610   5.307 -0.7780  0.4029 -0.2507
 1774SOL     OW 6220   4.816   0.865   5.971 -0.0847 -0.1394 -0.0420
 1774SOL    HW1 6221   4.813   0.926   5.891  1.7976  0.3473  0.2012
 1774SOL    HW2 6222   4.859   0.779   5.945 -0.0818 -0.2360  0.2867
 1775SOL     OW 6223   1.835   4.450   6.555  0.2809 -0.4485  0.7727
 1775SOL    HW1 6224   1.844   4.408   6.645 -0.8826  1.4510  1.8575
 1775SOL    HW2 6225   1.908   4.517   6.542 -1.1262  1.3710  1.6206
 1776SOL     OW 6226   4.044   1.988   6.446 -0.1920  0.4983 -0.5718
 1776SOL    HW1 6227   4.055   1.934   6.363 -0.5293  0.1863 -0.4177
 1776SOL    HW2 6228   3.947   1.998   6.467 -0.0975 -0.4809  0.4499
 1777SOL     OW 6229   5.991   2.199   5.108  0.3299 -0.5041  0.1259
 1777SOL    HW1 6230   5.986   2.138   5.029 -2.2162 -1.2189  0.7548
 1777SOL    HW2 6231   5.924   2.273   5.098  2.0562  1.1659  0.2655
 1778SOL     OW 6232   1.118   1.852   3.511  0.2463  0.3019 -0.5159
 1778SOL    HW1 6233   1.193   1.889   3.456 -0.3703 -0.8106 -2.1782
 1778SOL    HW2 6234   1.050   1.811   3.450 -0.6476 -0.6571  1.0831
 1779SOL     OW 6235   6.520   4.619   4.636 -0.2657 -0.1269 -0.1855
 1779SOL    HW1 6236   6.526   4.608   4.537  1.7401 -1.3092  0.0044
 1779SOL    HW2 6237   6.575   4.697   4.665  0.3273 -0.6378  0.1004
 1780SOL     OW 6238   5.529   3.823   5.510  0.0970 -0.4657 -0.0512
 1780SOL    HW1 6239   5.580   3.814   5.595 -0.8146  2.2957  0.8951
 1780SOL    HW2 6240   5.514   3.733   5.470  1.6744 -1.7205  2.0152
 1781SOL     OW 6241   4.190   6.147   1.638  0.2818 -0.2000 -0.4109
 1781SOL    HW1 6242   4.272   6.098   1.667  0.3701  1.3387  2.1913
 1781SOL    HW2 6243   4.131   6.085   1.587  0.7832 -2.8052  1.9428
 1782SOL     OW 6244   2.436   0.637   4.057 -0.2062 -0.4947 -0.0130
 1782SOL    HW1 6245   2.381   0.720   4.044 -0.2427 -0.7450 -1.7461
 1782SOL    HW2 6246   2.531   0.656   4.033 -0.2127 -0.9402 -0.4165
 1783SOL     OW 6247   7.012   3.470   0.355 -0.5514 -0.4105 -0.4405
 1783SOL    HW1 6248   6.983   3.565   0.367 -2.4408 -0.8180 -1.4334
 1783SOL    HW2 6249   7.100   3.457   0.400  0.0275  1.9336 -0.7407
 1784SOL     OW 6250   0.765   2.002   0.274  0.1915  0.1955  0.3896
 1784SOL    HW1 6251   0.860   1.976   0.257  0.5334 -2.7047  4.8902
 1784SOL    HW2 6252   0.705   1.928   0.243 -0.2369  0.4357  0.6469
 1785SOL     OW 6253   4.521   4.908   6.120 -0.2934  0.7541  0.1686
 1785SOL    HW1 6254   4.532   4.929   6.022  0.1697  0.0856  0.0714
 1785SOL    HW2 6255   4.424   4.904   6.143 -0.4123  0.3379 -0.3891
 1786SOL     OW 6256   0.448   4.221   2.017 -0.0723 -0.0627 -0.1697
 1786SOL    HW1 6257   0.381   4.286   1.981  0.4442  0.7615  0.3498
 1786SOL    HW2 6258   0.455   4.143   1.954  0.1456  0.9147 -1.3848
 1787SOL     OW 6259   2.477   2.327   4.243  0.1735 -0.0472  0.3579
 1787SOL    HW1 6260   2.397   2.380   4.269 -0.6205 -1.5628  1.1724
 1787SOL    HW2 6261   2.549   2.340   4.311  0.7527  1.5318 -0.5206
 1788SOL     OW 6262   0.480   6.484   3.421  0.3680  0.1047  0.1666
 1788SOL    HW1 6263   0.495   6.506   3.518  0.2701  1.7688 -0.1560
 1788SOL    HW2 6264   0.447   6.391   3.413 -0.3319  0.1690  1.8145
 1789SOL     OW 6265   1.430   5.724   1.907 -0.3372  0.0745  0.5357
 1789SOL    HW1 6266   1.392   5.815   1.921  1.8743  0.8488  1.9740
 1789SOL    HW2 6267   1.512   5.729   1.850 -1.4108 -1.3551 -1.2525
 1790SOL     OW 6268   2.502   0.718   1.092  0.4091  1.0605 -0.5115
 1790SOL    HW1 6269   2.556   0.686   1.014  1.2910  0.0355  0.4913
 1790SOL    HW2 6270   2.450   0.799   1.065  0.2265  0.3725 -2.3273
 1791SOL     OW 6271   0.536   6.723   4.219  0.1068 -0.2942 -0.6135
 1791SOL    HW1 6272   0.623   6.743   4.175 -0.2123  2.7414 -0.0671
 1791SOL    HW2 6273   0.517   6.792   4.289 -1.8452 -1.9965  0.6558
 1792SOL     OW 6274   6.273   3.679   4.367 -0.4373 -0.2037  0.1183
 1792SOL    HW1 6275   6.261   3.604   4.432  0.4132  0.2801  0.8447
 1792SOL    HW2 6276   6.347   3.657   4.304 -0.0099  0.1340  0.4989
 1793SOL     OW 6277   5.519   3.493   6.179 -0.2500  0.5086 -0.3509
 1793SOL    HW1 6278   5.478   3.409   6.145 -0.0511  0.3512 -0.2049
 1793SOL    HW2 6279   5.450   3.547   6.226  0.0174 -0.4670  1.2510
 1794SOL     OW 6280   3.930   3.983   1.193  0.1145  0.3479 -0.7230
 1794SOL    HW1 6281   3.979   3.906   1.153  0.5119  0.8552 -1.2473
 1794SOL    HW2 6282   3.995   4.044   1.240  0.0309  1.0878 -1.5319
 1795SOL     OW 6283   2.645   6.063   5.876 -0.0087 -0.0307 -0.6893
 1795SOL    HW1 6284   2.585   6.050   5.797 -1.5591 -2.2899  0.7422
 1795SOL    HW2 6285   2.591   6.088   5.956  1.5459  2.4281 -0.3028
 1796SOL     OW 6286   0.911   0.616   6.650 -0.1893  0.0472  0.5193
 1796SOL    HW1 6287   0.932   0.561   6.730  0.6025  0.8451  0.8778
 1796SOL    HW2 6288   0.954   0.706   6.659 -0.2963  0.2373 -0.6860
 1797SOL     OW 6289   5.308   2.786   0.236  0.0453 -0.5192  1.1474
 1797SOL    HW1 6290   5.269   2.878   0.230  0.2785 -0.4372  0.8659
 1797SOL    HW2 6291   5.236   2.718   0.217 -0.4833 -0.4693  2.7519
 1798SOL     OW 6292   2.743   4.257   0.949  0.2690  0.1670  0.2109
 1798SOL    HW1 6293   2.812   4.326   0.971 -0.3833  0.4800  1.3575
 1798SOL    HW2 6294   2.730   4.197   1.027 -1.3652  0.6412  0.3378
 1799SOL     OW 6295   3.340   3.673   4.201  0.5703  0.7253  0.5538
 1799SOL    HW1 6296   3.249   3.694   4.237  0.2167 -1.3952  1.0105
 1799SOL    HW2 6297   3.366   3.741   4.133 -1.1556  1.6195  0.7511
 1800SOL     OW 6298   5.928   3.594   2.790 -0.4854  0.2562  0.5378
 1800SOL    HW1 6299   6.008   3.596   2.850  1.0064  1.7249 -1.3992
 1800SOL    HW2 6300   5.930   3.510   2.735 -0.5490  0.0599  0.8334
 1801SOL     OW 6301   1.670   0.861   6.747  0.0615  0.1242  0.7942
 1801SOL    HW1 6302   1.746   0.814   6.703 -1.2344 -0.8294 -0.5142
 1801SOL    HW2 6303   1.673   0.844   6.846  0.9858 -0.7079  0.6369
 1802SOL     OW 6304   0.745   3.654   4.038  0.2836 -0.7037  0.2598
 1802SOL    HW1 6305   0.799   3.717   3.982  1.5088 -1.3923  0.6312
 1802SOL    HW2 6306   0.678   3.706   4.091  0.5326  0.1733 -0.2650
 1803SOL     OW 6307   4.873   5.708   4.431  0.1693  0.2681  0.0998
 1803SOL    HW1 6308   4.807   5.642   4.466 -1.7878  2.1763  0.2132
 1803SOL    HW2 6309   4.897   5.773   4.504 -0.5578  1.6613 -0.8540
 1804SOL     OW 6310   6.459   6.235   5.978 -0.1556 -0.4634  0.9825
 1804SOL    HW1 6311   6.436   6.204   6.071 -3.0614  0.4821  0.6613
 1804SOL    HW2 6312   6.391   6.200   5.914 -0.0758  1.6120 -0.2966
 1805SOL     OW 6313   2.720   5.073   2.917 -0.3908 -0.5239  0.1757
 1805SOL    HW1 6314   2.693   4.998   2.978 -0.8003 -0.2627  0.3250
 1805SOL    HW2 6315   2.762   5.146   2.971  0.4650 -0.8541 -0.0365
 1806SOL     OW 6316   4.571   6.094   5.713  0.4161 -0.8952  0.0723
 1806SOL    HW1 6317   4.478   6.096   5.676 -0.4054 -1.7330  1.9541
 1806SOL    HW2 6318   4.571   6.134   5.805  1.7066 -1.8732  0.5220
 1807SOL     OW 6319   0.963   3.490   6.456  0.1957 -0.6716  0.7592
 1807SOL    HW1 6320   0.938   3.583   6.482 -1.3090 -1.2625  1.5910
 1807SOL    HW2 6321   1.035   3.492   6.387 -1.1847  1.1563 -0.7238
 1808SOL     OW 6322   0.426   5.598   6.543 -0.6336 -0.1241  0.6876
 1808SOL    HW1 6323   0.343   5.579   6.595 -0.2838  0.0431  1.3097
 1808SOL    HW2 6324   0.449   5.518   6.487 -1.0979 -0.2429  0.6613
 1809SOL     OW 6325   2.186   2.294   3.170  0.2306  0.4557  0.0950
 1809SOL    HW1 6326   2.088   2.311   3.174 -0.0375 -0.6504 -1.0044
 1809SOL    HW2 6327   2.230   2.367   3.118  0.1093  1.3083  1.1520
 1810SOL     OW 6328   1.857   6.918   5.912  0.0703 -0.5479 -0.2592
 1810SOL    HW1 6329   1.902   6.938   5.999 -1.4480 -0.8438  0.6339
 1810SOL    HW2 6330   1.912   6.852   5.861  1.6436  0.6063 -0.1523
 1811SOL     OW 6331   2.654   5.732   4.586  0.5104  0.4741 -0.0323
 1811SOL    HW1 6332   2.639   5.764   4.493  1.8486 -1.5548 -1.0220
 1811SOL    HW2 6333   2.577   5.675   4.615  0.5765  0.2201 -0.3435
 1812SOL     OW 6334   1.455   0.828   1.485 -0.2110 -0.9271  0.2533
 1812SOL    HW1 6335   1.517   0.829   1.407  1.4770  0.7926  1.5351
 1812SOL    HW2 6336   1.384   0.897   1.472  0.4945 -0.1355  0.5420
 1813SOL     OW 6337   6.475   2.026   5.682 -0.0278  0.1584  0.2076
 1813SOL    HW1 6338   6.388   2.070   5.659 -1.0113 -1.3262  0.8936
 1813SOL    HW2 6339   6.536   2.092   5.724 -0.7581  1.2821 -0.4459
 1814SOL     OW 6340   3.679   2.758   1.074  0.3062  0.6870  0.3891
 1814SOL    HW1 6341   3.673   2.783   0.977  0.2348  0.1034  0.2396
 1814SOL    HW2 6342   3.602   2.798   1.124 -1.0243 -0.9788 -0.2405
 1815SOL     OW 6343   0.298   1.126   4.294 -0.2081  0.1979  0.5500
 1815SOL    HW1 6344   0.259   1.201   4.241 -0.3019 -2.6261 -3.8882
 1815SOL    HW2 6345   0.396   1.119   4.274 -0.3113 -1.1543  0.4779
 1816SOL     OW 6346   5.216   3.621   3.579 -0.2730 -0.5715  0.2498
 1816SOL    HW1 6347   5.129   3.643   3.534  0.5161  2.0878 -0.1465
 1816SOL    HW2 6348   5.227   3.679   3.659  2.5933  1.7861 -1.6187
 1817SOL     OW 6349   6.246   3.270   5.051 -1.0097  0.5594 -0.1242
 1817SOL    HW1 6350   6.255   3.229   4.960  0.1498 -1.1329  0.7070
 1817SOL    HW2 6351   6.160   3.239   5.093 -1.8228  1.7827 -0.8104
 1818SOL     OW 6352   2.459   0.586   1.897 -0.7342  0.1271 -0.2199
 1818SOL    HW1 6353   2.525   0.527   1.942 -1.8131  0.6422  2.1855
 1818SOL    HW2 6354   2.420   0.538   1.818  0.2448 -1.3564  0.1543
 1819SOL     OW 6355   1.252   2.227   5.110 -0.4996  0.2572  0.0517
 1819SOL    HW1 6356   1.294   2.203   5.198  1.6358  0.3642 -0.8921
 1819SOL    HW2 6357   1.278   2.320   5.085 -0.0944 -0.1894 -1.2522
 1820SOL     OW 6358   6.074   0.680   6.440 -0.0639 -0.0894 -0.3962
 1820SOL    HW1 6359   6.133   0.753   6.405  0.4808 -0.8793 -1.1653
 1820SOL    HW2 6360   6.013   0.717   6.511 -0.8589  1.4612 -1.8184
 1821SOL     OW 6361   1.380   3.433   5.598 -0.3585  0.2281 -0.2369
 1821SOL    HW1 6362   1.451   3.378   5.554  1.0685  0.0018  2.1583
 1821SOL    HW2 6363   1.423   3.495   5.664 -2.3950 -0.0374  1.4273
 1822SOL     OW 6364   0.657   6.298   1.409 -0.1304  0.1746 -0.4572
 1822SOL    HW1 6365   0.567   6.288   1.451 -0.1945  1.3252 -0.2923
 1822SOL    HW2 6366   0.725   6.315   1.480  0.4415 -1.8603 -0.4577
 1823SOL     OW 6367   6.278   3.127   4.819  0.1987  0.3054  0.1817
 1823SOL    HW1 6368   6.254   3.094   4.728  1.0229 -0.7986  0.3498
 1823SOL    HW2 6369   6.377   3.124   4.831  0.0540 -0.3310  1.3826
 1824SOL     OW 6370   0.450   2.908   4.067  0.4317  0.0125 -0.3072
 1824SOL    HW1 6371   0.492   2.853   4.140 -1.1116  2.3103  2.5233
 1824SOL    HW2 6372   0.361   2.869   4.044  0.5947 -0.2844 -0.4527
 1825SOL     OW 6373   1.039   1.607   1.814 -0.5390  0.5192 -0.1915
 1825SOL    HW1 6374   0.973   1.566   1.877  0.7477  1.0087  1.5215
 1825SOL    HW2 6375   1.112   1.542   1.794 -0.0376  0.9579  0.1930
 1826SOL     OW 6376   5.585   4.856   1.466 -0.2792  0.5813  0.5303
 1826SOL    HW1 6377   5.612   4.942   1.423  1.6095  1.1979  2.7520
 1826SOL    HW2 6378   5.504   4.872   1.523 -0.7600  0.5389 -0.1278
 1827SOL     OW 6379   3.749   0.053   1.879  0.6347  0.5169 -0.2501
 1827SOL    HW1 6380   3.650   0.063   1.881  0.6466  0.6937 -0.4436
 1827SOL    HW2 6381   3.792   0.143   1.892  0.7621  0.5261 -0.6927
 1828SOL     OW 6382   6.786   1.878   3.211 -0.2660  0.3674 -0.2007
 1828SOL    HW1 6383   6.745   1.968   3.196  2.2643  1.7016  0.1897
 1828SOL    HW2 6384   6.759   1.843   3.300 -3.5404 -0.6839 -1.4762
 1829SOL     OW 6385   2.486   4.792   5.367  0.7174 -0.0382 -0.6973
 1829SOL    HW1 6386   2.395   4.829   5.348 -0.0909 -1.3182  0.5010
 1829SOL    HW2 6387   2.555   4.860   5.342 -0.4873  0.5816 -2.5792
 1830SOL     OW 6388   2.646   1.292   0.115  0.7533 -0.0085 -0.4166
 1830SOL    HW1 6389   2.672   1.258   0.205 -0.3850  2.3206  0.8932
 1830SOL    HW2 6390   2.715   1.265   0.048  2.3718 -0.6172  1.4025
 1831SOL     OW 6391   6.423   3.011   5.603  0.4739 -0.1246  0.0734
 1831SOL    HW1 6392   6.466   2.922   5.583  0.7283 -0.1564  0.7546
 1831SOL    HW2 6393   6.456   3.079   5.538  1.5720 -0.1459  0.5943
 1832SOL     OW 6394   1.256   1.514   4.495  0.0954  0.3759  0.2674
 1832SOL    HW1 6395   1.340   1.525   4.549  1.3175 -2.3859 -0.8975
 1832SOL    HW2 6396   1.190   1.460   4.547  0.7680 -1.1639 -0.4265
 1833SOL     OW 6397   6.094   6.838   4.857 -0.1697  0.5584  0.2167
 1833SOL    HW1 6398   6.016   6.824   4.796  0.2590 -0.7120 -0.0857
 1833SOL    HW2 6399   6.096   6.932   4.889 -2.8330  0.2213  1.6372
 1834SOL     OW 6400   5.249   0.771   5.606  0.2688 -0.0657 -0.4021
 1834SOL    HW1 6401   5.193   0.717   5.543  0.0241  0.5673 -0.7406
 1834SOL    HW2 6402   5.195   0.795   5.687 -0.7112  2.3622 -1.6803
 1835SOL     OW 6403   5.713   2.153   2.392  0.1677  0.5666 -0.3150
 1835SOL    HW1 6404   5.773   2.232   2.404  0.3931  0.4908 -0.9227
 1835SOL    HW2 6405   5.764   2.079   2.347 -0.1538  0.2180 -0.1088
 1836SOL     OW 6406   5.701   4.276   3.574  0.4066  0.6505 -0.2935
 1836SOL    HW1 6407   5.777   4.255   3.636  0.0897  0.5267  0.0560
 1836SOL    HW2 6408   5.710   4.371   3.542  1.5681  0.1816 -1.4920
 1837SOL     OW 6409   0.631   4.550   1.585  0.4890  0.7105 -0.5189
 1837SOL    HW1 6410   0.660   4.643   1.563 -0.6263  1.6649  1.7344
 1837SOL    HW2 6411   0.681   4.518   1.666 -1.2894  0.5723  0.5668
 1838SOL     OW 6412   4.909   4.435   1.310  0.0505 -0.0123 -0.6133
 1838SOL    HW1 6413   4.842   4.376   1.266 -0.5452  0.1523  0.0405
 1838SOL    HW2 6414   4.891   4.438   1.409  0.4885  0.7184 -0.5449
 1839SOL     OW 6415   5.557   6.555   0.582  0.1386 -0.0135  0.3124
 1839SOL    HW1 6416   5.641   6.598   0.548  0.6638 -0.9392  0.3779
 1839SOL    HW2 6417   5.478   6.608   0.552  0.7653  1.2035  0.7484
 1840SOL     OW 6418   5.706   1.003   5.977 -0.1095 -0.0310  0.5424
 1840SOL    HW1 6419   5.633   1.060   6.017 -1.8816 -0.4879 -1.8344
 1840SOL    HW2 6420   5.670   0.911   5.959  1.0098 -0.2315 -0.8190
 1841SOL     OW 6421   4.390   1.825   1.569  0.9445 -0.4189  0.3324
 1841SOL    HW1 6422   4.450   1.906   1.566  0.9159 -0.3441  1.2266
 1841SOL    HW2 6423   4.357   1.813   1.663 -2.6122  1.1226 -0.5625
 1842SOL     OW 6424   3.126   2.137   4.509  0.8261  0.7469 -0.1958
 1842SOL    HW1 6425   3.150   2.158   4.604 -2.0221  2.4400  0.2798
 1842SOL    HW2 6426   3.157   2.211   4.450 -0.1478  1.2577 -0.0827
 1843SOL     OW 6427   4.131   7.017   1.338  0.2471 -0.3719  0.2128
 1843SOL    HW1 6428   4.108   7.025   1.435 -0.7921 -1.3791  0.0743
 1843SOL    HW2 6429   4.051   6.983   1.288  0.5711  0.7256 -1.1010
 1844SOL     OW 6430   0.213   6.440   4.665 -0.3517  0.3658  0.1625
 1844SOL    HW1 6431   0.246   6.508   4.731 -2.7750  1.6010  0.2232
 1844SOL    HW2 6432   0.114   6.450   4.654 -0.4985 -1.9450 -1.2869
 1845SOL     OW 6433   4.033   1.746   5.382 -0.4843  0.4840 -0.3880
 1845SOL    HW1 6434   4.034   1.651   5.348  1.5348 -0.5848  2.2758
 1845SOL    HW2 6435   4.064   1.807   5.309 -0.9454 -0.9942 -1.9020
 1846SOL     OW 6436   4.376   6.938   4.647 -0.3989 -0.4044  0.5436
 1846SOL    HW1 6437   4.449   6.896   4.702  3.0424  0.1044 -3.1199
 1846SOL    HW2 6438   4.322   6.866   4.603  0.9819 -0.9569 -0.3138
 1847SOL     OW 6439   0.793   6.511   4.694  0.6700 -0.2149  0.2453
 1847SOL    HW1 6440   0.877   6.498   4.746 -0.2477 -0.2165  1.7807
 1847SOL    HW2 6441   0.809   6.488   4.598  2.2611 -0.7697  0.6240
 1848SOL     OW 6442   3.642   1.480   3.458  0.5082  0.0137 -0.0268
 1848SOL    HW1 6443   3.592   1.534   3.390  2.4378  2.0411  0.0388
 1848SOL    HW2 6444   3.692   1.407   3.413  0.9214  0.6808 -0.6603
 1849SOL     OW 6445   1.371   0.731   2.949  0.0864 -0.0555  0.2794
 1849SOL    HW1 6446   1.274   0.732   2.921  0.3240  1.1652 -0.6146
 1849SOL    HW2 6447   1.385   0.799   3.020  0.3838  0.1722  0.0059
 1850SOL     OW 6448   4.775   2.246   1.055 -0.3735 -0.0157  0.0830
 1850SOL    HW1 6449   4.743   2.225   1.147  1.5971 -0.0781  0.8050
 1850SOL    HW2 6450   4.787   2.345   1.046 -2.1337  0.1598 -0.6914
 1851SOL     OW 6451   2.482   0.532   5.578  0.2412  0.0821 -0.2606
 1851SOL    HW1 6452   2.408   0.520   5.644 -0.5706  0.4200 -1.0882
 1851SOL    HW2 6453   2.538   0.610   5.605 -0.1208  0.2584 -0.0031
 1852SOL     OW 6454   4.507   6.211   4.390  0.4459  0.0374 -0.3257
 1852SOL    HW1 6455   4.512   6.191   4.488  0.6976 -0.1350 -0.3698
 1852SOL    HW2 6456   4.594   6.185   4.347 -0.0371 -0.8862 -0.7711
 1853SOL     OW 6457   0.854   3.400   4.037 -0.5572 -0.3085  0.0058
 1853SOL    HW1 6458   0.832   3.498   4.028 -0.3027 -0.3005 -0.5966
 1853SOL    HW2 6459   0.790   3.347   3.981 -0.7166 -0.4905  0.3594
 1854SOL     OW 6460   6.591   6.792   2.216 -0.1135 -0.9140 -0.6235
 1854SOL    HW1 6461   6.611   6.714   2.158 -0.1800 -0.0247 -1.8780
 1854SOL    HW2 6462   6.666   6.858   2.211 -0.8271 -0.0954 -1.0013
 1855SOL     OW 6463   6.369   0.468   3.876  0.1502  0.1357  0.0916
 1855SOL    HW1 6464   6.321   0.544   3.920  1.9373  0.7237  1.1079
 1855SOL    HW2 6465   6.302   0.410   3.829 -1.2870  2.2781 -0.6820
 1856SOL     OW 6466   2.382   0.186   4.037 -0.3470 -0.0608  0.0699
 1856SOL    HW1 6467   2.443   0.108   4.053 -0.8502 -0.7931 -1.4283
 1856SOL    HW2 6468   2.324   0.200   4.117  0.0741 -0.9239  0.5344
 1857SOL     OW 6469   5.830   1.466   6.246  0.2537 -0.2897 -0.1868
 1857SOL    HW1 6470   5.873   1.531   6.309  0.8321 -0.8598  0.0183
 1857SOL    HW2 6471   5.861   1.374   6.267 -0.1764 -0.5829 -0.7971
 1858SOL     OW 6472   2.220   2.085   0.327  0.3438 -0.5109 -0.2473
 1858SOL    HW1 6473   2.281   2.032   0.267 -0.7864  0.4162 -2.3461
 1858SOL    HW2 6474   2.230   2.183   0.306  0.0638 -0.1274  1.2928
 1859SOL     OW 6475   2.110   3.375   0.878 -0.4234 -0.3310 -0.0266
 1859SOL    HW1 6476   2.167   3.310   0.827 -0.0074  0.4401 -0.5874
 1859SOL    HW2 6477   2.015   3.343   0.879 -1.4750  1.5280 -5.1040
 1860SOL     OW 6478   5.079   4.339   5.467 -0.1488 -0.0750  0.5671
 1860SOL    HW1 6479   5.116   4.428   5.440  1.1306 -0.4183  1.1075
 1860SOL    HW2 6480   5.042   4.344   5.560 -1.4678  0.2493  0.0540
 1861SOL     OW 6481   3.542   6.067   3.552 -0.8348 -0.1690  0.2455
 1861SOL    HW1 6482   3.633   6.107   3.559 -0.2797 -1.3223 -0.1809
 1861SOL    HW2 6483   3.515   6.030   3.641 -0.8444  0.0782  0.3462
 1862SOL     OW 6484   1.033   5.272   5.341 -0.0945 -0.1865 -0.0161
 1862SOL    HW1 6485   0.988   5.361   5.345 -0.0039 -0.0181 -1.7332
 1862SOL    HW2 6486   0.965   5.202   5.318 -0.2088 -0.6308  1.5487
 1863SOL     OW 6487   3.228   0.107   2.757 -0.1595  0.0136 -0.5061
 1863SOL    HW1 6488   3.273   0.018   2.761  0.4917  0.3700  0.5052
 1863SOL    HW2 6489   3.291   0.174   2.718 -0.5994  0.0696 -1.1375
 1864SOL     OW 6490   0.127   5.913   6.541  0.3492  0.1822  0.6720
 1864SOL    HW1 6491   0.123   5.816   6.565 -1.2322  0.2802  0.8634
 1864SOL    HW2 6492   0.160   5.922   6.446 -1.4699 -0.6818 -0.0938
 1865SOL     OW 6493   1.775   4.003   2.032  0.5115  0.7179 -0.2003
 1865SOL    HW1 6494   1.685   3.985   1.992  0.2190 -1.5754  1.2727
 1865SOL    HW2 6495   1.765   4.068   2.107  0.0539  0.4791 -0.0474
 1866SOL     OW 6496   5.451   3.265   6.034 -0.0078 -0.3292  0.8059
 1866SOL    HW1 6497   5.447   3.183   6.091  0.9580 -1.6934 -0.9901
 1866SOL    HW2 6498   5.494   3.243   5.947 -3.8508  0.9248 -1.6887
 1867SOL     OW 6499   5.310   3.639   5.973  0.0766 -0.0727  0.3492
 1867SOL    HW1 6500   5.240   3.667   5.907  0.8140 -0.0770 -0.4623
 1867SOL    HW2 6501   5.276   3.562   6.027 -0.2993 -0.5357 -0.5196
 1868SOL     OW 6502   5.619   4.718   2.935 -0.4906  0.1540  0.0273
 1868SOL    HW1 6503   5.694   4.664   2.974 -0.8108  0.0030  0.4395
 1868SOL    HW2 6504   5.560   4.658   2.880 -0.4183  0.2355 -0.1412
 1869SOL     OW 6505   1.851   0.712   2.018 -0.0520 -0.6023  0.6658
 1869SOL    HW1 6506   1.900   0.717   2.105  0.7386  0.8304  0.1741
 1869SOL    HW2 6507   1.860   0.621   1.980  1.4338 -0.6436  1.0579
 1870SOL     OW 6508   0.912   4.656   0.935 -0.1084 -0.0830 -0.3721
 1870SOL    HW1 6509   0.842   4.656   0.863  0.0837  0.6618 -0.5682
 1870SOL    HW2 6510   0.931   4.750   0.962  0.2374 -0.3311  0.2537
 1871SOL     OW 6511   0.267   2.720   3.558  0.3787  0.2996 -0.4263
 1871SOL    HW1 6512   0.265   2.662   3.477  1.8393 -0.0363 -0.2495
 1871SOL    HW2 6513   0.241   2.813   3.533  0.9166  0.2240 -1.3110
 1872SOL     OW 6514   2.654   1.501   1.187 -0.3570  0.1371 -0.1356
 1872SOL    HW1 6515   2.598   1.544   1.116 -0.8606 -1.1759 -0.5663
 1872SOL    HW2 6516   2.735   1.460   1.146  0.3433  1.0151  0.3304
 1873SOL     OW 6517   4.619   1.916   0.263  0.1722  0.1741 -0.0225
 1873SOL    HW1 6518   4.560   1.968   0.201  1.4021  1.1088 -0.4374
 1873SOL    HW2 6519   4.584   1.923   0.357  0.9033  2.7076  0.1255
 1874SOL     OW 6520   3.307   2.421   6.034 -0.2906  0.8226  0.3461
 1874SOL    HW1 6521   3.320   2.335   6.084 -0.3704  1.8331  2.1941
 1874SOL    HW2 6522   3.286   2.401   5.938  0.9383 -1.1748  0.4372
 1875SOL     OW 6523   1.789   3.002   0.983 -0.1753 -0.3560  0.4004
 1875SOL    HW1 6524   1.804   3.040   0.891  0.5150  0.5963  0.8902
 1875SOL    HW2 6525   1.738   2.916   0.975 -0.4596 -0.1002 -0.8478
 1876SOL     OW 6526   2.684   1.633   3.829  0.2378 -0.6159 -0.4332
 1876SOL    HW1 6527   2.697   1.695   3.751  0.1365 -1.0505 -0.8011
 1876SOL    HW2 6528   2.590   1.599   3.829 -0.4160  1.0252  1.1140
 1877SOL     OW 6529   6.792   1.857   6.825 -0.0797  0.1263 -0.0111
 1877SOL    HW1 6530   6.759   1.813   6.742 -1.0857  0.5309  0.1600
 1877SOL    HW2 6531   6.835   1.944   6.803  0.7286 -0.3190 -0.2182
 1878SOL     OW 6532   0.444   3.642   6.722 -0.4388  0.1360  0.0704
 1878SOL    HW1 6533   0.373   3.695   6.769  0.8194 -0.0378  2.2769
 1878SOL    HW2 6534   0.487   3.699   6.652 -0.6466  1.2802  0.8391
 1879SOL     OW 6535   5.338   1.014   3.905  0.3540 -0.3460  0.1119
 1879SOL    HW1 6536   5.287   1.048   3.984 -0.6471 -2.1067  0.2650
 1879SOL    HW2 6537   5.410   1.079   3.882 -1.1083  1.5745  0.7101
 1880SOL     OW 6538   4.168   6.779   2.051  0.2523 -0.4931 -0.4623
 1880SOL    HW1 6539   4.260   6.798   2.018  0.5303 -1.6758 -0.3888
 1880SOL    HW2 6540   4.133   6.860   2.099  1.5277 -0.2723  0.1404
 1881SOL     OW 6541   6.948   3.776   2.536 -0.2149  0.3436 -0.5166
 1881SOL    HW1 6542   6.964   3.807   2.630  0.1219 -0.7851 -0.1878
 1881SOL    HW2 6543   6.992   3.840   2.472  3.1823 -0.9975  0.2451
 1882SOL     OW 6544   5.946   4.541   0.514 -0.5136 -0.7140 -0.3084
 1882SOL    HW1 6545   5.935   4.579   0.422  0.1380 -0.9940 -0.5062
 1882SOL    HW2 6546   5.865   4.487   0.537 -0.4345 -1.1291 -0.9618
 1883SOL     OW 6547   1.407   3.906   1.289  0.4433 -0.5018  0.1699
 1883SOL    HW1 6548   1.441   3.883   1.198  2.5254 -1.9389  1.2174
 1883SOL    HW2 6549   1.311   3.877   1.298 -0.0856  0.4999 -1.7968
 1884SOL     OW 6550   4.476   1.101   0.834  0.2915  0.6012  0.3387
 1884SOL    HW1 6551   4.546   1.030   0.834  0.1756  0.4710  1.5821
 1884SOL    HW2 6552   4.496   1.167   0.762 -0.4416 -1.4861 -1.9356
 1885SOL     OW 6553   4.260   5.122   0.807  0.0553 -0.0231  0.7001
 1885SOL    HW1 6554   4.355   5.091   0.805  0.7381  1.5938  2.9923
 1885SOL    HW2 6555   4.201   5.052   0.766  2.2119 -0.9612 -1.0163
 1886SOL     OW 6556   2.686   4.211   5.341  0.0777 -0.3149 -0.5233
 1886SOL    HW1 6557   2.729   4.123   5.361 -0.5762 -0.6615 -0.6132
 1886SOL    HW2 6558   2.587   4.199   5.338 -0.3952  1.1502  3.4447
 1887SOL     OW 6559   3.000   4.815   4.885  0.3362  0.2766 -0.1349
 1887SOL    HW1 6560   2.941   4.740   4.917  0.0720  0.3293 -0.4894
 1887SOL    HW2 6561   2.981   4.833   4.789  0.4184  0.7822 -0.0579
 1888SOL     OW 6562   2.492   1.185   1.571  0.0806 -0.1205  0.2305
 1888SOL    HW1 6563   2.583   1.210   1.539 -0.3979 -0.8819 -1.9140
 1888SOL    HW2 6564   2.433   1.266   1.572 -0.1891 -0.2200 -2.0861
 1889SOL     OW 6565   1.497   4.303   5.279 -0.0165 -0.0752  0.2137
 1889SOL    HW1 6566   1.460   4.345   5.197 -0.2569 -0.4099  0.1487
 1889SOL    HW2 6567   1.569   4.238   5.254 -0.8280 -0.9856  0.1762
 1890SOL     OW 6568   3.268   3.992   3.301 -0.3132  0.2424  0.3262
 1890SOL    HW1 6569   3.175   3.953   3.299  0.6855 -2.4793  1.6731
 1890SOL    HW2 6570   3.305   3.992   3.208 -0.6885 -1.3814  0.1358
 1891SOL     OW 6571   5.649   6.946   6.193  0.1549 -0.8549 -0.2334
 1891SOL    HW1 6572   5.665   7.021   6.257 -0.7442 -0.2109 -0.7243
 1891SOL    HW2 6573   5.550   6.930   6.185  0.0363  0.5583 -3.0181
 1892SOL     OW 6574   6.567   6.292   3.868  0.1409  0.0966 -0.3711
 1892SOL    HW1 6575   6.612   6.271   3.781  0.0151  2.7384 -1.1385
 1892SOL    HW2 6576   6.482   6.342   3.850 -1.4024 -1.7749  1.2006
 1893SOL     OW 6577   6.010   6.499   1.175 -0.0451  0.1292  0.1345
 1893SOL    HW1 6578   6.033   6.403   1.160 -1.0282 -0.2775  1.0862
 1893SOL    HW2 6579   6.081   6.557   1.136 -0.0371 -0.9393 -1.5375
 1894SOL     OW 6580   6.763   2.075   0.572  0.1101  0.0537  0.4053
 1894SOL    HW1 6581   6.757   2.144   0.500 -2.5870  1.4216  1.8224
 1894SOL    HW2 6582   6.690   2.089   0.639  0.3113 -3.3483  1.5315
 1895SOL     OW 6583   6.799   5.148   3.958 -0.3269  0.1318 -0.0907
 1895SOL    HW1 6584   6.888   5.161   4.002  0.2428 -2.0660 -0.4866
 1895SOL    HW2 6585   6.812   5.146   3.858 -0.6760 -1.0488 -0.1231
 1896SOL     OW 6586   3.358   0.427   6.835 -0.0042 -0.5603  0.0699
 1896SOL    HW1 6587   3.410   0.347   6.806  1.8840  0.9972 -1.0543
 1896SOL    HW2 6588   3.334   0.417   6.932  0.4108 -2.3268  0.0370
 1897SOL     OW 6589   2.785   3.577   0.548 -0.1478  0.5333 -0.0683
 1897SOL    HW1 6590   2.767   3.516   0.471  1.2707 -0.5845  0.4467
 1897SOL    HW2 6591   2.846   3.651   0.519  0.2652  0.1968 -0.0677
 1898SOL     OW 6592   5.369   1.862   2.440 -0.4924  0.5124  0.2476
 1898SOL    HW1 6593   5.372   1.911   2.527 -0.7878  1.2114 -0.1290
 1898SOL    HW2 6594   5.318   1.916   2.373  0.1829  0.2209 -0.5095
 1899SOL     OW 6595   3.446   0.043   5.990  0.7265  0.1761 -0.4162
 1899SOL    HW1 6596   3.363   0.019   6.040 -0.2076  0.5818 -1.7214
 1899SOL    HW2 6597   3.490  -0.040   5.956  0.4954  0.0014 -0.2938
 1900SOL     OW 6598   2.616   6.074   0.158  0.0371 -0.5359  0.7574
 1900SOL    HW1 6599   2.589   6.027   0.074  0.2424 -1.3094  1.1173
 1900SOL    HW2 6600   2.689   6.140   0.138 -0.0802 -0.5462  0.2937
 1901SOL     OW 6601   0.351   1.747   5.706 -0.3350  0.1972  0.1147
 1901SOL    HW1 6602   0.395   1.726   5.618  0.3996 -1.1395  0.7749
 1901SOL    HW2 6603   0.254   1.762   5.691 -0.2997 -0.4315 -0.8796
 1902SOL     OW 6604   1.382   5.205   5.058  0.0374  0.0328  0.3346
 1902SOL    HW1 6605   1.315   5.134   5.036 -0.3431  0.6727 -0.6759
 1902SOL    HW2 6606   1.406   5.255   4.974  0.2842  1.0919  1.0142
 1903SOL     OW 6607   4.512   0.155   3.682 -0.2894 -0.1540 -0.7919
 1903SOL    HW1 6608   4.448   0.109   3.620 -1.1435  0.0243 -0.0591
 1903SOL    HW2 6609   4.461   0.204   3.752  0.6263 -1.7080  1.0601
 1904SOL     OW 6610   0.005   1.068   4.385  0.2541 -0.5951  0.3376
 1904SOL    HW1 6611   0.104   1.081   4.375  0.1384 -0.4416 -0.7364
 1904SOL    HW2 6612  -0.038   1.072   4.295 -1.1007  2.2493  1.0281
 1905SOL     OW 6613   2.235   3.368   1.354  0.0051 -0.0920 -0.4184
 1905SOL    HW1 6614   2.293   3.288   1.369 -1.0240 -0.9477 -0.9027
 1905SOL    HW2 6615   2.139   3.340   1.352 -0.6451  1.5418  2.3735
 1906SOL     OW 6616   0.890   4.454   4.165 -0.1052 -0.3065 -0.3480
 1906SOL    HW1 6617   0.921   4.436   4.072 -0.7890 -0.8236 -0.4835
 1906SOL    HW2 6618   0.834   4.537   4.166  1.9029  1.1194  0.0399
 1907SOL     OW 6619   0.722   5.715   1.927  0.5149  0.2677 -0.0493
 1907SOL    HW1 6620   0.689   5.633   1.973 -0.1352  1.2858  1.4002
 1907SOL    HW2 6621   0.655   5.746   1.861  0.5693 -0.1320 -0.2908
 1908SOL     OW 6622   3.125   3.423   0.819  0.4770  0.5134 -0.2582
 1908SOL    HW1 6623   3.149   3.373   0.902  0.5419 -1.7540 -1.5693
 1908SOL    HW2 6624   3.026   3.431   0.813  0.4527  0.2266 -0.2334
 1909SOL     OW 6625   0.720   3.997   2.072  0.3617  0.0053 -0.1748
 1909SOL    HW1 6626   0.718   4.008   1.972  2.1527 -0.0201 -0.2314
 1909SOL    HW2 6627   0.719   4.087   2.115 -1.0949  0.0089 -0.1729
 1910SOL     OW 6628   0.261   1.136   4.564  0.2656  0.0818 -0.1557
 1910SOL    HW1 6629   0.287   1.160   4.470 -2.0062 -0.2759 -0.9338
 1910SOL    HW2 6630   0.274   1.215   4.623  1.2745  0.4660 -0.8566
 1911SOL     OW 6631   1.957   3.487   0.495  0.1824 -0.7603 -0.1669
 1911SOL    HW1 6632   1.941   3.466   0.399  2.3183  0.5797 -0.8944
 1911SOL    HW2 6633   2.011   3.414   0.537  0.1377 -0.8509 -0.2680
 1912SOL     OW 6634   6.847   0.774   0.689  0.3863  0.2994  0.5377
 1912SOL    HW1 6635   6.811   0.769   0.782  1.7923 -0.0790  1.0837
 1912SOL    HW2 6636   6.873   0.683   0.658  1.1868  0.5957  0.3078
 1913SOL     OW 6637   2.654   5.648   0.687 -0.4349  0.4774 -0.2228
 1913SOL    HW1 6638   2.574   5.687   0.734 -0.9964 -0.1965 -0.5995
 1913SOL    HW2 6639   2.718   5.613   0.755 -1.0120 -0.0435  0.0635
 1914SOL     OW 6640   3.270   4.440   1.073 -0.1838 -0.4028 -0.0335
 1914SOL    HW1 6641   3.238   4.399   1.159 -0.7167 -1.2062 -0.5916
 1914SOL    HW2 6642   3.364   4.413   1.056  0.9400  2.0731  1.6849
 1915SOL     OW 6643   3.287   0.116   6.252  0.4408  0.3289  0.4217
 1915SOL    HW1 6644   3.196   0.124   6.213 -0.2242  0.0843  1.8396
 1915SOL    HW2 6645   3.331   0.206   6.255 -0.0124  0.5531  0.3218
 1916SOL     OW 6646   6.845   6.662   6.533 -0.0601  0.4200  0.2048
 1916SOL    HW1 6647   6.925   6.637   6.587 -1.2001  1.1236  2.3447
 1916SOL    HW2 6648   6.788   6.582   6.518 -0.2922  0.4103  1.0730
 1917SOL     OW 6649   1.372   1.768   0.529  0.5371  0.0830 -0.0116
 1917SOL    HW1 6650   1.398   1.819   0.611 -1.2754 -1.0671  1.3594
 1917SOL    HW2 6651   1.452   1.722   0.492  1.4625  0.8999  0.9043
 1918SOL     OW 6652   1.155   6.677   2.071 -0.2892 -0.7692 -0.8033
 1918SOL    HW1 6653   1.178   6.599   2.128 -0.9785 -2.1901 -2.3838
 1918SOL    HW2 6654   1.220   6.751   2.087 -0.0324 -1.3812  1.2334
 1919SOL     OW 6655   4.236   4.686   4.049  0.3329  0.6224 -0.4288
 1919SOL    HW1 6656   4.235   4.665   4.147 -1.1773 -0.1395 -0.5714
 1919SOL    HW2 6657   4.329   4.678   4.014  0.5879 -1.2186  0.5296
 1920SOL     OW 6658   4.849   0.801   3.465  0.2298  0.3520  0.4063
 1920SOL    HW1 6659   4.912   0.856   3.410  0.7489  0.4895  1.1174
 1920SOL    HW2 6660   4.833   0.846   3.553  0.7237 -0.6519  1.0383
 1921SOL     OW 6661   6.167   4.402   5.691 -0.0707  0.1470 -0.5436
 1921SOL    HW1 6662   6.238   4.471   5.684  0.4237 -0.2848  0.0653
 1921SOL    HW2 6663   6.200   4.325   5.746 -1.6152  0.7194  1.2955
 1922SOL     OW 6664   4.747   5.421   6.986 -0.4486 -0.7119 -0.7015
 1922SOL    HW1 6665   4.758   5.347   7.052 -0.5707  0.5102  0.7471
 1922SOL    HW2 6666   4.681   5.394   6.916 -1.4930 -1.4918  0.5340
 1923SOL     OW 6667   0.941   1.427   2.593  0.1422  0.2639 -0.0774
 1923SOL    HW1 6668   0.862   1.403   2.650  0.5620 -1.8833 -0.3088
 1923SOL    HW2 6669   0.995   1.345   2.576  1.5650  1.4035 -1.2578
 1924SOL     OW 6670   6.178   2.748   2.176 -0.2235 -0.2065  0.8206
 1924SOL    HW1 6671   6.148   2.723   2.084 -0.2675 -0.0880  0.8026
 1924SOL    HW2 6672   6.256   2.811   2.169 -0.1668 -0.2725  0.8648
 1925SOL     OW 6673   6.060   2.428   1.675 -0.3258  0.1941 -0.2824
 1925SOL    HW1 6674   6.042   2.333   1.701 -1.8939  0.5876  0.1900
 1925SOL    HW2 6675   5.984   2.462   1.619 -1.3824  2.0881  2.1252
 1926SOL     OW 6676   1.658   2.426   4.676  0.1684 -0.3107 -0.0962
 1926SOL    HW1 6677   1.567   2.462   4.693 -0.2372 -0.5715 -1.5445
 1926SOL    HW2 6678   1.658   2.376   4.589  1.8418  0.2832 -0.4804
 1927SOL     OW 6679   0.074   4.649   3.032  0.7510  0.2169 -0.0150
 1927SOL    HW1 6680   0.154   4.682   2.982  0.9506  0.2010  0.2887
 1927SOL    HW2 6681   0.096   4.641   3.129  0.7965 -1.0450 -0.1022
 1928SOL     OW 6682   6.056   5.006   2.745 -0.3038  0.5494  0.1045
 1928SOL    HW1 6683   6.008   4.921   2.761  1.2350 -0.4846 -0.5094
 1928SOL    HW2 6684   6.007   5.081   2.789 -0.8886 -0.8634  1.9815
 1929SOL     OW 6685   2.679   5.167   1.980  0.4559  0.1064 -0.3341
 1929SOL    HW1 6686   2.661   5.262   1.955  2.9067  0.0651 -2.8541
 1929SOL    HW2 6687   2.608   5.108   1.941  0.2626  0.7212 -0.9460
 1930SOL     OW 6688   0.860   5.840   2.156  0.3866 -0.0043 -0.3451
 1930SOL    HW1 6689   0.930   5.909   2.138  0.9098 -0.4710 -0.1390
 1930SOL    HW2 6690   0.821   5.809   2.069  0.4245  0.2655 -0.4601
 1931SOL     OW 6691   5.096   4.889   0.195 -0.3777 -0.5311  0.0154
 1931SOL    HW1 6692   5.014   4.939   0.165 -0.9887 -1.1669  0.5740
 1931SOL    HW2 6693   5.171   4.907   0.132 -0.6510  0.8785  0.0597
 1932SOL     OW 6694   2.449   4.848   1.681 -0.2307  0.6306  0.4152
 1932SOL    HW1 6695   2.452   4.948   1.676 -0.5830  0.5840 -1.7017
 1932SOL    HW2 6696   2.364   4.816   1.639 -0.6267 -0.5340  2.0376
 1933SOL     OW 6697   1.183   5.356   0.651  0.4073 -0.0431 -0.1187
 1933SOL    HW1 6698   1.103   5.416   0.652  1.6943  1.8659 -2.0569
 1933SOL    HW2 6699   1.218   5.346   0.744 -0.7910  0.8980  0.4665
 1934SOL     OW 6700   6.880   2.661   2.155 -0.2759 -0.3804  0.1252
 1934SOL    HW1 6701   6.861   2.571   2.195 -1.4855 -0.7919 -1.2879
 1934SOL    HW2 6702   6.818   2.729   2.194 -0.7556 -0.5789 -0.2759
 1935SOL     OW 6703   0.336   3.848   4.087  0.5443 -0.3565 -0.5242
 1935SOL    HW1 6704   0.330   3.821   4.183  2.3268  0.8703 -0.0107
 1935SOL    HW2 6705   0.313   3.770   4.029 -0.9921 -1.0056  0.8714
 1936SOL     OW 6706   0.382   1.493   5.821  0.1747 -0.3922 -1.0510
 1936SOL    HW1 6707   0.286   1.497   5.796 -0.8384  1.8859  2.5304
 1936SOL    HW2 6708   0.426   1.580   5.800  0.2794  0.1195  1.0135
 1937SOL     OW 6709   5.867   4.515   6.431 -0.2350  0.8554  0.2017
 1937SOL    HW1 6710   5.861   4.558   6.521 -0.3253 -0.6878  0.9614
 1937SOL    HW2 6711   5.789   4.543   6.375 -1.6286 -0.1940  1.5375
 1938SOL     OW 6712   5.334   0.399   0.752 -0.5352  0.1909  0.1654
 1938SOL    HW1 6713   5.326   0.448   0.839 -1.9008  4.9883 -2.3082
 1938SOL    HW2 6714   5.427   0.410   0.717 -0.6013  0.2026 -0.0033
 1939SOL     OW 6715   6.740   0.671   3.950  0.0943 -0.0122 -0.2141
 1939SOL    HW1 6716   6.714   0.628   3.864  0.9136 -0.1630 -0.3994
 1939SOL    HW2 6717   6.813   0.618   3.993  0.0652  0.3620  0.3043
 1940SOL     OW 6718   6.671   6.741   2.800 -0.0009  0.8927 -0.3976
 1940SOL    HW1 6719   6.755   6.718   2.751 -1.0136 -0.2316 -1.6821
 1940SOL    HW2 6720   6.597   6.681   2.769 -0.8362  0.4941  2.1394
 1941SOL     OW 6721   0.820   0.481   5.121 -0.1536  0.0665 -0.4158
 1941SOL    HW1 6722   0.793   0.505   5.215 -0.1736 -0.5340 -0.2649
 1941SOL    HW2 6723   0.919   0.488   5.112 -0.2145  0.7895 -0.5419
 1942SOL     OW 6724   5.244   2.975   3.223 -0.6537  0.0332 -0.0535
 1942SOL    HW1 6725   5.283   2.954   3.134 -0.4059  2.0559 -0.4592
 1942SOL    HW2 6726   5.148   2.946   3.224 -0.2463 -1.4495 -0.3769
 1943SOL     OW 6727   4.221   0.185   2.052  0.1680 -0.4107  0.6977
 1943SOL    HW1 6728   4.295   0.233   2.099 -0.3489 -0.9058  2.0701
 1943SOL    HW2 6729   4.153   0.251   2.021  1.1243  0.0438 -0.5254
 1944SOL     OW 6730   5.426   3.044   1.364  1.1677 -0.2881 -0.4214
 1944SOL    HW1 6731   5.471   3.044   1.275  1.3461 -0.7698 -0.3331
 1944SOL    HW2 6732   5.374   3.129   1.375  1.3346 -0.1235 -0.8861
 1945SOL     OW 6733   2.956   5.794   5.962  0.2878 -0.2875  0.6664
 1945SOL    HW1 6734   2.883   5.860   5.975  0.4046  0.1852 -0.8723
 1945SOL    HW2 6735   2.920   5.701   5.974 -0.5837 -0.0649 -0.1508
 1946SOL     OW 6736   1.780   4.167   0.064 -0.5123 -0.6905 -0.1298
 1946SOL    HW1 6737   1.699   4.111   0.043  0.6209 -3.1674  1.5554
 1946SOL    HW2 6738   1.784   4.183   0.162  1.1898 -0.9253 -0.1364
 1947SOL     OW 6739   6.366   6.744   6.181 -0.4146  0.6977  0.0482
 1947SOL    HW1 6740   6.356   6.718   6.277  1.2737  0.5922  0.2186
 1947SOL    HW2 6741   6.371   6.662   6.124  0.3587  0.7211  0.0752
 1948SOL     OW 6742   0.938   1.000   3.056 -0.8531 -0.1072  0.2199
 1948SOL    HW1 6743   0.883   0.989   3.139 -0.9387 -1.1252  0.0393
 1948SOL    HW2 6744   0.918   0.925   2.992  2.9258 -2.4147  1.4012
 1949SOL     OW 6745   5.062   0.831   5.795  0.3535 -0.2520 -0.2776
 1949SOL    HW1 6746   5.018   0.749   5.833  0.2750  0.2155  0.6681
 1949SOL    HW2 6747   4.992   0.896   5.766  0.3964  0.1689  0.5187
 1950SOL     OW 6748   2.092   6.872   3.726  0.6464 -0.0628 -0.3897
 1950SOL    HW1 6749   2.089   6.774   3.706  1.7159 -0.0632 -0.6363
 1950SOL    HW2 6750   2.029   6.920   3.666 -0.8467 -0.7133  0.6012
 1951SOL     OW 6751   3.002   4.444   6.343 -0.3762  0.2819  0.0386
 1951SOL    HW1 6752   2.918   4.392   6.335 -0.7182  0.5550  1.5401
 1951SOL    HW2 6753   3.076   4.384   6.375  0.4424 -0.3211 -2.7203
 1952SOL     OW 6754   6.328   6.641   3.720 -0.2015  0.3310 -0.6069
 1952SOL    HW1 6755   6.296   6.563   3.774  0.6361  0.2405 -0.2384
 1952SOL    HW2 6756   6.314   6.725   3.771 -0.5885  0.3794 -0.7814
 1953SOL     OW 6757   6.811   3.457   5.776  0.1307 -1.3649  0.3203
 1953SOL    HW1 6758   6.875   3.401   5.723 -0.9219 -0.1739 -2.4009
 1953SOL    HW2 6759   6.858   3.538   5.810  0.5364 -1.4997  0.0895
 1954SOL     OW 6760   2.450   3.346   6.554 -0.0526 -0.1065  0.1603
 1954SOL    HW1 6761   2.503   3.312   6.477 -0.8704  0.5462 -0.7272
 1954SOL    HW2 6762   2.392   3.422   6.523 -0.2137  0.3363  1.4786
 1955SOL     OW 6763   2.722   4.741   5.899  0.0019 -0.6299  0.0103
 1955SOL    HW1 6764   2.754   4.685   5.822 -0.1439  0.5055 -0.8890
 1955SOL    HW2 6765   2.700   4.833   5.867 -0.7240 -0.3370  1.2929
 1956SOL     OW 6766   6.501   0.754   6.537 -0.5721  0.5594 -0.4952
 1956SOL    HW1 6767   6.504   0.852   6.519 -2.1822  0.2449 -2.8882
 1956SOL    HW2 6768   6.566   0.707   6.477 -0.3279  0.0959  0.1246
 1957SOL     OW 6769   3.391   3.230   4.496 -0.4618 -0.0823 -0.0430
 1957SOL    HW1 6770   3.379   3.146   4.444 -2.7875  0.3012 -0.2035
 1957SOL    HW2 6771   3.334   3.302   4.458 -0.9556  0.6768  1.9793
 1958SOL     OW 6772   6.459   1.073   6.960 -0.7494 -0.0018 -0.3191
 1958SOL    HW1 6773   6.506   1.095   6.874 -1.9454  2.2038 -0.4639
 1958SOL    HW2 6774   6.508   1.115   7.036 -0.0843 -1.3804  0.0592
 1959SOL     OW 6775   4.117   1.269   0.392 -0.3237 -0.5519 -0.2610
 1959SOL    HW1 6776   4.186   1.327   0.349  0.7170 -2.2640 -0.9832
 1959SOL    HW2 6777   4.086   1.200   0.327 -0.8961 -1.3632  0.8428
 1960SOL     OW 6778   5.229   2.290   6.004 -0.4832 -0.4263 -0.8249
 1960SOL    HW1 6779   5.269   2.329   6.087  0.4502 -1.9516 -0.5336
 1960SOL    HW2 6780   5.180   2.362   5.955 -0.1995  0.7384  0.5116
 1961SOL     OW 6781   5.317   5.763   0.696  0.2238  0.4473  0.3156
 1961SOL    HW1 6782   5.225   5.743   0.731 -0.1921  1.2498 -0.2748
 1961SOL    HW2 6783   5.352   5.683   0.647  0.1705 -0.1385  1.2169
 1962SOL     OW 6784   4.738   2.558   5.118 -0.0854 -0.0144  0.1974
 1962SOL    HW1 6785   4.668   2.616   5.076 -1.0646 -0.5862  0.9692
 1962SOL    HW2 6786   4.721   2.463   5.093 -0.8805 -0.4079  2.0722
 1963SOL     OW 6787   4.704   5.512   4.529  0.0881  0.2069  0.1833
 1963SOL    HW1 6788   4.670   5.490   4.437 -0.5730 -0.3916  0.5669
 1963SOL    HW2 6789   4.628   5.513   4.594  0.5731  0.4805  0.7546
 1964SOL     OW 6790   1.643   3.466   6.275 -0.1050  0.3872 -0.5255
 1964SOL    HW1 6791   1.646   3.515   6.188 -1.2172  3.2903  0.9478
 1964SOL    HW2 6792   1.548   3.454   6.303  0.2422 -0.4293  0.3462
 1965SOL     OW 6793   5.377   5.759   2.266  0.1883 -0.0981 -0.0319
 1965SOL    HW1 6794   5.387   5.765   2.167 -0.3468  0.3297 -0.0640
 1965SOL    HW2 6795   5.296   5.704   2.288 -0.4779  0.9388  0.1473
 1966SOL     OW 6796   1.656   0.836   3.501  0.4951 -0.2335  0.1203
 1966SOL    HW1 6797   1.754   0.830   3.522  0.2689 -1.0993  1.0136
 1966SOL    HW2 6798   1.636   0.926   3.462  1.3306  0.6414  1.6288
 1967SOL     OW 6799   2.598   2.251   5.354  0.3550  0.5073 -0.6011
 1967SOL    HW1 6800   2.580   2.156   5.332  0.3922 -0.2493  2.2754
 1967SOL    HW2 6801   2.516   2.306   5.338 -0.4824 -0.5014  0.1924
 1968SOL     OW 6802   3.561   5.025   0.990  0.2552  0.3914  0.3581
 1968SOL    HW1 6803   3.647   5.031   0.939  0.3693 -0.2646  0.4621
 1968SOL    HW2 6804   3.567   4.950   1.057  0.5063  1.8797  2.0840
 1969SOL     OW 6805   5.895   1.206   5.876 -0.6459  0.2195  0.0296
 1969SOL    HW1 6806   5.855   1.131   5.928 -1.0597  2.1463  2.6987
 1969SOL    HW2 6807   5.823   1.264   5.837 -0.3549  0.3312 -0.3628
 1970SOL     OW 6808   6.803   0.060   4.557 -0.5557  0.0488 -0.1423
 1970SOL    HW1 6809   6.724   0.083   4.499 -0.3536  1.9126  0.2787
 1970SOL    HW2 6810   6.871   0.011   4.502 -2.1096 -1.9492 -0.4296
 1971SOL     OW 6811   4.685   5.346   1.024  0.0784  0.2903  0.1019
 1971SOL    HW1 6812   4.597   5.339   1.070  0.8257 -0.3796  1.4705
 1971SOL    HW2 6813   4.696   5.439   0.988 -0.7751  0.6596  0.7427
 1972SOL     OW 6814   2.959   4.378   5.668 -0.3158  0.1829  0.0168
 1972SOL    HW1 6815   2.977   4.356   5.764 -1.9562  0.6363  0.4576
 1972SOL    HW2 6816   3.045   4.383   5.618  0.4953 -1.2179  1.2038
 1973SOL     OW 6817   1.450   2.360   3.328 -0.5539 -0.1521 -0.4917
 1973SOL    HW1 6818   1.369   2.324   3.282 -0.0537  1.7887 -3.1422
 1973SOL    HW2 6819   1.526   2.296   3.317 -0.4574  0.2254 -2.5285
 1974SOL     OW 6820   0.171   4.449   2.207 -0.2728 -0.3017 -0.7544
 1974SOL    HW1 6821   0.195   4.432   2.303 -2.1718  1.1510  0.0384
 1974SOL    HW2 6822   0.234   4.518   2.170 -0.7224  0.5899  0.0834
 1975SOL     OW 6823   2.632   6.725   0.689 -0.6555 -0.3628 -0.0960
 1975SOL    HW1 6824   2.678   6.638   0.707 -0.0109 -0.1032 -0.4667
 1975SOL    HW2 6825   2.580   6.718   0.603  0.3487 -0.0284 -0.7523
 1976SOL     OW 6826   5.721   4.030   5.967  0.2338 -0.3852 -0.2853
 1976SOL    HW1 6827   5.813   4.070   5.961 -1.2197  3.5532  0.6642
 1976SOL    HW2 6828   5.718   3.966   6.043  1.7492  1.0017  1.0278
 1977SOL     OW 6829   2.716   1.580   5.869  0.3787  0.6343 -0.5227
 1977SOL    HW1 6830   2.621   1.552   5.883  0.1035  1.8474  0.3123
 1977SOL    HW2 6831   2.731   1.669   5.913  1.3652  1.4593 -2.3884
 1978SOL     OW 6832   6.944   0.464   6.010  0.2353 -0.1226  0.3594
 1978SOL    HW1 6833   6.934   0.373   5.970 -1.6343  0.0957  0.2310
 1978SOL    HW2 6834   6.854   0.506   6.021  1.0923  2.0099 -0.2230
 1979SOL     OW 6835   0.097   2.444   2.400 -0.1544 -0.2361  0.1203
 1979SOL    HW1 6836   0.082   2.369   2.465 -1.9807 -1.4383 -1.5588
 1979SOL    HW2 6837   0.020   2.448   2.336  1.6039  0.7878 -2.0720
 1980SOL     OW 6838   2.343   0.539   3.002 -0.2537  0.1304  0.1861
 1980SOL    HW1 6839   2.278   0.573   3.071 -0.5261 -3.1196  1.7010
 1980SOL    HW2 6840   2.299   0.537   2.913 -1.2066  0.7355  0.6240
 1981SOL     OW 6841   5.721   1.556   5.107  0.0298  0.1069 -0.2952
 1981SOL    HW1 6842   5.644   1.495   5.088 -0.1423  0.2691 -0.1283
 1981SOL    HW2 6843   5.802   1.502   5.129 -0.2756 -0.0630  0.4449
 1982SOL     OW 6844   0.667   2.711   2.608 -0.2063 -0.2311 -0.7166
 1982SOL    HW1 6845   0.665   2.803   2.647  0.5318 -1.0925  1.5218
 1982SOL    HW2 6846   0.693   2.716   2.512  0.3595  1.8741 -0.4982
 1983SOL     OW 6847   3.540   6.436   6.082 -0.1503 -0.1984 -0.3507
 1983SOL    HW1 6848   3.568   6.340   6.091  0.2707 -0.1051 -0.6545
 1983SOL    HW2 6849   3.456   6.451   6.134  1.3873 -0.0371  2.3004
 1984SOL     OW 6850   0.127   4.457   5.298 -0.3034 -0.7786  0.5034
 1984SOL    HW1 6851   0.094   4.549   5.320  0.9975 -0.2005  0.1108
 1984SOL    HW2 6852   0.192   4.427   5.367 -0.3983 -1.2365  0.3976
 1985SOL     OW 6853   3.665   6.981   6.886 -0.2517  0.2146 -0.4411
 1985SOL    HW1 6854   3.618   7.041   6.821  0.5924 -0.7981 -2.0522
 1985SOL    HW2 6855   3.737   7.032   6.932 -0.5206  0.8194 -0.6762
 1986SOL     OW 6856   0.713   4.243   3.736  0.0872 -0.0319 -0.2804
 1986SOL    HW1 6857   0.633   4.250   3.794  0.6081  2.2162  0.2819
 1986SOL    HW2 6858   0.703   4.166   3.673 -1.7999 -0.7043  0.7809
 1987SOL     OW 6859   4.058   5.600   0.589 -0.3952 -0.4591  0.3797
 1987SOL    HW1 6860   3.985   5.647   0.540 -0.5435 -2.4282 -1.4010
 1987SOL    HW2 6861   4.147   5.633   0.556 -0.4914 -1.8038 -1.3812
 1988SOL     OW 6862   2.114   1.422   6.535 -0.2363 -0.4784  0.1083
 1988SOL    HW1 6863   2.133   1.326   6.555  0.7758 -0.0047  1.6610
 1988SOL    HW2 6864   2.048   1.457   6.600 -1.3489 -0.3350 -1.0549
 1989SOL     OW 6865   5.582   5.019   2.976 -0.2270 -0.1203 -0.5864
 1989SOL    HW1 6866   5.566   4.920   2.978  0.4278 -0.2397  1.8948
 1989SOL    HW2 6867   5.630   5.043   2.891 -1.5145 -1.7081 -1.8301
 1990SOL     OW 6868   6.522   0.279   4.030 -0.4939 -0.2051 -0.4001
 1990SOL    HW1 6869   6.490   0.293   4.124 -1.7108  0.5412 -0.9055
 1990SOL    HW2 6870   6.496   0.357   3.974 -0.4280 -0.9699 -1.5258
 1991SOL     OW 6871   6.556   6.561   5.185  0.4515 -0.0302 -0.1227
 1991SOL    HW1 6872   6.559   6.463   5.206  0.8543 -0.3490 -1.5645
 1991SOL    HW2 6873   6.641   6.588   5.140  1.3102  1.4979  2.2575
 1992SOL     OW 6874   5.276   0.505   3.925  0.3578  0.2098 -0.1241
 1992SOL    HW1 6875   5.202   0.461   3.976  0.1532 -0.0714 -0.6458
 1992SOL    HW2 6876   5.324   0.436   3.870  1.4502  0.2671  0.7260
 1993SOL     OW 6877   3.748   6.388   5.890  0.1315 -0.0047  0.5321
 1993SOL    HW1 6878   3.727   6.292   5.904  0.7187 -0.6682 -2.5695
 1993SOL    HW2 6879   3.677   6.445   5.932 -1.7496 -1.8476 -0.0494
 1994SOL     OW 6880   2.478   2.948   6.440  0.1118  0.1350 -0.4593
 1994SOL    HW1 6881   2.436   2.932   6.529  2.6833  0.1287  0.8404
 1994SOL    HW2 6882   2.575   2.921   6.443  0.9831  2.6622 -2.4368
 1995SOL     OW 6883   4.874   2.371   5.888 -0.2012  0.4672  0.1206
 1995SOL    HW1 6884   4.963   2.371   5.842 -0.3195 -1.5416 -0.2085
 1995SOL    HW2 6885   4.801   2.374   5.819 -0.3714 -0.4618  0.2444
 1996SOL     OW 6886   4.895   5.475   3.826 -0.1063 -0.8020 -0.4137
 1996SOL    HW1 6887   4.799   5.502   3.821 -0.0620 -0.5696 -0.0463
 1996SOL    HW2 6888   4.951   5.555   3.850  0.2081 -0.8770 -0.8987
 1997SOL     OW 6889   5.755   6.876   5.959  0.2749  0.2652 -0.3288
 1997SOL    HW1 6890   5.830   6.941   5.947  1.9637 -1.5567 -0.1415
 1997SOL    HW2 6891   5.706   6.897   6.044  0.7361  1.2952 -0.2979
 1998SOL     OW 6892   2.732   2.848   6.506  0.4577 -0.1500  0.3986
 1998SOL    HW1 6893   2.825   2.854   6.543  0.0691 -0.6223  1.4952
 1998SOL    HW2 6894   2.704   2.752   6.503 -0.4356  0.0694  1.2455
 1999SOL     OW 6895   2.422   0.920   0.216  0.0262  0.3754  0.4859
 1999SOL    HW1 6896   2.409   0.970   0.131  0.6052  0.1986  0.2890
 1999SOL    HW2 6897   2.334   0.904   0.259 -0.6644 -2.2856 -1.6629
 2000SOL     OW 6898   4.657   2.630   3.313  0.0417  0.0161 -0.6409
 2000SOL    HW1 6899   4.634   2.534   3.297 -0.5504 -0.2444  1.4655
 2000SOL    HW2 6900   4.702   2.639   3.402 -0.3981  1.7606 -0.5620
 2001SOL     OW 6901   3.655   3.180   4.570  0.0573  0.3078  0.4199
 2001SOL    HW1 6902   3.684   3.095   4.525 -0.1194  0.4385  0.0503
 2001SOL    HW2 6903   3.565   3.206   4.535  0.7264  1.4139 -0.5180
 2002SOL     OW 6904   5.675   1.568   3.083 -0.1473  0.1853  0.5045
 2002SOL    HW1 6905   5.659   1.564   3.182 -0.3395  1.0101  0.5080
 2002SOL    HW2 6906   5.605   1.626   3.040  1.4482  1.9698  0.2102
 2003SOL     OW 6907   3.356   5.843   2.527  0.6138  0.0181 -0.1469
 2003SOL    HW1 6908   3.350   5.927   2.473 -0.4106  0.5269  0.7456
 2003SOL    HW2 6909   3.374   5.865   2.623  2.3974 -0.8813 -0.2274
 2004SOL     OW 6910   3.279   1.644   3.212 -0.0607  0.6785 -0.3704
 2004SOL    HW1 6911   3.312   1.559   3.254  0.1957  0.5715 -0.7819
 2004SOL    HW2 6912   3.324   1.656   3.123  0.1576  1.4146 -0.1657
 2005SOL     OW 6913   2.539   6.979   2.898 -0.5304  0.2000 -0.2602
 2005SOL    HW1 6914   2.441   6.995   2.912 -0.7695 -0.6236 -0.9408
 2005SOL    HW2 6915   2.553   6.927   2.814  0.3053 -1.6752  0.9495
 2006SOL     OW 6916   3.212   6.776   2.450 -0.2247 -0.3385 -0.4570
 2006SOL    HW1 6917   3.112   6.782   2.455 -0.5505 -2.4741 -2.6616
 2006SOL    HW2 6918   3.240   6.681   2.463  1.3825 -0.0115 -1.3864
 2007SOL     OW 6919   1.115   5.778   0.392  0.1892 -0.2625 -0.5733
 2007SOL    HW1 6920   1.186   5.831   0.437 -1.0312 -0.2369  1.4174
 2007SOL    HW2 6921   1.026   5.824   0.404 -0.4097 -1.0868 -1.6530
 2008SOL     OW 6922   4.490   3.542   5.322  0.8109 -0.1574 -0.3985
 2008SOL    HW1 6923   4.418   3.492   5.273  1.0881 -1.0646  0.1004
 2008SOL    HW2 6924   4.568   3.556   5.261  0.0670  1.2143 -1.0792
 2009SOL     OW 6925   1.608   2.440   2.821  0.2002  0.0864  0.0947
 2009SOL    HW1 6926   1.679   2.379   2.786 -0.5088 -1.0240  0.5109
 2009SOL    HW2 6927   1.534   2.385   2.860 -0.9989  1.1914 -0.5437
 2010SOL     OW 6928   5.217   2.162   2.512  0.4460  0.5371  0.1432
 2010SOL    HW1 6929   5.251   2.096   2.579  2.5898  0.5521 -0.8742
 2010SOL    HW2 6930   5.188   2.245   2.559 -1.0301 -0.5729  1.3081
 2011SOL     OW 6931   2.169   5.657   3.339  0.3659  0.2778 -0.0589
 2011SOL    HW1 6932   2.094   5.594   3.317 -1.0376  0.8726  2.5737
 2011SOL    HW2 6933   2.171   5.731   3.272  0.9110 -1.5509 -2.1781
 2012SOL     OW 6934   3.158   5.144   0.485  0.7724 -0.1972 -0.3238
 2012SOL    HW1 6935   3.179   5.052   0.452  0.9331 -1.0780  1.9803
 2012SOL    HW2 6936   3.155   5.142   0.585 -1.7140  1.7907 -0.2924
 2013SOL     OW 6937   0.879   1.557   2.301  0.1030 -0.2919  0.0448
 2013SOL    HW1 6938   0.971   1.533   2.334  0.2864  1.2366  0.6955
 2013SOL    HW2 6939   0.811   1.513   2.359  0.3943 -1.2899 -0.3307
 2014SOL     OW 6940   4.400   5.296   1.125 -0.2446  0.1880 -0.2242
 2014SOL    HW1 6941   4.311   5.307   1.081 -0.9118 -0.1880  0.9571
 2014SOL    HW2 6942   4.423   5.380   1.176 -0.1304  0.1246 -0.1703
 2015SOL     OW 6943   1.089   3.538   4.109 -0.5290  0.0478  0.4338
 2015SOL    HW1 6944   1.164   3.474   4.124 -0.6693  0.1506  1.7041
 2015SOL    HW2 6945   1.002   3.489   4.112 -0.6577  0.3276  1.7607
 2016SOL     OW 6946   2.153   0.601   0.431 -0.4003  0.1339 -0.0076
 2016SOL    HW1 6947   2.096   0.555   0.499 -0.1176 -1.0948 -0.5762
 2016SOL    HW2 6948   2.130   0.566   0.340  0.7366  0.1644 -0.3221
 2017SOL     OW 6949   2.918   5.233   0.385  0.0238 -0.0084 -0.2966
 2017SOL    HW1 6950   2.918   5.331   0.366 -1.4001  0.2689  0.9989
 2017SOL    HW2 6951   3.010   5.204   0.412  0.7353  0.7056 -1.8481
 2018SOL     OW 6952   1.431   2.801   0.858 -0.3079  0.0538  0.2064
 2018SOL    HW1 6953   1.484   2.812   0.941  0.0181 -1.0335  0.1566
 2018SOL    HW2 6954   1.351   2.743   0.877 -0.3311 -0.0502 -0.2012
 2019SOL     OW 6955   1.542   5.180   5.298  0.1018 -0.0988  0.2377
 2019SOL    HW1 6956   1.587   5.091   5.287  0.8009  0.4683 -1.8793
 2019SOL    HW2 6957   1.454   5.179   5.251  0.1407  0.3512  0.1526
 2020SOL     OW 6958   3.510   3.918   0.917 -0.5456  0.4142 -0.5220
 2020SOL    HW1 6959   3.452   3.936   0.997 -0.4862 -0.0721 -0.3654
 2020SOL    HW2 6960   3.453   3.901   0.837 -0.7251 -2.1255  0.0540
 2021SOL     OW 6961   3.025   1.346   3.485  0.6223 -0.2836 -0.0511
 2021SOL    HW1 6962   2.951   1.294   3.443  1.0121 -0.7319 -0.1870
 2021SOL    HW2 6963   3.027   1.438   3.446  1.1453 -0.7695 -1.2322
 2022SOL     OW 6964   3.289   5.844   0.114  0.6350  0.0184 -0.0815
 2022SOL    HW1 6965   3.221   5.898   0.164  0.3194  0.1713 -0.6639
 2022SOL    HW2 6966   3.315   5.894   0.031 -0.7855 -1.3783 -1.4289
 2023SOL     OW 6967   5.626   0.972   3.399  0.6266  0.3040  0.8816
 2023SOL    HW1 6968   5.679   0.978   3.314 -0.6143 -1.5678 -0.1044
 2023SOL    HW2 6969   5.604   1.064   3.431  1.9308  1.0648 -0.2839
 2024SOL     OW 6970   5.016   6.673   6.467 -0.3745  0.8837  0.0774
 2024SOL    HW1 6971   5.016   6.584   6.513  0.7202  1.5943  1.5478
 2024SOL    HW2 6972   5.102   6.683   6.416  0.1141  1.6155  1.0237
 2025SOL     OW 6973   2.353   2.901   6.696 -0.1668  0.3545  0.8483
 2025SOL    HW1 6974   2.301   2.985   6.685 -0.3823  0.1860  0.6022
 2025SOL    HW2 6975   2.297   2.831   6.741  0.2078  0.5380  1.6294
 2026SOL     OW 6976   0.057   5.690   1.494 -0.0236  0.0200  0.1961
 2026SOL    HW1 6977   0.022   5.670   1.585 -0.7487 -1.3746 -0.3585
 2026SOL    HW2 6978   0.155   5.673   1.490 -0.0567 -0.2728  0.6221
 2027SOL     OW 6979   5.839   0.908   3.140 -0.0143 -0.4362 -0.1152
 2027SOL    HW1 6980   5.811   1.005   3.140  1.3662  0.0116  1.7766
 2027SOL    HW2 6981   5.758   0.850   3.132 -0.9597  0.8532 -0.2340
 2028SOL     OW 6982   1.691   4.894   6.143  0.0554 -0.0547  0.1445
 2028SOL    HW1 6983   1.758   4.834   6.188  0.1681  0.5574  0.8176
 2028SOL    HW2 6984   1.642   4.843   6.072  1.0316 -0.5928 -0.1595
 2029SOL     OW 6985   6.849   3.600   5.134  0.0074  0.3076  0.2734
 2029SOL    HW1 6986   6.873   3.503   5.131  0.9017  0.3976  2.7873
 2029SOL    HW2 6987   6.775   3.617   5.068 -1.5043 -2.4785  1.0639
 2030SOL     OW 6988   2.643   2.139   6.654  0.2459 -0.4160  0.2645
 2030SOL    HW1 6989   2.582   2.149   6.732 -1.5583  0.7040 -1.1955
 2030SOL    HW2 6990   2.611   2.065   6.595  0.3484  0.0685 -0.4270
 2031SOL     OW 6991   1.501   1.127   2.816  0.1341 -0.7184 -0.0303
 2031SOL    HW1 6992   1.509   1.073   2.900  1.9879 -1.8203 -0.8605
 2031SOL    HW2 6993   1.584   1.181   2.802  0.8162 -2.1566 -2.1606
 2032SOL     OW 6994   2.201   5.297   0.836 -0.2783  0.3650  0.5144
 2032SOL    HW1 6995   2.248   5.385   0.843 -1.2234  0.9679 -0.4805
 2032SOL    HW2 6996   2.257   5.226   0.881  0.6407  1.3941  1.0561
 2033SOL     OW 6997   1.835   4.810   4.106  0.1465  0.1647 -0.6016
 2033SOL    HW1 6998   1.907   4.868   4.143 -0.0892  0.1279 -0.0787
 2033SOL    HW2 6999   1.871   4.719   4.088  0.4773  0.4213 -1.2728
 2034SOL     OW 7000   0.663   0.810   5.403  0.1827  0.5059  0.0773
 2034SOL    HW1 7001   0.624   0.719   5.413  0.1106  0.5706  0.4107
 2034SOL    HW2 7002   0.727   0.827   5.478  1.2357  0.2103 -0.7268
 2035SOL     OW 7003   1.730   4.916   6.475  0.0556 -0.3259  0.2651
 2035SOL    HW1 7004   1.742   5.011   6.444  1.3758 -0.7962 -0.7279
 2035SOL    HW2 7005   1.752   4.911   6.573  0.5104  0.2878  0.2037
 2036SOL     OW 7006   5.546   0.244   2.033 -0.3420  0.1316 -0.2087
 2036SOL    HW1 7007   5.481   0.316   2.006  0.5324  1.3938  0.9223
 2036SOL    HW2 7008   5.579   0.197   1.952 -1.8240  0.1996 -0.8920
 2037SOL     OW 7009   6.792   2.341   1.645 -0.1891  0.0598 -0.5718
 2037SOL    HW1 7010   6.798   2.394   1.730 -0.8743 -0.3958 -0.2334
 2037SOL    HW2 7011   6.756   2.400   1.572 -0.5824  0.1762 -0.2901
 2038SOL     OW 7012   4.861   2.774   5.996  0.4125  0.4210 -0.5769
 2038SOL    HW1 7013   4.882   2.826   5.913  0.7805 -0.1323 -0.8355
 2038SOL    HW2 7014   4.793   2.703   5.975  0.1469  0.5875 -0.2944
 2039SOL     OW 7015   2.007   2.331   6.477  0.5981 -1.0168  0.0273
 2039SOL    HW1 7016   1.990   2.426   6.454  1.8079 -0.5209  1.0854
 2039SOL    HW2 7017   2.068   2.290   6.410 -1.6848 -1.7696 -1.7417
 2040SOL     OW 7018   0.165   1.499   1.050 -0.0773 -0.3604 -0.3422
 2040SOL    HW1 7019   0.085   1.467   1.000 -1.2817  0.2324  1.1399
 2040SOL    HW2 7020   0.136   1.552   1.129  1.8025  0.3878 -0.1043
 2041SOL     OW 7021   5.389   5.802   6.182 -0.1286  0.4525 -0.0053
 2041SOL    HW1 7022   5.447   5.761   6.112  1.6335  0.4708  1.3631
 2041SOL    HW2 7023   5.308   5.746   6.195  2.6969 -3.5843  2.6240
 2042SOL     OW 7024   4.654   4.688   6.214  0.0053  0.2438  0.2611
 2042SOL    HW1 7025   4.592   4.650   6.282 -0.6302  0.3190 -0.2688
 2042SOL    HW2 7026   4.619   4.776   6.182  0.7796  0.6533  0.5066
 2043SOL     OW 7027   4.408   0.210   6.403  0.1041  0.0913  0.5361
 2043SOL    HW1 7028   4.363   0.158   6.476 -0.6573 -1.1688 -0.7776
 2043SOL    HW2 7029   4.403   0.159   6.317  1.5460  1.2392 -0.2836
 2044SOL     OW 7030   6.196   6.451   0.581  0.1057  0.0748  0.7874
 2044SOL    HW1 7031   6.294   6.437   0.592  0.6831  3.1851  0.6667
 2044SOL    HW2 7032   6.159   6.493   0.664 -1.1194 -0.8686  0.7482
 2045SOL     OW 7033   3.344   3.040   6.063 -0.4956  0.4366 -0.6470
 2045SOL    HW1 7034   3.433   2.996   6.072 -0.0072  1.4111 -0.6189
 2045SOL    HW2 7035   3.356   3.139   6.058 -1.6236  0.6190 -0.0259
 2046SOL     OW 7036   1.069   5.992   3.907  0.0660  0.3987 -0.6540
 2046SOL    HW1 7037   1.161   6.006   3.870 -0.0518  0.8842 -0.7751
 2046SOL    HW2 7038   1.068   6.015   4.004  0.0955  0.2995 -0.6306
 2047SOL     OW 7039   6.613   4.532   1.488 -0.2857  0.5079 -0.7950
 2047SOL    HW1 7040   6.635   4.576   1.575  0.9670 -0.4646 -0.5932
 2047SOL    HW2 7041   6.680   4.559   1.418 -0.4914  0.2217 -1.1078
 2048SOL     OW 7042   2.276   3.150   1.078 -0.2887  0.3189 -0.4651
 2048SOL    HW1 7043   2.218   3.129   1.157 -0.2856 -0.4021 -0.6505
 2048SOL    HW2 7044   2.314   3.242   1.089  1.9340 -0.7291  1.7946
 2049SOL     OW 7045   5.685   5.994   1.676  0.1023 -0.0884 -0.0449
 2049SOL    HW1 7046   5.713   5.981   1.581 -0.0422  0.0077 -0.1016
 2049SOL    HW2 7047   5.739   6.068   1.717  2.0976 -1.8749  0.7762
 2050SOL     OW 7048   2.551   6.638   4.083 -0.1160 -0.2163  0.1418
 2050SOL    HW1 7049   2.544   6.640   3.983  2.0279  0.9643 -0.0459
 2050SOL    HW2 7050   2.553   6.543   4.115  0.2101 -0.6193 -1.0303
 2051SOL     OW 7051   4.019   2.434   0.808  0.2901  0.2236 -0.8653
 2051SOL    HW1 7052   3.967   2.389   0.881  0.6190  0.4451 -0.4871
 2051SOL    HW2 7053   4.097   2.482   0.848  0.0136  1.0384 -1.2723
 2052SOL     OW 7054   0.746   1.444   0.553  0.2059 -0.6860  0.0744
 2052SOL    HW1 7055   0.651   1.451   0.521  0.1360 -1.3379  0.1401
 2052SOL    HW2 7056   0.769   1.349   0.568  0.4071 -0.4275  1.4849
 2053SOL     OW 7057   3.056   6.641   6.984 -0.7056 -0.1843 -0.2470
 2053SOL    HW1 7058   3.104   6.561   7.020 -0.1949  0.2586  0.0813
 2053SOL    HW2 7059   2.987   6.670   7.049 -0.6472 -0.1413 -0.2046
 2054SOL     OW 7060   2.407   2.522   5.023  0.3866 -0.1140  0.0292
 2054SOL    HW1 7061   2.344   2.446   5.037  0.9313 -0.5184  0.3433
 2054SOL    HW2 7062   2.445   2.517   4.931 -1.1561  0.9970 -0.7156
 2055SOL     OW 7063   0.062   5.544   0.438 -0.1302  0.3525  0.5487
 2055SOL    HW1 7064   0.064   5.444   0.438 -2.1062  0.1445 -3.0546
 2055SOL    HW2 7065  -0.023   5.575   0.481 -1.1333  0.2257 -1.2398
 2056SOL     OW 7066   6.222   3.738   5.429 -1.3734 -0.3964 -0.6405
 2056SOL    HW1 7067   6.269   3.816   5.388 -0.8299 -0.4960 -0.2287
 2056SOL    HW2 7068   6.161   3.696   5.362  1.5119 -2.2413 -2.3058
 2057SOL     OW 7069   6.793   5.311   2.339 -0.0040  0.5149 -0.0449
 2057SOL    HW1 7070   6.890   5.333   2.349  0.2551 -0.9078  0.8512
 2057SOL    HW2 7071   6.782   5.238   2.272 -0.5646  1.3075 -0.8397
 2058SOL     OW 7072   2.349   6.221   5.250 -0.0255  0.1611  0.2868
 2058SOL    HW1 7073   2.304   6.219   5.160 -1.5658 -1.1966  1.0376
 2058SOL    HW2 7074   2.424   6.287   5.248 -2.3434  2.9849 -0.8902
 2059SOL     OW 7075   2.392   0.378   3.509 -0.7060  0.2999  0.2965
 2059SOL    HW1 7076   2.337   0.439   3.565 -0.4729  0.2424  0.5920
 2059SOL    HW2 7077   2.350   0.367   3.419  0.1599  2.2976 -0.4037
 2060SOL     OW 7078   6.949   0.328   1.650 -0.3339 -0.3488 -0.0943
 2060SOL    HW1 7079   6.853   0.316   1.673  0.1969 -0.9132  2.1171
 2060SOL    HW2 7080   6.995   0.377   1.724  1.0635  0.0482 -1.1777
 2061SOL     OW 7081   3.237   6.452   3.655  0.6239  0.2143  0.6698
 2061SOL    HW1 7082   3.287   6.466   3.569  0.1745 -0.5149  0.2788
 2061SOL    HW2 7083   3.148   6.412   3.635  0.3207  0.4919  1.4491
 2062SOL     OW 7084   0.866   3.514   2.521 -0.0695  0.4374 -0.5218
 2062SOL    HW1 7085   0.777   3.552   2.495  0.1905  0.8962 -0.7615
 2062SOL    HW2 7086   0.889   3.438   2.460 -1.0661 -0.8213  0.6071
 2063SOL     OW 7087   3.580   3.002   6.212 -0.2334 -0.8444  0.1363
 2063SOL    HW1 7088   3.550   3.037   6.301 -0.3872  2.0245 -0.9515
 2063SOL    HW2 7089   3.652   2.934   6.226  0.9470  0.7348  2.4101
 2064SOL     OW 7090   3.893   2.990   0.585  0.8151 -0.2583  0.1644
 2064SOL    HW1 7091   3.881   3.089   0.576  0.3405 -0.4471 -1.9059
 2064SOL    HW2 7092   3.988   2.966   0.565  0.3507 -0.4147 -2.1696
 2065SOL     OW 7093   3.126   1.248   2.132 -0.2654  0.2897  0.6705
 2065SOL    HW1 7094   3.133   1.152   2.104  0.0110 -0.1586  2.1725
 2065SOL    HW2 7095   3.165   1.306   2.061  0.6292 -0.7902  0.2413
 2066SOL     OW 7096   3.437   2.361   1.686  0.0226  0.0420  0.2508
 2066SOL    HW1 7097   3.419   2.451   1.647  0.3233  0.6370  1.4297
 2066SOL    HW2 7098   3.508   2.369   1.756 -0.0638 -1.0822  0.4796
 2067SOL     OW 7099   5.321   4.212   3.266 -0.6189  0.5489 -0.1966
 2067SOL    HW1 7100   5.323   4.112   3.255  0.0567  0.6931 -1.6524
 2067SOL    HW2 7101   5.248   4.250   3.210 -0.2318  0.9398 -0.4454
 2068SOL     OW 7102   3.246   6.015   0.779  0.2393 -0.8573 -0.0943
 2068SOL    HW1 7103   3.181   5.939   0.786 -0.3031 -0.5943 -1.8698
 2068SOL    HW2 7104   3.225   6.084   0.848 -1.7115 -0.5587 -0.9346
 2069SOL     OW 7105   0.534   4.808   0.729 -0.1762  1.1891  0.0710
 2069SOL    HW1 7106   0.621   4.847   0.701  0.5383 -0.1768  0.3111
 2069SOL    HW2 7107   0.516   4.725   0.676 -1.3053  1.4185  0.0716
 2070SOL     OW 7108   2.865   1.848   1.630 -0.0066  0.7639  0.5068
 2070SOL    HW1 7109   2.866   1.862   1.729  4.2827  2.6685  0.3996
 2070SOL    HW2 7110   2.890   1.933   1.584 -1.4754 -0.1809 -2.2634
 2071SOL     OW 7111   2.889   3.674   5.210 -0.3215 -0.3068 -0.3860
 2071SOL    HW1 7112   2.830   3.600   5.244  0.1880  0.3109  2.0761
 2071SOL    HW2 7113   2.979   3.637   5.186 -0.6394 -0.7444 -0.9219
 2072SOL     OW 7114   6.407   3.348   0.807 -0.2953  0.1395 -0.2431
 2072SOL    HW1 7115   6.402   3.279   0.735  2.5599  0.6788 -1.1115
 2072SOL    HW2 7116   6.479   3.323   0.872 -1.2622  0.8295  1.1276
 2073SOL     OW 7117   5.331   4.246   0.367 -0.1776 -0.2100 -0.2715
 2073SOL    HW1 7118   5.311   4.232   0.270 -1.8979 -0.0766  0.0296
 2073SOL    HW2 7119   5.306   4.164   0.419 -1.4905  0.5406  0.3349
 2074SOL     OW 7120   1.353   6.331   3.016 -0.1622  0.2879 -0.0692
 2074SOL    HW1 7121   1.397   6.259   2.962 -0.4491  1.0909 -1.4315
 2074SOL    HW2 7122   1.419   6.404   3.034  0.5005 -0.8254  2.4110
 2075SOL     OW 7123   4.298   6.198   0.732 -0.9175  0.2364 -0.0269
 2075SOL    HW1 7124   4.366   6.132   0.765 -0.2930 -0.4080 -2.3671
 2075SOL    HW2 7125   4.206   6.165   0.754 -0.5558 -0.5901  0.2853
 2076SOL     OW 7126   6.796   4.337   5.698  0.1889  0.2841  0.5236
 2076SOL    HW1 7127   6.892   4.326   5.673  0.8693  1.7978  2.2382
 2076SOL    HW2 7128   6.787   4.411   5.764 -1.9890 -0.7381  1.4832
 2077SOL     OW 7129   3.441   5.524   5.316 -0.1690 -0.4151  0.5797
 2077SOL    HW1 7130   3.460   5.581   5.236 -0.6071 -1.2187 -0.1160
 2077SOL    HW2 7131   3.353   5.478   5.304  0.0255 -0.9846  1.2664
 2078SOL     OW 7132   6.877   6.508   3.848 -0.2356  0.1978  0.1604
 2078SOL    HW1 7133   6.951   6.544   3.791  0.0150 -1.1514 -0.4019
 2078SOL    HW2 7134   6.790   6.519   3.801 -0.0191 -0.9918 -0.5655
 2079SOL     OW 7135   3.249   5.568   5.516  0.1013  0.0371 -0.1491
 2079SOL    HW1 7136   3.228   5.476   5.481 -0.0898 -0.3071  0.8282
 2079SOL    HW2 7137   3.281   5.626   5.441 -1.9053 -0.1532 -1.2139
 2080SOL     OW 7138   3.158   6.059   5.560  0.4917  0.7349 -0.1649
 2080SOL    HW1 7139   3.175   6.028   5.466 -2.9009  1.7691 -1.2699
 2080SOL    HW2 7140   3.106   5.989   5.609  1.9180  0.3634  0.8854
 2081SOL     OW 7141   2.612   2.084   2.422  0.1785  0.0135  0.1837
 2081SOL    HW1 7142   2.537   2.027   2.457  0.2711  0.2920  0.8536
 2081SOL    HW2 7143   2.693   2.071   2.478 -0.0770  1.5167  0.9603
 2082SOL     OW 7144   6.626   6.564   6.839 -0.8457 -0.6712 -0.7124
 2082SOL    HW1 7145   6.686   6.493   6.802 -0.3755  0.0237 -1.3041
 2082SOL    HW2 7146   6.582   6.613   6.764 -0.0321  0.6339 -0.3691
 2083SOL     OW 7147   1.852   3.069   4.717  0.3436 -1.0863 -0.2232
 2083SOL    HW1 7148   1.872   3.033   4.626 -0.4226  0.2248 -0.9460
 2083SOL    HW2 7149   1.771   3.128   4.712  2.5715  2.3532  0.4206
 2084SOL     OW 7150   5.805   2.793   0.790 -0.1426  0.1841  0.4806
 2084SOL    HW1 7151   5.716   2.783   0.747 -0.3886 -0.0665  1.0320
 2084SOL    HW2 7152   5.842   2.702   0.812 -0.6612  0.3291  2.0646
 2085SOL     OW 7153   0.565   4.966   1.150  0.1627  0.2358  0.2208
 2085SOL    HW1 7154   0.532   4.884   1.104 -1.6397  1.5029 -0.8601
 2085SOL    HW2 7155   0.647   4.944   1.203  0.9466 -1.8079 -1.6927
 2086SOL     OW 7156   1.135   5.829   4.439  0.2006  0.1384 -0.1607
 2086SOL    HW1 7157   1.209   5.876   4.392  1.0874 -0.9364  0.1186
 2086SOL    HW2 7158   1.083   5.773   4.374  0.6296 -0.3413 -0.0992
 2087SOL     OW 7159   1.425   6.391   4.701  0.1975 -0.3997  0.0571
 2087SOL    HW1 7160   1.414   6.440   4.787 -0.0420  0.0380 -0.2214
 2087SOL    HW2 7161   1.397   6.449   4.625  0.1572 -0.8747 -0.2995
 2088SOL     OW 7162   5.289   3.935   2.416  0.2231 -0.1983  0.0442
 2088SOL    HW1 7163   5.379   3.932   2.371  1.3180 -0.8348  2.1571
 2088SOL    HW2 7164   5.261   3.842   2.441 -1.3496 -0.0729 -1.1368
 2089SOL     OW 7165   5.468   6.124   0.839  0.1543 -0.7527  0.2768
 2089SOL    HW1 7166   5.491   6.028   0.823 -0.4046 -0.6310 -1.4486
 2089SOL    HW2 7167   5.430   6.163   0.756  1.8605  1.4233  0.4445
 2090SOL     OW 7168   0.562   6.382   2.380  0.6118 -0.5737  0.3446
 2090SOL    HW1 7169   0.467   6.403   2.357 -0.1949 -2.1150  2.0396
 2090SOL    HW2 7170   0.591   6.439   2.457  0.8586 -0.5347  0.2241
 2091SOL     OW 7171   5.867   0.754   0.022 -0.8008 -0.6195 -0.3278
 2091SOL    HW1 7172   5.875   0.674  -0.038 -0.8029 -0.6086 -0.3424
 2091SOL    HW2 7173   5.848   0.835  -0.032  0.2437 -0.4256 -0.4238
 2092SOL     OW 7174   0.896   6.911   6.235  0.5014  0.1933 -0.1475
 2092SOL    HW1 7175   0.976   6.952   6.279  0.2341 -0.4906  1.0110
 2092SOL    HW2 7176   0.890   6.815   6.259 -0.0812 -0.0264 -1.1014
 2093SOL     OW 7177   0.097   1.594   6.099  0.1074 -0.6824 -0.1963
 2093SOL    HW1 7178   0.168   1.660   6.073  0.6155  0.0375  2.6151
 2093SOL    HW2 7179   0.011   1.619   6.054  0.5631  1.2344 -0.1249
 2094SOL     OW 7180   4.203   5.101   0.152  0.8735 -0.2468 -0.2759
 2094SOL    HW1 7181   4.222   5.160   0.230  2.5282  1.0764 -1.5831
 2094SOL    HW2 7182   4.226   5.007   0.174  1.6859  0.1643  0.6947
 2095SOL     OW 7183   5.094   2.208   5.398  0.1672  0.1452 -0.5907
 2095SOL    HW1 7184   5.192   2.197   5.407  0.2903  2.1238  1.5510
 2095SOL    HW2 7185   5.047   2.162   5.474 -0.1403  2.8600  1.0050
 2096SOL     OW 7186   6.418   4.916   0.467 -0.0035  0.0641  0.1036
 2096SOL    HW1 7187   6.452   5.008   0.447  1.3265 -0.1336  1.3494
 2096SOL    HW2 7188   6.347   4.922   0.538  1.5080  0.0037  1.6950
 2097SOL     OW 7189   4.694   1.791   1.059 -0.1748  0.0956  0.1689
 2097SOL    HW1 7190   4.618   1.751   1.009  0.5346 -3.6475  1.7328
 2097SOL    HW2 7191   4.771   1.805   0.997 -0.9037  0.3462 -0.7020
 2098SOL     OW 7192   1.118   0.481   5.498  0.1841  0.0825 -0.2390
 2098SOL    HW1 7193   1.144   0.387   5.476 -1.1719 -0.8561  1.8700
 2098SOL    HW2 7194   1.019   0.485   5.512  0.3888  1.5523  0.9714
 2099SOL     OW 7195   2.835   1.711   0.918 -0.1117 -0.2526 -0.0590
 2099SOL    HW1 7196   2.905   1.727   0.989 -1.5745  0.5700  1.2620
 2099SOL    HW2 7197   2.855   1.767   0.838  0.5287  0.2791  0.4611
 2100SOL     OW 7198   5.732   3.935   2.059  0.0002  0.3752 -0.3693
 2100SOL    HW1 7199   5.664   3.971   1.995  1.2344 -1.5336 -2.9622
 2100SOL    HW2 7200   5.778   4.011   2.105 -1.9652  1.7788 -0.6096
 2101SOL     OW 7201   5.271   3.813   3.778 -0.1646 -0.1326  0.1131
 2101SOL    HW1 7202   5.351   3.851   3.733 -1.6860  0.6284 -2.1062
 2101SOL    HW2 7203   5.240   3.876   3.849 -0.8485  1.3877 -1.4549
 2102SOL     OW 7204   1.986   0.471   5.706 -0.1969 -0.1316 -0.2229
 2102SOL    HW1 7205   1.898   0.462   5.753 -0.0795  1.0994  0.2724
 2102SOL    HW2 7206   1.994   0.400   5.637 -1.3026 -0.6631  0.1688
 2103SOL     OW 7207   5.064   4.961   2.178 -0.2702 -0.2572 -0.3092
 2103SOL    HW1 7208   5.042   5.032   2.245  0.5668  1.0786 -1.3772
 2103SOL    HW2 7209   5.052   4.871   2.219 -0.2231  0.5049  1.4652
 2104SOL     OW 7210   3.459   5.468   0.902  0.0056 -0.1971 -0.6831
 2104SOL    HW1 7211   3.523   5.538   0.934  0.8849 -1.8104  1.3110
 2104SOL    HW2 7212   3.389   5.511   0.845  0.6383  2.2489  0.2401
 2105SOL     OW 7213   0.546   4.853   3.500 -0.1030  0.7294 -0.0569
 2105SOL    HW1 7214   0.495   4.927   3.545 -0.8731  1.2845 -1.7457
 2105SOL    HW2 7215   0.573   4.882   3.408  0.2842 -0.8102 -0.4652
 2106SOL     OW 7216   0.527   5.824   3.984 -0.0469 -0.1809 -0.5454
 2106SOL    HW1 7217   0.482   5.909   4.010  0.3735  0.0136 -0.4493
 2106SOL    HW2 7218   0.623   5.842   3.961  0.1025 -0.6592 -0.3179
 2107SOL     OW 7219   1.978   4.742   3.788  0.1084 -0.1119  0.5432
 2107SOL    HW1 7220   2.019   4.721   3.877  0.9853  0.4164  0.2783
 2107SOL    HW2 7221   1.910   4.814   3.798 -0.2904 -0.5276  0.8843
 2108SOL     OW 7222   6.611   5.294   5.041 -0.2485  0.2892  0.1285
 2108SOL    HW1 7223   6.524   5.330   5.074 -0.4659 -0.2765  0.1831
 2108SOL    HW2 7224   6.667   5.369   5.005  0.4345  1.1161  2.6957
 2109SOL     OW 7225   1.802   6.149   1.177  0.5769  0.2635  0.0647
 2109SOL    HW1 7226   1.711   6.130   1.142  0.3780  1.9552 -0.4302
 2109SOL    HW2 7227   1.843   6.065   1.212 -1.6483 -0.3377  1.4521
 2110SOL     OW 7228   3.062   1.954   4.263  0.4223  0.3899  0.2597
 2110SOL    HW1 7229   3.104   1.952   4.354 -0.5144  0.9590  0.7297
 2110SOL    HW2 7230   2.984   1.891   4.262  0.2606  0.5939 -0.0671
 2111SOL     OW 7231   4.581   2.077   5.966  0.4591 -0.7576  0.0397
 2111SOL    HW1 7232   4.489   2.044   5.942  0.2237 -1.8165  2.1243
 2111SOL    HW2 7233   4.573   2.166   6.011  0.3851 -1.0756  0.6673
 2112SOL     OW 7234   6.257   3.136   1.313 -0.4043 -0.5728 -0.2897
 2112SOL    HW1 7235   6.205   3.209   1.270 -0.8432 -0.7413 -0.0474
 2112SOL    HW2 7236   6.195   3.064   1.344  0.0203 -1.0354 -0.4996
 2113SOL     OW 7237   3.526   0.236   1.493 -0.3899  0.2531 -0.1129
 2113SOL    HW1 7238   3.531   0.175   1.572 -0.3634  1.5353  0.9046
 2113SOL    HW2 7239   3.449   0.298   1.503  1.1045  2.1504  0.2004
 2114SOL     OW 7240   6.662   6.888   3.785  0.0915  0.1124  0.0519
 2114SOL    HW1 7241   6.660   6.788   3.788  1.4558  0.0329 -0.8331
 2114SOL    HW2 7242   6.595   6.921   3.719  0.2327 -0.2600 -0.2785
 2115SOL     OW 7243   1.330   3.543   1.414 -0.6749  0.3009  0.1347
 2115SOL    HW1 7244   1.319   3.471   1.482  1.5060 -1.8147 -1.5957
 2115SOL    HW2 7245   1.395   3.611   1.448 -0.2642 -0.2729  0.5141
 2116SOL     OW 7246   4.963   3.354   6.607 -0.3763  0.5838 -0.0911
 2116SOL    HW1 7247   4.959   3.358   6.507 -1.9816 -1.6052 -0.1965
 2116SOL    HW2 7248   5.016   3.432   6.641 -0.0586  1.5838 -2.6001
 2117SOL     OW 7249   4.210   6.526   3.388  0.0758 -0.4443 -0.4274
 2117SOL    HW1 7250   4.176   6.520   3.482  0.9453 -0.2633 -0.0946
 2117SOL    HW2 7251   4.239   6.620   3.370  3.4534 -1.2242  0.3957
 2118SOL     OW 7252   0.034   0.072   1.651  0.1156  0.2594 -0.3075
 2118SOL    HW1 7253  -0.016   0.157   1.632  0.6473  0.6834  0.1393
 2118SOL    HW2 7254   0.116   0.068   1.593  0.1148  0.0758 -0.2952
 2119SOL     OW 7255   6.551   1.103   3.244  0.1255  0.3658 -0.1814
 2119SOL    HW1 7256   6.558   1.165   3.166  1.4463  0.2878 -0.1481
 2119SOL    HW2 7257   6.642   1.081   3.278 -0.4181  0.5385  1.5211
 2120SOL     OW 7258   0.658   1.988   4.413  0.6661  0.0677  0.2495
 2120SOL    HW1 7259   0.676   1.943   4.325  2.2719 -0.4678  0.8147
 2120SOL    HW2 7260   0.724   2.062   4.427 -0.8082  1.4470  0.1572
 2121SOL     OW 7261   5.060   5.724   0.816 -0.0293 -0.4747 -0.2374
 2121SOL    HW1 7262   4.971   5.705   0.774  0.0527 -1.3140 -0.0488
 2121SOL    HW2 7263   5.056   5.812   0.863 -0.5288 -0.1464 -0.8730
 2122SOL     OW 7264   1.047   2.550   5.263  0.0538  0.1378  1.1156
 2122SOL    HW1 7265   1.087   2.479   5.321  1.1311  0.5807  0.9370
 2122SOL    HW2 7266   1.116   2.619   5.242 -1.3031  2.0115  2.4419
 2123SOL     OW 7267   2.984   6.136   6.299 -0.3175 -0.6166  0.0701
 2123SOL    HW1 7268   2.885   6.130   6.289 -0.3651 -0.0642  0.1678
 2123SOL    HW2 7269   3.020   6.208   6.239 -0.3669  1.3798  2.2458
 2124SOL     OW 7270   6.195   4.681   6.228  0.0576  0.3689 -0.1289
 2124SOL    HW1 7271   6.136   4.679   6.147  1.6495 -4.3853 -1.4779
 2124SOL    HW2 7272   6.138   4.677   6.310 -1.5389 -0.1183 -1.2172
 2125SOL     OW 7273   1.440   1.071   0.759  0.4040 -0.2289 -0.6490
 2125SOL    HW1 7274   1.537   1.047   0.752  0.5169 -1.2454  2.8626
 2125SOL    HW2 7275   1.426   1.134   0.835 -1.8158 -0.9730 -0.3716
 2126SOL     OW 7276   2.815   2.023   4.126 -0.1039 -0.7898  0.5397
 2126SOL    HW1 7277   2.847   2.035   4.033 -1.7177 -0.8825 -0.0633
 2126SOL    HW2 7278   2.836   2.105   4.180 -1.8323  0.5844 -0.7461
 2127SOL     OW 7279   5.027   2.063   0.621  0.5096 -0.6852 -0.2651
 2127SOL    HW1 7280   5.064   2.072   0.529  0.9445 -0.4153 -0.0699
 2127SOL    HW2 7281   4.982   1.974   0.631  3.3670 -2.1968  0.2346
 2128SOL     OW 7282   4.457   5.527   3.041  0.4190  0.3776  0.0754
 2128SOL    HW1 7283   4.417   5.590   3.108 -1.5446 -1.6768  0.9725
 2128SOL    HW2 7284   4.406   5.533   2.956  1.5802  1.4646 -0.5745
 2129SOL     OW 7285   2.094   5.379   6.046  0.4569 -0.2067  0.2382
 2129SOL    HW1 7286   2.032   5.440   6.095  1.2976  0.4473  0.5082
 2129SOL    HW2 7287   2.066   5.374   5.950 -0.9114 -1.1262  0.6479
 2130SOL     OW 7288   2.903   1.021   1.085  0.1841 -0.8919  0.0142
 2130SOL    HW1 7289   2.977   1.076   1.123 -0.3990  0.0392 -0.1650
 2130SOL    HW2 7290   2.936   0.972   1.004  0.6621 -0.6632  0.0667
 2131SOL     OW 7291   4.630   3.761   0.091  0.2668 -0.2036  0.2341
 2131SOL    HW1 7292   4.689   3.782   0.169  0.5861 -2.3286  0.6257
 2131SOL    HW2 7293   4.682   3.708   0.024 -1.0757 -1.9318  0.4856
 2132SOL     OW 7294   5.572   4.142   6.625  0.4676 -0.6277 -0.0114
 2132SOL    HW1 7295   5.473   4.151   6.626  0.4554 -0.7636  0.0184
 2132SOL    HW2 7296   5.611   4.210   6.563  0.4307  0.1029  0.7531
 2133SOL     OW 7297   0.149   3.326   4.342  0.8430  0.2814 -0.4107
 2133SOL    HW1 7298   0.143   3.353   4.438  1.3878 -0.1547 -0.2531
 2133SOL    HW2 7299   0.179   3.231   4.336  0.3467  0.1550 -1.0041
 2134SOL     OW 7300   1.469   2.101   0.514  0.0661  0.0475  0.0527
 2134SOL    HW1 7301   1.518   2.040   0.452  0.2126 -0.0553  0.2676
 2134SOL    HW2 7302   1.532   2.170   0.550  0.1031 -0.2180  0.4981
 2135SOL     OW 7303   6.737   5.235   2.782  0.7997  0.0008 -0.4225
 2135SOL    HW1 7304   6.716   5.248   2.879  0.1753 -1.2571 -0.3761
 2135SOL    HW2 7305   6.658   5.263   2.727  0.8428 -0.0760 -0.5235
 2136SOL     OW 7306   0.757   6.708   5.994 -0.1828  0.6462  0.3371
 2136SOL    HW1 7307   0.809   6.793   5.989 -0.9552  1.0854 -0.6487
 2136SOL    HW2 7308   0.752   6.677   6.089  2.2139  0.3429  0.4185
 2137SOL     OW 7309   2.928   6.384   3.282 -0.2635  0.1419 -0.4305
 2137SOL    HW1 7310   3.022   6.359   3.262  0.2361  2.1835 -0.9202
 2137SOL    HW2 7311   2.920   6.410   3.379 -0.4848 -0.6437 -0.2327
 2138SOL     OW 7312   4.369   6.226   2.166  0.2155  0.5037  0.6686
 2138SOL    HW1 7313   4.438   6.255   2.232  0.7638 -1.2507  0.9165
 2138SOL    HW2 7314   4.379   6.279   2.082  2.9090 -0.7219  0.1227
 2139SOL     OW 7315   4.505   2.003   1.820 -0.1737  0.0746 -0.0972
 2139SOL    HW1 7316   4.601   2.030   1.832  0.5270 -1.8616 -0.8676
 2139SOL    HW2 7317   4.467   2.049   1.740 -0.0273  1.1215  0.4129
 2140SOL     OW 7318   0.071   3.459   1.781  0.0884  0.1695  0.0739
 2140SOL    HW1 7319   0.117   3.491   1.864 -0.5888 -0.0866  0.5547
 2140SOL    HW2 7320   0.011   3.532   1.746  0.5519  0.3629 -0.3306
 2141SOL     OW 7321   3.029   1.322   4.784 -0.3335  0.1064  0.2083
 2141SOL    HW1 7322   3.023   1.419   4.763  0.0487  0.1188  0.1404
 2141SOL    HW2 7323   3.074   1.274   4.708 -1.8404 -0.3658 -0.4261
 2142SOL     OW 7324   6.247   2.374   4.523  0.1857 -0.0633 -0.0604
 2142SOL    HW1 7325   6.299   2.314   4.583  0.2141  0.4266  0.4081
 2142SOL    HW2 7326   6.292   2.463   4.517 -0.1635  0.1011 -0.2957
 2143SOL     OW 7327   1.280   0.521   1.416 -0.3709  0.3114 -0.2507
 2143SOL    HW1 7328   1.184   0.499   1.431 -1.2266  2.0183 -2.5415
 2143SOL    HW2 7329   1.301   0.511   1.319  0.8356  3.0721 -0.3658
 2144SOL     OW 7330   6.831   1.836   1.522 -0.1168  0.2390 -0.4408
 2144SOL    HW1 7331   6.865   1.930   1.525 -0.0678  0.2442 -1.0057
 2144SOL    HW2 7332   6.898   1.778   1.476 -0.4493  0.0623 -0.7074
 2145SOL     OW 7333   7.002   6.972   6.541  0.1090 -0.1833  0.0697
 2145SOL    HW1 7334   6.955   6.997   6.456  0.9725  1.2601 -0.0099
 2145SOL    HW2 7335   7.096   7.005   6.539  1.0100 -2.5339  0.4731
 2146SOL     OW 7336   4.350   0.275   4.758 -0.1534  0.1913  0.1748
 2146SOL    HW1 7337   4.393   0.206   4.816 -0.4209 -1.3898 -1.4606
 2146SOL    HW2 7338   4.250   0.267   4.764 -0.2087 -1.2132 -1.8362
 2147SOL     OW 7339   4.880   1.466   5.397 -0.1879  0.6997 -0.3194
 2147SOL    HW1 7340   4.869   1.558   5.361  0.1903  1.3340  1.1027
 2147SOL    HW2 7341   4.794   1.437   5.440 -0.4542  0.1931 -1.1841
 2148SOL     OW 7342   6.156   1.922   2.090  0.0926  0.4564 -0.0235
 2148SOL    HW1 7343   6.206   1.893   2.009 -1.1603 -0.0688 -0.6357
 2148SOL    HW2 7344   6.133   1.842   2.146  0.4165  0.7533  0.5528
 2149SOL     OW 7345   3.767   0.447   0.983 -0.6160 -0.1836 -0.3021
 2149SOL    HW1 7346   3.701   0.372   0.983  0.4536 -1.1706  0.8593
 2149SOL    HW2 7347   3.851   0.417   0.939  0.1977 -0.0314  1.1063
 2150SOL     OW 7348   3.571   4.326   0.489 -0.4686 -0.1046  0.4194
 2150SOL    HW1 7349   3.631   4.255   0.453 -0.3309 -0.1096  0.6587
 2150SOL    HW2 7350   3.493   4.338   0.428 -0.1912 -0.0520  0.0685
 2151SOL     OW 7351   1.243   0.069   0.107  0.4996  0.1438  0.1421
 2151SOL    HW1 7352   1.228   0.158   0.149 -3.5485  0.8195 -2.1933
 2151SOL    HW2 7353   1.162   0.012   0.121  0.5710 -0.9870 -3.2145
 2152SOL     OW 7354   4.034   2.454   1.192  0.4372  0.0760 -0.4402
 2152SOL    HW1 7355   4.113   2.463   1.131 -0.5970 -1.2962 -2.0839
 2152SOL    HW2 7356   3.992   2.544   1.207  3.8272  1.3654  2.7782
 2153SOL     OW 7357   6.200   6.759   6.792 -0.1979  0.2316 -0.2158
 2153SOL    HW1 7358   6.267   6.774   6.865  0.9955 -0.7216 -1.0726
 2153SOL    HW2 7359   6.108   6.759   6.831  0.4786 -1.8633  1.6111
 2154SOL     OW 7360   1.746   5.880   5.314  0.3898  0.5072  0.1393
 2154SOL    HW1 7361   1.694   5.865   5.398 -1.5241 -0.2510 -1.1026
 2154SOL    HW2 7362   1.786   5.971   5.315  2.5952 -0.3336  2.9346
 2155SOL     OW 7363   4.604   6.559   3.044 -0.2828  0.3351 -0.0247
 2155SOL    HW1 7364   4.657   6.573   3.128 -0.3939 -0.3412  0.1645
 2155SOL    HW2 7365   4.625   6.632   2.979  2.2864 -0.8694 -0.6779
 2156SOL     OW 7366   3.497   6.105   2.201 -0.0160 -0.1924  0.2831
 2156SOL    HW1 7367   3.472   6.009   2.208  0.9550 -0.4859 -0.1029
 2156SOL    HW2 7368   3.597   6.114   2.205  0.0008  0.6375 -1.2784
 2157SOL     OW 7369   5.409   4.203   2.528  0.4012  0.3060  0.5140
 2157SOL    HW1 7370   5.428   4.147   2.608 -0.6466 -0.0431  0.5372
 2157SOL    HW2 7371   5.360   4.148   2.460  1.0870  0.6616 -0.2725
 2158SOL     OW 7372   6.103   1.700   4.303 -0.2412 -0.2681 -0.4779
 2158SOL    HW1 7373   6.140   1.793   4.310  1.3827 -0.8434 -0.8916
 2158SOL    HW2 7374   6.175   1.638   4.273 -0.0358 -2.4815  3.8578
 2159SOL     OW 7375   1.150   3.949   1.478  0.4811  0.2530 -0.1492
 2159SOL    HW1 7376   1.199   3.914   1.558 -0.3303 -1.0756 -0.2170
 2159SOL    HW2 7377   1.161   3.886   1.401 -1.2728 -0.0453 -0.1833
 2160SOL     OW 7378   6.609   5.034   4.936 -0.1754  0.2674 -0.1139
 2160SOL    HW1 7379   6.629   5.116   4.989 -1.7870  0.7524 -0.1988
 2160SOL    HW2 7380   6.642   4.953   4.986  1.9501  0.9721 -0.3059
 2161SOL     OW 7381   6.815   1.405   5.081  0.0305 -0.3759  0.0039
 2161SOL    HW1 7382   6.838   1.329   5.019 -0.7022 -0.0781 -0.6441
 2161SOL    HW2 7383   6.722   1.393   5.115  0.0482  0.0369  0.1976
 2162SOL     OW 7384   0.087   6.812   3.871  0.2139  0.2315  0.7567
 2162SOL    HW1 7385   0.017   6.788   3.938 -0.4538  0.4528  0.1469
 2162SOL    HW2 7386   0.177   6.787   3.907 -0.0190  1.3256  2.1937
 2163SOL     OW 7387   3.394   2.829   4.885 -0.5756 -0.5114  0.0013
 2163SOL    HW1 7388   3.349   2.740   4.874 -0.0696 -0.6971 -0.5818
 2163SOL    HW2 7389   3.459   2.844   4.811  0.9832 -0.6382  1.2819
 2164SOL     OW 7390   6.355   0.146   1.370  0.6801  0.3647 -0.2877
 2164SOL    HW1 7391   6.418   0.216   1.336  1.8903 -0.3862  0.3390
 2164SOL    HW2 7392   6.406   0.079   1.425 -0.6836 -0.2166  0.3160
 2165SOL     OW 7393   6.575   4.248   4.797  0.3543  0.5664 -0.1917
 2165SOL    HW1 7394   6.616   4.159   4.816  1.6448  1.1804 -0.0272
 2165SOL    HW2 7395   6.641   4.307   4.751 -0.1080  1.8027  0.6566
 2166SOL     OW 7396   6.492   5.880   4.317  0.2998 -0.2477 -0.3790
 2166SOL    HW1 7397   6.580   5.851   4.279  0.2287  0.4476 -1.0905
 2166SOL    HW2 7398   6.460   5.811   4.382  0.5198 -1.3775 -1.4248
 2167SOL     OW 7399   6.451   5.152   6.843  0.0655  0.1431  0.5884
 2167SOL    HW1 7400   6.376   5.184   6.785  1.1254 -0.9195 -1.4928
 2167SOL    HW2 7401   6.466   5.217   6.917 -2.3271  0.8013  0.5715
 2168SOL     OW 7402   0.160   5.991   2.184  0.7111 -0.8318  0.0975
 2168SOL    HW1 7403   0.065   6.000   2.154  0.4845 -2.5384  0.1777
 2168SOL    HW2 7404   0.220   5.997   2.104  0.4713 -0.5105 -0.0593
 2169SOL     OW 7405   5.977   2.025   1.404 -0.4478 -0.3028  0.1875
 2169SOL    HW1 7406   6.023   2.111   1.423 -0.1026 -0.3342 -0.4634
 2169SOL    HW2 7407   5.944   2.025   1.310  1.0210 -1.5158 -0.3733
 2170SOL     OW 7408   1.354   4.645   2.589 -0.2961  0.4538 -0.8138
 2170SOL    HW1 7409   1.262   4.624   2.556 -0.9422 -1.0602  1.6852
 2170SOL    HW2 7410   1.418   4.577   2.553 -1.2804 -2.2410  2.0530
 2171SOL     OW 7411   5.260   1.540   0.790  0.6083  0.3031  1.4317
 2171SOL    HW1 7412   5.180   1.593   0.763 -1.0285 -2.3008  0.8398
 2171SOL    HW2 7413   5.320   1.526   0.711  0.7689  0.7662  1.4661
 2172SOL     OW 7414   4.706   5.762   4.808  0.6591  0.3363  0.0744
 2172SOL    HW1 7415   4.683   5.850   4.848  0.0440  0.1251  0.1906
 2172SOL    HW2 7416   4.629   5.729   4.753  1.2125  0.2799 -0.6907
 2173SOL     OW 7417   6.271   1.129   1.900  0.5715 -0.1290 -0.0250
 2173SOL    HW1 7418   6.335   1.117   1.824  2.1669  1.6756  0.9219
 2173SOL    HW2 7419   6.290   1.216   1.946 -1.7754 -0.1287  1.1144
 2174SOL     OW 7420   2.494   2.814   1.746 -0.3387 -0.1731  0.0885
 2174SOL    HW1 7421   2.543   2.886   1.697 -0.4358  1.0652  1.7326
 2174SOL    HW2 7422   2.560   2.749   1.784  0.1184  1.3755  2.1193
 2175SOL     OW 7423   4.095   2.534   0.570  0.2664  0.4621 -0.0937
 2175SOL    HW1 7424   4.037   2.569   0.496 -0.9656 -2.0512 -0.4334
 2175SOL    HW2 7425   4.037   2.504   0.646  1.4150  1.2651  1.1382
 2176SOL     OW 7426   6.720   6.985   4.202  0.0435 -0.3702  0.5189
 2176SOL    HW1 7427   6.658   6.912   4.174  0.3152 -0.6859  0.7333
 2176SOL    HW2 7428   6.685   7.029   4.285  0.0227 -0.4398  0.5472
 2177SOL     OW 7429   2.041   2.978   3.729 -0.1410 -0.1729 -0.1232
 2177SOL    HW1 7430   2.129   2.964   3.775  0.0424 -0.4432 -0.5504
 2177SOL    HW2 7431   2.028   3.076   3.714 -0.2375 -0.0758  0.5634
 2178SOL     OW 7432   5.854   5.241   6.397  0.3276 -0.5509  0.0589
 2178SOL    HW1 7433   5.793   5.318   6.415 -0.0928 -0.6543 -0.8372
 2178SOL    HW2 7434   5.821   5.192   6.316  1.3100 -0.9168 -0.1262
 2179SOL     OW 7435   6.825   2.907   0.649 -0.2446 -0.3422  0.5148
 2179SOL    HW1 7436   6.901   2.883   0.708 -0.5352 -0.8667  0.6757
 2179SOL    HW2 7437   6.763   2.969   0.698 -0.3532 -0.5738  0.6690
 2180SOL     OW 7438   2.056   2.956   0.716  0.0080  0.6747 -0.5558
 2180SOL    HW1 7439   2.104   2.926   0.634 -0.6242  1.3696 -1.1951
 2180SOL    HW2 7440   2.107   3.031   0.758 -0.7299  1.7541 -1.5146
 2181SOL     OW 7441   3.546   6.707   5.868  0.5503  0.3810  0.3426
 2181SOL    HW1 7442   3.519   6.632   5.928  0.5644  1.0911  1.2547
 2181SOL    HW2 7443   3.632   6.746   5.900  0.9041  0.3367 -0.5404
 2182SOL     OW 7444   0.284   3.299   1.161  0.5063 -0.4916 -0.3293
 2182SOL    HW1 7445   0.225   3.359   1.107 -0.2043 -0.8020  0.0928
 2182SOL    HW2 7446   0.303   3.215   1.109  1.9253  0.2864 -1.1359
 2183SOL     OW 7447   4.762   2.890   3.861  0.3042  0.1233 -0.3357
 2183SOL    HW1 7448   4.749   2.900   3.762  1.6829 -1.3424 -0.7188
 2183SOL    HW2 7449   4.719   2.806   3.892  0.0601  0.4706  0.2737
 2184SOL     OW 7450   4.514   6.715   2.257 -0.3746  0.2504  0.1676
 2184SOL    HW1 7451   4.597   6.736   2.205  1.4962 -1.4412  2.2553
 2184SOL    HW2 7452   4.486   6.621   2.238  1.4297 -1.0998  3.2623
 2185SOL     OW 7453   2.378   6.675   3.074 -0.8115 -0.8744  0.2423
 2185SOL    HW1 7454   2.408   6.582   3.096 -0.1496 -1.7424 -3.5244
 2185SOL    HW2 7455   2.300   6.670   3.011  1.6365  0.8044 -3.3013
 2186SOL     OW 7456   5.796   1.954   0.753 -0.4268  0.0007 -0.0031
 2186SOL    HW1 7457   5.854   1.885   0.795 -0.6648  0.7306  1.5935
 2186SOL    HW2 7458   5.788   1.935   0.655  1.6911 -0.6870 -0.1101
 2187SOL     OW 7459   5.565   4.858   6.800  0.2974  0.0873 -0.3035
 2187SOL    HW1 7460   5.658   4.856   6.838  0.5392  0.3697 -0.8575
 2187SOL    HW2 7461   5.507   4.793   6.849  0.8975 -0.4013 -0.2352
 2188SOL     OW 7462   3.395   1.809   0.559 -0.8649  0.3369  0.6595
 2188SOL    HW1 7463   3.418   1.776   0.468 -2.2885  1.5108 -0.1683
 2188SOL    HW2 7464   3.473   1.796   0.620  0.2954 -0.0128 -0.8399
 2189SOL     OW 7465   5.282   5.882   4.456 -0.8703  0.0503  0.9060
 2189SOL    HW1 7466   5.281   5.784   4.474 -0.6493 -0.1994 -0.3517
 2189SOL    HW2 7467   5.189   5.912   4.432 -0.6971 -0.1132  0.0105
 2190SOL     OW 7468   3.868   5.958   3.639 -0.2275 -0.3901  0.2415
 2190SOL    HW1 7469   3.818   5.873   3.654  0.2745 -0.6930  0.2204
 2190SOL    HW2 7470   3.942   5.942   3.573 -0.9454  0.3723 -0.7823
 2191SOL     OW 7471   4.965   6.370   4.736 -0.8501 -0.2718 -0.2433
 2191SOL    HW1 7472   4.921   6.299   4.680 -0.0837 -0.0559 -1.1460
 2191SOL    HW2 7473   4.979   6.452   4.681  1.7101 -0.7141 -0.3615
 2192SOL     OW 7474   6.698   0.243   5.699  0.2631  0.8695 -0.5527
 2192SOL    HW1 7475   6.710   0.145   5.683  1.9226  1.0658 -0.7268
 2192SOL    HW2 7476   6.716   0.293   5.614  0.4243  1.3725 -0.2286
 2193SOL     OW 7477   4.940   0.761   1.983 -0.1399 -0.1661 -0.4101
 2193SOL    HW1 7478   5.025   0.815   1.988 -0.4525  0.2378  1.1592
 2193SOL    HW2 7479   4.916   0.728   2.075 -1.4839 -0.6043 -0.8934
 2194SOL     OW 7480   2.117   3.680   4.765 -0.0727  0.0702 -0.4835
 2194SOL    HW1 7481   2.031   3.657   4.810  0.4916 -0.7507  0.2003
 2194SOL    HW2 7482   2.140   3.775   4.783  0.0276 -0.1829  0.7884
 2195SOL     OW 7483   1.576   4.521   0.240  0.0670  0.5145  0.1868
 2195SOL    HW1 7484   1.628   4.490   0.160  0.8020  0.9672  0.4896
 2195SOL    HW2 7485   1.526   4.443   0.278 -0.0575  0.2282 -0.5333
 2196SOL     OW 7486   4.865   0.973   7.017  0.2115  0.6840 -0.2795
 2196SOL    HW1 7487   4.812   0.899   7.059 -1.5939  2.2512  0.3660
 2196SOL    HW2 7488   4.829   0.990   6.925  1.7304 -0.2964 -1.0956
 2197SOL     OW 7489   5.292   2.590   4.759  0.2799  0.5324 -0.1822
 2197SOL    HW1 7490   5.260   2.684   4.770  1.2389  0.8503  0.0179
 2197SOL    HW2 7491   5.318   2.553   4.848  3.3581  1.3816 -0.6051
 2198SOL     OW 7492   1.343   2.148   5.371  0.1284  0.1935  0.0990
 2198SOL    HW1 7493   1.438   2.152   5.339 -0.7661 -1.3658 -3.0910
 2198SOL    HW2 7494   1.323   2.056   5.405 -0.9057 -0.3163 -1.7698
 2199SOL     OW 7495   6.490   5.273   1.230 -0.1232  0.1773  0.1328
 2199SOL    HW1 7496   6.434   5.190   1.230 -1.0162  0.7409  1.6211
 2199SOL    HW2 7497   6.513   5.297   1.136 -0.6621 -1.2118 -0.3829
 2200SOL     OW 7498   1.684   1.999   5.263 -0.5765 -0.0339 -0.3054
 2200SOL    HW1 7499   1.618   1.944   5.211 -0.4791  0.4481 -0.9663
 2200SOL    HW2 7500   1.768   1.947   5.276 -1.4098 -1.0261  1.3987
 2201SOL     OW 7501   0.222   0.045   6.888  0.2696  0.7452 -0.3627
 2201SOL    HW1 7502   0.276  -0.032   6.855  1.7569  0.1463  3.0217
 2201SOL    HW2 7503   0.125   0.022   6.884  0.6649 -1.3094  0.3859
 2202SOL     OW 7504   4.215   3.429   1.857 -0.3864 -0.2720  0.2860
 2202SOL    HW1 7505   4.237   3.428   1.760 -3.0688 -0.7876 -0.3796
 2202SOL    HW2 7506   4.210   3.335   1.891 -0.0993 -0.1135  0.7864
 2203SOL     OW 7507   0.767   0.959   5.195  0.1562 -0.1369 -0.4626
 2203SOL    HW1 7508   0.720   1.045   5.212 -0.8141 -0.7958  0.3273
 2203SOL    HW2 7509   0.729   0.888   5.255 -0.5815 -1.6454 -2.5997
 2204SOL     OW 7510   0.505   6.785   2.607 -0.1176 -0.5541  0.0647
 2204SOL    HW1 7511   0.568   6.846   2.657 -1.4661  0.5658  0.4553
 2204SOL    HW2 7512   0.558   6.714   2.561  1.5222  0.8908 -0.3773
 2205SOL     OW 7513   1.592   4.905   6.950 -0.5271  0.5434  0.2861
 2205SOL    HW1 7514   1.547   4.821   6.918  0.9596 -0.8400  1.6091
 2205SOL    HW2 7515   1.644   4.945   6.876 -1.2029  0.2613 -0.3505
 2206SOL     OW 7516   0.171   6.574   3.260  0.3874  0.3324  0.3320
 2206SOL    HW1 7517   0.084   6.622   3.274 -0.0844 -0.9393  2.1654
 2206SOL    HW2 7518   0.240   6.612   3.322  0.9993  0.9134 -0.6758
 2207SOL     OW 7519   6.054   5.557   0.503 -0.1050  0.2750  0.1922
 2207SOL    HW1 7520   6.026   5.481   0.444  1.1632  0.0652 -0.1714
 2207SOL    HW2 7521   5.974   5.610   0.530 -0.8173 -0.2365 -0.8793
 2208SOL     OW 7522   6.219   4.200   4.403  0.2428  0.0913 -0.6935
 2208SOL    HW1 7523   6.307   4.214   4.450 -0.1569 -1.0874  0.4929
 2208SOL    HW2 7524   6.145   4.199   4.471 -0.4615 -0.8847 -1.4413
 2209SOL     OW 7525   1.237   1.433   1.217 -0.3892  0.6709  0.4298
 2209SOL    HW1 7526   1.259   1.424   1.120 -0.8609  1.6558  0.2206
 2209SOL    HW2 7527   1.147   1.393   1.235 -1.4366  2.6724 -0.0507
 2210SOL     OW 7528   4.423   5.254   4.614  0.1345 -0.2538  0.2571
 2210SOL    HW1 7529   4.338   5.207   4.589  0.4096 -1.1482  0.9620
 2210SOL    HW2 7530   4.493   5.234   4.545 -0.7289  2.1539 -1.4929
 2211SOL     OW 7531   5.867   0.172   4.174 -0.6122 -0.0342  0.2914
 2211SOL    HW1 7532   5.907   0.119   4.100  0.7570 -1.2287  1.8131
 2211SOL    HW2 7533   5.891   0.268   4.163  0.2631 -0.3156 -0.3714
 2212SOL     OW 7534   0.516   2.089   0.027 -0.5175 -0.2291 -0.1451
 2212SOL    HW1 7535   0.561   2.020   0.084  0.5741  0.5786  0.0203
 2212SOL    HW2 7536   0.512   2.056  -0.068 -1.6428 -1.2505  0.2309
 2213SOL     OW 7537   1.520   4.664   5.006 -0.0675 -0.7403 -0.0001
 2213SOL    HW1 7538   1.484   4.686   4.915  1.1810 -0.3220 -0.4246
 2213SOL    HW2 7539   1.614   4.698   5.013 -0.4860  0.1638  1.8221
 2214SOL     OW 7540   3.973   3.849   3.630  0.2570  0.3060  0.1343
 2214SOL    HW1 7541   3.886   3.800   3.620  0.9776 -1.0519  0.2171
 2214SOL    HW2 7542   4.036   3.793   3.684  1.0242  1.4796  0.4797
 2215SOL     OW 7543   6.571   2.277   3.723  0.2271 -0.0259 -0.2213
 2215SOL    HW1 7544   6.632   2.257   3.646 -0.4336 -0.8330 -0.5488
 2215SOL    HW2 7545   6.504   2.204   3.732 -1.1875  1.2045 -0.3545
 2216SOL     OW 7546   2.633   6.757   1.912 -0.5504  0.2047 -0.1531
 2216SOL    HW1 7547   2.721   6.782   1.872 -0.8138 -0.7350 -1.3619
 2216SOL    HW2 7548   2.587   6.690   1.854 -2.4268  1.2554  0.0477
 2217SOL     OW 7549   5.989   2.407   3.449  0.3041  0.1999 -0.0239
 2217SOL    HW1 7550   6.004   2.484   3.386 -0.2970  0.6274  0.3486
 2217SOL    HW2 7551   6.078   2.371   3.478  0.5983  0.8611 -0.0778
 2218SOL     OW 7552   6.238   4.650   4.970 -0.1741 -0.6411 -0.1207
 2218SOL    HW1 7553   6.146   4.631   5.006  0.3589 -2.8830  0.2260
 2218SOL    HW2 7554   6.256   4.589   4.892  1.4475 -1.1132  0.5843
 2219SOL     OW 7555   4.808   6.986   1.449  0.0804 -0.0377 -0.5346
 2219SOL    HW1 7556   4.734   6.993   1.516  2.4003  0.7384  2.1661
 2219SOL    HW2 7557   4.863   7.069   1.451  1.6227 -0.9780 -1.6692
 2220SOL     OW 7558   2.051   3.232   6.455  0.0443  1.0217 -0.3682
 2220SOL    HW1 7559   2.013   3.316   6.417 -1.1355  1.9996  2.6603
 2220SOL    HW2 7560   1.993   3.154   6.429 -2.0661  1.9872  1.2008
 2221SOL     OW 7561   5.538   4.648   0.354 -0.4197  0.0856  0.4866
 2221SOL    HW1 7562   5.569   4.733   0.397  2.0608 -1.4853  2.1141
 2221SOL    HW2 7563   5.484   4.595   0.419  1.7980 -1.4788  1.2082
 2222SOL     OW 7564   2.790   0.061   6.139  0.2568  0.7469  0.4815
 2222SOL    HW1 7565   2.692   0.040   6.134 -0.2901  2.8499  1.5205
 2222SOL    HW2 7566   2.824   0.040   6.231  1.2146 -1.4922 -0.3182
 2223SOL     OW 7567   0.166   4.643   1.738  0.3279  0.0761  0.7005
 2223SOL    HW1 7568   0.205   4.735   1.730 -0.5528  0.4854  0.9925
 2223SOL    HW2 7569   0.152   4.604   1.647 -0.3139  0.6689  0.5447
 2224SOL     OW 7570   6.710   3.097   6.257  0.3988  0.3606  0.5962
 2224SOL    HW1 7571   6.795   3.149   6.255  1.2089 -0.9350  0.6281
 2224SOL    HW2 7572   6.678   3.082   6.164  1.6024 -1.3491  0.4215
 2225SOL     OW 7573   6.632   3.519   1.915 -0.4813  0.2000 -0.4164
 2225SOL    HW1 7574   6.718   3.472   1.899 -1.5460 -1.6670 -0.9312
 2225SOL    HW2 7575   6.649   3.601   1.970  1.9119  1.2630 -2.5547
 2226SOL     OW 7576   6.479   4.960   5.683 -0.3905  0.1429  0.2456
 2226SOL    HW1 7577   6.381   4.942   5.696 -0.3222 -0.0456  0.4936
 2226SOL    HW2 7578   6.516   4.894   5.617 -0.8948  1.5461 -1.5267
 2227SOL     OW 7579   3.511   2.933   2.643 -0.4982  0.6535  0.1173
 2227SOL    HW1 7580   3.492   3.032   2.649 -2.3731  0.2753  1.2981
 2227SOL    HW2 7581   3.487   2.900   2.552  0.4844  1.3479 -0.4034
 2228SOL     OW 7582   1.051   0.350   2.801  0.0365  0.2521 -0.0281
 2228SOL    HW1 7583   1.128   0.290   2.825 -0.9166 -1.1859 -0.4151
 2228SOL    HW2 7584   0.967   0.315   2.843 -0.5357  1.4061 -0.1660
 2229SOL     OW 7585   1.159   2.709   4.027 -0.1225 -0.3299  0.4943
 2229SOL    HW1 7586   1.084   2.733   4.089 -0.4171 -0.0627  0.0406
 2229SOL    HW2 7587   1.122   2.674   3.941  0.2650  0.0289  0.1770
 2230SOL     OW 7588   0.536   1.324   0.725 -0.2953 -0.3129  0.0052
 2230SOL    HW1 7589   0.540   1.423   0.730 -0.2194 -0.3542  0.8444
 2230SOL    HW2 7590   0.506   1.287   0.813  2.2831 -1.1859  0.5915
 2231SOL     OW 7591   5.849   3.840   6.814 -0.4751  0.1026  0.1082
 2231SOL    HW1 7592   5.774   3.816   6.752 -1.2420 -0.7561  1.3410
 2231SOL    HW2 7593   5.830   3.929   6.856 -0.3035  0.3553 -0.3476
 2232SOL     OW 7594   1.675   2.246   0.746  0.3592 -0.4747 -0.3483
 2232SOL    HW1 7595   1.600   2.194   0.788 -0.6358  0.2552 -1.1832
 2232SOL    HW2 7596   1.649   2.342   0.738  2.3865  0.3613  1.7021
 2233SOL     OW 7597   6.102   3.314   3.310 -0.0196 -0.2157 -0.2259
 2233SOL    HW1 7598   6.162   3.259   3.252  0.0463  1.7067 -2.1454
 2233SOL    HW2 7599   6.154   3.347   3.389  0.5582 -1.0646 -0.2315
 2234SOL     OW 7600   3.196   6.076   3.405 -0.1692  0.3105 -0.0011
 2234SOL    HW1 7601   3.201   6.026   3.318 -0.8485  1.7194 -0.8965
 2234SOL    HW2 7602   3.257   6.034   3.471  0.0523 -1.0603 -1.0285
 2235SOL     OW 7603   4.084   3.098   5.467 -0.3290 -0.1667  0.0745
 2235SOL    HW1 7604   4.037   3.108   5.379 -0.5900  0.6523  0.2913
 2235SOL    HW2 7605   4.182   3.109   5.453 -0.1632 -2.0337 -0.4021
 2236SOL     OW 7606   6.847   3.850   5.526 -0.8978 -0.1807 -0.1138
 2236SOL    HW1 7607   6.932   3.875   5.478 -0.0037 -0.8498  1.0535
 2236SOL    HW2 7608   6.817   3.760   5.495  0.7411 -1.5049  1.7899
 2237SOL     OW 7609   3.871   0.725   5.134  0.0195  0.2359  0.6749
 2237SOL    HW1 7610   3.818   0.692   5.213 -1.1938  0.6968  0.0878
 2237SOL    HW2 7611   3.808   0.760   5.065  1.0710 -0.0572 -0.4628
 2238SOL     OW 7612   6.655   1.515   0.002 -0.3605  0.1608  0.5033
 2238SOL    HW1 7613   6.745   1.502   0.043 -0.4309 -0.0675  0.5867
 2238SOL    HW2 7614   6.615   1.600   0.037  0.4311  1.0328 -0.6430
 2239SOL     OW 7615   4.342   5.883   0.692  0.3363 -0.2942  0.2504
 2239SOL    HW1 7616   4.347   5.856   0.789 -0.2398 -2.1541 -0.2008
 2239SOL    HW2 7617   4.246   5.893   0.666  0.4828 -0.1745 -0.2427
 2240SOL     OW 7618   7.014   3.632   2.965  0.1904  0.5269  0.0296
 2240SOL    HW1 7619   6.935   3.616   3.025 -1.2565  1.3294 -1.5746
 2240SOL    HW2 7620   6.995   3.593   2.875  1.2760  1.4814 -0.6297
 2241SOL     OW 7621   6.532   5.231   3.604  0.0064  0.8852 -0.4210
 2241SOL    HW1 7622   6.529   5.154   3.540  0.5321  0.3139  0.2318
 2241SOL    HW2 7623   6.500   5.201   3.694  1.9537  0.9132  0.3339
 2242SOL     OW 7624   3.562   6.478   5.260 -0.0225 -0.2636  0.4976
 2242SOL    HW1 7625   3.470   6.447   5.282  0.2781 -1.0724  0.6422
 2242SOL    HW2 7626   3.562   6.577   5.247 -0.9481 -0.2852  0.2962
 2243SOL     OW 7627   6.356   0.879   3.685  0.7754 -0.1893  0.3662
 2243SOL    HW1 7628   6.414   0.883   3.604  0.7534 -2.0294  0.2071
 2243SOL    HW2 7629   6.412   0.892   3.767  1.7433 -3.0947  0.2891
 2244SOL     OW 7630   4.960   5.838   6.474 -0.1507  0.6454 -1.0654
 2244SOL    HW1 7631   4.926   5.803   6.386  1.6172 -0.2558 -1.4299
 2244SOL    HW2 7632   5.006   5.765   6.524  1.6442  1.8839 -0.8172
 2245SOL     OW 7633   4.641   1.032   2.384 -0.2164  0.7202 -0.6233
 2245SOL    HW1 7634   4.566   1.048   2.320  0.6027  3.5060 -1.0128
 2245SOL    HW2 7635   4.726   1.017   2.333 -0.1950 -0.9477 -0.1648
 2246SOL     OW 7636   2.725   1.942   4.468  0.2909  0.4922 -0.1499
 2246SOL    HW1 7637   2.788   1.890   4.410  0.9955 -0.8872  1.7444
 2246SOL    HW2 7638   2.775   2.016   4.513  0.5735 -0.4222  1.1232
 2247SOL     OW 7639   2.077   4.161   3.432  0.1011  0.5552  0.1995
 2247SOL    HW1 7640   2.103   4.152   3.336 -1.9139 -0.6530 -0.3141
 2247SOL    HW2 7641   2.085   4.071   3.476  0.4135  0.9702  0.9939
 2248SOL     OW 7642   0.243   6.473   0.105 -0.1787 -0.0601  1.1375
 2248SOL    HW1 7643   0.227   6.377   0.080  2.0234 -0.5661  1.4904
 2248SOL    HW2 7644   0.217   6.532   0.028 -0.8077 -1.0003  0.6090
 2249SOL     OW 7645   6.240   0.868   2.914  0.5415 -0.1076  0.6233
 2249SOL    HW1 7646   6.253   0.900   3.007 -1.3075  0.4438  0.7353
 2249SOL    HW2 7647   6.288   0.781   2.901  1.0500 -0.0447  1.9785
 2250SOL     OW 7648   5.877   4.338   6.765  0.6677  0.4746  0.5073
 2250SOL    HW1 7649   5.969   4.377   6.760  0.1701  1.6010 -0.5600
 2250SOL    HW2 7650   5.829   4.376   6.844  0.6214  1.0698  0.2015
 2251SOL     OW 7651   4.224   1.909   1.281  0.3237 -0.1770  0.0343
 2251SOL    HW1 7652   4.144   1.955   1.320 -0.3952 -1.6127  0.3304
 2251SOL    HW2 7653   4.270   1.857   1.353  1.1986  0.1657 -0.2624
 2252SOL     OW 7654   1.366   6.866   2.141 -0.4165  0.2274 -0.9684
 2252SOL    HW1 7655   1.404   6.836   2.229 -2.3699 -1.2325 -0.5505
 2252SOL    HW2 7656   1.357   6.966   2.141 -0.0265  0.2863  0.3521
 2253SOL     OW 7657   0.769   3.563   0.575 -0.4324  0.2082  0.3721
 2253SOL    HW1 7658   0.695   3.585   0.639  0.1989  0.3593  1.0731
 2253SOL    HW2 7659   0.820   3.484   0.609 -0.2501  0.1241 -0.0863
 2254SOL     OW 7660   0.143   4.256   6.314  0.5109 -0.2367 -0.1885
 2254SOL    HW1 7661   0.058   4.213   6.285  1.2572 -1.0580 -1.2572
 2254SOL    HW2 7662   0.208   4.257   6.238  1.2063  1.0628  0.3811
 2255SOL     OW 7663   1.394   3.022   5.301  0.5832 -1.0539  0.3224
 2255SOL    HW1 7664   1.453   3.102   5.291 -0.2039 -0.4118  0.6440
 2255SOL    HW2 7665   1.314   3.047   5.357 -0.5838 -1.5638 -1.0553
 2256SOL     OW 7666   3.540   1.846   1.185 -0.0621  0.6611  0.1329
 2256SOL    HW1 7667   3.493   1.925   1.223  0.5696  1.1401 -0.0591
 2256SOL    HW2 7668   3.637   1.849   1.211 -0.2029 -0.5245  0.8723
 2257SOL     OW 7669   6.092   4.471   3.034  0.3786 -0.0578  0.1541
 2257SOL    HW1 7670   6.096   4.478   3.134  1.8086  2.4986  0.0219
 2257SOL    HW2 7671   5.997   4.471   3.003 -0.0618  0.0746  1.4688
 2258SOL     OW 7672   6.900   5.881   4.675  0.1470  0.1853 -0.4079
 2258SOL    HW1 7673   6.867   5.929   4.594  0.1972  1.3537  0.2419
 2258SOL    HW2 7674   6.993   5.910   4.695  0.1168 -0.0581  0.0971
 2259SOL     OW 7675   1.135   6.307   4.890  0.5323  0.9382 -0.2845
 2259SOL    HW1 7676   1.188   6.292   4.807 -2.4718  0.4853 -2.2485
 2259SOL    HW2 7677   1.123   6.221   4.939  0.3002  0.7524 -0.6677
 2260SOL     OW 7678   1.772   3.217   6.888  1.1939  0.2940 -0.2197
 2260SOL    HW1 7679   1.769   3.314   6.862  2.5897  0.5364  0.4256
 2260SOL    HW2 7680   1.835   3.206   6.965  0.8130 -1.0940 -0.0938
 2261SOL     OW 7681   3.627   0.019   5.188  0.0096  0.2104 -0.3943
 2261SOL    HW1 7682   3.590  -0.061   5.234 -0.0060  0.0049 -0.7602
 2261SOL    HW2 7683   3.554   0.067   5.139 -0.2909  1.3502  1.1139
 2262SOL     OW 7684   1.905   2.352   3.134 -0.0405 -0.0877  0.4441
 2262SOL    HW1 7685   1.861   2.440   3.116  1.7849  0.2179 -3.7923
 2262SOL    HW2 7686   1.852   2.279   3.092  0.2197 -0.5756  0.9473
 2263SOL     OW 7687   5.015   0.134   5.217 -1.1864  0.0051  0.2344
 2263SOL    HW1 7688   5.012   0.034   5.210 -0.1853 -0.4160  3.7286
 2263SOL    HW2 7689   4.961   0.163   5.296 -0.7622  2.1763 -0.2181
 2264SOL     OW 7690   0.829   5.050   4.993 -0.3568  0.5787 -0.0924
 2264SOL    HW1 7691   0.881   5.124   5.035  0.8331 -0.4429  0.2941
 2264SOL    HW2 7692   0.733   5.057   5.020  0.0029  1.1529  1.0954
 2265SOL     OW 7693   1.519   4.292   6.525 -0.1496  0.3970  0.2425
 2265SOL    HW1 7694   1.498   4.389   6.510 -1.3871  0.0510 -0.4009
 2265SOL    HW2 7695   1.459   4.256   6.596  0.2663  0.0872  0.4353
 2266SOL     OW 7696   3.969   1.407   5.020 -0.0190 -0.7205 -0.1397
 2266SOL    HW1 7697   3.951   1.499   5.056  0.7501 -0.8046  0.4855
 2266SOL    HW2 7698   3.905   1.387   4.946 -0.9478 -0.1299  0.4834
 2267SOL     OW 7699   1.902   5.052   6.123 -0.0110 -0.0395  0.7214
 2267SOL    HW1 7700   1.884   5.078   6.028  1.4049  1.6912  0.8707
 2267SOL    HW2 7701   1.827   4.996   6.157 -2.5857  2.5785 -0.1979
 2268SOL     OW 7702   0.154   2.335   5.210 -0.1167  0.0726 -0.8119
 2268SOL    HW1 7703   0.200   2.368   5.128  1.1783 -1.0970 -0.5783
 2268SOL    HW2 7704   0.215   2.277   5.263 -0.4784  1.7511  1.6628
 2269SOL     OW 7705   4.944   3.529   3.964  0.0088 -0.5039 -1.1929
 2269SOL    HW1 7706   4.915   3.446   4.012 -1.3814 -0.6375 -2.2097
 2269SOL    HW2 7707   4.923   3.609   4.021  0.7354 -0.7913 -0.4995
 2270SOL     OW 7708   5.393   3.930   0.217 -0.3407 -0.0714 -0.5298
 2270SOL    HW1 7709   5.453   3.968   0.287 -0.8261 -1.1642  0.5201
 2270SOL    HW2 7710   5.425   3.838   0.192  1.1346  1.0757 -3.3976
 2271SOL     OW 7711   0.484   1.798   3.333  0.0203  0.0194 -0.0354
 2271SOL    HW1 7712   0.443   1.869   3.276 -1.3348 -0.0089  0.8664
 2271SOL    HW2 7713   0.439   1.711   3.315  0.2389 -0.1812  0.3819
 2272SOL     OW 7714   3.750   0.507   3.210 -0.6817 -0.0148  0.4459
 2272SOL    HW1 7715   3.759   0.436   3.280 -0.7898  0.3092  0.7917
 2272SOL    HW2 7716   3.683   0.575   3.240 -0.5681  0.2417  0.1222
 2273SOL     OW 7717   5.908   0.827   5.870  0.5491  0.4690 -0.4338
 2273SOL    HW1 7718   5.835   0.762   5.891  1.2771 -0.4612 -0.7370
 2273SOL    HW2 7719   5.925   0.884   5.951 -0.7468  0.9465 -0.4787
 2274SOL     OW 7720   0.671   4.952   0.468  0.1707  0.5033  0.3188
 2274SOL    HW1 7721   0.614   4.879   0.431  0.3765  0.4660  0.0700
 2274SOL    HW2 7722   0.736   4.983   0.398  0.1059  0.9044  0.4309
 2275SOL     OW 7723   2.546   5.644   0.262 -0.0015  0.4535  0.4003
 2275SOL    HW1 7724   2.599   5.677   0.184 -2.4812  1.5902 -0.9188
 2275SOL    HW2 7725   2.553   5.709   0.338  0.8620  0.3248  0.4390
 2276SOL     OW 7726   3.592   4.519   0.778  0.8096 -0.6010 -0.0192
 2276SOL    HW1 7727   3.584   4.474   0.867 -0.5468 -0.6816 -0.1572
 2276SOL    HW2 7728   3.629   4.456   0.711  0.5840 -0.9629  0.1945
 2277SOL     OW 7729   4.753   6.176   5.927  0.6371 -0.0856  0.2016
 2277SOL    HW1 7730   4.754   6.215   6.019 -0.4171  0.4063  0.0168
 2277SOL    HW2 7731   4.790   6.083   5.930  1.4701  0.2505  0.9571
 2278SOL     OW 7732   4.627   3.815   0.800 -0.6849  0.1249  0.0908
 2278SOL    HW1 7733   4.579   3.853   0.878 -1.9824  0.9752 -1.0843
 2278SOL    HW2 7734   4.587   3.850   0.715 -0.4637 -2.0938 -1.0160
 2279SOL     OW 7735   0.574   2.376   1.476 -0.4949 -0.7420 -0.2822
 2279SOL    HW1 7736   0.575   2.363   1.575  2.4351 -0.2524 -0.1407
 2279SOL    HW2 7737   0.543   2.293   1.431 -0.3201 -1.5467  1.0339
 2280SOL     OW 7738   5.772   3.845   6.171 -0.3523  0.1738 -0.6543
 2280SOL    HW1 7739   5.756   3.882   6.262  0.5327  1.2516 -0.9118
 2280SOL    HW2 7740   5.746   3.749   6.169 -0.9887  0.3035  0.5502
 2281SOL     OW 7741   3.825   1.811   4.751  0.2345  0.1389 -0.1116
 2281SOL    HW1 7742   3.774   1.811   4.665 -0.3984  1.0846  0.2399
 2281SOL    HW2 7743   3.879   1.895   4.756  0.2436  0.1004  0.4228
 2282SOL     OW 7744   5.814   0.442   2.097 -1.0262 -0.0627  0.9841
 2282SOL    HW1 7745   5.785   0.350   2.124 -1.5581 -0.3168 -0.3716
 2282SOL    HW2 7746   5.783   0.508   2.164 -0.9725 -0.8241  1.7828
 2283SOL     OW 7747   2.027   0.827   3.013 -0.3965 -0.3639 -0.0210
 2283SOL    HW1 7748   2.124   0.833   2.990 -0.6566 -1.7723 -1.6397
 2283SOL    HW2 7749   2.015   0.850   3.110  1.5585 -0.3409  0.2601
 2284SOL     OW 7750   1.184   1.687   4.124 -0.5226 -0.3726 -0.1063
 2284SOL    HW1 7751   1.196   1.595   4.162 -0.8354 -0.2101  0.3959
 2284SOL    HW2 7752   1.270   1.718   4.084  0.6375  0.4981  2.7711
 2285SOL     OW 7753   4.209   6.055   6.028  0.2064 -0.1298  0.2986
 2285SOL    HW1 7754   4.234   6.148   6.054  1.7379 -0.0103 -1.3505
 2285SOL    HW2 7755   4.158   6.057   5.942  0.7016 -0.8146 -0.0258
 2286SOL     OW 7756   5.159   0.480   1.225 -0.2700 -0.6964  0.5463
 2286SOL    HW1 7757   5.211   0.419   1.285 -0.3845 -0.8449  0.4954
 2286SOL    HW2 7758   5.062   0.458   1.232 -0.5843  1.0023  2.3006
 2287SOL     OW 7759   6.483   0.691   1.423 -0.1014  0.6268  0.5291
 2287SOL    HW1 7760   6.566   0.655   1.380  0.3429  0.6371  1.3465
 2287SOL    HW2 7761   6.440   0.757   1.362 -1.0618 -1.3869 -1.1184
 2288SOL     OW 7762   0.606   0.119   4.858  0.2956  0.2651 -0.4676
 2288SOL    HW1 7763   0.510   0.145   4.851  0.2420  0.0934 -0.3720
 2288SOL    HW2 7764   0.664   0.200   4.851  0.0442  0.8052  2.5571
 2289SOL     OW 7765   1.980   4.326   3.034  0.3262 -0.2073 -0.0355
 2289SOL    HW1 7766   1.987   4.232   3.069 -0.6490 -0.7204 -1.1488
 2289SOL    HW2 7767   1.959   4.323   2.936 -0.7715  1.1705  0.1353
 2290SOL     OW 7768   3.693   3.129   7.010 -0.1343 -0.0002  0.7852
 2290SOL    HW1 7769   3.622   3.154   7.076  1.3746  2.3734  1.6382
 2290SOL    HW2 7770   3.721   3.034   7.027 -3.9396 -1.5785 -0.5275
 2291SOL     OW 7771   2.594   0.270   3.622 -0.7717  0.2468 -0.4205
 2291SOL    HW1 7772   2.622   0.315   3.706 -0.3449 -0.4857 -0.1559
 2291SOL    HW2 7773   2.513   0.316   3.584 -2.2104 -0.6024  1.4508
 2292SOL     OW 7774   2.858   1.964   1.291 -0.5671 -0.5252  0.7394
 2292SOL    HW1 7775   2.866   1.874   1.248 -2.2468  0.3232 -1.5758
 2292SOL    HW2 7776   2.948   2.008   1.291 -0.3666 -0.7775 -1.5942
 2293SOL     OW 7777   4.642   4.724   5.206  0.3759  0.2406 -0.2919
 2293SOL    HW1 7778   4.651   4.771   5.294  0.7075 -1.1643  0.4727
 2293SOL    HW2 7779   4.633   4.625   5.223 -1.6051  0.1157 -1.7367
 2294SOL     OW 7780   5.546   1.365   1.892  0.5178  0.2307 -0.0081
 2294SOL    HW1 7781   5.453   1.397   1.874  0.8854  0.8734 -0.8651
 2294SOL    HW2 7782   5.599   1.440   1.932  1.0699  0.3585 -0.9385
 2295SOL     OW 7783   3.065   1.831   3.139 -0.1099 -0.0144  0.1116
 2295SOL    HW1 7784   3.023   1.816   3.050  1.2600  0.8789 -0.7335
 2295SOL    HW2 7785   3.155   1.787   3.141  0.6328  1.4402  0.3716
 2296SOL     OW 7786   5.097   6.934   5.583 -0.5003 -0.1059 -0.3979
 2296SOL    HW1 7787   5.122   6.987   5.502 -1.0667  1.5595  0.4702
 2296SOL    HW2 7788   5.168   6.867   5.603 -0.2826 -0.4368 -2.1606
 2297SOL     OW 7789   5.417   4.489   2.460  0.0287 -0.2408  0.2431
 2297SOL    HW1 7790   5.499   4.538   2.489  1.2942 -0.4904 -2.5514
 2297SOL    HW2 7791   5.423   4.394   2.488  0.4648 -0.1597  0.4276
 2298SOL     OW 7792   3.444   1.459   0.229  0.6307  0.3015 -0.3146
 2298SOL    HW1 7793   3.417   1.523   0.157 -0.4095 -0.1845 -0.3832
 2298SOL    HW2 7794   3.369   1.447   0.294  0.3762 -1.6129 -0.8826
 2299SOL     OW 7795   6.265   5.556   6.116 -0.1577 -0.2267  0.0200
 2299SOL    HW1 7796   6.292   5.544   6.212 -2.9617  1.3327  1.1240
 2299SOL    HW2 7797   6.286   5.649   6.087  0.7402 -0.7127 -0.9520
 2300SOL     OW 7798   6.344   5.592   6.401 -0.1699  0.1485 -0.1618
 2300SOL    HW1 7799   6.426   5.629   6.446 -0.1380 -0.8838  0.6847
 2300SOL    HW2 7800   6.299   5.528   6.463 -2.5495  1.8931  0.0280
 2301SOL     OW 7801   5.812   6.153   0.845 -0.7821 -0.1576 -0.0468
 2301SOL    HW1 7802   5.854   6.196   0.765  1.3946  0.2708  1.2411
 2301SOL    HW2 7803   5.731   6.205   0.872 -1.0317  0.2072 -1.4345
 2302SOL     OW 7804   4.428   5.706   5.144  0.5090  0.0552  0.4984
 2302SOL    HW1 7805   4.368   5.627   5.152  1.0768 -0.2901  1.4831
 2302SOL    HW2 7806   4.492   5.708   5.221  1.9090  0.2997 -0.6177
 2303SOL     OW 7807   1.661   0.258   6.100  0.7717  0.2577 -0.4391
 2303SOL    HW1 7808   1.627   0.263   6.194  0.3847  0.1891 -0.5726
 2303SOL    HW2 7809   1.760   0.243   6.101  0.9765  1.5594 -0.0475
 2304SOL     OW 7810   0.076   3.117   0.729 -0.4750 -0.3020 -0.1752
 2304SOL    HW1 7811   0.113   3.126   0.637  0.4400  2.2821  0.3899
 2304SOL    HW2 7812   0.118   3.038   0.774  1.6738  0.4174 -0.8021
 2305SOL     OW 7813   2.736   7.010   5.230 -0.2749 -0.4723 -0.0985
 2305SOL    HW1 7814   2.807   7.075   5.204 -2.2749  3.4626  3.0999
 2305SOL    HW2 7815   2.652   7.031   5.179 -0.8074 -0.8714  0.5992
 2306SOL     OW 7816   4.108   5.010   3.172 -0.3592  0.4012 -0.3896
 2306SOL    HW1 7817   4.139   4.915   3.179  0.0452  0.6005  0.9287
 2306SOL    HW2 7818   4.185   5.068   3.147 -0.3369  0.5207 -0.0513
 2307SOL     OW 7819   0.766   3.890   2.573  0.8834 -0.2122 -0.2848
 2307SOL    HW1 7820   0.836   3.831   2.613  1.4683  0.5266 -0.2068
 2307SOL    HW2 7821   0.712   3.933   2.646 -0.9966 -2.3014 -0.3275
 2308SOL     OW 7822   0.944   3.692   1.674  0.4079  0.0251 -0.0903
 2308SOL    HW1 7823   1.000   3.633   1.617 -0.6078  0.2016 -1.3076
 2308SOL    HW2 7824   0.896   3.758   1.617 -0.6915  0.1731  0.9656
 2309SOL     OW 7825   2.397   4.327   2.343 -0.1096 -0.0320  0.0785
 2309SOL    HW1 7826   2.403   4.340   2.244 -0.2499 -0.6126 -0.0084
 2309SOL    HW2 7827   2.322   4.265   2.365  0.4210 -0.5535  0.4903
 2310SOL     OW 7828   3.466   3.813   5.425 -0.0312  0.3278  0.7210
 2310SOL    HW1 7829   3.401   3.887   5.408  1.8523  1.6262 -1.3046
 2310SOL    HW2 7830   3.445   3.736   5.365 -0.7731 -0.0209  1.4024
 2311SOL     OW 7831   1.203   6.974   0.609 -0.7343  0.1724  0.0197
 2311SOL    HW1 7832   1.299   7.003   0.611  0.3969 -3.0556 -1.1154
 2311SOL    HW2 7833   1.146   7.049   0.576  1.0252  2.8399  2.5191
 2312SOL     OW 7834   6.532   3.397   3.161 -0.7224  0.1256  0.1119
 2312SOL    HW1 7835   6.537   3.479   3.218  1.4499  1.1179 -1.3887
 2312SOL    HW2 7836   6.464   3.335   3.200 -1.4148  1.9741  2.1134
 2313SOL     OW 7837   2.892   5.415   2.142 -0.6508 -0.2540  0.0218
 2313SOL    HW1 7838   2.944   5.356   2.081  0.6928  0.5487  0.3408
 2313SOL    HW2 7839   2.829   5.360   2.197  0.3575 -1.3437  0.1137
 2314SOL     OW 7840   6.291   4.642   3.106  0.3036  0.6842 -0.1076
 2314SOL    HW1 7841   6.247   4.730   3.089  0.0582  0.4750 -0.5695
 2314SOL    HW2 7842   6.224   4.568   3.097  0.6946  0.3803 -0.6120
 2315SOL     OW 7843   6.514   1.428   0.828 -0.0987 -0.2046 -0.4485
 2315SOL    HW1 7844   6.456   1.386   0.759 -0.7943 -0.8252  0.4973
 2315SOL    HW2 7845   6.467   1.428   0.916  0.1074  2.0507 -0.2801
 2316SOL     OW 7846   0.710   6.582   0.072  0.2302  0.7773 -0.4863
 2316SOL    HW1 7847   0.762   6.559   0.153  0.2810  0.2110 -0.6752
 2316SOL    HW2 7848   0.628   6.524   0.067  0.6819  0.1741 -1.2930
 2317SOL     OW 7849   4.909   3.764   0.847  0.5084 -0.3054  0.0042
 2317SOL    HW1 7850   4.839   3.715   0.795  1.2882 -1.4058 -0.0249
 2317SOL    HW2 7851   4.874   3.855   0.871 -0.9880 -0.8837  0.1410
 2318SOL     OW 7852   0.396   2.794   3.163  0.1241 -0.0825  0.6363
 2318SOL    HW1 7853   0.450   2.808   3.246 -0.6653  0.3828  1.0849
 2318SOL    HW2 7854   0.311   2.847   3.170  0.1931  0.2024 -0.6021
 2319SOL     OW 7855   1.762   5.462   5.716 -0.0595  0.0447  0.2254
 2319SOL    HW1 7856   1.674   5.463   5.765 -0.3320 -1.9900 -0.1361
 2319SOL    HW2 7857   1.746   5.487   5.621  0.2875  2.7715  0.7883
 2320SOL     OW 7858   1.248   3.803   2.850 -0.1197  0.1447  0.3109
 2320SOL    HW1 7859   1.291   3.877   2.902 -0.3066  0.0601  0.5891
 2320SOL    HW2 7860   1.267   3.816   2.753 -0.9021  1.0568  0.2659
 2321SOL     OW 7861   5.802   6.424   4.374 -0.0839 -0.0622  0.2213
 2321SOL    HW1 7862   5.781   6.335   4.414  0.5228 -0.9440 -1.3149
 2321SOL    HW2 7863   5.880   6.464   4.422 -0.6982 -0.0876  1.2759
 2322SOL     OW 7864   6.666   4.895   2.257 -0.0196  0.3686 -0.1193
 2322SOL    HW1 7865   6.685   4.809   2.305  0.8511 -0.5681 -2.0580
 2322SOL    HW2 7866   6.598   4.878   2.186  1.1911  0.9443 -1.4511
 2323SOL     OW 7867   3.260   1.564   0.459  0.1482 -0.0402 -0.1139
 2323SOL    HW1 7868   3.232   1.490   0.521  1.6012 -0.0997  0.5050
 2323SOL    HW2 7869   3.314   1.631   0.509  1.5546 -0.2041 -1.3545
 2324SOL     OW 7870   3.933   0.181   4.182 -0.5427  0.2264 -0.3333
 2324SOL    HW1 7871   3.951   0.234   4.099 -1.6326  0.3378 -0.5168
 2324SOL    HW2 7872   3.834   0.174   4.196 -0.6501 -3.8269 -1.7095
 2325SOL     OW 7873   3.656   0.670   4.303  0.0861 -0.2756 -0.0785
 2325SOL    HW1 7874   3.721   0.681   4.228  0.8403  1.0325  0.7225
 2325SOL    HW2 7875   3.625   0.760   4.333 -0.4686 -0.7970  0.9514
 2326SOL     OW 7876   2.257   0.334   0.671 -0.7540  0.0228 -0.1562
 2326SOL    HW1 7877   2.161   0.349   0.647 -0.7506  0.3438  0.0273
 2326SOL    HW2 7878   2.291   0.412   0.725 -0.6637 -0.5231  0.5950
 2327SOL     OW 7879   2.162   5.324   2.199 -0.3906  0.7189 -0.2564
 2327SOL    HW1 7880   2.157   5.299   2.296 -0.8070 -0.4473 -0.5659
 2327SOL    HW2 7881   2.258   5.328   2.171 -0.2398  1.7184  0.3517
 2328SOL     OW 7882   1.314   5.692   0.201 -1.0113 -0.2297  0.4539
 2328SOL    HW1 7883   1.392   5.751   0.223 -1.8980  0.9795  0.4263
 2328SOL    HW2 7884   1.236   5.717   0.258 -1.5739 -1.0112  0.0415
 2329SOL     OW 7885   2.526   1.528   0.935 -0.1280  0.0581  0.5054
 2329SOL    HW1 7886   2.510   1.600   0.868 -1.8272  0.3961  1.2400
 2329SOL    HW2 7887   2.527   1.439   0.889 -1.7231  0.2472  0.0600
 2330SOL     OW 7888   2.184   4.166   0.415  0.0101  0.6422 -0.1608
 2330SOL    HW1 7889   2.249   4.193   0.486 -1.2666  1.8558  0.6100
 2330SOL    HW2 7890   2.216   4.082   0.370  1.8345  0.9400  0.4973
 2331SOL     OW 7891   2.019   2.846   6.595  0.2546  0.8015  0.4431
 2331SOL    HW1 7892   1.931   2.829   6.550  0.9809  0.0382 -0.7528
 2331SOL    HW2 7893   2.020   2.939   6.631 -0.5227  1.3246 -0.8049
 2332SOL     OW 7894   2.857   4.818   5.226  0.0381  0.5241  0.4347
 2332SOL    HW1 7895   2.771   4.870   5.230 -0.9371 -0.9612 -0.2122
 2332SOL    HW2 7896   2.838   4.727   5.189  1.6919 -0.2899  1.5267
 2333SOL     OW 7897   6.743   4.575   5.502 -0.2496 -0.0767  1.1887
 2333SOL    HW1 7898   6.681   4.530   5.438 -0.3867  0.9097  0.5974
 2333SOL    HW2 7899   6.763   4.514   5.578 -1.8619 -0.4575  1.3433
 2334SOL     OW 7900   1.320   3.070   6.575  0.0915 -0.7870  0.7696
 2334SOL    HW1 7901   1.246   3.104   6.517 -0.4409  0.7913  2.3023
 2334SOL    HW2 7902   1.281   3.034   6.661  0.9561 -1.9244  0.7126
 2335SOL     OW 7903   3.505   4.625   6.523 -0.2381  0.2736 -0.2778
 2335SOL    HW1 7904   3.445   4.556   6.482  0.0437  0.5641 -1.2019
 2335SOL    HW2 7905   3.461   4.715   6.520 -0.3259  0.2575  0.3148
 2336SOL     OW 7906   4.119   0.602   3.834  0.0200 -0.4762  0.7149
 2336SOL    HW1 7907   4.169   0.536   3.890 -0.5508  0.3352  2.2308
 2336SOL    HW2 7908   4.102   0.685   3.887 -1.1593  0.0527 -0.4301
 2337SOL     OW 7909   6.861   3.850   1.989 -0.0539 -0.3039  0.0918
 2337SOL    HW1 7910   6.915   3.794   1.926 -0.1385 -1.5035  1.0500
 2337SOL    HW2 7911   6.921   3.886   2.060  0.0590  1.1269 -0.7024
 2338SOL     OW 7912   0.379   6.244   3.437 -0.0637  0.4543  0.4739
 2338SOL    HW1 7913   0.328   6.205   3.514  2.0814  0.1172  1.8300
 2338SOL    HW2 7914   0.358   6.194   3.354 -0.7496 -0.6898  1.3024
 2339SOL     OW 7915   6.132   1.733   1.719  0.0479 -0.1153  0.5297
 2339SOL    HW1 7916   6.053   1.703   1.773 -0.9488 -0.1473 -0.8906
 2339SOL    HW2 7917   6.111   1.725   1.621  1.7124  0.1625  0.1149
 2340SOL     OW 7918   0.501   5.843   0.161  0.0840  0.5250 -0.0545
 2340SOL    HW1 7919   0.535   5.758   0.203  0.0310  0.1920 -0.6684
 2340SOL    HW2 7920   0.411   5.865   0.198 -0.1399  0.0128 -0.2737
 2341SOL     OW 7921   4.636   1.359   5.017  0.2307 -0.3468  0.0068
 2341SOL    HW1 7922   4.713   1.423   5.008  0.0645  0.0165  0.9556
 2341SOL    HW2 7923   4.582   1.360   4.934  1.6163 -1.1067 -0.9468
 2342SOL     OW 7924   5.537   4.342   3.882  0.2234 -0.6159 -0.1538
 2342SOL    HW1 7925   5.545   4.391   3.795 -0.8860  0.4206  0.2903
 2342SOL    HW2 7926   5.600   4.382   3.949  1.3485 -1.6545 -0.5540
 2343SOL     OW 7927   2.811   2.060   0.203  0.5728  0.3115  0.4258
 2343SOL    HW1 7928   2.845   2.038   0.112 -0.4680 -0.4620  0.2036
 2343SOL    HW2 7929   2.744   2.134   0.196  0.9106  0.6428  0.6438
 2344SOL     OW 7930   2.984   2.128   3.896  0.2962  0.5052  0.2199
 2344SOL    HW1 7931   3.040   2.129   3.814  1.5277  2.3926  1.0195
 2344SOL    HW2 7932   2.905   2.188   3.884  0.1960  0.3823  0.2521
 2345SOL     OW 7933   2.365   3.089   0.368 -0.2474  0.6126  0.5757
 2345SOL    HW1 7934   2.341   3.096   0.272  1.9859 -1.1171 -0.1956
 2345SOL    HW2 7935   2.432   3.159   0.392  2.5888 -1.5862 -0.4030
 2346SOL     OW 7936   6.541   2.293   2.901 -0.8699 -0.3004  0.0241
 2346SOL    HW1 7937   6.579   2.345   2.977 -0.0065 -1.0066  0.0969
 2346SOL    HW2 7938   6.444   2.274   2.918 -0.4215 -1.4425  1.5266
 2347SOL     OW 7939   6.840   1.707   0.345 -0.3199  0.0662  0.7189
 2347SOL    HW1 7940   6.818   1.737   0.252 -1.3220 -1.3298  0.4864
 2347SOL    HW2 7941   6.883   1.783   0.394  1.3163  0.4831 -1.2241
 2348SOL     OW 7942   3.512   6.049   6.715  0.4288 -0.2362  0.9670
 2348SOL    HW1 7943   3.504   5.949   6.709 -0.5254 -0.0994 -0.9645
 2348SOL    HW2 7944   3.605   6.077   6.694  0.0443 -0.6249 -1.6359
 2349SOL     OW 7945   5.652   6.704   6.900  0.2399  0.1334 -0.3375
 2349SOL    HW1 7946   5.595   6.780   6.932 -0.3909 -0.6661  0.4593
 2349SOL    HW2 7947   5.709   6.736   6.824  0.3292  1.5303  0.2861
 2350SOL     OW 7948   0.601   1.243   1.154 -0.0246  0.2433  0.2086
 2350SOL    HW1 7949   0.509   1.211   1.178 -0.0294  1.1928  1.5760
 2350SOL    HW2 7950   0.595   1.334   1.114  0.3371  0.5278  0.7771
 2351SOL     OW 7951   4.775   5.459   4.928 -0.0409 -0.1219  0.1410
 2351SOL    HW1 7952   4.704   5.516   4.969  0.3980  1.0968 -0.7404
 2351SOL    HW2 7953   4.856   5.515   4.910  0.5146 -1.1012 -0.4615
 2352SOL     OW 7954   5.529   0.526   5.829  0.7815 -0.4084 -0.5483
 2352SOL    HW1 7955   5.436   0.504   5.858  0.8110  1.2696  1.0536
 2352SOL    HW2 7956   5.545   0.490   5.738 -1.9016  0.3489 -1.4298
 2353SOL     OW 7957   4.203   2.522   0.983  0.3175 -0.2635 -0.0044
 2353SOL    HW1 7958   4.158   2.609   1.001  0.5641 -0.2737  0.7214
 2353SOL    HW2 7959   4.290   2.538   0.937 -0.3764 -0.2405 -1.3739
 2354SOL     OW 7960   4.066   4.723   0.470  0.3982 -0.4715  0.0935
 2354SOL    HW1 7961   4.159   4.721   0.507 -0.1080  1.5699  1.6923
 2354SOL    HW2 7962   4.006   4.668   0.529  0.1616  0.2305  0.5182
 2355SOL     OW 7963   4.275   2.479   5.783 -0.1946  0.2490  0.4284
 2355SOL    HW1 7964   4.311   2.436   5.701 -1.6208  0.1892 -0.1948
 2355SOL    HW2 7965   4.233   2.567   5.759 -0.7934  0.1439  1.0448
 2356SOL     OW 7966   2.110   4.834   2.690 -0.1547  0.6723  0.3112
 2356SOL    HW1 7967   2.113   4.927   2.728 -1.5807  0.4859  0.9400
 2356SOL    HW2 7968   2.139   4.769   2.760  0.5098  0.6098 -0.0197
 2357SOL     OW 7969   4.246   1.560   2.983 -0.3073  0.4696 -0.5257
 2357SOL    HW1 7970   4.163   1.613   2.965 -0.3014  0.5388 -0.3478
 2357SOL    HW2 7971   4.260   1.553   3.082 -0.1153  0.4363 -0.5559
 2358SOL     OW 7972   2.883   1.523   2.075 -0.3765 -0.3173  0.3579
 2358SOL    HW1 7973   2.978   1.553   2.077  0.1858 -1.8992 -0.7628
 2358SOL    HW2 7974   2.868   1.454   2.146 -0.8910  0.4187  0.9843
 2359SOL     OW 7975   0.674   0.864   4.942  0.4038 -0.2390  0.1045
 2359SOL    HW1 7976   0.744   0.898   5.004  2.0515  0.4676 -2.0207
 2359SOL    HW2 7977   0.685   0.765   4.930  0.4042 -0.2915  0.5281
 2360SOL     OW 7978   6.694   3.988   3.606  0.4440 -0.3088  0.5948
 2360SOL    HW1 7979   6.736   3.999   3.696 -1.4039  0.1746  1.4300
 2360SOL    HW2 7980   6.751   4.034   3.538  1.6799 -0.3679  1.5448
 2361SOL     OW 7981   3.900   0.408   2.893  0.4444 -0.7854  0.3113
 2361SOL    HW1 7982   3.860   0.339   2.953 -2.0187 -0.5411 -0.9078
 2361SOL    HW2 7983   3.917   0.492   2.945  0.1658 -1.1782  1.0483
 2362SOL     OW 7984   4.059   0.088   6.857  0.3240  0.6309 -0.6824
 2362SOL    HW1 7985   4.088   0.006   6.906 -0.0625  0.2802 -1.0315
 2362SOL    HW2 7986   3.987   0.064   6.792 -1.4113  1.6355  0.8128
 2363SOL     OW 7987   4.558   1.941   3.782  0.5455  0.5189 -0.2358
 2363SOL    HW1 7988   4.613   1.997   3.844  1.2806  0.9440 -1.2464
 2363SOL    HW2 7989   4.492   1.888   3.835  0.5783  1.5001  0.8397
 2364SOL     OW 7990   2.138   3.955   4.516  0.0492 -0.4032 -0.7433
 2364SOL    HW1 7991   2.170   3.960   4.611 -1.1594  0.4145 -0.3495
 2364SOL    HW2 7992   2.171   3.870   4.474  1.0721 -0.5087  0.2208
 2365SOL     OW 7993   4.031   5.713   4.631 -0.0747  0.2476 -0.0850
 2365SOL    HW1 7994   4.092   5.636   4.612 -0.8813 -0.1772 -1.0805
 2365SOL    HW2 7995   4.070   5.770   4.704  0.6480 -0.9642  0.5032
 2366SOL     OW 7996   2.317   5.647   4.927  0.0972 -0.4497 -0.5031
 2366SOL    HW1 7997   2.234   5.651   4.872 -0.1528  4.1959 -0.1484
 2366SOL    HW2 7998   2.297   5.599   5.013 -2.0882  0.0585 -0.6730
 2367SOL     OW 7999   3.917   0.673   5.982  0.2380 -0.4126 -0.3013
 2367SOL    HW1 8000   3.943   0.711   6.071  0.2722 -2.8587  0.8129
 2367SOL    HW2 8001   3.826   0.632   5.989  1.1351 -2.5790 -0.7179
 2368SOL     OW 8002   2.267   4.564   5.651 -0.2813 -0.4059  0.4485
 2368SOL    HW1 8003   2.345   4.626   5.660 -2.0658  1.8558  0.9975
 2368SOL    HW2 8004   2.194   4.608   5.599 -1.8493 -1.8099  1.3606
 2369SOL     OW 8005   6.763   1.012   0.585 -0.3388  0.7665  0.1224
 2369SOL    HW1 8006   6.799   0.922   0.609  0.6932  0.6443 -1.6638
 2369SOL    HW2 8007   6.775   1.075   0.661 -0.3502 -0.3951  1.1098
 2370SOL     OW 8008   1.562   0.993   4.954  0.0643 -0.3165 -0.2456
 2370SOL    HW1 8009   1.514   1.000   4.866  0.7739  0.3039 -0.5978
 2370SOL    HW2 8010   1.652   0.951   4.940  0.1146 -0.3673  0.2118
 2371SOL     OW 8011   1.176   4.944   1.450  0.3745  0.3828 -0.0638
 2371SOL    HW1 8012   1.247   4.899   1.396  0.8839  1.6601 -0.4828
 2371SOL    HW2 8013   1.217   4.983   1.532 -0.3427 -1.2940  1.1624
 2372SOL     OW 8014   4.721   2.719   4.212 -0.1254 -0.4740 -0.8524
 2372SOL    HW1 8015   4.781   2.789   4.248 -1.2607 -0.5365  1.3603
 2372SOL    HW2 8016   4.669   2.755   4.134 -1.0415  1.3607  0.5390
 2373SOL     OW 8017   4.400   6.725   6.027 -0.2745  0.2400  0.0201
 2373SOL    HW1 8018   4.423   6.757   6.119 -0.6774  2.1283 -0.4993
 2373SOL    HW2 8019   4.371   6.802   5.971  0.2085 -0.8287 -1.7872
 2374SOL     OW 8020   4.873   6.271   2.623  0.4007 -0.0039  0.2716
 2374SOL    HW1 8021   4.865   6.269   2.523  2.5598  1.8420 -0.0361
 2374SOL    HW2 8022   4.921   6.189   2.654  3.0614  1.0474 -0.7310
 2375SOL     OW 8023   0.259   3.786   2.449 -0.0460  0.2584 -0.0768
 2375SOL    HW1 8024   0.253   3.840   2.365  0.5752 -1.1424 -1.0571
 2375SOL    HW2 8025   0.218   3.696   2.434 -1.5491  0.5770  1.6834
 2376SOL     OW 8026   2.596   2.562   5.242 -0.4566  0.3932 -0.0178
 2376SOL    HW1 8027   2.531   2.530   5.172  0.0060 -1.1664  0.2257
 2376SOL    HW2 8028   2.574   2.657   5.266 -1.6222  0.4409 -1.1097
 2377SOL     OW 8029   6.458   3.799   0.980  0.1121  0.2620  0.1546
 2377SOL    HW1 8030   6.455   3.701   0.999 -1.1718  0.5019  1.2759
 2377SOL    HW2 8031   6.522   3.816   0.905  1.6057 -1.2546  1.0158
 2378SOL     OW 8032   3.446   6.276   4.038  0.0447  0.2771 -0.2450
 2378SOL    HW1 8033   3.516   6.263   4.109  0.1420 -2.3463 -0.7363
 2378SOL    HW2 8034   3.462   6.364   3.992  2.3510  0.2538  0.3876
 2379SOL     OW 8035   2.790   6.224   2.246  0.1980  0.0961  0.0185
 2379SOL    HW1 8036   2.812   6.127   2.240  1.9081  0.4667 -0.2634
 2379SOL    HW2 8037   2.747   6.244   2.334  2.9998 -0.3735  1.6033
 2380SOL     OW 8038   4.074   0.737   1.630 -0.0234  0.0325  0.2337
 2380SOL    HW1 8039   4.115   0.817   1.674 -0.2579 -0.1473  0.7899
 2380SOL    HW2 8040   4.125   0.715   1.547  0.1610  0.6388  0.1806
 2381SOL     OW 8041   1.642   3.994   3.978 -0.3668 -0.2630  0.3321
 2381SOL    HW1 8042   1.693   3.988   4.064  0.7804  1.1253 -0.1939
 2381SOL    HW2 8043   1.666   3.916   3.920  1.3637  0.4558  0.0263
 2382SOL     OW 8044   2.338   5.088   6.033 -0.5008  0.0186  0.0742
 2382SOL    HW1 8045   2.277   5.116   6.107 -0.6637  0.6260 -0.2885
 2382SOL    HW2 8046   2.304   5.123   5.946  0.1450  0.0160 -0.1867
 2383SOL     OW 8047   0.681   0.547   3.239  0.1494 -0.4675  0.2301
 2383SOL    HW1 8048   0.652   0.537   3.335 -0.6199  1.0816  0.1970
 2383SOL    HW2 8049   0.731   0.465   3.210 -0.7560 -1.5195  1.5425
 2384SOL     OW 8050   1.436   1.234   1.917 -0.5132  0.4224 -0.4222
 2384SOL    HW1 8051   1.474   1.166   1.980 -2.5121 -0.8879 -0.5419
 2384SOL    HW2 8052   1.501   1.252   1.844  0.4124 -0.7241  0.0875
 2385SOL     OW 8053   4.220   3.945   6.380 -0.2824  0.2109 -0.1262
 2385SOL    HW1 8054   4.201   4.043   6.372  3.1307  0.9484 -0.5778
 2385SOL    HW2 8055   4.217   3.903   6.289  2.4490  0.8825 -0.6029
 2386SOL     OW 8056   0.340   0.079   3.311  0.4215 -0.0202 -0.1457
 2386SOL    HW1 8057   0.333  -0.007   3.259 -0.0376  0.0894 -0.2698
 2386SOL    HW2 8058   0.293   0.069   3.399  1.0640 -0.1540  0.1874
 2387SOL     OW 8059   3.980   6.026   5.864 -0.1959  0.0853 -0.1127
 2387SOL    HW1 8060   3.902   6.084   5.887 -0.6549 -0.4090 -0.3913
 2387SOL    HW2 8061   3.986   6.015   5.765 -1.4142 -2.0522 -0.0048
 2388SOL     OW 8062   1.933   4.298   6.310  0.1872  0.3831  0.1561
 2388SOL    HW1 8063   2.030   4.321   6.306  0.4206 -0.2957  1.3567
 2388SOL    HW2 8064   1.889   4.352   6.382 -0.1665  0.1822  0.0933
 2389SOL     OW 8065   4.679   3.653   1.192  0.5092 -0.5446  0.2662
 2389SOL    HW1 8066   4.582   3.668   1.211  0.9011  1.8368  0.8051
 2389SOL    HW2 8067   4.691   3.634   1.094 -0.3715  1.5169 -0.3168
 2390SOL     OW 8068   1.461   6.157   6.397  0.0839 -0.3871 -0.2793
 2390SOL    HW1 8069   1.476   6.153   6.298 -1.2548  0.1495 -0.5342
 2390SOL    HW2 8070   1.483   6.069   6.438  1.0013 -0.5000 -0.9991
 2391SOL     OW 8071   2.266   6.175   3.857  0.8539  0.0987 -0.1756
 2391SOL    HW1 8072   2.234   6.172   3.762  2.2382 -1.9804 -0.6289
 2391SOL    HW2 8073   2.240   6.091   3.904  0.2352  1.0786  1.3294
 2392SOL     OW 8074   5.857   0.481   3.413  0.3856 -0.5764 -0.0134
 2392SOL    HW1 8075   5.928   0.477   3.343 -1.0242  1.1638 -1.6178
 2392SOL    HW2 8076   5.867   0.565   3.466 -2.1925  1.3205 -2.2913
 2393SOL     OW 8077   4.338   6.527   4.512  0.7730  0.2674  0.5657
 2393SOL    HW1 8078   4.326   6.578   4.427  1.2866 -2.6325 -1.4056
 2393SOL    HW2 8079   4.436   6.523   4.535  0.6971  0.4679  0.9380
 2394SOL     OW 8080   3.435   3.780   0.227  0.0750  0.5287 -0.1897
 2394SOL    HW1 8081   3.436   3.861   0.286 -0.3303  1.5659 -1.5749
 2394SOL    HW2 8082   3.435   3.808   0.131  0.4966 -1.1272 -0.7054
 2395SOL     OW 8083   3.369   2.884   1.805  0.4903  0.4806 -0.3934
 2395SOL    HW1 8084   3.454   2.832   1.812  0.8905  1.2529  0.8199
 2395SOL    HW2 8085   3.374   2.944   1.725  0.8697  0.1560 -0.6188
 2396SOL     OW 8086   0.855   0.084   0.835 -0.3287 -0.5004 -0.0105
 2396SOL    HW1 8087   0.880   0.026   0.912  1.0974 -0.7548 -0.6220
 2396SOL    HW2 8088   0.813   0.168   0.868  0.7363 -0.3787  1.0765
 2397SOL     OW 8089   3.056   5.184   4.392 -0.1969  0.1361 -0.5909
 2397SOL    HW1 8090   2.977   5.159   4.448 -0.8334  1.0320 -1.0617
 2397SOL    HW2 8091   3.073   5.282   4.401 -1.4274  0.6750 -3.3244
 2398SOL     OW 8092   3.419   1.357   0.820  0.2830 -0.1266  0.3563
 2398SOL    HW1 8093   3.462   1.314   0.740  0.7027 -0.9629  1.0149
 2398SOL    HW2 8094   3.458   1.448   0.834  0.6797 -0.2388 -0.0019
 2399SOL     OW 8095   0.717   6.205   4.199  0.3836 -1.1757 -0.6375
 2399SOL    HW1 8096   0.621   6.226   4.212  0.5657  1.3789 -2.6174
 2399SOL    HW2 8097   0.769   6.229   4.281 -0.5580 -2.0704  0.2424
 2400SOL     OW 8098   0.237   5.789   4.298  0.2855  0.0502  0.1015
 2400SOL    HW1 8099   0.292   5.792   4.382 -0.8303  0.5103  0.8352
 2400SOL    HW2 8100   0.172   5.713   4.305  0.6937 -0.3793 -0.6852
 2401SOL     OW 8101   5.109   6.308   6.010  0.3527  0.7133  0.4580
 2401SOL    HW1 8102   5.095   6.211   5.993  1.1384  0.2360  2.3130
 2401SOL    HW2 8103   5.188   6.340   5.958 -0.8067  0.7812 -1.3646
 2402SOL     OW 8104   1.454   5.497   0.078 -0.2708  0.2739  0.6375
 2402SOL    HW1 8105   1.492   5.438   0.150  1.8492  0.9329  0.1388
 2402SOL    HW2 8106   1.399   5.569   0.119 -0.0329 -0.0362  1.5154
 2403SOL     OW 8107   6.328   2.703   2.604  0.2160  0.2749 -0.0926
 2403SOL    HW1 8108   6.260   2.653   2.550 -1.1850 -1.1759  2.7524
 2403SOL    HW2 8109   6.398   2.640   2.637  0.8238  1.0222  0.0800
 2404SOL     OW 8110   3.796   0.642   3.817  0.2913 -0.3019 -0.3331
 2404SOL    HW1 8111   3.809   0.739   3.798 -2.1033 -0.2029 -1.8654
 2404SOL    HW2 8112   3.710   0.611   3.776  1.0762 -3.1255 -0.0634
 2405SOL     OW 8113   5.777   4.927   6.980 -0.4901  0.0950  0.6815
 2405SOL    HW1 8114   5.709   4.882   7.038  0.4423 -2.7594 -0.3175
 2405SOL    HW2 8115   5.862   4.937   7.031 -0.8797  1.4600  1.1206
 2406SOL     OW 8116   6.140   4.299   2.223 -0.3472  0.4242  0.0195
 2406SOL    HW1 8117   6.050   4.272   2.255 -0.5471  0.3124 -0.6147
 2406SOL    HW2 8118   6.185   4.355   2.292 -0.5918 -0.1527  0.6535
 2407SOL     OW 8119   1.012   0.905   2.538  0.1827  0.2986 -0.1558
 2407SOL    HW1 8120   1.058   0.828   2.582 -0.8744 -0.1042  0.2952
 2407SOL    HW2 8121   0.925   0.874   2.500  0.5985  0.8779 -1.6371
 2408SOL     OW 8122   1.749   5.482   3.743 -0.2483 -0.0181  0.1516
 2408SOL    HW1 8123   1.844   5.500   3.766 -0.5316 -0.1220  1.5103
 2408SOL    HW2 8124   1.719   5.398   3.789 -1.3234  0.6437  0.7122
 2409SOL     OW 8125   0.637   6.301   6.225 -0.8881  0.1946 -0.7149
 2409SOL    HW1 8126   0.697   6.352   6.287  1.6502 -0.3520 -2.5893
 2409SOL    HW2 8127   0.542   6.320   6.249 -0.0596  0.8583  2.6003
 2410SOL     OW 8128   2.293   5.791   2.377  0.2231 -0.2312 -0.7081
 2410SOL    HW1 8129   2.277   5.861   2.447 -1.0924 -0.2974 -0.9201
 2410SOL    HW2 8130   2.280   5.701   2.418  1.3870 -0.3452 -0.5688
 2411SOL     OW 8131   2.458   0.588   0.546 -0.4084 -0.5163 -0.0316
 2411SOL    HW1 8132   2.423   0.562   0.455  0.3378  0.8457 -0.7331
 2411SOL    HW2 8133   2.382   0.592   0.611 -1.0354 -0.9662 -0.7188
 2412SOL     OW 8134   0.720   6.748   3.992 -0.1268 -0.6216  0.1903
 2412SOL    HW1 8135   0.682   6.727   3.901  0.8433 -0.0086 -0.3811
 2412SOL    HW2 8136   0.817   6.770   3.982  0.0812 -0.9419  1.4464
 2413SOL     OW 8137   0.471   3.090   3.605 -0.2781 -0.5205  0.0845
 2413SOL    HW1 8138   0.458   3.072   3.703  0.2482  0.3085  0.3230
 2413SOL    HW2 8139   0.441   3.183   3.584  0.6957 -0.2717 -0.2937
 2414SOL     OW 8140   2.578   4.635   4.498  0.2363  0.3693  0.6850
 2414SOL    HW1 8141   2.582   4.646   4.597 -2.0341  0.6207  0.8159
 2414SOL    HW2 8142   2.520   4.556   4.476  0.7944  0.2588 -0.4575
 2415SOL     OW 8143   6.890   4.139   3.481 -0.3572 -0.0990 -0.2128
 2415SOL    HW1 8144   6.892   4.224   3.428  0.9533 -0.5817 -1.0097
 2415SOL    HW2 8145   6.945   4.150   3.563 -2.4785  0.6838  1.1913
 2416SOL     OW 8146   1.081   5.072   0.676 -0.9945  0.1643 -0.1097
 2416SOL    HW1 8147   1.124   5.153   0.636  0.8093 -0.9161 -0.4469
 2416SOL    HW2 8148   1.079   4.999   0.608 -0.2485 -0.8934  0.9856
 2417SOL     OW 8149   3.574   2.139   4.100 -0.0826  0.3574  0.8107
 2417SOL    HW1 8150   3.532   2.135   4.009 -0.5085  0.4298  0.9985
 2417SOL    HW2 8151   3.568   2.232   4.136  0.4979  0.4291  0.7247
 2418SOL     OW 8152   4.104   3.306   3.591  0.0250 -0.6066  0.0798
 2418SOL    HW1 8153   4.092   3.363   3.510 -0.6572  0.4833  0.9178
 2418SOL    HW2 8154   4.145   3.219   3.565 -1.3686 -0.8137 -1.6420
 2419SOL     OW 8155   3.256   5.167   6.909 -0.7865  0.1431 -0.4051
 2419SOL    HW1 8156   3.225   5.234   6.841  1.3022  0.9468 -0.6584
 2419SOL    HW2 8157   3.304   5.093   6.862  1.0235  0.9035  0.1675
 2420SOL     OW 8158   2.844   4.323   6.664 -0.2347 -0.0017 -0.6907
 2420SOL    HW1 8159   2.878   4.330   6.758 -1.2212 -0.0865 -0.3177
 2420SOL    HW2 8160   2.861   4.410   6.616  0.2941  0.0312 -0.4489
 2421SOL     OW 8161   0.907   5.546   5.382  0.0140 -0.0910 -0.8312
 2421SOL    HW1 8162   0.810   5.558   5.401  0.0969 -0.7640  0.0803
 2421SOL    HW2 8163   0.959   5.621   5.423 -0.1088  0.2340 -1.2645
 2422SOL     OW 8164   5.161   5.581   2.347 -0.3364  0.6339  0.1265
 2422SOL    HW1 8165   5.077   5.587   2.294 -0.0235  0.8297 -0.3620
 2422SOL    HW2 8166   5.200   5.489   2.337 -1.6811 -0.2448  2.2352
 2423SOL     OW 8167   6.562   1.367   6.430 -0.1245 -0.2849  0.0726
 2423SOL    HW1 8168   6.509   1.335   6.352  1.7452  0.9331 -1.7755
 2423SOL    HW2 8169   6.633   1.300   6.452  1.4178  0.7922 -1.4177
 2424SOL     OW 8170   5.419   1.390   2.490 -0.4042 -0.6225  0.0396
 2424SOL    HW1 8171   5.322   1.385   2.512 -0.5266 -2.3414 -0.7270
 2424SOL    HW2 8172   5.435   1.467   2.428 -1.4917 -1.0153 -0.7662
 2425SOL     OW 8173   5.015   2.224   0.059 -0.0149 -0.0399 -0.6043
 2425SOL    HW1 8174   4.946   2.295   0.052 -1.2415 -1.2687 -1.7067
 2425SOL    HW2 8175   4.983   2.151   0.119 -0.0106 -0.9261 -1.6329
 2426SOL     OW 8176   2.345   0.861   5.481 -0.8586 -0.2036 -0.8129
 2426SOL    HW1 8177   2.428   0.812   5.453 -0.0941 -0.0795  1.0925
 2426SOL    HW2 8178   2.296   0.805   5.548 -0.6470  1.0468  0.4234
 2427SOL     OW 8179   0.612   1.495   1.753 -1.1740 -0.3409 -0.5354
 2427SOL    HW1 8180   0.555   1.542   1.820 -0.6909 -1.6394  0.8440
 2427SOL    HW2 8181   0.664   1.563   1.700 -0.1239  0.7312  1.7044
 2428SOL     OW 8182   2.173   4.534   3.333 -0.1114 -0.4187  0.2590
 2428SOL    HW1 8183   2.120   4.558   3.252  0.1041 -1.5503 -0.2482
 2428SOL    HW2 8184   2.222   4.448   3.316  0.1560 -0.5301  1.4933
 2429SOL     OW 8185   6.562   0.508   2.460 -0.0887  0.5858 -0.0457
 2429SOL    HW1 8186   6.550   0.421   2.410 -2.1431  0.3971  0.6838
 2429SOL    HW2 8187   6.512   0.580   2.413 -0.7919  0.7355  0.9163
 2430SOL     OW 8188   2.346   4.954   0.121 -0.2881  0.1273  0.0642
 2430SOL    HW1 8189   2.415   4.894   0.080 -1.1607 -0.6317 -0.3284
 2430SOL    HW2 8190   2.341   5.039   0.069 -0.9687 -0.5933 -1.1032
 2431SOL     OW 8191   4.913   0.528   3.735  0.1604 -0.5049  0.6604
 2431SOL    HW1 8192   4.957   0.475   3.664  1.6124 -0.5962  1.5960
 2431SOL    HW2 8193   4.832   0.479   3.768  0.2212 -1.0704 -0.0183
 2432SOL     OW 8194   5.385   3.976   3.079  0.1827 -0.5924  0.0742
 2432SOL    HW1 8195   5.368   3.884   3.043  1.4499 -0.3926 -1.1138
 2432SOL    HW2 8196   5.483   3.989   3.094  0.1445  0.8596 -0.6963
 2433SOL     OW 8197   3.823   6.957   2.753 -0.2000  0.1499 -0.1976
 2433SOL    HW1 8198   3.814   6.860   2.775  0.3982  0.0411 -0.4177
 2433SOL    HW2 8199   3.734   6.993   2.725 -0.4503 -0.3053 -0.0005
 2434SOL     OW 8200   2.208   0.698   0.909 -0.5623  0.2215 -0.2456
 2434SOL    HW1 8201   2.229   0.735   0.818  0.4908 -1.7105 -0.8436
 2434SOL    HW2 8202   2.241   0.762   0.979  0.4561  0.8021 -1.2182
 2435SOL     OW 8203   0.679   4.265   4.208  0.2840 -0.3242 -0.2757
 2435SOL    HW1 8204   0.753   4.302   4.152 -0.3141 -1.1227 -1.6374
 2435SOL    HW2 8205   0.649   4.335   4.274  1.0066  0.6432 -0.9475
 2436SOL     OW 8206   3.087   5.219   3.403  0.1856  0.5849  0.2267
 2436SOL    HW1 8207   3.180   5.203   3.435 -0.4679  0.2643  2.0855
 2436SOL    HW2 8208   3.089   5.275   3.321  2.1439 -1.7056 -1.4360
 2437SOL     OW 8209   6.862   4.366   3.174  0.0051 -0.3294 -0.8601
 2437SOL    HW1 8210   6.857   4.393   3.078  0.0089  2.2772 -0.1816
 2437SOL    HW2 8211   6.954   4.333   3.194  0.5481  0.8233 -1.3550
 2438SOL     OW 8212   1.080   2.427   1.395  0.4350  0.0758  0.0905
 2438SOL    HW1 8213   0.981   2.443   1.392  0.4379  0.2845  0.9250
 2438SOL    HW2 8214   1.098   2.332   1.420  0.4498 -0.4020 -1.5845
 2439SOL     OW 8215   1.081   3.635   0.527 -0.5823 -0.9649 -0.2006
 2439SOL    HW1 8216   1.028   3.565   0.574 -1.0204 -0.2077  0.4623
 2439SOL    HW2 8217   1.158   3.592   0.480 -1.2011 -1.9592 -0.3429
 2440SOL     OW 8218   2.707   5.055   6.202  0.4748  0.2103 -0.0227
 2440SOL    HW1 8219   2.665   5.010   6.280 -0.7785  1.1190 -0.1414
 2440SOL    HW2 8220   2.669   5.018   6.117  1.2124 -0.1804 -0.1915
 2441SOL     OW 8221   5.403   5.204   7.005 -0.5012  0.6649  0.0060
 2441SOL    HW1 8222   5.432   5.233   7.097  1.4768 -0.2273 -0.2810
 2441SOL    HW2 8223   5.362   5.113   7.011 -0.6799  0.7474  0.0443
 2442SOL     OW 8224   1.830   0.134   5.699 -0.3689  0.2194  0.3362
 2442SOL    HW1 8225   1.840   0.055   5.759  0.1373  0.8674  1.1247
 2442SOL    HW2 8226   1.920   0.167   5.672 -0.5638 -0.9211 -1.9839
 2443SOL     OW 8227   2.946   6.691   3.483 -0.2977 -0.7724  0.0317
 2443SOL    HW1 8228   3.039   6.706   3.517  0.1611 -1.6752 -0.7754
 2443SOL    HW2 8229   2.913   6.602   3.515 -1.3127 -0.0007  1.2009
 2444SOL     OW 8230   5.142   2.083   2.924  0.3447 -0.2879  0.6855
 2444SOL    HW1 8231   5.241   2.068   2.922  0.4603  0.2753 -1.9367
 2444SOL    HW2 8232   5.123   2.176   2.955  0.5475 -0.7107  2.1378
 2445SOL     OW 8233   3.698   4.076   5.460 -0.3570  0.3435  0.4577
 2445SOL    HW1 8234   3.738   4.015   5.529 -0.8586 -1.7178 -0.9765
 2445SOL    HW2 8235   3.630   4.136   5.504 -0.7844 -1.0068  1.7330
 2446SOL     OW 8236   3.808   6.043   4.356 -0.0926 -0.1725 -0.2674
 2446SOL    HW1 8237   3.720   6.052   4.402 -0.4812  1.2753 -1.2066
 2446SOL    HW2 8238   3.850   5.956   4.380 -1.6365 -0.7555  0.4375
 2447SOL     OW 8239   5.416   5.694   3.974  0.0224 -0.0737 -0.0564
 2447SOL    HW1 8240   5.461   5.628   3.914 -2.1050 -1.1094 -0.5763
 2447SOL    HW2 8241   5.462   5.694   4.063  0.4521 -1.7976 -0.2371
 2448SOL     OW 8242   1.839   0.733   1.628  0.0491 -0.0709 -0.2146
 2448SOL    HW1 8243   1.835   0.652   1.686 -1.4099 -0.1176 -0.3354
 2448SOL    HW2 8244   1.843   0.815   1.685 -2.1609 -0.0786  0.0161
 2449SOL     OW 8245   4.115   6.518   3.654  0.4491 -0.2642 -0.3211
 2449SOL    HW1 8246   4.209   6.494   3.677  1.0375  1.8746 -0.2039
 2449SOL    HW2 8247   4.052   6.460   3.705  1.7111 -1.2545  0.1602
 2450SOL     OW 8248   0.026   6.215   4.308  0.0752 -0.2234 -0.1915
 2450SOL    HW1 8249   0.030   6.276   4.229  1.0968  1.3105  0.9600
 2450SOL    HW2 8250   0.048   6.122   4.280 -0.0229  0.2013 -1.7778
 2451SOL     OW 8251   6.931   2.010   5.200 -0.4419 -0.1060 -0.2053
 2451SOL    HW1 8252   6.919   1.981   5.106 -1.5291  1.9315 -0.7395
 2451SOL    HW2 8253   6.867   1.961   5.259 -1.3770  0.2743 -0.8894
 2452SOL     OW 8254   4.164   4.604   0.111 -0.1253  0.6450  0.2839
 2452SOL    HW1 8255   4.110   4.555   0.043  0.4883  2.0148 -1.2555
 2452SOL    HW2 8256   4.237   4.544   0.144  0.1006  0.2005 -0.9452
 2453SOL     OW 8257   1.417   5.077   5.585 -0.2398 -0.1236  0.5249
 2453SOL    HW1 8258   1.451   4.987   5.612  1.7116  0.2421 -0.5269
 2453SOL    HW2 8259   1.494   5.139   5.568 -1.5129  1.5647  0.5456
 2454SOL     OW 8260   3.271   3.753   5.020  0.6510 -0.1371 -0.3299
 2454SOL    HW1 8261   3.191   3.711   5.064  0.1560  0.4377 -0.6687
 2454SOL    HW2 8262   3.244   3.840   4.979  1.3651 -0.1291 -0.7904
 2455SOL     OW 8263   5.430   3.572   2.564  0.6300  0.1789  0.2424
 2455SOL    HW1 8264   5.447   3.661   2.606 -0.5302  0.3860  0.3044
 2455SOL    HW2 8265   5.352   3.579   2.502  1.2826 -0.5181 -0.6826
 2456SOL     OW 8266   5.750   4.929   3.894  0.7173  0.1754 -0.4789
 2456SOL    HW1 8267   5.726   4.974   3.807 -1.1276 -1.2466 -0.7784
 2456SOL    HW2 8268   5.771   4.998   3.963  0.7748  1.3837 -1.6692
 2457SOL     OW 8269   4.753   6.996   4.046  0.2064  0.0410 -0.7492
 2457SOL    HW1 8270   4.816   7.073   4.047  0.9430 -0.5234  1.0437
 2457SOL    HW2 8271   4.664   7.026   4.012  0.5381  1.6328 -0.2953
 2458SOL     OW 8272   4.132   3.533   2.707  0.0869 -0.0458  0.0583
 2458SOL    HW1 8273   4.110   3.578   2.793  2.1596  1.3140 -0.0502
 2458SOL    HW2 8274   4.199   3.460   2.723 -1.8619 -1.9769 -0.0359
 2459SOL     OW 8275   2.321   1.760   1.337  0.4330 -0.2443  0.7226
 2459SOL    HW1 8276   2.345   1.667   1.308 -0.5273  0.7228 -3.9262
 2459SOL    HW2 8277   2.374   1.826   1.283  0.5199  2.0152  3.3540
 2460SOL     OW 8278   6.939   5.871   5.773 -0.0157 -0.5269  0.1561
 2460SOL    HW1 8279   6.926   5.876   5.872  0.0445 -0.1540  0.1498
 2460SOL    HW2 8280   6.901   5.954   5.731  0.4006 -0.4578 -0.0830
 2461SOL     OW 8281   5.682   1.558   2.018  0.3952  0.3580  0.2962
 2461SOL    HW1 8282   5.716   1.602   1.935  0.1160 -0.7842 -0.4433
 2461SOL    HW2 8283   5.747   1.573   2.093  1.5370 -0.0763 -0.5777
 2462SOL     OW 8284   4.527   6.092   0.360  0.0929 -0.2332  0.0011
 2462SOL    HW1 8285   4.431   6.062   0.363  0.0330  0.0024  1.6391
 2462SOL    HW2 8286   4.535   6.171   0.299 -0.7374 -0.3249 -0.2445
 2463SOL     OW 8287   0.241   4.677   6.180  0.0489 -0.0999  0.1605
 2463SOL    HW1 8288   0.208   4.633   6.264  0.1572 -0.4591  0.0155
 2463SOL    HW2 8289   0.178   4.750   6.155 -0.2136 -0.2654  0.3253
 2464SOL     OW 8290   1.370   1.575   1.600 -0.3526  0.3520  0.1122
 2464SOL    HW1 8291   1.416   1.522   1.529 -2.4772 -1.3729 -0.0857
 2464SOL    HW2 8292   1.300   1.633   1.557  1.1237  2.5068  0.4551
 2465SOL     OW 8293   6.116   1.728   2.500  0.1585 -0.2036  0.4238
 2465SOL    HW1 8294   6.204   1.765   2.531 -0.5627  0.2761  2.0561
 2465SOL    HW2 8295   6.054   1.722   2.579 -0.5817 -2.5802 -0.2730
 2466SOL     OW 8296   3.986   6.604   4.261 -0.0823  0.1131 -0.4076
 2466SOL    HW1 8297   4.057   6.615   4.192  0.1822  0.5127 -0.0821
 2466SOL    HW2 8298   3.923   6.681   4.255 -1.5738 -1.1573 -1.9115
 2467SOL     OW 8299   6.506   0.282   4.856  0.4439  0.2353 -0.0699
 2467SOL    HW1 8300   6.522   0.210   4.924 -1.8172 -0.4159 -0.1622
 2467SOL    HW2 8301   6.424   0.260   4.803 -0.0058  2.6387 -0.4472
 2468SOL     OW 8302   6.659   1.349   1.252 -0.7711 -0.1667  0.0189
 2468SOL    HW1 8303   6.586   1.417   1.256 -1.0170 -0.4856  1.9585
 2468SOL    HW2 8304   6.710   1.350   1.339  1.3310 -0.1861 -1.1342
 2469SOL     OW 8305   0.565   4.458   4.373  0.0940 -0.3448  0.2370
 2469SOL    HW1 8306   0.628   4.534   4.390  1.8279 -2.0187  1.7669
 2469SOL    HW2 8307   0.474   4.494   4.352  0.9171  2.1291  0.6275
 2470SOL     OW 8308   3.478   3.411   6.825 -0.3393  0.3865  0.4842
 2470SOL    HW1 8309   3.540   3.337   6.799  0.7221  1.3257  0.2632
 2470SOL    HW2 8310   3.409   3.376   6.888 -2.3589 -1.7644 -2.6140
 2471SOL     OW 8311   5.413   6.607   4.974 -1.0295 -0.2050  0.6019
 2471SOL    HW1 8312   5.409   6.521   4.924 -0.5738  0.1966 -0.1502
 2471SOL    HW2 8313   5.497   6.656   4.950 -0.7243 -0.0697  1.8957
 2472SOL     OW 8314   6.751   2.643   4.891 -0.4501  0.2288 -0.1687
 2472SOL    HW1 8315   6.664   2.669   4.849 -0.6657  1.2467  0.8755
 2472SOL    HW2 8316   6.762   2.544   4.886 -2.3754 -0.0942  0.9964
 2473SOL     OW 8317   1.452   6.781   2.394 -0.0593  0.6204 -0.0921
 2473SOL    HW1 8318   1.441   6.794   2.492  0.1745  1.5884 -0.1852
 2473SOL    HW2 8319   1.512   6.702   2.377  1.3171  1.4867  0.5844
 2474SOL     OW 8320   0.862   5.502   6.565  1.3406 -0.2757  0.8148
 2474SOL    HW1 8321   0.823   5.594   6.560  2.1146 -0.0184 -1.9697
 2474SOL    HW2 8322   0.893   5.484   6.658  0.6425  2.0426  1.5571
 2475SOL     OW 8323   6.832   6.563   4.625  0.2986  0.1432  0.0060
 2475SOL    HW1 8324   6.914   6.606   4.587  0.1780  0.6834  0.3423
 2475SOL    HW2 8325   6.755   6.580   4.563  0.3889 -0.1666 -0.1949
 2476SOL     OW 8326   5.462   6.639   3.171  0.4634 -0.3453  0.0519
 2476SOL    HW1 8327   5.509   6.690   3.098  0.9221 -0.1650  0.4670
 2476SOL    HW2 8328   5.465   6.692   3.256 -1.1024 -0.0159 -0.0671
 2477SOL     OW 8329   3.910   1.677   1.317 -0.1052 -0.5656 -0.2582
 2477SOL    HW1 8330   3.870   1.762   1.351  0.4159 -0.1344 -0.7032
 2477SOL    HW2 8331   3.996   1.659   1.366 -0.5515 -1.2083  0.3200
 2478SOL     OW 8332   5.941   6.737   6.903 -0.1901 -0.0462 -0.2026
 2478SOL    HW1 8333   5.887   6.820   6.918 -0.1876  0.1601 -1.2880
 2478SOL    HW2 8334   5.964   6.696   6.992 -0.8333  0.6911  0.3199
 2479SOL     OW 8335   4.571   0.559   1.316  0.3720  0.0292 -0.0916
 2479SOL    HW1 8336   4.596   0.594   1.226 -2.2213  0.7832 -0.5980
 2479SOL    HW2 8337   4.536   0.634   1.373 -0.0471 -0.7945  0.7686
 2480SOL     OW 8338   1.529   3.771   0.942 -0.0976  0.2481 -0.3553
 2480SOL    HW1 8339   1.607   3.718   0.975 -0.1328  0.1350 -0.4527
 2480SOL    HW2 8340   1.562   3.847   0.886 -0.0716 -0.0794 -0.7989
 2481SOL     OW 8341   2.027   1.623   3.218 -0.0719 -0.0567  0.2970
 2481SOL    HW1 8342   2.032   1.722   3.200  0.1678  0.3891  2.4578
 2481SOL    HW2 8343   1.975   1.578   3.146 -2.2987  2.0331  0.4807
 2482SOL     OW 8344   6.273   6.278   3.161  0.4169 -0.3430 -0.0212
 2482SOL    HW1 8345   6.332   6.206   3.125  0.3474  0.3977 -1.7357
 2482SOL    HW2 8346   6.177   6.254   3.144  0.2818 -0.7560  1.2246
 2483SOL     OW 8347   6.578   6.282   5.245  0.3053  1.3276  0.1012
 2483SOL    HW1 8348   6.587   6.223   5.165 -0.8452  2.6783 -1.0798
 2483SOL    HW2 8349   6.648   6.257   5.312  1.6493  0.4698 -1.5201
 2484SOL     OW 8350   3.243   5.873   3.823 -0.0786 -0.2810  0.1065
 2484SOL    HW1 8351   3.326   5.818   3.812  0.0235  0.2613 -2.9689
 2484SOL    HW2 8352   3.268   5.970   3.833 -0.3172 -0.2138  0.0649
 2485SOL     OW 8353   0.977   3.888   3.456 -0.3899 -0.1011  0.3941
 2485SOL    HW1 8354   0.921   3.868   3.376 -1.7088  1.1623  0.9423
 2485SOL    HW2 8355   1.073   3.888   3.431 -0.8277  1.5762 -1.5215
 2486SOL     OW 8356   4.310   4.568   6.119 -0.0593 -0.7976  0.3068
 2486SOL    HW1 8357   4.333   4.618   6.035  2.0092 -1.4808  0.4134
 2486SOL    HW2 8358   4.304   4.632   6.195 -1.2379 -0.2629 -0.2128
 2487SOL     OW 8359   2.201   3.704   6.895  0.4111 -0.2709  0.0217
 2487SOL    HW1 8360   2.210   3.672   6.989  2.2849  0.5061  0.1449
 2487SOL    HW2 8361   2.279   3.673   6.841 -0.2570 -0.0731 -1.0989
 2488SOL     OW 8362   2.843   0.270   5.451 -0.2361 -0.4369 -0.2446
 2488SOL    HW1 8363   2.892   0.213   5.386 -1.2709 -1.9406  0.2305
 2488SOL    HW2 8364   2.746   0.243   5.452 -0.4931  0.4677  0.9283
 2489SOL     OW 8365   0.942   6.343   6.586  0.7234  0.1370 -0.1305
 2489SOL    HW1 8366   0.878   6.269   6.569  0.9077  0.0047 -0.2563
 2489SOL    HW2 8367   1.028   6.325   6.537  0.8971  0.2547  0.1248
 2490SOL     OW 8368   2.205   1.477   2.336  0.4831  0.1037 -0.1702
 2490SOL    HW1 8369   2.268   1.405   2.306 -0.0678 -0.2991 -0.3796
 2490SOL    HW2 8370   2.193   1.544   2.263  0.1729 -0.1629 -0.3639
 2491SOL     OW 8371   4.454   6.024   5.391 -0.4031  0.3151  0.2667
 2491SOL    HW1 8372   4.431   6.030   5.489 -0.0001  0.0714  0.3765
 2491SOL    HW2 8373   4.435   6.112   5.348 -0.7253  0.3803  0.5357
 2492SOL     OW 8374   0.976   6.632   1.195 -0.1760 -0.3637  0.0486
 2492SOL    HW1 8375   0.895   6.588   1.233 -0.7701  0.7012  0.0328
 2492SOL    HW2 8376   0.949   6.699   1.126  0.7033  0.1970  0.2289
 2493SOL     OW 8377   1.647   6.605   0.025  0.3306 -0.7112  0.0995
 2493SOL    HW1 8378   1.738   6.646   0.031 -0.4228  0.9033  1.4091
 2493SOL    HW2 8379   1.587   6.647   0.094 -1.9084 -0.3768 -1.9312
 2494SOL     OW 8380   0.462   3.081   1.619  0.2381  0.1661 -0.2564
 2494SOL    HW1 8381   0.441   3.003   1.559  0.8018 -0.0553 -0.1771
 2494SOL    HW2 8382   0.377   3.117   1.659 -0.1874  0.5442 -1.4618
 2495SOL     OW 8383   2.676   0.425   2.345 -0.2749 -0.7787 -0.4369
 2495SOL    HW1 8384   2.731   0.363   2.400  0.9953  0.9665  0.3165
 2495SOL    HW2 8385   2.589   0.443   2.392  1.0311  1.1597  1.3680
 2496SOL     OW 8386   2.074   0.088   5.151 -0.3216 -0.0968 -0.2466
 2496SOL    HW1 8387   2.085   0.074   5.250 -1.9589 -1.3885 -0.2026
 2496SOL    HW2 8388   1.992   0.141   5.133 -1.3916 -1.8729 -0.9426
 2497SOL     OW 8389   6.856   2.617   6.890  0.2511 -0.1959  0.0572
 2497SOL    HW1 8390   6.878   2.664   6.805  1.2988 -1.0124 -0.1362
 2497SOL    HW2 8391   6.761   2.584   6.886 -0.1453  0.9175 -0.2348
 2498SOL     OW 8392   0.704   3.428   6.329 -0.0421 -0.2882 -0.1965
 2498SOL    HW1 8393   0.649   3.355   6.370  0.1675 -0.3800 -0.0777
 2498SOL    HW2 8394   0.786   3.443   6.384 -0.4022  0.4832  0.1515
 2499SOL     OW 8395   1.987   6.060   2.811 -0.1198 -0.3795 -0.0632
 2499SOL    HW1 8396   1.989   6.091   2.906 -0.8239 -0.5092  0.0018
 2499SOL    HW2 8397   1.999   5.960   2.809  0.6698 -0.2883 -0.1692
 2500SOL     OW 8398   1.209   3.194   5.431  0.6786 -0.0421 -0.1003
 2500SOL    HW1 8399   1.119   3.234   5.413 -1.1228 -2.9749  1.5227
 2500SOL    HW2 8400   1.270   3.265   5.466 -1.5979  1.7036  0.6415
 2501SOL     OW 8401   0.547   0.644   0.917  0.6142  0.0039 -0.2802
 2501SOL    HW1 8402   0.494   0.559   0.921  0.1947  0.2743  0.0614
 2501SOL    HW2 8403   0.502   0.714   0.974  0.6598  0.6125 -0.9748
 2502SOL     OW 8404   0.276   5.819   3.614 -0.3820  0.8113  0.1111
 2502SOL    HW1 8405   0.284   5.769   3.701  2.4891  2.5337  0.9585
 2502SOL    HW2 8406   0.318   5.764   3.541  0.1055  0.7208  0.4529
 2503SOL     OW 8407   1.257   3.071   5.745  0.3171  0.2613  0.3572
 2503SOL    HW1 8408   1.305   3.017   5.677 -1.0210  2.1809 -2.2944
 2503SOL    HW2 8409   1.323   3.121   5.802  1.5425  1.0210 -1.6266
 2504SOL     OW 8410   5.081   5.880   4.655  0.2414 -0.2689 -0.5500
 2504SOL    HW1 8411   5.089   5.876   4.755 -0.0243 -0.0196 -0.5180
 2504SOL    HW2 8412   5.141   5.952   4.621  1.1280 -1.0449 -0.6675
 2505SOL     OW 8413   2.030   6.718   5.856 -0.3314 -0.6662 -0.1416
 2505SOL    HW1 8414   2.069   6.729   5.948  0.1053  0.1761 -0.4147
 2505SOL    HW2 8415   2.027   6.621   5.833 -1.6659 -1.0026  1.2746
 2506SOL     OW 8416   6.089   2.843   5.433 -0.3063 -0.2293  0.3484
 2506SOL    HW1 8417   6.003   2.821   5.387  0.7091 -0.6802 -1.3862
 2506SOL    HW2 8418   6.121   2.933   5.402  0.2682 -0.4278  0.3639
 2507SOL     OW 8419   1.172   3.619   5.895 -0.8877  0.4638  0.3901
 2507SOL    HW1 8420   1.178   3.597   5.992  1.2381  0.9369  0.4192
 2507SOL    HW2 8421   1.204   3.713   5.880 -0.6480  0.2104 -0.8197
 2508SOL     OW 8422   6.515   2.339   6.067 -0.0305  0.1994 -0.6707
 2508SOL    HW1 8423   6.461   2.255   6.070 -2.0693  1.4700  1.4121
 2508SOL    HW2 8424   6.492   2.397   6.146  3.0289  1.7122 -0.7257
 2509SOL     OW 8425   1.877   4.049   3.794  0.3723  0.4238  0.2853
 2509SOL    HW1 8426   1.791   4.055   3.845  0.6991 -1.2580  1.1099
 2509SOL    HW2 8427   1.930   4.134   3.807 -1.1646  1.5098 -0.3086
 2510SOL     OW 8428   1.178   1.171   0.653  0.1520  0.3590 -0.4428
 2510SOL    HW1 8429   1.265   1.126   0.632  0.3052  0.3758  0.1243
 2510SOL    HW2 8430   1.144   1.137   0.740  0.1065  1.1016 -0.1629
 2511SOL     OW 8431   2.212   3.275   1.712  0.1097  0.1732 -0.2202
 2511SOL    HW1 8432   2.156   3.352   1.680 -0.2055  0.6047  1.2763
 2511SOL    HW2 8433   2.295   3.310   1.756  0.8920 -0.4202 -1.1898
 2512SOL     OW 8434   6.775   4.596   2.679  0.8457  0.4166  0.3034
 2512SOL    HW1 8435   6.782   4.694   2.660 -0.4770  0.5940  0.5928
 2512SOL    HW2 8436   6.824   4.545   2.608  0.6837  1.2541 -0.4375
 2513SOL     OW 8437   2.491   5.880   2.239  0.3537 -0.5343  0.3667
 2513SOL    HW1 8438   2.568   5.823   2.269 -0.4989 -2.1051 -0.3282
 2513SOL    HW2 8439   2.407   5.850   2.285 -0.0891  0.2838  0.1198
 2514SOL     OW 8440   1.869   3.569   1.929  0.2094 -0.8582  0.2111
 2514SOL    HW1 8441   1.910   3.478   1.918 -0.3401 -0.9419 -1.5013
 2514SOL    HW2 8442   1.770   3.560   1.939  0.3004 -0.5102  1.6389
 2515SOL     OW 8443   3.691   5.342   0.552 -0.5778  0.3311  0.5633
 2515SOL    HW1 8444   3.609   5.285   0.550  0.3783 -1.1029  0.6017
 2515SOL    HW2 8445   3.736   5.334   0.641 -0.3727  1.0857  0.5374
 2516SOL     OW 8446   6.353   6.917   1.958  0.2538  0.5217  0.2219
 2516SOL    HW1 8447   6.421   6.854   1.996  0.6125  0.2967 -0.7384
 2516SOL    HW2 8448   6.335   6.892   1.862  0.7624  2.1649 -0.3322
 2517SOL     OW 8449   6.662   2.665   6.063  0.5969 -0.4540 -0.1180
 2517SOL    HW1 8450   6.755   2.628   6.067  0.4607 -0.6607  3.0780
 2517SOL    HW2 8451   6.597   2.592   6.080 -0.0375  0.1241 -0.0306
 2518SOL     OW 8452   1.282   5.953   1.284 -0.1074 -0.2290  0.0067
 2518SOL    HW1 8453   1.336   5.893   1.225 -0.2395  0.9522 -1.3846
 2518SOL    HW2 8454   1.271   6.042   1.239  1.4432  1.4362  2.6775
 2519SOL     OW 8455   1.281   3.865   1.703  0.2197 -0.8032  0.3051
 2519SOL    HW1 8456   1.244   3.910   1.785  0.7134 -1.3682  0.8489
 2519SOL    HW2 8457   1.333   3.784   1.731 -1.8463 -2.5994 -0.6959
 2520SOL     OW 8458   0.714   1.897   6.985  0.6200 -0.0998 -0.4276
 2520SOL    HW1 8459   0.682   1.832   6.915  0.8911  0.5166 -1.1364
 2520SOL    HW2 8460   0.795   1.945   6.951 -1.0902  2.5431 -1.0327
 2521SOL     OW 8461   2.429   6.769   6.623  0.3563 -0.3598 -0.1112
 2521SOL    HW1 8462   2.400   6.687   6.673 -0.3633 -0.3735 -0.5393
 2521SOL    HW2 8463   2.351   6.807   6.574  0.9803 -0.1627 -0.9695
 2522SOL     OW 8464   2.635   1.442   3.546  0.6626  0.0270  0.2333
 2522SOL    HW1 8465   2.688   1.378   3.601  0.0211 -1.6367 -1.0081
 2522SOL    HW2 8466   2.541   1.445   3.579  0.5829 -0.0092  0.0119
 2523SOL     OW 8467   0.808   4.198   1.445 -0.2132 -0.4200 -0.1862
 2523SOL    HW1 8468   0.726   4.236   1.402 -0.5538 -0.9622 -0.0369
 2523SOL    HW2 8469   0.782   4.120   1.501  0.5397 -1.3463 -1.0755
 2524SOL     OW 8470   5.047   3.730   1.116  0.2317 -0.1190 -0.3637
 2524SOL    HW1 8471   5.042   3.819   1.160  1.9840  0.4999 -1.3377
 2524SOL    HW2 8472   4.975   3.723   1.046  0.0693  0.5144 -0.2665
 2525SOL     OW 8473   6.692   0.513   4.216 -0.4460 -0.5128  0.7749
 2525SOL    HW1 8474   6.754   0.481   4.145 -1.1137  0.5343 -0.3229
 2525SOL    HW2 8475   6.736   0.505   4.305  0.2547 -2.2326  0.3100
 2526SOL     OW 8476   4.522   1.155   6.705 -0.4257 -0.0689 -0.1925
 2526SOL    HW1 8477   4.529   1.254   6.718 -1.8016  0.0213  0.0381
 2526SOL    HW2 8478   4.566   1.130   6.619 -0.9373  0.8862 -0.7532
 2527SOL     OW 8479   1.068   5.704   2.840 -0.2922 -0.0154 -0.4241
 2527SOL    HW1 8480   0.975   5.740   2.828  0.3439  1.2715 -1.8480
 2527SOL    HW2 8481   1.098   5.720   2.934 -1.0001  0.8384 -0.3301
 2528SOL     OW 8482   1.363   4.710   0.731  0.1249 -0.2731 -0.1637
 2528SOL    HW1 8483   1.349   4.662   0.645  2.0708  0.3996 -0.9050
 2528SOL    HW2 8484   1.316   4.799   0.728 -1.1885 -0.9377  0.1440
 2529SOL     OW 8485   1.660   6.909   6.466 -0.5835 -0.3942 -0.1696
 2529SOL    HW1 8486   1.735   6.974   6.477 -1.1539  0.2309  0.1049
 2529SOL    HW2 8487   1.613   6.898   6.554 -1.8967  0.5718 -0.7064
 2530SOL     OW 8488   5.230   2.251   1.951  0.6500 -0.4608  0.2554
 2530SOL    HW1 8489   5.296   2.289   2.017  0.8800 -1.3616  0.5643
 2530SOL    HW2 8490   5.159   2.318   1.932  0.1162 -0.4634  2.0766
 2531SOL     OW 8491   0.352   0.928   6.241 -0.2827 -0.3007  0.0785
 2531SOL    HW1 8492   0.360   0.915   6.142 -0.8712  2.1088 -0.3557
 2531SOL    HW2 8493   0.435   0.896   6.286  0.7189  0.1194 -1.3893
 2532SOL     OW 8494   1.972   3.205   0.040  0.7862  0.8077  0.4045
 2532SOL    HW1 8495   1.966   3.153   0.125 -0.8755  0.3852  0.0560
 2532SOL    HW2 8496   2.047   3.169  -0.016  0.9620  0.1467  1.0593
 2533SOL     OW 8497   4.630   1.414   4.535 -0.3928  0.3921 -0.1523
 2533SOL    HW1 8498   4.712   1.434   4.481 -1.0674  1.8981 -0.6814
 2533SOL    HW2 8499   4.573   1.348   4.485  0.4467 -0.6316  0.2016
 2534SOL     OW 8500   6.703   5.369   0.390  0.7510  0.0136 -0.3720
 2534SOL    HW1 8501   6.783   5.390   0.333 -0.7102 -1.0288 -3.0157
 2534SOL    HW2 8502   6.655   5.453   0.412  2.3144  0.6135  0.9122
 2535SOL     OW 8503   2.369   0.822   1.732  0.3769  0.1557  0.3781
 2535SOL    HW1 8504   2.387   0.745   1.793 -0.0664  0.2415  0.6253
 2535SOL    HW2 8505   2.381   0.793   1.637 -1.9693 -0.8887  0.3245
 2536SOL     OW 8506   4.561   2.739   5.841 -0.4047 -0.1850  0.4371
 2536SOL    HW1 8507   4.612   2.692   5.913 -0.5884  0.5515  1.0575
 2536SOL    HW2 8508   4.564   2.685   5.757  1.9990  0.1551  0.2363
 2537SOL     OW 8509   5.826   4.038   1.000 -0.1991 -0.2341  0.2842
 2537SOL    HW1 8510   5.830   3.944   1.034 -0.4289 -0.4903 -0.3861
 2537SOL    HW2 8511   5.803   4.037   0.903  1.4674  0.4401 -0.1482
 2538SOL     OW 8512   6.785   6.984   2.079  0.1294  0.3417  0.2598
 2538SOL    HW1 8513   6.820   7.077   2.092 -1.3405  0.7503  1.6024
 2538SOL    HW2 8514   6.815   6.950   1.990 -0.2486  2.5518 -0.7966
 2539SOL     OW 8515   2.865   6.637   0.171  0.1101 -0.1269  0.0590
 2539SOL    HW1 8516   2.856   6.539   0.192 -1.1159 -0.7598 -2.8461
 2539SOL    HW2 8517   2.774   6.679   0.173  0.3646  0.4663 -0.6146
 2540SOL     OW 8518   1.038   2.609   3.319 -0.1865  0.0804 -0.0704
 2540SOL    HW1 8519   0.939   2.607   3.330 -0.1476 -0.3055  0.2125
 2540SOL    HW2 8520   1.070   2.521   3.284  0.3969 -1.0024  2.8872
 2541SOL     OW 8521   2.439   4.767   4.087  0.2799 -0.4867  0.3716
 2541SOL    HW1 8522   2.413   4.861   4.110 -1.7261 -0.8618 -0.1666
 2541SOL    HW2 8523   2.495   4.767   4.005 -1.9307  0.1264 -1.2339
 2542SOL     OW 8524   4.681   6.282   5.281 -0.3142 -0.5803  0.5569
 2542SOL    HW1 8525   4.737   6.365   5.288  0.3692 -1.1103  1.5981
 2542SOL    HW2 8526   4.711   6.216   5.349 -2.3130 -0.8186  1.2704
 2543SOL     OW 8527   1.459   6.142   1.538 -0.0851  0.1796  0.0940
 2543SOL    HW1 8528   1.375   6.195   1.525 -0.0621  0.0585 -0.5655
 2543SOL    HW2 8529   1.532   6.202   1.571 -0.1824  0.4662 -0.2135
 2544SOL     OW 8530   5.809   2.641   2.066 -0.2638  0.3469  0.6707
 2544SOL    HW1 8531   5.797   2.671   2.161  1.9061  0.9604  0.8231
 2544SOL    HW2 8532   5.876   2.700   2.021  1.1440 -1.8332 -0.2611
 2545SOL     OW 8533   0.284   2.932   2.398  0.2398 -0.1676 -0.6246
 2545SOL    HW1 8534   0.373   2.948   2.356  2.2872  0.1512  3.4027
 2545SOL    HW2 8535   0.281   2.838   2.434 -1.5621 -0.5428 -1.6083
 2546SOL     OW 8536   4.414   0.382   1.049 -0.3476  0.1750 -0.2785
 2546SOL    HW1 8537   4.511   0.373   1.070 -0.4396 -1.1917 -0.3865
 2546SOL    HW2 8538   4.375   0.292   1.028 -1.7123  0.6540  0.0790
 2547SOL     OW 8539   4.682   0.000   0.937  0.0376 -0.5191  0.2394
 2547SOL    HW1 8540   4.724  -0.010   1.027  0.8615 -0.0688 -0.0854
 2547SOL    HW2 8541   4.694   0.094   0.905  0.3015 -0.8312 -0.6049
 2548SOL     OW 8542   4.441   6.110   4.663 -0.0200 -0.0595 -0.3538
 2548SOL    HW1 8543   4.449   6.069   4.754  0.7687  0.3758 -0.2128
 2548SOL    HW2 8544   4.347   6.140   4.648 -0.7155 -2.2129 -0.6013
 2549SOL     OW 8545   2.144   1.475   6.262  0.3526  0.1541 -0.9777
 2549SOL    HW1 8546   2.126   1.469   6.360 -0.8437 -1.3538 -1.2489
 2549SOL    HW2 8547   2.151   1.571   6.235 -0.7547  0.6313  0.3161
 2550SOL     OW 8548   0.743   4.199   3.285 -0.4784  0.4826 -0.4697
 2550SOL    HW1 8549   0.660   4.251   3.265 -0.3167  0.7247 -0.5220
 2550SOL    HW2 8550   0.771   4.149   3.203 -0.2209  0.9019 -0.6407
 2551SOL     OW 8551   0.439   1.668   5.449  0.6461  0.2313  0.6014
 2551SOL    HW1 8552   0.517   1.730   5.438  0.6837  0.5113  2.1656
 2551SOL    HW2 8553   0.368   1.692   5.382  2.3884 -0.9142 -1.7713
 2552SOL     OW 8554   0.479   2.175   0.832  0.0607  0.4728  0.3977
 2552SOL    HW1 8555   0.467   2.109   0.757 -0.5583  1.2974 -0.2480
 2552SOL    HW2 8556   0.532   2.253   0.800  0.0816  0.6768  0.9148
 2553SOL     OW 8557   2.221   5.692   6.040  0.1826 -0.2264 -0.3519
 2553SOL    HW1 8558   2.130   5.671   6.004  0.6747 -1.4707 -0.9261
 2553SOL    HW2 8559   2.223   5.676   6.139 -0.5299  0.9474 -0.1308
 2554SOL     OW 8560   1.585   5.048   0.318 -0.0186  0.1721  0.2058
 2554SOL    HW1 8561   1.531   5.080   0.396 -0.7063  2.5906 -1.1595
 2554SOL    HW2 8562   1.570   4.950   0.306 -2.0776  0.2640  1.4420
 2555SOL     OW 8563   6.461   1.707   6.691 -0.0502  0.2438 -0.3088
 2555SOL    HW1 8564   6.516   1.692   6.773 -0.4306  0.8602  0.0655
 2555SOL    HW2 8565   6.501   1.781   6.636  0.9409 -1.0255 -1.3566
 2556SOL     OW 8566   1.759   5.559   6.442  0.5918 -0.3761 -0.3523
 2556SOL    HW1 8567   1.757   5.522   6.535  1.4052 -0.8044 -0.4942
 2556SOL    HW2 8568   1.686   5.518   6.388 -0.1660  0.2051  0.2117
 2557SOL     OW 8569   1.175   2.762   2.527  0.1841  0.1626  0.1255
 2557SOL    HW1 8570   1.197   2.695   2.456  0.9654 -0.0779  0.5785
 2557SOL    HW2 8571   1.118   2.834   2.489  2.0159  0.9949 -1.2310
 2558SOL     OW 8572   3.088   2.197   2.890  0.1612  0.1946  0.1222
 2558SOL    HW1 8573   3.169   2.254   2.875 -0.3850  0.7106 -0.8918
 2558SOL    HW2 8574   3.104   2.139   2.970  1.2847  0.7376  0.3178
 2559SOL     OW 8575   2.278   6.549   6.841 -0.7078  0.4016  0.1446
 2559SOL    HW1 8576   2.301   6.608   6.918  0.1576  1.6196 -0.9839
 2559SOL    HW2 8577   2.180   6.534   6.837 -0.7506  0.2756  1.5034
 2560SOL     OW 8578   1.470   4.495   2.865  0.2980 -0.6283 -0.3952
 2560SOL    HW1 8579   1.517   4.479   2.952  0.3129 -1.2079 -0.5032
 2560SOL    HW2 8580   1.536   4.527   2.797  0.2955 -0.2220 -0.2088
 2561SOL     OW 8581   0.359   0.436   6.029 -0.2403  0.5466 -0.3459
 2561SOL    HW1 8582   0.358   0.385   5.943 -1.2503  0.4103 -0.2723
 2561SOL    HW2 8583   0.279   0.495   6.033  0.1268  1.0178  0.2325
 2562SOL     OW 8584   0.595   1.077   5.877 -0.2812 -0.0813 -0.2373
 2562SOL    HW1 8585   0.554   0.999   5.828  0.2118  0.3770 -1.4058
 2562SOL    HW2 8586   0.634   1.141   5.811  1.2529  0.0990  0.7940
 2563SOL     OW 8587   4.997   1.987   2.506  0.0869  0.7137  0.0843
 2563SOL    HW1 8588   5.059   2.062   2.481 -0.1147  0.5910 -0.8329
 2563SOL    HW2 8589   4.963   2.001   2.599  2.2212  0.2928  0.9831
 2564SOL     OW 8590   0.931   4.602   3.225 -0.6245  0.1134 -0.2320
 2564SOL    HW1 8591   0.954   4.652   3.141  1.6457  0.3786  0.4814
 2564SOL    HW2 8592   0.947   4.662   3.303 -1.0282 -0.6965  0.4743
 2565SOL     OW 8593   1.141   0.136   1.762 -0.2500  0.5103 -0.5224
 2565SOL    HW1 8594   1.144   0.236   1.764 -1.1022  0.5518  2.0268
 2565SOL    HW2 8595   1.051   0.104   1.791  0.9291 -0.9789  1.8026
 2566SOL     OW 8596   1.025   6.836   5.684 -0.1799 -0.1598  0.8697
 2566SOL    HW1 8597   1.080   6.839   5.600 -0.1947 -0.8700  0.8336
 2566SOL    HW2 8598   1.067   6.773   5.749 -1.4296 -1.4047  0.5029
 2567SOL     OW 8599   6.828   4.498   2.933 -0.6196 -0.2191 -0.1290
 2567SOL    HW1 8600   6.871   4.581   2.969  0.0367 -0.5077 -0.2457
 2567SOL    HW2 8601   6.807   4.512   2.836  0.3415 -0.5185 -0.3883
 2568SOL     OW 8602   2.748   0.020   1.710 -0.0880 -0.3447  0.3931
 2568SOL    HW1 8603   2.771   0.073   1.792  2.5506 -0.3280 -0.2832
 2568SOL    HW2 8604   2.794  -0.068   1.712 -0.6205 -0.6734 -0.6980
 2569SOL     OW 8605   1.254   1.854   2.103 -0.2844  0.8989  0.0561
 2569SOL    HW1 8606   1.312   1.804   2.039 -0.5702 -0.1993  0.6400
 2569SOL    HW2 8607   1.246   1.949   2.072  2.0949  1.1936  0.1655
 2570SOL     OW 8608   5.265   3.520   5.597  0.0818  0.0734 -0.0367
 2570SOL    HW1 8609   5.240   3.616   5.583  0.7717 -0.0085 -2.2290
 2570SOL    HW2 8610   5.187   3.461   5.577 -0.0383  0.1137  0.2985
 2571SOL     OW 8611   1.588   2.512   2.304 -0.3492  0.2418 -0.3813
 2571SOL    HW1 8612   1.545   2.518   2.394 -1.3534 -1.5257 -0.6829
 2571SOL    HW2 8613   1.612   2.416   2.285  0.7361  0.7262 -1.6036
 2572SOL     OW 8614   6.709   1.263   1.908 -0.0213  0.0280 -0.2094
 2572SOL    HW1 8615   6.748   1.249   1.998  1.3127 -1.2579 -0.9548
 2572SOL    HW2 8616   6.761   1.333   1.859 -0.7106  0.6864 -0.0267
 2573SOL     OW 8617   2.675   4.808   1.930  0.2058  0.0881  0.2185
 2573SOL    HW1 8618   2.707   4.833   1.838 -0.9845 -2.4056 -0.9774
 2573SOL    HW2 8619   2.743   4.749   1.974 -0.0063 -0.1554  0.2189
 2574SOL     OW 8620   6.574   4.230   2.750 -0.1092 -0.0152  0.8308
 2574SOL    HW1 8621   6.515   4.272   2.818 -0.4222 -0.4016  0.8033
 2574SOL    HW2 8622   6.577   4.131   2.765  0.7774  0.0326  1.0220
 2575SOL     OW 8623   5.903   6.889   2.757 -0.2740  0.3713 -0.3232
 2575SOL    HW1 8624   5.999   6.914   2.771  0.1301 -1.0936 -0.3030
 2575SOL    HW2 8625   5.859   6.957   2.698  0.5292  1.5327  0.3620
 2576SOL     OW 8626   3.206   6.205   0.995  0.1073 -0.0365  1.0248
 2576SOL    HW1 8627   3.232   6.252   1.080  0.0386 -1.9564  2.1788
 2576SOL    HW2 8628   3.130   6.253   0.952 -0.3545  0.5826  2.4654
 2577SOL     OW 8629   3.453   0.521   0.417 -0.4147  0.2145  0.0431
 2577SOL    HW1 8630   3.379   0.569   0.370  0.9252  1.2287 -1.1497
 2577SOL    HW2 8631   3.541   0.552   0.380  0.5846 -3.5857 -1.2340
 2578SOL     OW 8632   0.404   4.469   5.508 -0.6001 -0.4008  1.1474
 2578SOL    HW1 8633   0.472   4.539   5.527 -2.0310  1.5829 -0.5103
 2578SOL    HW2 8634   0.342   4.460   5.586  1.0565 -1.6877  2.3614
 2579SOL     OW 8635   2.239   5.882   3.867  0.1763 -0.0657 -0.2780
 2579SOL    HW1 8636   2.204   5.838   3.785 -0.0619 -0.0680 -0.1768
 2579SOL    HW2 8637   2.247   5.814   3.941  0.6209 -0.1130 -0.3691
 2580SOL     OW 8638   5.138   3.076   3.829 -0.2525 -0.1652 -0.7480
 2580SOL    HW1 8639   5.075   3.135   3.779  0.3676  0.0659 -1.2589
 2580SOL    HW2 8640   5.231   3.112   3.822  0.1583 -1.2627 -1.1910
 2581SOL     OW 8641   4.663   5.698   2.965 -0.3869 -0.1152  0.7462
 2581SOL    HW1 8642   4.585   5.638   2.986 -0.3771 -0.2731  0.3476
 2581SOL    HW2 8643   4.642   5.751   2.883 -0.6757  0.9419  1.4757
 2582SOL     OW 8644   6.893   1.171   6.227 -1.0076 -0.2297  0.3322
 2582SOL    HW1 8645   6.857   1.079   6.236 -2.0841  0.1592  0.1232
 2582SOL    HW2 8646   6.959   1.174   6.151  0.8442 -1.3349  1.8060
 2583SOL     OW 8647   0.408   2.017   3.183  0.1172 -0.3672  0.1176
 2583SOL    HW1 8648   0.487   1.986   3.130  0.5829  0.3521  0.3721
 2583SOL    HW2 8649   0.342   2.061   3.122  0.8185  0.7868  0.1730
 2584SOL     OW 8650   2.257   1.399   5.566 -0.0662  0.0521  0.2166
 2584SOL    HW1 8651   2.181   1.462   5.550  1.2438  1.6219 -0.0169
 2584SOL    HW2 8652   2.295   1.369   5.479 -0.8372 -1.3154  0.3162
 2585SOL     OW 8653   1.221   1.991   1.566 -0.0018  0.1139  0.9570
 2585SOL    HW1 8654   1.161   1.911   1.575 -1.2529  0.9551  0.4194
 2585SOL    HW2 8655   1.192   2.062   1.629  0.0847  0.7285  0.3226
 2586SOL     OW 8656   1.304   0.823   0.823  0.3180 -0.8395  0.2826
 2586SOL    HW1 8657   1.331   0.919   0.813 -0.0407 -0.7570  0.1164
 2586SOL    HW2 8658   1.362   0.780   0.893 -0.1161 -0.2631  1.0157
 2587SOL     OW 8659   2.651   6.925   0.988  0.3231 -0.4685 -0.1309
 2587SOL    HW1 8660   2.659   6.830   1.019 -2.0480 -1.3693 -2.0046
 2587SOL    HW2 8661   2.697   6.936   0.900  1.6135  0.5063  0.6071
 2588SOL     OW 8662   3.235   2.992   0.978  0.2588 -0.1517  0.1223
 2588SOL    HW1 8663   3.254   2.936   0.896  0.6229 -0.0369  0.1263
 2588SOL    HW2 8664   3.137   2.995   0.994  0.2483 -1.0111  0.2689
 2589SOL     OW 8665   0.791   1.470   1.499 -0.5299  0.0427  0.2918
 2589SOL    HW1 8666   0.779   1.498   1.594 -1.0068  1.1235 -0.0686
 2589SOL    HW2 8667   0.743   1.384   1.483 -1.0542  0.2221  0.8605
 2590SOL     OW 8668   6.754   0.325   4.699  0.0929  0.1800 -0.2211
 2590SOL    HW1 8669   6.676   0.314   4.760  0.5795 -0.9700  0.2218
 2590SOL    HW2 8670   6.764   0.244   4.641  1.7262 -0.3181  0.6747
 2591SOL     OW 8671   6.081   4.504   3.297  0.2588  0.3411 -0.0999
 2591SOL    HW1 8672   6.109   4.540   3.387  1.4399  0.9716 -0.6964
 2591SOL    HW2 8673   6.103   4.407   3.292 -1.2126 -0.0687  0.8335
 2592SOL     OW 8674   6.789   4.696   1.274 -0.2069 -0.4024  0.8013
 2592SOL    HW1 8675   6.887   4.712   1.261  0.1092 -1.8905  1.2621
 2592SOL    HW2 8676   6.753   4.644   1.196 -0.6108 -0.0017  0.7128
 2593SOL     OW 8677   0.445   4.082   0.182  0.3228  0.3806 -0.3839
 2593SOL    HW1 8678   0.526   4.045   0.227 -0.5299 -0.2804  0.6520
 2593SOL    HW2 8679   0.453   4.069   0.083  0.9395 -0.7877 -0.1932
 2594SOL     OW 8680   5.953   2.302   1.170  0.8904  0.0754  0.7643
 2594SOL    HW1 8681   6.005   2.301   1.085  1.1718  1.3423  0.8933
 2594SOL    HW2 8682   6.014   2.327   1.246  0.3008  0.6350  1.0634
 2595SOL     OW 8683   3.907   4.046   5.849  0.0808  0.4613  0.4508
 2595SOL    HW1 8684   3.808   4.031   5.857  0.2188  0.0406  1.6035
 2595SOL    HW2 8685   3.955   3.963   5.879  0.7923  0.6596 -0.1148
 2596SOL     OW 8686   5.802   2.195   3.492  0.1608  1.4188 -0.1225
 2596SOL    HW1 8687   5.864   2.272   3.474  1.0064  0.9974  0.8668
 2596SOL    HW2 8688   5.844   2.111   3.459  0.5434  1.0084  1.3258
 2597SOL     OW 8689   1.488   4.318   1.561  0.4442 -0.3636  0.5138
 2597SOL    HW1 8690   1.566   4.332   1.499  0.2307  2.7821  0.8201
 2597SOL    HW2 8691   1.514   4.253   1.632  2.0345 -1.0078 -0.5808
 2598SOL     OW 8692   4.044   4.263   1.561 -0.6750  0.3716 -0.0658
 2598SOL    HW1 8693   3.973   4.258   1.631 -2.4273  0.3935 -1.7664
 2598SOL    HW2 8694   4.046   4.177   1.509 -0.2420  0.7906 -0.7600
 2599SOL     OW 8695   1.074   5.954   1.653  0.4455  0.0201 -0.1022
 2599SOL    HW1 8696   1.058   5.882   1.586 -0.7112  0.4791 -0.3357
 2599SOL    HW2 8697   0.991   6.008   1.665  0.7720  0.2448  1.3558
 2600SOL     OW 8698   5.054   1.121   5.917  0.3541 -0.1341  0.4861
 2600SOL    HW1 8699   5.090   1.110   5.825  0.3626  2.2843  0.1231
 2600SOL    HW2 8700   4.970   1.176   5.914  0.1164 -0.3718  1.8801
 2601SOL     OW 8701   2.220   2.723   6.455 -0.2377  0.0819  0.4563
 2601SOL    HW1 8702   2.177   2.732   6.366  0.3864  1.7512  0.2924
 2601SOL    HW2 8703   2.159   2.757   6.526  0.0319  0.6011  0.4420
 2602SOL     OW 8704   6.930   4.759   0.441 -0.1127  0.3818  0.0487
 2602SOL    HW1 8705   6.974   4.836   0.394 -0.5650  1.1583  0.8433
 2602SOL    HW2 8706   6.832   4.779   0.452 -0.2386 -0.3214  0.2551
 2603SOL     OW 8707   3.558   2.898   1.332 -0.1621 -0.1501  0.1152
 2603SOL    HW1 8708   3.527   2.992   1.321 -1.5163 -0.8296 -2.5580
 2603SOL    HW2 8709   3.485   2.835   1.305  0.6868 -2.0139  1.8971
 2604SOL     OW 8710   6.403   3.102   4.028  0.8860  0.2843 -0.4896
 2604SOL    HW1 8711   6.316   3.145   4.052  0.4989 -0.3509 -0.7206
 2604SOL    HW2 8712   6.387   3.006   4.004  1.8971 -0.3575  1.2549
 2605SOL     OW 8713   6.831   6.409   6.244 -0.6104  0.9449 -0.4929
 2605SOL    HW1 8714   6.915   6.372   6.203 -0.7416  1.3594 -1.1549
 2605SOL    HW2 8715   6.752   6.375   6.194 -0.9496 -0.6125  1.0227
 2606SOL     OW 8716   1.915   5.950   1.320  0.4236  0.5302  0.0111
 2606SOL    HW1 8717   2.009   5.982   1.317  0.0713  1.5494 -2.1908
 2606SOL    HW2 8718   1.913   5.851   1.302  1.1749  0.0415  2.2865
 2607SOL     OW 8719   5.650   6.810   2.234  0.0421  0.5146  0.4913
 2607SOL    HW1 8720   5.636   6.834   2.138 -0.9277  0.4740  0.6117
 2607SOL    HW2 8721   5.735   6.757   2.243 -0.3321 -0.2857 -0.4769
 2608SOL     OW 8722   4.909   4.230   0.371  0.2347 -0.2957 -0.1291
 2608SOL    HW1 8723   4.973   4.233   0.294 -0.9604 -0.4035 -1.1663
 2608SOL    HW2 8724   4.874   4.136   0.381 -0.1439 -0.1320  0.0921
 2609SOL     OW 8725   1.507   2.923   3.723 -0.1771 -0.2637 -0.2988
 2609SOL    HW1 8726   1.539   2.936   3.629 -1.4166 -1.9709 -1.0072
 2609SOL    HW2 8727   1.586   2.921   3.785  0.9870 -2.3929 -1.7234
 2610SOL     OW 8728   5.731   0.347   1.681  0.1489 -0.0027  0.8476
 2610SOL    HW1 8729   5.745   0.421   1.746 -0.9236 -0.6926  1.9048
 2610SOL    HW2 8730   5.815   0.294   1.673  0.5787  0.6540  0.9426
 2611SOL     OW 8731   5.987   5.024   0.978 -0.7654 -0.6885 -0.3858
 2611SOL    HW1 8732   5.897   4.980   0.974 -0.6643 -0.8775 -0.6796
 2611SOL    HW2 8733   6.004   5.058   1.070 -1.0821 -0.7708 -0.2957
 2612SOL     OW 8734   4.428   5.632   3.992  0.9674 -0.0511 -0.4590
 2612SOL    HW1 8735   4.409   5.721   3.952 -2.4160  0.3929  1.8105
 2612SOL    HW2 8736   4.464   5.643   4.084  0.3390 -1.0377 -0.0817
 2613SOL     OW 8737   2.139   3.328   2.503 -0.3994 -0.4994 -0.5741
 2613SOL    HW1 8738   2.152   3.232   2.480 -0.5380 -0.4868 -0.7053
 2613SOL    HW2 8739   2.136   3.383   2.419 -0.6373 -0.4197 -0.5132
 2614SOL     OW 8740   0.899   0.315   2.039  0.0225 -0.0381 -0.3786
 2614SOL    HW1 8741   0.880   0.220   2.016 -2.2388  0.3486 -0.3042
 2614SOL    HW2 8742   0.992   0.322   2.074  1.2364 -1.7308 -2.9591
 2615SOL     OW 8743   2.288   1.256   1.924 -0.2694  0.7673 -0.7969
 2615SOL    HW1 8744   2.380   1.217   1.929 -0.8237 -0.5049  0.4443
 2615SOL    HW2 8745   2.235   1.207   1.855 -1.2596 -1.5172  1.4174
 2616SOL     OW 8746   5.667   1.523   5.550  0.2034 -0.0489 -0.2177
 2616SOL    HW1 8747   5.653   1.573   5.635  0.0574 -2.6181  1.3884
 2616SOL    HW2 8748   5.603   1.557   5.480 -0.2454  1.5625  0.9229
 2617SOL     OW 8749   2.003   6.164   4.266  0.3495  0.2277  0.0348
 2617SOL    HW1 8750   2.063   6.086   4.284 -1.0406 -1.0491 -0.6378
 2617SOL    HW2 8751   2.030   6.208   4.181  2.2023  1.5909  1.2558
 2618SOL     OW 8752   4.332   6.566   2.722 -0.3779  0.7381  0.5977
 2618SOL    HW1 8753   4.345   6.538   2.627  0.0411 -1.2480  1.1867
 2618SOL    HW2 8754   4.264   6.639   2.727  0.1610  1.4079 -1.2776
 2619SOL     OW 8755   6.754   4.430   2.018 -0.1829 -0.3135 -0.2907
 2619SOL    HW1 8756   6.693   4.437   2.097  1.6494 -1.2191  1.2989
 2619SOL    HW2 8757   6.732   4.348   1.965 -0.2994 -0.6938  0.3317
 2620SOL     OW 8758   6.437   3.946   0.162  0.1954  0.1029  0.2168
 2620SOL    HW1 8759   6.372   3.909   0.228  0.7060 -0.0413  0.6453
 2620SOL    HW2 8760   6.394   4.021   0.111 -0.2996  0.0129  0.4951
 2621SOL     OW 8761   6.510   4.537   4.056 -0.2553 -0.1012  0.4091
 2621SOL    HW1 8762   6.590   4.490   4.019 -1.0739  0.1440 -1.8467
 2621SOL    HW2 8763   6.538   4.601   4.128  1.4391 -0.6499  0.2706
 2622SOL     OW 8764   6.099   1.454   5.909 -0.0397  0.3708  0.2260
 2622SOL    HW1 8765   6.100   1.355   5.897 -0.2953  0.4262 -0.2987
 2622SOL    HW2 8766   6.145   1.478   5.995  2.1337 -0.0456 -0.7455
 2623SOL     OW 8767   4.786   5.153   1.196  0.1023 -0.5214 -0.3062
 2623SOL    HW1 8768   4.774   5.230   1.134 -0.4276  0.4584  0.9794
 2623SOL    HW2 8769   4.865   5.171   1.255  0.2634 -1.1911 -0.3128
 2624SOL     OW 8770   2.575   4.380   6.154 -0.4952  0.5534  0.0597
 2624SOL    HW1 8771   2.597   4.284   6.135  1.5917  1.0555 -0.2218
 2624SOL    HW2 8772   2.631   4.439   6.096 -2.5260  1.9654 -0.5647
 2625SOL     OW 8773   0.587   2.054   4.814 -0.3927 -0.2336 -0.5114
 2625SOL    HW1 8774   0.654   2.049   4.740 -0.1865 -0.5464 -0.3050
 2625SOL    HW2 8775   0.524   2.130   4.797  0.1031  0.1550 -0.6302
 2626SOL     OW 8776   1.814   3.083   0.724 -0.1765  0.1520  0.5427
 2626SOL    HW1 8777   1.907   3.047   0.715 -0.4535 -0.4337 -0.1152
 2626SOL    HW2 8778   1.785   3.123   0.637 -0.9231 -0.6322  0.4158
 2627SOL     OW 8779   5.307   6.349   2.190 -0.1035 -0.2525 -0.5315
 2627SOL    HW1 8780   5.296   6.254   2.221 -0.0367  0.0435  0.4232
 2627SOL    HW2 8781   5.389   6.388   2.231  1.0030 -0.3953 -2.4961
 2628SOL     OW 8782   6.242   2.656   6.856  0.4640  0.3241  0.2716
 2628SOL    HW1 8783   6.265   2.596   6.780 -1.3501  0.5545 -0.5223
 2628SOL    HW2 8784   6.204   2.601   6.931 -1.3858  0.4410 -0.5333
 2629SOL     OW 8785   2.440   6.483   4.991  0.0114 -0.1059 -0.2783
 2629SOL    HW1 8786   2.478   6.503   5.082 -1.1011  2.0962 -0.2280
 2629SOL    HW2 8787   2.452   6.563   4.932 -0.9042 -0.8448 -1.5139
 2630SOL     OW 8788   6.981   1.463   5.761 -0.6544  0.6520  0.6152
 2630SOL    HW1 8789   6.897   1.516   5.753 -1.5426 -0.5419  1.5327
 2630SOL    HW2 8790   6.958   1.366   5.770  0.7547  0.4237  2.1936
 2631SOL     OW 8791   2.510   1.681   2.367  0.1712 -0.9432  0.4535
 2631SOL    HW1 8792   2.558   1.738   2.433 -0.4082 -1.4342  1.3041
 2631SOL    HW2 8793   2.573   1.611   2.331  0.7793 -0.0303 -0.3232
 2632SOL     OW 8794   5.994   4.310   5.157  0.1182 -0.1336 -0.5911
 2632SOL    HW1 8795   6.029   4.242   5.221  3.1233  0.7459 -1.1350
 2632SOL    HW2 8796   5.990   4.270   5.065 -2.9635 -0.9996 -0.1928
 2633SOL     OW 8797   5.827   5.576   4.039  0.1104  0.1586 -0.2810
 2633SOL    HW1 8798   5.753   5.509   4.032  0.9183 -0.6661 -1.1623
 2633SOL    HW2 8799   5.795   5.655   4.092 -1.0423 -0.6580  0.2923
 2634SOL     OW 8800   4.322   4.623   1.655  0.5805  0.5840 -0.3079
 2634SOL    HW1 8801   4.403   4.642   1.710  1.5344 -1.2908 -0.9723
 2634SOL    HW2 8802   4.325   4.528   1.623 -0.1510  1.4471 -3.2338
 2635SOL     OW 8803   5.659   3.931   6.432 -0.2752  0.0039 -0.4167
 2635SOL    HW1 8804   5.634   3.979   6.516 -0.5893  0.7010 -0.8969
 2635SOL    HW2 8805   5.576   3.896   6.387 -0.2708  0.9312 -1.1887
 2636SOL     OW 8806   1.896   4.872   3.444 -0.3819  0.4170  0.5412
 2636SOL    HW1 8807   1.956   4.890   3.522  1.0529 -1.1289 -0.1434
 2636SOL    HW2 8808   1.884   4.774   3.432 -0.8758  0.6236 -0.9692
 2637SOL     OW 8809   1.919   5.168   1.344  0.4437  0.0269  0.3513
 2637SOL    HW1 8810   1.908   5.210   1.254  0.1297  0.1770  0.4604
 2637SOL    HW2 8811   1.839   5.186   1.400  0.1928 -0.9170  0.3177
 2638SOL     OW 8812   4.191   2.246   4.260  0.0792 -0.1231 -0.2550
 2638SOL    HW1 8813   4.156   2.303   4.186  0.2605  1.5910  0.9195
 2638SOL    HW2 8814   4.291   2.250   4.261  0.0749 -0.0207  0.1499
 2639SOL     OW 8815   0.227   5.026   4.641 -0.6496  0.2679  0.1209
 2639SOL    HW1 8816   0.294   5.005   4.713 -0.3504  0.6666 -0.0395
 2639SOL    HW2 8817   0.171   5.104   4.670  0.1445  1.0879 -0.5028
 2640SOL     OW 8818   6.723   0.112   3.899 -0.5027 -0.6152 -0.0061
 2640SOL    HW1 8819   6.700   0.016   3.885 -0.8099 -0.6950  0.9621
 2640SOL    HW2 8820   6.648   0.157   3.948 -0.5481  0.2208 -0.8213
 2641SOL     OW 8821   1.097   4.305   5.830 -0.4144 -0.2899  0.0868
 2641SOL    HW1 8822   1.141   4.260   5.753  0.2259  1.3668 -0.5742
 2641SOL    HW2 8823   1.162   4.314   5.905 -0.0223  0.8654 -0.3595
 2642SOL     OW 8824   5.687   0.331   5.986  0.0199 -0.1524 -0.0915
 2642SOL    HW1 8825   5.643   0.412   5.948  0.0747 -0.9107 -1.8892
 2642SOL    HW2 8826   5.767   0.307   5.931  1.2221 -0.2831  1.6180
 2643SOL     OW 8827   5.050   3.408   4.448  0.4596 -0.1089  0.1751
 2643SOL    HW1 8828   4.984   3.343   4.485  2.6326 -3.3316 -1.1973
 2643SOL    HW2 8829   5.044   3.494   4.499 -4.8183 -0.0536 -0.0188
 2644SOL     OW 8830   0.091   3.567   5.066  0.0247 -0.0313 -0.2375
 2644SOL    HW1 8831   0.001   3.597   5.098  0.2250  0.4723 -0.1311
 2644SOL    HW2 8832   0.139   3.521   5.140  1.4217  3.1652  1.0390
 2645SOL     OW 8833   5.718   3.330   2.964 -0.1337 -0.0218 -0.0125
 2645SOL    HW1 8834   5.782   3.255   2.950 -1.2806 -0.8030 -1.3997
 2645SOL    HW2 8835   5.767   3.418   2.962  1.0501 -0.6611  0.3681
 2646SOL     OW 8836   5.826   2.571   2.501 -0.1532 -0.3948 -0.3809
 2646SOL    HW1 8837   5.858   2.483   2.465  0.4077  0.3781 -1.8255
 2646SOL    HW2 8838   5.754   2.606   2.442 -0.2970  0.1843  0.1304
 2647SOL     OW 8839   0.007   6.658   4.427 -0.4108  0.2489  0.5009
 2647SOL    HW1 8840   0.058   6.622   4.348  0.4789 -1.6125  1.8474
 2647SOL    HW2 8841  -0.089   6.669   4.401 -0.5632 -2.2716 -0.3397
 2648SOL     OW 8842   4.565   2.051   2.361  0.7941  0.1427 -0.3024
 2648SOL    HW1 8843   4.481   2.046   2.306  0.7314 -2.5863 -0.1145
 2648SOL    HW2 8844   4.612   1.963   2.357  1.5728  0.2989  2.8299
 2649SOL     OW 8845   3.869   4.297   6.636 -0.3533  0.3901  0.1025
 2649SOL    HW1 8846   3.844   4.230   6.706 -2.1405 -0.1777 -1.0278
 2649SOL    HW2 8847   3.816   4.381   6.649 -1.2733 -0.0007 -0.9925
 2650SOL     OW 8848   1.840   2.109   5.909  0.1071  0.5332  0.4806
 2650SOL    HW1 8849   1.796   2.136   5.995  0.4353 -0.6012  1.0267
 2650SOL    HW2 8850   1.868   2.013   5.915  1.0779  0.7389 -0.5141
 2651SOL     OW 8851   6.114   0.355   0.207  0.3363  0.0032  0.0730
 2651SOL    HW1 8852   6.152   0.429   0.152 -0.7980  0.2341 -0.4311
 2651SOL    HW2 8853   6.189   0.300   0.244  1.1984  1.3183  0.3643
 2652SOL     OW 8854   2.008   5.372   5.800 -0.1682 -0.6833  0.1875
 2652SOL    HW1 8855   2.077   5.358   5.729  0.6857 -0.5146  0.9751
 2652SOL    HW2 8856   1.926   5.413   5.759  1.2548  1.8540 -0.2851
 2653SOL     OW 8857   6.147   0.760   4.771  0.3488  0.3940  0.1489
 2653SOL    HW1 8858   6.170   0.684   4.831 -0.6588  0.0812  0.1417
 2653SOL    HW2 8859   6.060   0.800   4.798 -1.4932 -1.3976 -2.6026
 2654SOL     OW 8860   2.019   0.443   2.521 -0.3309 -0.2781 -0.1679
 2654SOL    HW1 8861   2.084   0.504   2.567  0.6801 -1.2929 -0.2065
 2654SOL    HW2 8862   2.067   0.361   2.491 -1.9421 -1.7995  1.2420
 2655SOL     OW 8863   2.730   5.420   1.129  0.1517 -0.1451 -0.3825
 2655SOL    HW1 8864   2.796   5.363   1.178 -1.5893 -0.8205  1.2934
 2655SOL    HW2 8865   2.745   5.410   1.030  1.7833 -1.1883 -0.0679
 2656SOL     OW 8866   1.418   2.075   5.704 -0.2603  0.9929  0.3864
 2656SOL    HW1 8867   1.343   2.107   5.763  0.3326 -0.4080  1.9736
 2656SOL    HW2 8868   1.427   1.976   5.712 -0.1531  0.7419 -2.1381
 2657SOL     OW 8869   1.233   2.970   0.766 -0.2013 -0.8824 -0.1328
 2657SOL    HW1 8870   1.217   3.053   0.712 -1.1745 -0.3782  0.9007
 2657SOL    HW2 8871   1.309   2.919   0.725 -1.5590 -1.0929 -2.6158
 2658SOL     OW 8872   3.624   1.717   2.133  0.1207  0.6259 -0.4179
 2658SOL    HW1 8873   3.646   1.724   2.036  0.3628  2.6725 -0.2663
 2658SOL    HW2 8874   3.703   1.744   2.188 -0.9912  2.8794  0.2266
 2659SOL     OW 8875   5.680   2.958   3.523 -0.2009 -0.1771  1.1864
 2659SOL    HW1 8876   5.622   2.975   3.444  0.3814  1.2675  1.0452
 2659SOL    HW2 8877   5.623   2.949   3.605 -0.7509 -0.9332  0.7265
 2660SOL     OW 8878   0.501   1.185   3.109  0.4218  0.6137 -0.0794
 2660SOL    HW1 8879   0.516   1.179   3.207  1.2285 -0.6522 -0.2609
 2660SOL    HW2 8880   0.552   1.114   3.062  0.7379  1.7186 -1.5108
 2661SOL     OW 8881   0.673   2.922   4.445 -0.1167 -0.3425  0.2552
 2661SOL    HW1 8882   0.699   2.973   4.363  1.1230 -0.6824  0.4303
 2661SOL    HW2 8883   0.675   2.983   4.524  1.3387 -0.6295  0.4598
 2662SOL     OW 8884   0.547   6.205   5.214  0.4927  0.0645 -0.5380
 2662SOL    HW1 8885   0.565   6.299   5.184  1.0347  0.0253 -0.3400
 2662SOL    HW2 8886   0.488   6.160   5.148 -2.7212  1.6284  1.0383
 2663SOL     OW 8887   6.219   1.307   4.985 -0.0133 -0.3469 -0.3268
 2663SOL    HW1 8888   6.234   1.393   5.034 -1.3098 -0.4154  0.2311
 2663SOL    HW2 8889   6.242   1.320   4.888  0.3838  0.4534 -0.1364
 2664SOL     OW 8890   5.121   2.822   0.490 -0.0197 -1.0620  0.3753
 2664SOL    HW1 8891   5.021   2.815   0.501 -0.5065  1.3764 -1.5011
 2664SOL    HW2 8892   5.143   2.910   0.448  2.7555 -2.4705 -1.4119
 2665SOL     OW 8893   2.027   3.278   1.969  0.4942  0.5337  0.4853
 2665SOL    HW1 8894   2.095   3.350   1.962  0.2719  0.6888 -0.2525
 2665SOL    HW2 8895   2.063   3.194   1.928 -0.4059  1.1274 -1.7017
 2666SOL     OW 8896   1.588   3.689   2.714  0.3292  0.3005 -0.4535
 2666SOL    HW1 8897   1.599   3.785   2.688 -0.7660  0.8428  0.9761
 2666SOL    HW2 8898   1.506   3.652   2.672  0.3608  0.2028 -0.4297
 2667SOL     OW 8899   6.096   1.973   4.601  0.3496 -0.1209 -0.3414
 2667SOL    HW1 8900   6.029   2.039   4.565  0.9967 -0.7837 -2.9701
 2667SOL    HW2 8901   6.058   1.881   4.596 -0.0029 -0.1507  1.9716
 2668SOL     OW 8902   1.866   5.925   5.997  0.4165  0.0502 -0.0452
 2668SOL    HW1 8903   1.772   5.922   5.962  0.5112 -0.7562 -0.2396
 2668SOL    HW2 8904   1.919   5.851   5.957  1.2922  0.8161 -0.3526
 2669SOL     OW 8905   5.760   2.199   1.494 -0.0456 -0.2984 -0.2120
 2669SOL    HW1 8906   5.823   2.133   1.454  0.1806  0.2950 -0.8385
 2669SOL    HW2 8907   5.743   2.174   1.590 -0.6873 -1.7964 -0.6737
 2670SOL     OW 8908   6.994   0.955   0.395 -0.3046  0.4675 -0.1381
 2670SOL    HW1 8909   6.898   0.966   0.421 -0.0345  0.6550  0.7932
 2670SOL    HW2 8910   7.044   1.040   0.414  0.2464  0.0550  0.2864
 2671SOL     OW 8911   5.592   1.741   2.643 -0.1919 -0.4738  0.1522
 2671SOL    HW1 8912   5.589   1.840   2.657 -0.2485 -0.4920  0.2735
 2671SOL    HW2 8913   5.588   1.721   2.545 -0.5759 -0.3690  0.1452
 2672SOL     OW 8914   0.772   5.984   4.012 -0.2277 -0.1315  0.1519
 2672SOL    HW1 8915   0.760   6.068   4.064  0.9210 -0.2277  0.6109
 2672SOL    HW2 8916   0.855   5.937   4.043  0.2294 -0.4342 -1.4199
 2673SOL     OW 8917   4.748   1.791   1.768 -0.8576 -0.7578  0.0974
 2673SOL    HW1 8918   4.651   1.768   1.772 -0.8619 -1.0098 -1.0260
 2673SOL    HW2 8919   4.761   1.886   1.795 -1.0505 -1.4851  3.1347
 2674SOL     OW 8920   4.254   0.576   1.134  0.3277 -0.0159  0.0000
 2674SOL    HW1 8921   4.297   0.657   1.094  0.9764 -1.2729 -1.9720
 2674SOL    HW2 8922   4.310   0.496   1.114 -0.1150 -0.9525  2.2226
 2675SOL     OW 8923   5.090   5.841   3.633  0.0719  0.2462 -0.5751
 2675SOL    HW1 8924   5.059   5.926   3.591 -0.8821 -0.7412 -1.9806
 2675SOL    HW2 8925   5.114   5.775   3.561 -1.3746 -1.4265  0.3999
 2676SOL     OW 8926   0.733   6.882   4.857  0.4863 -0.1596  0.1207
 2676SOL    HW1 8927   0.708   6.979   4.852  1.4800  0.0326 -2.6455
 2676SOL    HW2 8928   0.719   6.840   4.767  2.1908 -2.0298  0.6783
 2677SOL     OW 8929   4.148   0.147   3.628 -0.6394  0.3064  0.8539
 2677SOL    HW1 8930   4.165   0.241   3.657 -0.1786  0.1790  1.0109
 2677SOL    HW2 8931   4.151   0.087   3.707 -2.2458  0.3213  0.9487
 2678SOL     OW 8932   6.066   2.807   3.917 -0.2759 -0.1098  0.3591
 2678SOL    HW1 8933   5.985   2.759   3.951 -0.8057 -0.0020 -0.6960
 2678SOL    HW2 8934   6.095   2.765   3.831  0.4655  0.2019  0.4498
 2679SOL     OW 8935   6.815   0.248   5.034  0.4785 -0.5236 -0.8383
 2679SOL    HW1 8936   6.746   0.176   5.033 -0.5004  0.3546  0.6741
 2679SOL    HW2 8937   6.860   0.250   5.123 -2.5804  3.4658  0.9041
 2680SOL     OW 8938   6.682   5.853   4.804  0.4921 -0.1979  0.4527
 2680SOL    HW1 8939   6.767   5.880   4.761 -0.7470  1.9370 -0.8368
 2680SOL    HW2 8940   6.650   5.767   4.764  1.0777  0.0015 -0.4725
 2681SOL     OW 8941   6.779   1.652   6.633  0.9538 -0.0469 -0.0914
 2681SOL    HW1 8942   6.719   1.591   6.684  1.6857 -0.0893  0.7296
 2681SOL    HW2 8943   6.767   1.636   6.535 -0.7102  0.2635  0.0195
 2682SOL     OW 8944   2.044   1.572   5.462  0.0772 -0.1553 -0.7667
 2682SOL    HW1 8945   2.050   1.656   5.516 -0.2892  0.6555 -1.9511
 2682SOL    HW2 8946   2.063   1.593   5.366 -0.7130 -1.3013 -1.1911
 2683SOL     OW 8947   5.588   3.725   4.570 -0.0806  0.1683  0.3362
 2683SOL    HW1 8948   5.608   3.774   4.484  1.6972 -1.0175  0.0150
 2683SOL    HW2 8949   5.593   3.789   4.646  1.9564  0.6223 -0.1027
 2684SOL     OW 8950   4.547   5.058   0.788  0.1989  0.2175  0.7186
 2684SOL    HW1 8951   4.559   4.983   0.723 -0.1173  0.2183  0.6557
 2684SOL    HW2 8952   4.631   5.112   0.793  0.5283 -0.3118  0.9812
 2685SOL     OW 8953   3.532   0.941   0.547 -0.0281 -0.1020 -0.5001
 2685SOL    HW1 8954   3.602   1.002   0.584 -1.1501  1.3563 -0.6660
 2685SOL    HW2 8955   3.575   0.866   0.496  1.4496 -0.5369  1.3026
 2686SOL     OW 8956   5.764   2.229   2.857  0.4983  0.2783 -0.4344
 2686SOL    HW1 8957   5.796   2.308   2.910 -0.6705  0.5426 -0.0953
 2686SOL    HW2 8958   5.749   2.257   2.762  1.3592  0.1214 -0.6264
 2687SOL     OW 8959   3.295   4.055   5.395  0.0190  0.2738 -0.4833
 2687SOL    HW1 8960   3.394   4.064   5.394 -0.0989  1.8182 -0.3916
 2687SOL    HW2 8961   3.257   4.098   5.313 -0.7074  2.0439  0.7174
 2688SOL     OW 8962   3.809   3.006   1.124 -0.3204  0.3348  0.1880
 2688SOL    HW1 8963   3.814   2.921   1.073 -0.0033 -0.6042  1.7178
 2688SOL    HW2 8964   3.714   3.028   1.145 -0.3897  0.2939 -0.0766
 2689SOL     OW 8965   2.996   1.367   2.337  0.1137 -0.5209  0.1858
 2689SOL    HW1 8966   3.045   1.340   2.254  0.9273  0.3568  0.3566
 2689SOL    HW2 8967   3.006   1.297   2.407  0.5379 -0.6688 -0.0230
 2690SOL     OW 8968   2.952   3.271   3.123  0.5673 -0.4882 -0.0986
 2690SOL    HW1 8969   2.942   3.209   3.045 -0.2390 -0.5238  0.0263
 2690SOL    HW2 8970   3.016   3.232   3.189 -1.1843 -2.0044  0.7746
 2691SOL     OW 8971   5.333   4.483   3.338 -0.5529  0.2107 -0.3555
 2691SOL    HW1 8972   5.302   4.389   3.322  1.8416 -0.6675 -0.2130
 2691SOL    HW2 8973   5.347   4.529   3.251  0.2683 -0.2929 -0.5011
 2692SOL     OW 8974   2.023   1.775   0.245  0.0546 -0.2696  0.1975
 2692SOL    HW1 8975   2.031   1.702   0.314 -0.5980 -0.2565  0.2874
 2692SOL    HW2 8976   1.927   1.790   0.223  0.2026  0.4085  0.0033
 2693SOL     OW 8977   0.195   1.162   1.600 -1.0861 -0.2872 -0.2966
 2693SOL    HW1 8978   0.234   1.103   1.671  0.0497 -0.5636 -1.1190
 2693SOL    HW2 8979   0.142   1.235   1.642 -0.2279 -0.3014  0.8528
 2694SOL     OW 8980   1.518   0.724   0.980 -0.1014  0.0902 -0.3874
 2694SOL    HW1 8981   1.539   0.798   1.044  0.4523 -1.3921  1.2338
 2694SOL    HW2 8982   1.599   0.668   0.967 -0.7432 -0.7401 -0.8777
 2695SOL     OW 8983   5.805   1.919   5.801 -0.6685  0.3190 -0.0171
 2695SOL    HW1 8984   5.793   2.008   5.756  0.4102  0.4401 -0.0980
 2695SOL    HW2 8985   5.896   1.915   5.842  0.4367 -1.7564 -2.3904
 2696SOL     OW 8986   3.410   1.712   5.619  0.0020  0.3831  0.0682
 2696SOL    HW1 8987   3.475   1.637   5.610 -0.4165 -0.0859  0.8119
 2696SOL    HW2 8988   3.317   1.675   5.621 -0.1429  0.7603  1.9683
 2697SOL     OW 8989   5.934   0.469   3.746  0.0054 -0.1631  0.1311
 2697SOL    HW1 8990   5.930   0.530   3.667 -0.1229 -0.3136  0.0206
 2697SOL    HW2 8991   5.844   0.429   3.762 -0.9041  2.4418  2.4052
 2698SOL     OW 8992   4.436   0.719   1.523  0.0768 -0.0897 -0.1161
 2698SOL    HW1 8993   4.349   0.744   1.481 -0.5952 -1.1231  0.6030
 2698SOL    HW2 8994   4.424   0.711   1.622  1.4017  1.3823  0.2217
 2699SOL     OW 8995   1.264   2.529   6.643  0.2660  0.6221 -0.3961
 2699SOL    HW1 8996   1.227   2.503   6.732 -0.5941  0.1778 -0.8745
 2699SOL    HW2 8997   1.282   2.628   6.643  0.1916  0.6432  0.2309
 2700SOL     OW 8998   1.286   5.717   0.697  0.8729  0.5874  0.3822
 2700SOL    HW1 8999   1.383   5.696   0.700  0.9945  1.0352  3.8075
 2700SOL    HW2 9000   1.233   5.631   0.696  1.2341  0.3459 -1.3587
 2701SOL     OW 9001   3.713   1.131   0.634  0.2430  0.4176  0.7422
 2701SOL    HW1 9002   3.766   1.208   0.599 -0.8817  0.8635 -0.0509
 2701SOL    HW2 9003   3.770   1.076   0.694  2.6125 -0.9525 -2.5106
 2702SOL     OW 9004   4.160   6.973   3.199  0.3751 -0.0275  0.0843
 2702SOL    HW1 9005   4.229   6.906   3.227  1.0247  0.3423 -0.6128
 2702SOL    HW2 9006   4.128   6.953   3.107 -1.7705 -1.2397  1.0342
 2703SOL     OW 9007   5.130   2.454   6.886 -0.4144  0.0163 -0.8238
 2703SOL    HW1 9008   5.209   2.472   6.944 -1.1080 -0.6572  0.3863
 2703SOL    HW2 9009   5.056   2.416   6.942 -1.3612 -0.0002 -2.0421
 2704SOL     OW 9010   6.040   6.318   4.543 -0.0784  0.7866  0.3646
 2704SOL    HW1 9011   6.064   6.305   4.447  1.0233  0.1662  0.6979
 2704SOL    HW2 9012   5.958   6.264   4.565 -0.7646  1.5106 -0.3880
 2705SOL     OW 9013   0.860   3.148   2.191 -0.1881 -0.2093  0.6747
 2705SOL    HW1 9014   0.865   3.154   2.091  0.4025 -0.6916  0.6664
 2705SOL    HW2 9015   0.852   3.052   2.218  1.4818 -0.2398  1.1454
 2706SOL     OW 9016   0.459   0.229   2.171 -0.2264 -0.4064 -0.2490
 2706SOL    HW1 9017   0.476   0.138   2.209  1.2114  0.4525  1.2757
 2706SOL    HW2 9018   0.544   0.267   2.134 -0.6100  0.6589 -0.0909
 2707SOL     OW 9019   0.071   3.125   2.470 -0.0069  0.1319  0.2041
 2707SOL    HW1 9020   0.137   3.054   2.444  0.3994  0.6753 -0.2623
 2707SOL    HW2 9021   0.113   3.215   2.461 -0.4102  0.4230  1.1381
 2708SOL     OW 9022   2.481   6.690   0.469  0.0860 -0.4429 -0.6773
 2708SOL    HW1 9023   2.392   6.669   0.510 -0.7916 -0.4404 -2.4474
 2708SOL    HW2 9024   2.486   6.788   0.450  1.1015 -0.1952  0.7677
 2709SOL     OW 9025   0.736   2.588   4.607  0.1446 -0.4593 -0.0224
 2709SOL    HW1 9026   0.662   2.525   4.631 -0.6334 -0.2487 -1.7645
 2709SOL    HW2 9027   0.723   2.674   4.657 -1.3039 -0.1057 -0.9452
 2710SOL     OW 9028   6.765   1.423   5.483  0.2189  0.5571 -0.4006
 2710SOL    HW1 9029   6.859   1.399   5.462  0.1386  0.2075 -0.3726
 2710SOL    HW2 9030   6.719   1.454   5.400  0.0472 -0.3303 -0.6466
 2711SOL     OW 9031   3.476   4.054   6.052 -0.3938  0.5108  0.3250
 2711SOL    HW1 9032   3.564   4.028   6.092 -0.0337  1.9879  0.5251
 2711SOL    HW2 9033   3.414   3.975   6.054  0.8056 -0.4541  0.4800
 2712SOL     OW 9034   2.208   5.406   1.907 -0.0192  0.4478  0.1509
 2712SOL    HW1 9035   2.203   5.340   1.982  1.2361  0.1356 -0.0213
 2712SOL    HW2 9036   2.288   5.387   1.850 -1.2480  0.3211 -1.6226
 2713SOL     OW 9037   4.510   5.601   4.702  0.7957 -0.2411 -0.2543
 2713SOL    HW1 9038   4.476   5.525   4.756  2.0989 -1.8321 -1.5709
 2713SOL    HW2 9039   4.434   5.643   4.652  0.0553 -0.6119  0.5224
 2714SOL     OW 9040   0.046   2.711   0.360 -0.1767 -0.1315  0.0876
 2714SOL    HW1 9041   0.040   2.804   0.324  0.0698  0.1059  0.6516
 2714SOL    HW2 9042  -0.024   2.654   0.317  0.1492  0.1304 -0.8057
 2715SOL     OW 9043   5.664   4.602   6.021 -0.6807  0.1217  0.5340
 2715SOL    HW1 9044   5.591   4.574   5.958  0.8016  1.5944 -2.0288
 2715SOL    HW2 9045   5.741   4.637   5.968  0.3962  2.1452  3.2352
 2716SOL     OW 9046   3.194   5.680   2.344 -0.5123  0.7016 -0.6201
 2716SOL    HW1 9047   3.236   5.729   2.268 -0.2280  0.2322 -0.7707
 2716SOL    HW2 9048   3.229   5.717   2.431 -1.0691  1.4448 -0.6973
 2717SOL     OW 9049   3.237   4.880   0.283  0.1821  0.2084 -0.2256
 2717SOL    HW1 9050   3.210   4.925   0.199 -0.8945 -1.4147 -0.8137
 2717SOL    HW2 9051   3.319   4.825   0.268  1.1432  1.4400  0.3320
 2718SOL     OW 9052   4.327   6.279   5.413 -0.6036 -0.2078  0.0617
 2718SOL    HW1 9053   4.239   6.291   5.459 -0.7005 -0.0892 -0.1518
 2718SOL    HW2 9054   4.367   6.368   5.392  0.5220 -0.2175  1.9282
 2719SOL     OW 9055   6.852   4.920   4.419  0.1337  0.1171 -0.0973
 2719SOL    HW1 9056   6.907   4.912   4.336  2.4437  2.5792  1.0296
 2719SOL    HW2 9057   6.810   5.010   4.423 -3.1040 -1.2258 -0.2429
 2720SOL     OW 9058   0.227   0.597   4.514  0.2099  0.1003 -0.2560
 2720SOL    HW1 9059   0.251   0.688   4.482  0.1482  0.0831 -0.3540
 2720SOL    HW2 9060   0.143   0.602   4.569  2.0460  0.6218  2.6918
 2721SOL     OW 9061   5.115   3.812   0.670  0.2645  0.4488  0.0739
 2721SOL    HW1 9062   5.134   3.890   0.609 -0.7185  0.2039 -0.5740
 2721SOL    HW2 9063   5.024   3.822   0.708 -1.1205 -1.7897 -2.3175
 2722SOL     OW 9064   6.577   5.709   2.839 -0.1998 -0.1493 -0.3058
 2722SOL    HW1 9065   6.640   5.731   2.913  0.8201  0.4216 -1.3124
 2722SOL    HW2 9066   6.588   5.776   2.765 -0.5644 -1.2128 -1.3490
 2723SOL     OW 9067   6.981   4.282   2.145  0.2928 -0.5838 -0.0929
 2723SOL    HW1 9068   6.902   4.340   2.127 -0.3138 -1.4332 -0.2136
 2723SOL    HW2 9069   7.052   4.336   2.191  0.3245  0.6161 -1.4727
 2724SOL     OW 9070   5.504   5.661   4.222  0.3720  0.0596  0.5508
 2724SOL    HW1 9071   5.599   5.691   4.224  0.7381 -0.8035  4.5568
 2724SOL    HW2 9072   5.463   5.675   4.312 -2.3712 -2.3076 -0.1885
 2725SOL     OW 9073   5.363   4.301   5.679  0.1394  0.2159  0.9203
 2725SOL    HW1 9074   5.269   4.327   5.699 -0.1454 -0.0326 -0.0254
 2725SOL    HW2 9075   5.363   4.224   5.616  0.9769  0.4360  0.6428
 2726SOL     OW 9076   3.631   3.072   3.082  0.1497  0.0875  0.1130
 2726SOL    HW1 9077   3.657   3.012   3.007 -1.1396  0.9306 -1.0719
 2726SOL    HW2 9078   3.550   3.035   3.128  1.6736 -1.1152  2.0240
 2727SOL     OW 9079   1.254   4.049   3.256 -0.2074  0.5976 -0.3026
 2727SOL    HW1 9080   1.352   4.063   3.244  0.0749  1.1360  2.0857
 2727SOL    HW2 9081   1.239   3.974   3.320 -1.3041  1.2627  0.2512
 2728SOL     OW 9082   1.486   5.046   3.652 -0.4604 -0.2076 -0.3303
 2728SOL    HW1 9083   1.401   5.098   3.659  0.0547  0.8366 -1.4812
 2728SOL    HW2 9084   1.502   5.021   3.557  0.6221 -0.2157 -0.1574
 2729SOL     OW 9085   1.098   0.744   3.441 -0.0100 -0.0090 -0.0004
 2729SOL    HW1 9086   1.105   0.844   3.447 -0.8051  0.0530  0.0876
 2729SOL    HW2 9087   1.186   0.705   3.414  0.1752  0.7549 -0.5267
 2730SOL     OW 9088   6.328   3.551   4.796 -0.7545 -0.2758  0.7628
 2730SOL    HW1 9089   6.403   3.604   4.758 -1.6409  0.3288 -0.2154
 2730SOL    HW2 9090   6.309   3.581   4.889  0.3120 -0.5504  1.0724
 2731SOL     OW 9091   3.865   2.178   4.138  0.0734  0.0780  0.9239
 2731SOL    HW1 9092   3.767   2.174   4.118  0.1057 -0.5438  0.8771
 2731SOL    HW2 9093   3.915   2.207   4.057 -0.0183 -0.1715  0.7764
 2732SOL     OW 9094   1.025   6.252   2.480  0.4300  0.3494 -0.1523
 2732SOL    HW1 9095   0.975   6.291   2.403  0.7496 -1.0704 -1.1271
 2732SOL    HW2 9096   0.975   6.174   2.517  1.6870 -0.8466 -0.8847
 2733SOL     OW 9097   5.099   3.356   1.637 -0.8140 -0.7230 -0.2847
 2733SOL    HW1 9098   5.063   3.448   1.620 -0.0227 -0.5466 -1.0863
 2733SOL    HW2 9099   5.056   3.318   1.719 -0.2325  0.8598  0.7904
 2734SOL     OW 9100   2.347   1.263   2.213 -0.1879 -0.3658 -0.1358
 2734SOL    HW1 9101   2.439   1.297   2.232 -0.5511  0.2154  0.6074
 2734SOL    HW2 9102   2.336   1.250   2.114 -0.5806  3.3365 -0.7275
 2735SOL     OW 9103   2.909   5.464   1.440 -0.0117 -0.1601 -0.2404
 2735SOL    HW1 9104   2.952   5.440   1.527 -1.7891 -1.5385  0.3127
 2735SOL    HW2 9105   2.907   5.383   1.381 -0.6639  0.2132 -0.7384
 2736SOL     OW 9106   2.230   0.732   6.030  0.2635 -0.4694  0.5361
 2736SOL    HW1 9107   2.265   0.822   6.057 -1.5411 -0.2914  2.5755
 2736SOL    HW2 9108   2.164   0.742   5.956  0.3454 -0.1769  0.5038
 2737SOL     OW 9109   5.372   6.555   4.670 -0.0907  0.0811 -0.2597
 2737SOL    HW1 9110   5.417   6.467   4.683  0.0536  0.0020 -1.1888
 2737SOL    HW2 9111   5.425   6.609   4.604  1.4052  2.0244  2.3545
 2738SOL     OW 9112   2.406   3.557   6.789  0.0527 -0.2639  0.1746
 2738SOL    HW1 9113   2.495   3.598   6.769 -0.0457  1.4717  2.7743
 2738SOL    HW2 9114   2.407   3.460   6.763  1.7982  0.2990 -2.1523
 2739SOL     OW 9115   1.028   1.950   0.217  0.0291  0.0012 -0.5278
 2739SOL    HW1 9116   1.085   1.868   0.221  0.8804  0.5500 -1.0716
 2739SOL    HW2 9117   1.057   2.007   0.140 -2.3387 -0.4836 -1.8807
 2740SOL     OW 9118   1.122   2.088   6.999  0.0821  0.6482  0.3436
 2740SOL    HW1 9119   1.213   2.131   7.001  0.7909 -0.7903  0.3415
 2740SOL    HW2 9120   1.055   2.153   6.964  1.1556  1.6598  0.1128
 2741SOL     OW 9121   0.045   5.346   2.413 -0.1806 -0.2962  0.5273
 2741SOL    HW1 9122   0.032   5.251   2.445 -2.1726 -0.1425  0.3284
 2741SOL    HW2 9123   0.048   5.407   2.492 -2.1632 -0.2330  0.6229
 2742SOL     OW 9124   3.821   1.291   4.839 -0.1247  0.2677 -0.1936
 2742SOL    HW1 9125   3.729   1.264   4.868 -0.8040  1.5474 -1.0603
 2742SOL    HW2 9126   3.846   1.238   4.757 -0.8627  1.1935 -1.0412
 2743SOL     OW 9127   6.601   3.004   0.109 -0.2047  0.1530 -0.2973
 2743SOL    HW1 9128   6.575   3.015   0.013  1.0768  0.9843 -0.5808
 2743SOL    HW2 9129   6.634   2.911   0.125 -1.3707 -0.2992 -0.3990
 2744SOL     OW 9130   0.407   0.327   0.268 -0.0350 -0.2719 -0.7425
 2744SOL    HW1 9131   0.321   0.377   0.284 -0.5574 -0.8138 -1.7587
 2744SOL    HW2 9132   0.388   0.246   0.213  0.8590 -1.4172  0.5781
 2745SOL     OW 9133   1.539   3.998   0.037  0.3242 -0.7646 -0.4176
 2745SOL    HW1 9134   1.506   3.932   0.105 -2.0851  1.2910  0.5747
 2745SOL    HW2 9135   1.461   4.043  -0.007  1.7090  2.6745  0.2789
 2746SOL     OW 9136   1.132   6.220   1.184  0.3710 -0.1058 -0.0251
 2746SOL    HW1 9137   1.092   6.243   1.273 -0.7268  1.0785 -0.7988
 2746SOL    HW2 9138   1.099   6.130   1.155 -0.3926  0.1190  0.1202
 2747SOL     OW 9139   3.668   4.151   1.034  0.1705  0.0822  0.1019
 2747SOL    HW1 9140   3.760   4.130   1.069 -1.1580 -2.6438  2.3870
 2747SOL    HW2 9141   3.615   4.066   1.029 -1.8880  1.4081 -2.3559
 2748SOL     OW 9142   2.312   1.463   2.847 -0.2248  0.1020 -0.2834
 2748SOL    HW1 9143   2.222   1.418   2.846 -0.5598  0.6801  1.1268
 2748SOL    HW2 9144   2.338   1.487   2.754 -2.2049  1.2177 -0.5964
 2749SOL     OW 9145   1.354   5.342   1.978 -0.1413  0.3648 -0.4291
 2749SOL    HW1 9146   1.327   5.341   2.074  0.8300  1.4513 -0.1167
 2749SOL    HW2 9147   1.275   5.320   1.921 -0.6115 -0.7826  0.6237
 2750SOL     OW 9148   6.396   3.287   6.923 -0.6164 -0.6714 -0.2510
 2750SOL    HW1 9149   6.474   3.225   6.929  1.1676  1.5270  0.7691
 2750SOL    HW2 9150   6.396   3.348   7.002  0.0034  3.1037 -2.8939
 2751SOL     OW 9151   1.747   4.475   2.163 -0.7253  0.1480 -0.3452
 2751SOL    HW1 9152   1.657   4.515   2.180  0.1962  2.3150 -0.2549
 2751SOL    HW2 9153   1.803   4.540   2.111  1.8906  0.3245  2.4341
 2752SOL     OW 9154   2.742   4.140   0.711 -0.0447 -0.4117 -0.0437
 2752SOL    HW1 9155   2.736   4.212   0.780 -0.3230  0.5576 -1.0437
 2752SOL    HW2 9156   2.757   4.181   0.621 -2.5375 -1.4008 -1.0157
 2753SOL     OW 9157   3.981   2.350   5.360 -0.3907  0.0607  0.0145
 2753SOL    HW1 9158   4.031   2.405   5.293 -0.8548 -2.3320 -2.5102
 2753SOL    HW2 9159   3.891   2.390   5.376  0.7656  2.2712  1.6238
 2754SOL     OW 9160   3.222   5.106   1.318  0.2184 -0.2060 -0.5511
 2754SOL    HW1 9161   3.145   5.042   1.312 -0.2949  0.2115  1.0919
 2754SOL    HW2 9162   3.218   5.170   1.241 -0.9156 -0.3639 -0.6396
 2755SOL     OW 9163   1.743   5.206   5.583 -0.2168 -0.2385 -0.0037
 2755SOL    HW1 9164   1.804   5.278   5.619  1.4536 -0.5083 -2.1156
 2755SOL    HW2 9165   1.695   5.240   5.502 -1.9550 -0.4780  0.8778
 2756SOL     OW 9166   4.306   5.027   1.420 -0.0581  0.2848 -0.2100
 2756SOL    HW1 9167   4.338   5.001   1.329  0.9435 -0.4314  0.3248
 2756SOL    HW2 9168   4.384   5.031   1.483 -0.6646  1.2668  0.5100
 2757SOL     OW 9169   1.345   1.758   6.473  0.0751  0.2232 -0.7228
 2757SOL    HW1 9170   1.259   1.708   6.478  0.2315  0.0430  0.9519
 2757SOL    HW2 9171   1.363   1.803   6.561  1.5465  0.5018 -1.1250
 2758SOL     OW 9172   1.638   3.088   2.650 -0.0281  0.0852 -0.3464
 2758SOL    HW1 9173   1.584   3.010   2.619  1.0380 -1.1216  0.7203
 2758SOL    HW2 9174   1.583   3.145   2.710 -0.2932 -0.8483  0.3224
 2759SOL     OW 9175   5.387   6.851   6.136  0.0489  0.3204 -0.2257
 2759SOL    HW1 9176   5.296   6.866   6.097 -0.7001  2.2852  2.0803
 2759SOL    HW2 9177   5.392   6.757   6.172 -2.4323  1.1240  2.6813
 2760SOL     OW 9178   5.914   4.490   5.340 -0.4784  0.0564 -0.2116
 2760SOL    HW1 9179   5.826   4.518   5.303 -0.5314 -0.1060 -0.2076
 2760SOL    HW2 9180   5.952   4.416   5.285  0.1459  0.8273 -0.8451
 2761SOL     OW 9181   6.547   4.767   2.038 -0.0888  0.3579  0.6693
 2761SOL    HW1 9182   6.529   4.669   2.041  0.8239  0.0484 -1.7257
 2761SOL    HW2 9183   6.640   4.783   2.004 -1.1374  2.0356 -1.7017
 2762SOL     OW 9184   6.089   4.317   1.457  0.2716  0.4815  0.0430
 2762SOL    HW1 9185   6.044   4.389   1.509 -1.3913 -0.4486 -0.0139
 2762SOL    HW2 9186   6.021   4.270   1.401  2.0509  1.7304 -3.4066
 2763SOL     OW 9187   4.655   4.372   6.582  0.7846  0.5259 -0.7143
 2763SOL    HW1 9188   4.558   4.354   6.562  0.4730  1.3530 -0.0055
 2763SOL    HW2 9189   4.662   4.441   6.655  1.9102 -0.1807 -0.1343
 2764SOL     OW 9190   1.413   3.466   6.035 -1.0978 -0.0496  0.2254
 2764SOL    HW1 9191   1.383   3.536   6.100  1.3738 -0.2987  1.7627
 2764SOL    HW2 9192   1.467   3.509   5.962  3.3196 -0.3640  2.9158
 2765SOL     OW 9193   1.776   4.908   4.528  0.0035 -0.2590  0.4056
 2765SOL    HW1 9194   1.813   4.837   4.589  2.2773 -1.2264 -1.8920
 2765SOL    HW2 9195   1.737   4.864   4.446  0.6132  1.0842 -0.6403
 2766SOL     OW 9196   1.820   5.067   0.919 -0.4300 -0.3882  0.8249
 2766SOL    HW1 9197   1.811   5.042   1.015 -0.9301 -2.4365  0.2912
 2766SOL    HW2 9198   1.887   5.008   0.875 -1.7385 -0.9132 -0.5459
 2767SOL     OW 9199   4.152   0.130   0.462  0.2072 -0.7558 -0.1627
 2767SOL    HW1 9200   4.172   0.066   0.536  1.6507  0.7203  0.7936
 2767SOL    HW2 9201   4.151   0.223   0.498 -0.8896 -0.1407 -1.6850
 2768SOL     OW 9202   5.847   3.749   1.214  0.3315 -0.1730 -0.4186
 2768SOL    HW1 9203   5.872   3.656   1.238  0.0769  0.0619  0.8296
 2768SOL    HW2 9204   5.762   3.748   1.160  0.7258 -0.6936 -1.0459
 2769SOL     OW 9205   4.546   6.301   3.950  0.6629 -0.0794 -0.5541
 2769SOL    HW1 9206   4.629   6.345   3.983 -0.1579  1.0353  0.0996
 2769SOL    HW2 9207   4.479   6.297   4.025 -0.0327 -0.5596 -1.1900
 2770SOL     OW 9208   3.470   1.311   1.568 -0.2042  0.4579  0.1703
 2770SOL    HW1 9209   3.474   1.255   1.650 -3.1117 -1.1409 -0.6406
 2770SOL    HW2 9210   3.561   1.348   1.548  1.3535 -2.0382  2.0614
 2771SOL     OW 9211   1.047   3.169   4.186 -0.2507  0.3591 -0.0149
 2771SOL    HW1 9212   0.952   3.180   4.155 -0.3913  0.0817  0.3041
 2771SOL    HW2 9213   1.103   3.243   4.149 -1.0825  1.9120  1.6714
 2772SOL     OW 9214   5.878   3.911   4.780 -0.3569  0.0844  0.2964
 2772SOL    HW1 9215   5.818   3.912   4.860 -0.7435  1.2207  0.0166
 2772SOL    HW2 9216   5.841   3.972   4.710 -0.5316 -1.5971 -1.1474
 2773SOL     OW 9217   6.916   4.219   2.833  0.3529 -0.0040 -0.1300
 2773SOL    HW1 9218   6.871   4.305   2.856 -0.3076 -0.3675 -0.0330
 2773SOL    HW2 9219   6.915   4.159   2.914  1.2496  0.0834 -0.0489
 2774SOL     OW 9220   3.495   5.248   6.709 -0.5403 -0.3807 -0.2245
 2774SOL    HW1 9221   3.418   5.185   6.704 -1.4188  0.3399  2.3001
 2774SOL    HW2 9222   3.511   5.272   6.805 -0.1831  3.1019 -1.0240
 2775SOL     OW 9223   3.985   5.639   3.761 -0.3201 -0.1688  0.0253
 2775SOL    HW1 9224   3.915   5.597   3.819  0.9930 -0.2862  1.5906
 2775SOL    HW2 9225   3.991   5.589   3.675 -0.5737 -1.5901  0.8049
 2776SOL     OW 9226   0.040   2.502   1.063 -0.4492 -0.1129 -0.2067
 2776SOL    HW1 9227   0.115   2.547   1.014  0.0374 -0.0765  0.5602
 2776SOL    HW2 9228   0.015   2.557   1.142 -0.3143 -0.8375  0.3486
 2777SOL     OW 9229   5.792   0.949   6.861  0.1810  0.1124 -0.2040
 2777SOL    HW1 9230   5.714   0.966   6.922  0.1092 -0.8529 -0.0133
 2777SOL    HW2 9231   5.760   0.902   6.779  0.7537 -1.7316  0.5730
 2778SOL     OW 9232   1.353   2.909   1.452  0.5063 -0.2211  0.3712
 2778SOL    HW1 9233   1.379   2.975   1.382  0.6311 -0.3825  0.2624
 2778SOL    HW2 9234   1.347   2.818   1.411 -1.9154  0.0371  0.0041
 2779SOL     OW 9235   5.124   2.000   6.594 -0.2666  0.4031 -0.2854
 2779SOL    HW1 9236   5.129   1.920   6.535 -0.3240  0.6796 -0.6731
 2779SOL    HW2 9237   5.208   2.053   6.586  0.1122 -0.0397  0.5918
 2780SOL     OW 9238   0.585   1.091   4.128  0.3971  0.0324  0.0631
 2780SOL    HW1 9239   0.586   1.012   4.188 -0.0823  1.9697  2.8145
 2780SOL    HW2 9240   0.664   1.150   4.147 -0.0378  0.9556 -0.8432
 2781SOL     OW 9241   6.258   6.013   0.524 -0.5485  0.0928  0.3713
 2781SOL    HW1 9242   6.241   5.931   0.469  0.9442 -0.8910  1.3009
 2781SOL    HW2 9243   6.324   5.991   0.596 -1.9778  1.5089  2.1763
 2782SOL     OW 9244   1.623   0.480   6.391 -0.1836 -0.2143 -0.5537
 2782SOL    HW1 9245   1.542   0.513   6.342 -0.7078 -0.5695  0.0545
 2782SOL    HW2 9246   1.594   0.428   6.472  0.6592  0.2974  0.0909
 2783SOL     OW 9247   4.581   2.667   4.444 -0.3997 -0.1552  0.1637
 2783SOL    HW1 9248   4.610   2.750   4.491  1.7150 -0.2097 -0.9352
 2783SOL    HW2 9249   4.612   2.669   4.349  0.3910 -2.5145  0.3064
 2784SOL     OW 9250   4.695   5.784   1.843  0.3762  0.1477  0.8040
 2784SOL    HW1 9251   4.731   5.816   1.930 -0.0902 -2.4691  2.0588
 2784SOL    HW2 9252   4.598   5.763   1.853  0.3469 -0.3236 -0.3065
 2785SOL     OW 9253   4.571   0.762   2.262 -0.4753  0.1579  0.3537
 2785SOL    HW1 9254   4.479   0.747   2.225 -0.2288 -2.0266  0.4637
 2785SOL    HW2 9255   4.566   0.766   2.362 -0.3317 -1.7076  0.4849
 2786SOL     OW 9256   6.555   3.715   1.567 -0.3447 -0.1231 -0.5321
 2786SOL    HW1 9257   6.545   3.763   1.654  0.1609  0.7874 -0.9570
 2786SOL    HW2 9258   6.472   3.662   1.549 -0.2225 -0.7949  0.7642
 2787SOL     OW 9259   0.058   4.277   0.984 -0.2315  0.1826 -0.0372
 2787SOL    HW1 9260   0.059   4.346   0.911 -0.4450  2.0042  1.6086
 2787SOL    HW2 9261  -0.021   4.292   1.044 -0.3141 -1.5551  0.3471
 2788SOL     OW 9262   4.370   2.504   5.313  0.0697  0.2212 -0.0790
 2788SOL    HW1 9263   4.385   2.603   5.311  0.9196  0.0948 -0.3350
 2788SOL    HW2 9264   4.278   2.483   5.280  0.3974  0.8361 -1.4442
 2789SOL     OW 9265   0.779   2.255   2.611  0.1125 -0.2515 -0.1401
 2789SOL    HW1 9266   0.798   2.351   2.592  1.2668 -0.4437 -0.0347
 2789SOL    HW2 9267   0.779   2.203   2.526  0.7991 -0.3697 -0.0717
 2790SOL     OW 9268   5.246   0.543   3.422 -0.1518  0.5956 -0.1094
 2790SOL    HW1 9269   5.158   0.501   3.442 -0.3196  0.9456 -0.0970
 2790SOL    HW2 9270   5.288   0.575   3.507  1.1383 -1.7568  0.2105
 2791SOL     OW 9271   1.625   4.486   6.746 -0.3869 -0.2855 -0.0550
 2791SOL    HW1 9272   1.538   4.442   6.723 -0.6942  0.4429 -0.2901
 2791SOL    HW2 9273   1.688   4.480   6.668 -1.0057  1.1215 -0.6888
 2792SOL     OW 9274   4.569   1.068   6.420 -0.6731  0.1499 -0.1388
 2792SOL    HW1 9275   4.502   0.993   6.418 -1.4736  0.6856  2.5853
 2792SOL    HW2 9276   4.658   1.032   6.446  0.2529 -0.5562 -3.7224
 2793SOL     OW 9277   5.355   6.700   4.137 -0.1163  0.4416  0.3222
 2793SOL    HW1 9278   5.318   6.651   4.216  1.1906  0.6860  1.1154
 2793SOL    HW2 9279   5.295   6.686   4.058 -0.9760 -0.5416  1.1205
 2794SOL     OW 9280   2.190   3.920   2.629 -0.0400 -0.6303  0.2796
 2794SOL    HW1 9281   2.277   3.908   2.677 -0.0734  0.8789  0.7676
 2794SOL    HW2 9282   2.200   3.991   2.559 -1.3529  1.0236  1.6863
 2795SOL     OW 9283   4.127   0.328   2.463  0.3440  0.1239  0.0175
 2795SOL    HW1 9284   4.223   0.309   2.443  0.7376  0.8852  1.1325
 2795SOL    HW2 9285   4.111   0.326   2.561 -1.0700 -1.2284 -0.1880
 2796SOL     OW 9286   1.403   1.031   5.934 -0.0729 -0.6037 -0.3452
 2796SOL    HW1 9287   1.449   1.119   5.928  1.3378 -1.3074 -0.4219
 2796SOL    HW2 9288   1.326   1.029   5.870  0.2719  0.3437 -0.8161
 2797SOL     OW 9289   2.009   1.125   1.353  0.1752 -0.5859  0.3331
 2797SOL    HW1 9290   1.929   1.085   1.309  2.0532 -1.6079 -2.3698
 2797SOL    HW2 9291   2.018   1.221   1.326  1.0535 -1.0788 -1.1899
 2798SOL     OW 9292   5.920   5.473   0.047  0.9118  0.0084 -0.0597
 2798SOL    HW1 9293   6.007   5.446   0.086 -0.2202  2.1616  4.6622
 2798SOL    HW2 9294   5.919   5.572   0.031 -0.8452  0.1627  0.7260
 2799SOL     OW 9295   2.037   5.025   3.647 -0.2477  0.0341  0.5869
 2799SOL    HW1 9296   2.043   5.020   3.747 -1.0247 -1.2081  0.5935
 2799SOL    HW2 9297   1.981   5.103   3.621 -0.4238  0.0959  1.1416
 2800SOL     OW 9298   1.485   0.370   5.369  0.8434 -0.5578 -0.2833
 2800SOL    HW1 9299   1.504   0.460   5.329 -1.0058 -0.2215 -0.4745
 2800SOL    HW2 9300   1.435   0.314   5.303  1.3431 -1.4798  0.1027
 2801SOL     OW 9301   4.671   1.637   6.445  0.2935 -0.4660 -0.0127
 2801SOL    HW1 9302   4.579   1.675   6.448  0.8991  1.1464  3.1644
 2801SOL    HW2 9303   4.729   1.692   6.384 -0.2274  0.1890  0.0762
 2802SOL     OW 9304   6.349   3.253   2.202  0.0258 -0.1842 -0.2368
 2802SOL    HW1 9305   6.261   3.275   2.245 -0.5042 -1.6817 -0.4784
 2802SOL    HW2 9306   6.387   3.335   2.160 -0.8282  0.6871  0.6261
 2803SOL     OW 9307   2.590   2.313   1.571 -0.5166  0.2406  0.1625
 2803SOL    HW1 9308   2.659   2.384   1.553  0.5725 -1.1058 -1.3172
 2803SOL    HW2 9309   2.618   2.259   1.650 -0.5609  0.5227  0.3718
 2804SOL     OW 9310   0.839   6.859   0.411  0.1727  0.4592  0.6364
 2804SOL    HW1 9311   0.873   6.778   0.459 -0.0444  0.2639  0.4647
 2804SOL    HW2 9312   0.917   6.910   0.373  0.2232 -0.9685 -1.3426
 2805SOL     OW 9313   5.322   4.178   0.094 -0.2725  0.1152 -0.2581
 2805SOL    HW1 9314   5.330   4.187  -0.005 -0.0165 -1.5043 -0.4227
 2805SOL    HW2 9315   5.341   4.083   0.120 -1.9728  0.1082  1.1644
 2806SOL     OW 9316   0.341   4.613   6.801 -0.3531  0.6582  0.4805
 2806SOL    HW1 9317   0.304   4.521   6.791  0.2376  0.2166  1.9677
 2806SOL    HW2 9318   0.321   4.667   6.719 -0.7128 -0.7828 -0.4171
 2807SOL     OW 9319   5.958   2.404   2.085 -0.0269 -0.5370  0.7389
 2807SOL    HW1 9320   5.898   2.482   2.066 -0.2024 -0.9455 -0.5100
 2807SOL    HW2 9321   5.917   2.321   2.047  0.9750 -0.9521  0.5259
 2808SOL     OW 9322   5.265   4.942   6.980  0.0809  0.3228  0.2504
 2808SOL    HW1 9323   5.209   4.963   6.900 -0.6652 -1.0689  0.3895
 2808SOL    HW2 9324   5.343   4.886   6.953  1.3741  2.1118  0.0864
 2809SOL     OW 9325   3.975   3.943   0.406 -0.0037 -0.2429 -0.4445
 2809SOL    HW1 9326   3.889   3.988   0.383  0.1333  0.5194  0.4423
 2809SOL    HW2 9327   3.960   3.882   0.484  0.3240  0.1835 -0.0407
 2810SOL     OW 9328   4.621   6.678   6.754  0.1607  0.5969 -0.0300
 2810SOL    HW1 9329   4.686   6.745   6.790  0.5152  0.2289  0.0280
 2810SOL    HW2 9330   4.668   6.591   6.739 -0.2279  0.4412 -0.3778
 2811SOL     OW 9331   2.588   1.784   0.050  0.1620  0.0602  0.0668
 2811SOL    HW1 9332   2.625   1.693   0.073 -0.4394 -0.1503  0.2351
 2811SOL    HW2 9333   2.641   1.824  -0.024  1.1046  0.0269  0.7006
 2812SOL     OW 9334   5.285   0.560   0.994 -0.5516  0.1021 -0.2674
 2812SOL    HW1 9335   5.330   0.649   0.992 -2.1384  0.9484 -2.1139
 2812SOL    HW2 9336   5.250   0.543   1.086 -0.2088  1.3902  0.1280
 2813SOL     OW 9337   0.932   5.643   4.920 -0.5252  0.2919  0.4856
 2813SOL    HW1 9338   0.932   5.547   4.949 -0.2293  0.4653  1.0817
 2813SOL    HW2 9339   0.944   5.648   4.821 -0.8034 -0.2938  0.4163
 2814SOL     OW 9340   6.318   1.858   1.889 -0.1583 -0.2873  0.5386
 2814SOL    HW1 9341   6.408   1.858   1.846  0.2342  0.4632  1.3278
 2814SOL    HW2 9342   6.251   1.814   1.828  0.9827 -2.0459  0.4924
 2815SOL     OW 9343   4.031   1.714   0.943  0.4474 -0.4232  0.2703
 2815SOL    HW1 9344   4.084   1.637   0.906 -1.0873 -0.9154 -0.9941
 2815SOL    HW2 9345   4.094   1.782   0.980  1.8472 -2.3382  1.5798
 2816SOL     OW 9346   1.120   1.751   4.529  0.2486 -0.5081  0.1966
 2816SOL    HW1 9347   1.061   1.705   4.596  0.1997  1.4307  1.5735
 2816SOL    HW2 9348   1.193   1.689   4.501  1.0371 -1.0277  3.0788
 2817SOL     OW 9349   0.232   3.653   0.654 -0.0953  0.0916 -0.2833
 2817SOL    HW1 9350   0.230   3.578   0.588  0.9190 -1.0460  0.9296
 2817SOL    HW2 9351   0.148   3.706   0.646 -1.1221 -1.5400 -0.7499
 2818SOL     OW 9352   6.579   5.684   1.321 -0.2568 -0.0097  0.5641
 2818SOL    HW1 9353   6.549   5.737   1.400  0.3682  1.0691  0.1090
 2818SOL    HW2 9354   6.678   5.692   1.311 -0.3197 -0.1586 -0.2931
 2819SOL     OW 9355   5.566   6.828   4.039  0.4839 -0.1983  0.5348
 2819SOL    HW1 9356   5.631   6.842   4.114  1.5162 -0.4188 -0.2950
 2819SOL    HW2 9357   5.496   6.763   4.068  0.6655 -0.0103  1.4267
 2820SOL     OW 9358   0.328   4.181   3.399  0.6332  0.1583 -0.1328
 2820SOL    HW1 9359   0.339   4.238   3.480  0.4816  0.1943 -0.1371
 2820SOL    HW2 9360   0.284   4.095   3.425 -0.2217  0.5349 -0.3197
 2821SOL     OW 9361   5.822   5.166   6.785 -0.0878 -0.6602  0.2370
 2821SOL    HW1 9362   5.831   5.076   6.828  0.8860 -0.5926  0.1899
 2821SOL    HW2 9363   5.740   5.167   6.727 -0.2275 -1.4460  0.4123
 2822SOL     OW 9364   2.091   4.412   4.518  0.2406  0.3767 -0.2167
 2822SOL    HW1 9365   2.138   4.384   4.434  1.4515  2.7974 -0.4497
 2822SOL    HW2 9366   1.993   4.396   4.508  0.5466 -1.0313 -1.3602
 2823SOL     OW 9367   5.146   4.837   4.932 -0.0724  0.5066  0.6874
 2823SOL    HW1 9368   5.125   4.770   5.003  0.1410  0.9554  1.1735
 2823SOL    HW2 9369   5.182   4.789   4.851  0.3123  0.0577  1.1174
 2824SOL     OW 9370   6.625   1.868   0.843  0.1505  0.2964 -0.6241
 2824SOL    HW1 9371   6.671   1.817   0.771  1.8968  1.8490 -0.6812
 2824SOL    HW2 9372   6.559   1.809   0.889  2.5859 -2.2420 -0.1643
 2825SOL     OW 9373   5.805   1.815   1.179 -0.1310  0.2823  0.0998
 2825SOL    HW1 9374   5.859   1.732   1.162 -0.4648  0.4205 -1.8114
 2825SOL    HW2 9375   5.863   1.895   1.168  0.0405  0.3653  1.3602
 2826SOL     OW 9376   5.883   5.615   3.625 -0.4902 -0.6188  0.1491
 2826SOL    HW1 9377   5.975   5.579   3.639  0.1559  0.2182 -1.6175
 2826SOL    HW2 9378   5.861   5.681   3.697  0.1352 -1.1044  0.7921
 2827SOL     OW 9379   4.112   6.062   0.914  0.8188 -0.2889  0.4379
 2827SOL    HW1 9380   4.076   5.984   0.966 -0.8997  0.3699  0.2822
 2827SOL    HW2 9381   4.158   6.125   0.976 -1.4195  0.6075  1.2747
 2828SOL     OW 9382   0.334   6.297   5.009  0.3237  0.0194 -0.3611
 2828SOL    HW1 9383   0.402   6.368   5.026  0.2382  0.0380 -0.0890
 2828SOL    HW2 9384   0.364   6.239   4.933  0.9502 -0.3672  0.1738
 2829SOL     OW 9385   3.949   1.196   3.595 -0.1133 -0.1830  0.0879
 2829SOL    HW1 9386   3.993   1.198   3.505  0.5771  0.0767  0.4257
 2829SOL    HW2 9387   3.899   1.282   3.610 -0.0106 -0.1200  0.0649
 2830SOL     OW 9388   3.675   4.005   0.182  0.2868  0.3163 -0.1320
 2830SOL    HW1 9389   3.762   3.955   0.183 -0.7223 -1.5399  1.2356
 2830SOL    HW2 9390   3.663   4.054   0.269 -0.3227 -0.0072 -0.0248
 2831SOL     OW 9391   0.972   4.931   0.977 -0.0061 -0.0120  0.0792
 2831SOL    HW1 9392   0.945   5.024   0.953 -0.1427 -0.0260  0.1754
 2831SOL    HW2 9393   1.058   4.933   1.029  0.0826  0.0467 -0.0707
 2832SOL     OW 9394   0.699   0.671   0.468  0.2068  0.2513 -0.0096
 2832SOL    HW1 9395   0.620   0.611   0.454  0.6156 -0.0402 -1.1163
 2832SOL    HW2 9396   0.783   0.618   0.459  0.5677  0.9206 -0.6765
 2833SOL     OW 9397   6.190   6.269   4.269  0.0149  0.5163 -0.1810
 2833SOL    HW1 9398   6.245   6.340   4.226  1.6362 -0.8142 -0.4302
 2833SOL    HW2 9399   6.165   6.200   4.201 -0.1694  0.0472  0.3482
 2834SOL     OW 9400   5.522   6.930   6.571 -0.0856 -0.4658 -0.0072
 2834SOL    HW1 9401   5.461   6.954   6.646 -0.0740 -3.0747  0.9440
 2834SOL    HW2 9402   5.603   6.884   6.608  0.2939 -1.0817 -1.5455
 2835SOL     OW 9403   1.249   3.428   1.116  0.4377 -0.0238  0.8229
 2835SOL    HW1 9404   1.266   3.475   1.202 -1.6880 -1.0836  1.9057
 2835SOL    HW2 9405   1.315   3.353   1.105  0.6760  0.0750  1.5700
 2836SOL     OW 9406   2.020   5.823   5.000 -0.0268  0.0462  0.6179
 2836SOL    HW1 9407   1.937   5.855   4.954 -0.7742  0.4285  2.1743
 2836SOL    HW2 9408   2.083   5.899   5.012  0.6399 -0.2714 -0.6859
 2837SOL     OW 9409   1.694   4.800   3.637 -0.6038 -0.0681 -0.5184
 2837SOL    HW1 9410   1.601   4.835   3.644  0.3207  2.3704  0.7993
 2837SOL    HW2 9411   1.746   4.857   3.573  0.6124  0.1520  0.6330
 2838SOL     OW 9412   0.692   6.582   2.540  0.5357 -0.0382  0.0464
 2838SOL    HW1 9413   0.697   6.513   2.612 -1.1742  1.0380  1.2765
 2838SOL    HW2 9414   0.780   6.630   2.534  0.9338 -0.6282  0.9003
 2839SOL     OW 9415   5.454   3.600   2.233 -0.1886 -0.3300  0.4144
 2839SOL    HW1 9416   5.398   3.546   2.169  0.6181 -0.2923 -0.3382
 2839SOL    HW2 9417   5.408   3.687   2.251 -0.2129 -0.1448 -0.4844
 2840SOL     OW 9418   3.202   5.263   4.878 -0.2416 -0.1377 -0.4480
 2840SOL    HW1 9419   3.199   5.165   4.861  0.3289 -0.9222  3.3020
 2840SOL    HW2 9420   3.298   5.293   4.884 -0.3990  0.7973 -1.8664
 2841SOL     OW 9421   2.393   0.710   1.458 -0.2663 -0.5004 -0.2693
 2841SOL    HW1 9422   2.310   0.663   1.489 -0.6135 -0.4028 -1.0257
 2841SOL    HW2 9423   2.459   0.642   1.424  0.2173 -0.6287  0.8902
 2842SOL     OW 9424   6.532   3.860   6.799 -0.0094 -0.2294  0.0628
 2842SOL    HW1 9425   6.574   3.797   6.734  1.4060 -1.6891  2.2610
 2842SOL    HW2 9426   6.524   3.816   6.888 -3.4960  1.0650  0.5627
 2843SOL     OW 9427   0.045   1.234   6.870  0.2013 -0.0065 -0.4898
 2843SOL    HW1 9428   0.097   1.149   6.859  1.3476  0.1476  2.7627
 2843SOL    HW2 9429  -0.043   1.214   6.915  0.0573  0.4278 -0.5712
 2844SOL     OW 9430   4.931   2.458   2.873 -0.5490 -0.0083 -0.4317
 2844SOL    HW1 9431   4.910   2.409   2.788  1.5837 -1.0046 -0.4446
 2844SOL    HW2 9432   4.979   2.543   2.851 -0.6210  0.0785 -0.2528
 2845SOL     OW 9433   3.317   0.257   1.034 -0.2032  0.5226 -0.3513
 2845SOL    HW1 9434   3.408   0.293   1.017  0.8064 -2.0406 -0.7692
 2845SOL    HW2 9435   3.316   0.208   1.121 -1.1572  0.3973 -0.4192
 2846SOL     OW 9436   1.095   0.040   2.376 -0.6815 -0.1740 -0.1089
 2846SOL    HW1 9437   1.149   0.118   2.407 -0.5661 -0.8141  1.3710
 2846SOL    HW2 9438   1.146  -0.045   2.391 -0.5159 -0.5474 -2.3322
 2847SOL     OW 9439   6.405   5.698   4.490 -0.1205  0.6705 -0.1883
 2847SOL    HW1 9440   6.353   5.613   4.486  1.8077 -0.5500 -0.4474
 2847SOL    HW2 9441   6.361   5.761   4.553 -0.2304 -1.5202  2.0903
 2848SOL     OW 9442   6.899   6.512   2.617 -0.2018  0.4395  0.0891
 2848SOL    HW1 9443   6.988   6.469   2.600  0.0403  1.1618 -0.5245
 2848SOL    HW2 9444   6.852   6.463   2.691  1.3346  0.9401  1.4716
 2849SOL     OW 9445   6.555   0.386   5.156 -0.1524  0.3202  0.6235
 2849SOL    HW1 9446   6.484   0.331   5.198 -0.2666  1.0202  1.3635
 2849SOL    HW2 9447   6.590   0.339   5.075 -1.3563 -0.0927  0.3210
 2850SOL     OW 9448   2.249   1.872   0.504  0.5431 -0.3320  0.0428
 2850SOL    HW1 9449   2.248   1.953   0.445 -1.8507 -0.9524 -0.8578
 2850SOL    HW2 9450   2.337   1.868   0.552  1.6781  1.4555 -1.7041
 2851SOL     OW 9451   1.012   5.071   6.898  0.4305 -0.2037  0.3175
 2851SOL    HW1 9452   1.076   5.044   6.826  0.2352 -1.3028  0.5348
 2851SOL    HW2 9453   0.919   5.071   6.861  0.4404  0.2721  0.2952
 2852SOL     OW 9454   2.377   5.271   3.055 -0.3454  0.7043 -0.2859
 2852SOL    HW1 9455   2.282   5.301   3.046 -0.5647  0.5092  1.1787
 2852SOL    HW2 9456   2.411   5.241   2.966 -2.9189 -3.0602 -0.1949
 2853SOL     OW 9457   5.862   2.195   5.552 -0.2063  0.0320  0.0153
 2853SOL    HW1 9458   5.911   2.198   5.640 -0.7159  1.5691  0.2821
 2853SOL    HW2 9459   5.881   2.109   5.506 -0.8817 -1.3425  2.1806
 2854SOL     OW 9460   6.831   2.557   6.330 -0.2085  0.5117 -0.1456
 2854SOL    HW1 9461   6.818   2.513   6.241 -0.2051 -0.0901  0.1481
 2854SOL    HW2 9462   6.793   2.499   6.402  0.2441  0.7502  0.2950
 2855SOL     OW 9463   2.189   3.311   4.772 -0.0477 -0.1096 -0.2877
 2855SOL    HW1 9464   2.178   3.240   4.841 -0.1826  0.4301  0.2648
 2855SOL    HW2 9465   2.176   3.401   4.815 -0.0033  0.2419 -0.9907
 2856SOL     OW 9466   2.585   4.654   5.111  0.2466 -0.3579  0.0916
 2856SOL    HW1 9467   2.539   4.566   5.115  1.1935 -0.8928 -0.4872
 2856SOL    HW2 9468   2.682   4.641   5.090 -0.2862  0.9246 -4.2414
 2857SOL     OW 9469   0.601   2.334   6.838 -0.1244 -0.6394  0.0165
 2857SOL    HW1 9470   0.581   2.242   6.871 -1.1893 -0.4220 -0.0033
 2857SOL    HW2 9471   0.690   2.363   6.873 -0.6935 -0.8632  1.7463
 2858SOL     OW 9472   4.496   6.792   0.334 -0.2617 -0.1548 -0.2059
 2858SOL    HW1 9473   4.404   6.765   0.361 -2.2730  1.7116 -4.2367
 2858SOL    HW2 9474   4.529   6.731   0.261  0.4916  0.7448 -0.6451
 2859SOL     OW 9475   4.838   6.189   6.187  0.3709 -0.1424 -0.0185
 2859SOL    HW1 9476   4.861   6.284   6.167  0.9573 -0.1352  0.6279
 2859SOL    HW2 9477   4.912   6.148   6.241 -0.3408 -0.6576  0.5895
 2860SOL     OW 9478   6.135   3.893   2.696  0.1920 -0.6917 -0.2464
 2860SOL    HW1 9479   6.128   3.865   2.601  0.4558 -1.3388 -0.0818
 2860SOL    HW2 9480   6.220   3.944   2.710 -0.4924  0.5939 -0.6385
 2861SOL     OW 9481   3.834   3.420   4.410 -0.1060  0.1782  0.2219
 2861SOL    HW1 9482   3.746   3.465   4.423 -1.9841 -3.2925  0.7780
 2861SOL    HW2 9483   3.871   3.394   4.499  0.7963  0.3700 -0.0881
 2862SOL     OW 9484   6.602   6.135   4.522 -0.5476  0.5945 -0.2895
 2862SOL    HW1 9485   6.569   6.173   4.608 -0.9146 -0.8073  0.2248
 2862SOL    HW2 9486   6.525   6.122   4.459 -0.7957 -1.1198  0.2962
 2863SOL     OW 9487   2.000   2.037   0.482  0.2247 -0.1168 -0.2880
 2863SOL    HW1 9488   2.071   2.064   0.416 -0.6339  1.6554 -0.5491
 2863SOL    HW2 9489   1.979   1.940   0.470  0.7826 -0.0703 -1.9745
 2864SOL     OW 9490   2.236   1.770   2.672  0.1301 -0.5276 -0.7891
 2864SOL    HW1 9491   2.203   1.683   2.636 -0.5376  0.0362 -1.5602
 2864SOL    HW2 9492   2.190   1.846   2.625 -0.8927  0.2538  1.3362
 2865SOL     OW 9493   3.242   6.143   2.963 -0.2350  0.0690 -0.0581
 2865SOL    HW1 9494   3.167   6.198   2.926 -0.6373 -2.4691 -3.4659
 2865SOL    HW2 9495   3.327   6.195   2.957 -0.8010  0.8656 -1.9237
 2866SOL     OW 9496   0.225   0.427   0.597  0.1078 -0.3596 -0.5781
 2866SOL    HW1 9497   0.131   0.461   0.597 -0.0966 -0.9021 -0.6372
 2866SOL    HW2 9498   0.233   0.354   0.665  0.8049  0.5121  0.3041
 2867SOL     OW 9499   0.853   4.891   6.337  0.7274 -0.4234  0.2582
 2867SOL    HW1 9500   0.901   4.810   6.304  0.9972  0.4497 -1.6188
 2867SOL    HW2 9501   0.912   4.940   6.402  2.2529  0.3644 -1.6235
 2868SOL     OW 9502   6.269   3.871   6.295  0.0004  1.0010  0.0012
 2868SOL    HW1 9503   6.205   3.877   6.372  0.1787 -0.9436  0.3363
 2868SOL    HW2 9504   6.363   3.881   6.329  0.0717  0.2692  0.0352
 2869SOL     OW 9505   1.379   4.603   0.470 -0.0124 -0.1484  0.2766
 2869SOL    HW1 9506   1.303   4.625   0.409  0.5978  1.1395 -0.0593
 2869SOL    HW2 9507   1.465   4.620   0.422  0.4753 -0.2017  1.1265
 2870SOL     OW 9508   3.136   6.808   5.811  0.3837  0.2239 -0.8010
 2870SOL    HW1 9509   3.152   6.790   5.908 -0.2804  1.0262 -0.5299
 2870SOL    HW2 9510   3.118   6.723   5.763 -0.4946 -0.0535  0.0149
 2871SOL     OW 9511   2.894   1.193   5.130  0.1510 -0.3428 -0.0678
 2871SOL    HW1 9512   2.926   1.287   5.127 -1.7595  0.3658  0.3674
 2871SOL    HW2 9513   2.873   1.162   5.038 -1.4111  0.4851 -0.0130
 2872SOL     OW 9514   2.544   0.568   3.183 -0.0371  0.2753  0.0219
 2872SOL    HW1 9515   2.582   0.476   3.180 -1.5135 -0.4026  0.7676
 2872SOL    HW2 9516   2.470   0.576   3.116  1.3936  1.5977 -1.4840
 2873SOL     OW 9517   4.496   4.721   0.371  0.6240 -0.6034  0.0637
 2873SOL    HW1 9518   4.426   4.763   0.430 -0.0032  2.2760 -2.4812
 2873SOL    HW2 9519   4.452   4.681   0.291  1.7792 -0.1130 -0.8393
 2874SOL     OW 9520   5.463   6.394   4.064  0.0296 -0.2181  0.3754
 2874SOL    HW1 9521   5.441   6.297   4.066  0.0486 -0.2439 -0.3710
 2874SOL    HW2 9522   5.448   6.430   3.971 -1.7145  0.9025  1.0417
 2875SOL     OW 9523   6.531   3.405   1.694 -0.0037  0.0383 -0.2857
 2875SOL    HW1 9524   6.482   3.459   1.625 -0.2175 -0.1383 -0.2746
 2875SOL    HW2 9525   6.550   3.462   1.774 -0.0252  0.1606 -0.3673
 2876SOL     OW 9526   0.276   1.188   5.912 -0.3228 -0.1239  0.1678
 2876SOL    HW1 9527   0.322   1.275   5.927  3.0341 -1.6369 -0.3953
 2876SOL    HW2 9528   0.261   1.174   5.814 -1.1286 -0.0557  0.2784
 2877SOL     OW 9529   4.058   5.018   1.547  0.7410 -0.0185  0.4122
 2877SOL    HW1 9530   4.053   4.925   1.584  1.8495  0.2290  1.2255
 2877SOL    HW2 9531   4.152   5.039   1.519  0.1036  0.1042 -1.8422
 2878SOL     OW 9532   3.193   0.925   0.884 -0.1595 -0.6083  0.1756
 2878SOL    HW1 9533   3.292   0.916   0.872 -0.1804 -1.0211  0.2769
 2878SOL    HW2 9534   3.169   1.021   0.898  0.2422 -0.5216  0.2749
 2879SOL     OW 9535   3.758   1.919   1.344 -0.6469 -0.1188  0.0621
 2879SOL    HW1 9536   3.800   2.004   1.312  2.6894 -1.6789 -0.1682
 2879SOL    HW2 9537   3.715   1.934   1.432 -1.1171  2.0100 -0.4660
 2880SOL     OW 9538   2.508   2.808   5.306  0.1451 -0.7301  0.4951
 2880SOL    HW1 9539   2.575   2.810   5.379  1.0566  0.2340 -0.3238
 2880SOL    HW2 9540   2.516   2.892   5.251  0.2513 -1.8842 -1.3642
 2881SOL     OW 9541   1.809   3.442   5.631 -0.1544 -0.1130  0.2988
 2881SOL    HW1 9542   1.779   3.471   5.540  1.0962 -1.7530 -0.6916
 2881SOL    HW2 9543   1.779   3.347   5.647 -0.0873  0.0496  1.4737
 2882SOL     OW 9544   0.875   3.079   3.069  0.7385 -0.6108 -0.3191
 2882SOL    HW1 9545   0.954   3.066   3.009  1.2579  0.5235  0.1021
 2882SOL    HW2 9546   0.838   2.990   3.094  2.3222 -1.1945  0.0584
 2883SOL     OW 9547   4.669   1.018   4.629 -0.1922  0.1076 -0.3405
 2883SOL    HW1 9548   4.586   0.969   4.654  0.3771 -0.5938  0.1948
 2883SOL    HW2 9549   4.718   0.968   4.558  0.1397  0.1566 -0.1475
 2884SOL     OW 9550   5.569   5.378   2.522  0.3372  0.5729 -0.5092
 2884SOL    HW1 9551   5.543   5.286   2.549  0.5757  0.8718  0.8098
 2884SOL    HW2 9552   5.515   5.445   2.573  0.9336  1.1714 -0.6439
 2885SOL     OW 9553   2.523   2.983   1.077  0.4416  0.3529  0.5705
 2885SOL    HW1 9554   2.424   2.997   1.076  0.3596 -0.1472  1.2426
 2885SOL    HW2 9555   2.543   2.888   1.054  0.8062  0.6110 -0.2239
 2886SOL     OW 9556   6.661   5.087   6.539 -0.3916  0.1416 -0.5026
 2886SOL    HW1 9557   6.682   5.177   6.579 -2.4615  0.5783 -0.3010
 2886SOL    HW2 9558   6.719   5.072   6.459  1.2010  0.8771  0.4664
 2887SOL     OW 9559   3.588   1.061   4.672  0.0174 -0.2052 -0.3086
 2887SOL    HW1 9560   3.615   0.977   4.721  2.0403 -0.3698 -1.5766
 2887SOL    HW2 9561   3.514   1.106   4.722 -0.4905 -2.2470  0.9068
 2888SOL     OW 9562   4.839   0.740   1.533 -0.5445  0.1686  0.1716
 2888SOL    HW1 9563   4.801   0.677   1.465 -2.8738  0.6683  0.9230
 2888SOL    HW2 9564   4.872   0.822   1.488 -0.6017 -0.1758 -0.5064
 2889SOL     OW 9565   6.182   0.901   0.514 -0.2637  0.5004  0.2269
 2889SOL    HW1 9566   6.108   0.968   0.517 -0.2213  0.5611 -0.0231
 2889SOL    HW2 9567   6.247   0.926   0.442 -1.0647 -0.6401 -0.9632
 2890SOL     OW 9568   2.100   6.157   4.678  0.5487 -0.2390  0.5977
 2890SOL    HW1 9569   2.021   6.106   4.644  0.6618 -1.6972  2.3490
 2890SOL    HW2 9570   2.083   6.255   4.671 -0.3353 -0.4882 -1.3964
 2891SOL     OW 9571   3.111   0.710   4.019  0.0493  0.5037 -0.2876
 2891SOL    HW1 9572   3.097   0.801   4.058 -1.3911  0.5449 -0.8598
 2891SOL    HW2 9573   3.183   0.663   4.071 -1.3463  0.7836  2.0330
 2892SOL     OW 9574   0.612   1.167   5.211 -0.1921  0.0842 -0.0605
 2892SOL    HW1 9575   0.528   1.218   5.196 -0.6641 -0.2519  1.2951
 2892SOL    HW2 9576   0.689   1.231   5.221 -0.3549  0.4073 -0.8071
 2893SOL     OW 9577   5.261   2.355   6.645 -0.0612  0.4954 -0.6171
 2893SOL    HW1 9578   5.229   2.394   6.732 -0.6506 -2.5006  0.6165
 2893SOL    HW2 9579   5.182   2.335   6.587  0.2467  1.1169 -1.2750
 2894SOL     OW 9580   2.455   2.595   5.867  0.1952 -0.4687 -0.0840
 2894SOL    HW1 9581   2.470   2.692   5.846 -0.6990 -0.1303  0.7940
 2894SOL    HW2 9582   2.544   2.549   5.876  0.6276  0.3388 -0.1665
 2895SOL     OW 9583   5.734   6.896   1.680  0.3781  0.0964  0.0708
 2895SOL    HW1 9584   5.821   6.908   1.729 -0.1151 -0.1411  1.0241
 2895SOL    HW2 9585   5.753   6.874   1.584  1.3831 -0.6113  0.4139
 2896SOL     OW 9586   5.731   1.915   4.352 -0.6913  0.6007  0.8105
 2896SOL    HW1 9587   5.785   1.954   4.277 -1.7781  1.1597  0.2945
 2896SOL    HW2 9588   5.714   1.818   4.334 -3.2240  1.2881 -1.1204
 2897SOL     OW 9589   4.551   7.006   0.684  0.0624  0.1374  0.0062
 2897SOL    HW1 9590   4.563   7.053   0.772 -0.7838 -0.8564  0.6753
 2897SOL    HW2 9591   4.569   6.908   0.696  1.9786  0.2600 -1.4040
 2898SOL     OW 9592   1.703   2.089   1.364  0.3663  0.2378 -0.4228
 2898SOL    HW1 9593   1.795   2.064   1.395  0.1953  0.1901  0.0402
 2898SOL    HW2 9594   1.634   2.049   1.424  0.0583  0.7840 -0.3997
 2899SOL     OW 9595   3.656   0.173   1.045 -0.2571  0.0890  0.2379
 2899SOL    HW1 9596   3.587   0.116   1.001  0.1005 -0.5393  0.4844
 2899SOL    HW2 9597   3.655   0.157   1.144 -0.2546  0.6178  0.3247
 2900SOL     OW 9598   3.422   3.539   3.626  0.4038  0.0500 -0.2866
 2900SOL    HW1 9599   3.345   3.600   3.606  1.2466  1.6566  1.0635
 2900SOL    HW2 9600   3.469   3.516   3.541 -0.7399  0.1809 -0.9700
 2901SOL     OW 9601   6.730   3.421   2.986 -0.2655  0.0379 -0.1159
 2901SOL    HW1 9602   6.813   3.368   3.002 -1.0494 -0.7546  1.4788
 2901SOL    HW2 9603   6.666   3.407   3.061 -0.4833  3.3489  0.4834
 2902SOL     OW 9604   1.033   4.647   4.948  0.3906 -0.0253 -0.0659
 2902SOL    HW1 9605   1.024   4.669   4.851  0.8453 -0.2959 -0.1760
 2902SOL    HW2 9606   0.985   4.715   5.003  0.0609  0.0838 -0.4839
 2903SOL     OW 9607   0.275   6.164   2.897  0.5523  0.4154 -0.4389
 2903SOL    HW1 9608   0.370   6.143   2.873 -0.0294  0.5501 -3.0638
 2903SOL    HW2 9609   0.261   6.263   2.895  0.5248  0.4563  0.7966
 2904SOL     OW 9610   5.428   1.804   5.094  0.0831  0.0002  0.1606
 2904SOL    HW1 9611   5.345   1.788   5.148  0.1682  0.4858  0.4347
 2904SOL    HW2 9612   5.448   1.723   5.039 -0.2827 -0.3093  0.4825
 2905SOL     OW 9613   2.311   6.690   1.378 -0.4540 -0.0499  0.3214
 2905SOL    HW1 9614   2.369   6.671   1.457 -0.3757  1.4185  0.6547
 2905SOL    HW2 9615   2.243   6.618   1.368  1.3336 -1.7826 -0.0282
 2906SOL     OW 9616   6.893   3.505   3.286  0.1808 -0.2796 -0.1225
 2906SOL    HW1 9617   6.859   3.412   3.304  0.3623 -0.0152  1.7888
 2906SOL    HW2 9618   6.899   3.555   3.372  0.0612  1.5362 -1.1331
 2907SOL     OW 9619   5.107   5.086   3.407 -0.3953 -0.5222  0.0798
 2907SOL    HW1 9620   5.072   5.110   3.316 -0.3583 -4.4883 -1.1998
 2907SOL    HW2 9621   5.205   5.107   3.411 -0.6615  0.8565 -0.3167
 2908SOL     OW 9622   1.429   2.802   2.888  0.3533  0.3409 -0.1565
 2908SOL    HW1 9623   1.359   2.734   2.868 -0.9009  1.9094 -1.4535
 2908SOL    HW2 9624   1.404   2.888   2.843  3.0914  0.9899 -0.5681
 2909SOL     OW 9625   1.248   0.684   6.772  0.4811  0.4520  0.0512
 2909SOL    HW1 9626   1.214   0.747   6.702 -1.1564 -0.8784 -0.4156
 2909SOL    HW2 9627   1.250   0.591   6.736  0.2347 -0.1682  1.5506
 2910SOL     OW 9628   2.315   2.504   1.000 -0.4897 -0.1238 -0.3214
 2910SOL    HW1 9629   2.248   2.472   0.933  0.0770 -0.0044 -0.9555
 2910SOL    HW2 9630   2.268   2.532   1.084 -1.2051 -0.2833 -0.6650
 2911SOL     OW 9631   3.849   1.858   4.289 -0.1073 -0.4417  0.0744
 2911SOL    HW1 9632   3.916   1.912   4.340  0.0276  0.6119 -1.1546
 2911SOL    HW2 9633   3.765   1.910   4.278 -0.0122 -0.4967 -1.0523
 2912SOL     OW 9634   1.163   1.532   2.340 -0.1600  0.0852 -0.0827
 2912SOL    HW1 9635   1.160   1.435   2.365  0.3118  0.4412  1.5082
 2912SOL    HW2 9636   1.184   1.542   2.243 -1.9815 -1.4314 -0.7007
 2913SOL     OW 9637   6.524   4.651   3.240  0.3255 -0.0043 -0.5201
 2913SOL    HW1 9638   6.439   4.650   3.188 -0.7002  0.0521  1.0789
 2913SOL    HW2 9639   6.579   4.731   3.213 -0.9651  0.9862 -0.3203
 2914SOL     OW 9640   4.836   3.124   2.769 -0.1733 -0.2628 -0.0813
 2914SOL    HW1 9641   4.835   3.073   2.855  0.9522 -2.2340 -1.1723
 2914SOL    HW2 9642   4.831   3.061   2.692 -0.2071  1.3912 -1.5078
 2915SOL     OW 9643   4.903   6.741   1.749  0.3498  0.4778 -0.7428
 2915SOL    HW1 9644   4.973   6.706   1.687  0.5528  0.2248 -0.3800
 2915SOL    HW2 9645   4.926   6.835   1.775 -0.0271  0.7789 -1.4707
 2916SOL     OW 9646   2.145   6.988   6.796  0.4340  0.1420  0.3231
 2916SOL    HW1 9647   2.156   6.891   6.817  0.7473  0.3862  1.3466
 2916SOL    HW2 9648   2.156   7.042   6.880 -2.0032  0.9142  0.2238
 2917SOL     OW 9649   5.893   0.498   1.214 -0.0291 -0.0983 -0.3049
 2917SOL    HW1 9650   5.895   0.489   1.314 -0.1588 -0.3885 -0.3284
 2917SOL    HW2 9651   5.798   0.498   1.183  0.0341 -1.6185 -0.5730
 2918SOL     OW 9652   6.308   4.836   6.584  0.1779  0.0291 -0.4326
 2918SOL    HW1 9653   6.370   4.899   6.537 -0.3342 -0.6814 -2.1438
 2918SOL    HW2 9654   6.217   4.843   6.543 -0.2246 -0.8072  0.2995
 2919SOL     OW 9655   0.075   4.585   0.567 -0.0175 -1.2429 -0.0883
 2919SOL    HW1 9656   0.143   4.560   0.497  2.8620  0.8265  1.7308
 2919SOL    HW2 9657   0.018   4.659   0.533  3.8126  2.4600  0.6822
 2920SOL     OW 9658   3.631   0.594   3.585 -0.8418 -0.2622  0.3329
 2920SOL    HW1 9659   3.643   0.678   3.532  0.0599  0.4296  1.5618
 2920SOL    HW2 9660   3.534   0.577   3.600 -1.1607 -0.8972 -2.1370
 2921SOL     OW 9661   6.946   5.754   2.011 -0.1488  0.2267 -0.1988
 2921SOL    HW1 9662   6.869   5.695   1.985 -0.3654 -0.2669  1.4610
 2921SOL    HW2 9663   6.944   5.770   2.110  1.9377  0.1237 -0.0952
 2922SOL     OW 9664   3.910   5.107   5.935  0.3209  0.2262 -0.1512
 2922SOL    HW1 9665   3.901   5.050   6.016  1.2630 -0.8818 -0.7855
 2922SOL    HW2 9666   3.827   5.101   5.879  0.0654  0.1944  0.2333
 2923SOL     OW 9667   6.022   5.935   6.599 -0.6082 -0.1197  0.0303
 2923SOL    HW1 9668   5.976   5.862   6.548 -2.5660  0.4583  0.8741
 2923SOL    HW2 9669   5.958   5.976   6.664  0.8721  1.3745  0.6249
 2924SOL     OW 9670   2.850   2.447   0.796  0.5753  0.2720 -0.3423
 2924SOL    HW1 9671   2.833   2.534   0.842  3.2691  1.2302 -1.0000
 2924SOL    HW2 9672   2.926   2.400   0.841 -0.7107 -1.7148 -0.1226
 2925SOL     OW 9673   6.554   5.539   6.992  0.4940 -0.0713 -0.1885
 2925SOL    HW1 9674   6.507   5.602   6.930 -0.7696 -1.3334 -0.5720
 2925SOL    HW2 9675   6.652   5.561   6.994  0.5583  0.0865 -2.5265
 2926SOL     OW 9676   4.232   4.702   4.345 -0.2793 -0.7334 -0.2508
 2926SOL    HW1 9677   4.190   4.737   4.429 -0.8783 -0.7933 -0.5224
 2926SOL    HW2 9678   4.319   4.658   4.368 -1.3512 -2.5332  0.6572
 2927SOL     OW 9679   3.980   0.574   6.625 -0.0018  0.6682 -0.3038
 2927SOL    HW1 9680   3.981   0.534   6.717 -0.5273  1.1149 -0.0950
 2927SOL    HW2 9681   4.025   0.512   6.561  0.1193  0.2223  0.2047
 2928SOL     OW 9682   6.400   6.260   1.779  0.5485  0.0349 -0.2171
 2928SOL    HW1 9683   6.490   6.291   1.809  0.2985 -0.4859  1.1303
 2928SOL    HW2 9684   6.410   6.192   1.707  1.2249  0.1551 -0.2400
 2929SOL     OW 9685   3.076   2.697   0.733 -0.0831 -0.6926  0.0055
 2929SOL    HW1 9686   3.079   2.676   0.635 -0.9961  0.5212 -0.3076
 2929SOL    HW2 9687   3.100   2.793   0.746 -3.2854  0.1456  0.5920
 2930SOL     OW 9688   0.904   5.960   6.369 -0.4487 -0.5625  0.0166
 2930SOL    HW1 9689   0.906   5.903   6.287  2.1168 -0.5697  0.0060
 2930SOL    HW2 9690   0.997   5.987   6.393 -1.2570  0.5273  2.1925
 2931SOL     OW 9691   4.005   4.465   6.948 -0.2389 -0.3720 -0.7910
 2931SOL    HW1 9692   3.984   4.372   6.978 -0.7726 -0.3509 -1.0971
 2931SOL    HW2 9693   4.060   4.461   6.864  0.0705 -0.4098 -0.5910
 2932SOL     OW 9694   2.972   0.941   5.251  0.2214 -0.2915 -0.5441
 2932SOL    HW1 9695   2.935   1.031   5.229  0.2259 -0.2015 -0.1957
 2932SOL    HW2 9696   2.998   0.893   5.167 -1.3597 -0.6451 -0.8719
 2933SOL     OW 9697   6.423   2.370   3.255 -0.9411  0.3555  0.1906
 2933SOL    HW1 9698   6.376   2.407   3.174 -0.2999 -1.0801 -0.8899
 2933SOL    HW2 9699   6.493   2.434   3.285  0.5964 -0.1482 -2.0367
 2934SOL     OW 9700   0.457   1.872   1.763  0.0755  0.2271  0.2625
 2934SOL    HW1 9701   0.396   1.860   1.684  0.4767 -0.6881  0.0731
 2934SOL    HW2 9702   0.441   1.961   1.804 -0.8313  0.3229 -0.2644
 2935SOL     OW 9703   3.245   1.225   6.162 -0.0651 -0.0381 -0.3525
 2935SOL    HW1 9704   3.231   1.308   6.108 -2.3889  0.7839  1.3745
 2935SOL    HW2 9705   3.337   1.190   6.146  0.6998  2.4034 -1.7452
 2936SOL     OW 9706   2.062   2.186   5.399 -0.1673  0.2349 -0.2161
 2936SOL    HW1 9707   2.003   2.181   5.480  0.2309 -2.5783  0.0076
 2936SOL    HW2 9708   2.014   2.234   5.325 -1.1136  1.5385  1.1875
 2937SOL     OW 9709   3.256   3.122   5.057  1.1247 -0.2914  0.2028
 2937SOL    HW1 9710   3.277   3.146   4.962  0.4709  2.4373  0.6639
 2937SOL    HW2 9711   3.159   3.098   5.065  0.3748  2.4703  0.5689
 2938SOL     OW 9712   2.974   0.732   5.931 -0.6534 -0.4376 -0.9283
 2938SOL    HW1 9713   2.892   0.690   5.892 -0.5555 -0.2419 -1.3477
 2938SOL    HW2 9714   2.972   0.831   5.916 -1.3113 -0.1450  0.8382
 2939SOL     OW 9715   3.559   6.781   5.602  0.2015 -0.8588 -0.0087
 2939SOL    HW1 9716   3.471   6.829   5.605  1.4640  1.6425  0.4431
 2939SOL    HW2 9717   3.570   6.727   5.685 -0.7551 -0.8996  0.1089
 2940SOL     OW 9718   6.110   2.599   4.193 -0.5980 -0.2616  0.2186
 2940SOL    HW1 9719   6.032   2.635   4.143  1.2468  1.8167 -1.3948
 2940SOL    HW2 9720   6.113   2.639   4.285 -0.2731  1.4662 -0.4957
 2941SOL     OW 9721   3.337   6.552   3.423 -0.0724 -0.0562  0.3476
 2941SOL    HW1 9722   3.435   6.569   3.419 -0.2880  1.3484  0.5889
 2941SOL    HW2 9723   3.289   6.637   3.440 -1.3943 -0.6100 -0.4333
 2942SOL     OW 9724   4.041   6.765   5.145 -0.2734 -0.1004  0.5356
 2942SOL    HW1 9725   4.079   6.702   5.213  2.1394  1.7137  0.9813
 2942SOL    HW2 9726   4.110   6.783   5.074 -1.4051  0.9604 -0.3352
 2943SOL     OW 9727   3.808   2.879   5.644  0.0777  0.5948  0.5435
 2943SOL    HW1 9728   3.783   2.937   5.566  1.0590  1.1524  0.6195
 2943SOL    HW2 9729   3.762   2.912   5.726 -0.4192  0.4319  0.3329
 2944SOL     OW 9730   0.561   5.187   2.315  0.6493 -1.0306 -0.3854
 2944SOL    HW1 9731   0.494   5.254   2.347  1.6792  0.1057 -0.5223
 2944SOL    HW2 9732   0.531   5.095   2.341  0.0967 -0.3791  1.4561
 2945SOL     OW 9733   2.602   1.925   1.748 -0.0865  0.0326 -0.5358
 2945SOL    HW1 9734   2.677   1.926   1.682  0.5105  0.0848  0.1336
 2945SOL    HW2 9735   2.581   2.019   1.776  1.2091 -0.1127  1.0555
 2946SOL     OW 9736   6.093   4.985   0.376 -0.0730 -0.0607  0.3420
 2946SOL    HW1 9737   6.050   4.899   0.405  1.2661 -1.1449 -0.7377
 2946SOL    HW2 9738   6.128   5.033   0.456  0.0802 -1.0371  0.8786
 2947SOL     OW 9739   3.782   0.768   0.996  0.2749  0.4767  0.4750
 2947SOL    HW1 9740   3.863   0.712   0.978  1.9737  2.6731  0.8263
 2947SOL    HW2 9741   3.700   0.714   0.977  1.7281 -0.6738 -3.8809
 2948SOL     OW 9742   6.812   4.761   4.691 -0.1906  0.2454  0.2985
 2948SOL    HW1 9743   6.736   4.822   4.671  1.1367  1.8041 -0.1928
 2948SOL    HW2 9744   6.881   4.769   4.619  0.1221 -1.7416  0.3041
 2949SOL     OW 9745   6.210   4.677   3.625 -0.1675 -0.0722  0.1699
 2949SOL    HW1 9746   6.259   4.714   3.704 -0.5706  0.8399  0.0039
 2949SOL    HW2 9747   6.112   4.696   3.634  0.0951  2.9513 -2.0302
 2950SOL     OW 9748   6.358   5.816   6.044 -0.0640  0.4690  0.0482
 2950SOL    HW1 9749   6.331   5.814   5.948 -0.5358 -0.6612  0.1896
 2950SOL    HW2 9750   6.457   5.807   6.051 -0.1195 -0.4800 -0.3001
 2951SOL     OW 9751   2.138   1.536   3.442 -0.1382  0.2109  0.5739
 2951SOL    HW1 9752   2.094   1.447   3.456  0.4846 -0.1577  0.2248
 2951SOL    HW2 9753   2.104   1.577   3.358 -0.3956  0.2925  0.7142
 2952SOL     OW 9754   5.298   4.986   6.298  0.3274 -0.3750  0.0419
 2952SOL    HW1 9755   5.299   5.048   6.220 -0.0311 -0.2799  0.1096
 2952SOL    HW2 9756   5.220   5.009   6.357  0.4635 -0.5919  0.3061
 2953SOL     OW 9757   6.637   6.532   0.874  0.8912 -0.1676  0.4457
 2953SOL    HW1 9758   6.608   6.474   0.798  0.4301  1.0248 -0.3188
 2953SOL    HW2 9759   6.665   6.475   0.951 -0.0420 -1.3827 -0.0883
 2954SOL     OW 9760   3.955   1.465   3.754 -0.6046  0.2173 -0.1418
 2954SOL    HW1 9761   4.037   1.467   3.812 -2.4289  1.1979  2.5797
 2954SOL    HW2 9762   3.876   1.438   3.809 -2.6340  2.0675 -1.9725
 2955SOL     OW 9763   1.819   6.486   3.291 -0.4529 -0.0505  0.3538
 2955SOL    HW1 9764   1.728   6.501   3.329 -0.4068  0.6952  0.1847
 2955SOL    HW2 9765   1.869   6.572   3.289 -0.5453 -0.0052 -1.6223
 2956SOL     OW 9766   2.789   0.314   6.711 -0.0897  0.1698  0.2015
 2956SOL    HW1 9767   2.807   0.389   6.647 -2.6381 -0.6248 -1.6173
 2956SOL    HW2 9768   2.822   0.228   6.673 -1.3460 -0.2658  0.0400
 2957SOL     OW 9769   5.640   6.426   5.828  0.2168 -0.2721 -0.0948
 2957SOL    HW1 9770   5.717   6.452   5.887  0.4435 -0.5911 -0.2491
 2957SOL    HW2 9771   5.673   6.369   5.753 -0.1363 -0.2156 -0.2958
 2958SOL     OW 9772   3.130   5.338   0.094 -0.3776 -0.0052 -0.0606
 2958SOL    HW1 9773   3.161   5.356   0.187 -1.4939 -1.5159  0.6347
 2958SOL    HW2 9774   3.198   5.282   0.046 -1.2604 -2.0968  0.9932
 2959SOL     OW 9775   5.634   3.683   2.034 -0.9076  0.5491  0.0815
 2959SOL    HW1 9776   5.674   3.775   2.032  0.2959  0.0302 -1.4744
 2959SOL    HW2 9777   5.584   3.671   2.120  1.7258  1.4818  1.8639
 2960SOL     OW 9778   4.544   0.225   4.565 -0.4831  0.2827 -0.0696
 2960SOL    HW1 9779   4.505   0.193   4.479  0.1050 -1.5299  0.2976
 2960SOL    HW2 9780   4.471   0.244   4.631 -0.9114  1.2526 -0.8105
 2961SOL     OW 9781   5.139   6.454   6.664  0.1437  0.1519 -0.4233
 2961SOL    HW1 9782   5.174   6.548   6.666 -0.2898  0.3081  0.5640
 2961SOL    HW2 9783   5.196   6.396   6.722  1.2827 -0.5337 -2.1732
 2962SOL     OW 9784   6.614   2.580   2.809  0.0733 -0.0445  0.0443
 2962SOL    HW1 9785   6.623   2.578   2.709  0.5780  0.3751  0.0800
 2962SOL    HW2 9786   6.598   2.487   2.842  3.4806 -0.8248 -0.1055
 2963SOL     OW 9787   2.332   5.541   0.520  0.3099  0.0712  1.2335
 2963SOL    HW1 9788   2.302   5.446   0.522 -0.2377  0.0342 -2.4379
 2963SOL    HW2 9789   2.406   5.551   0.453 -0.6907  2.4507  0.3695
 2964SOL     OW 9790   0.227   1.579   1.633  0.2364 -0.1324 -0.5374
 2964SOL    HW1 9791   0.215   1.675   1.606 -1.3809 -0.1068  0.1258
 2964SOL    HW2 9792   0.139   1.531   1.626  0.4512 -0.9274  1.4552
 2965SOL     OW 9793   3.149   5.393   3.197  0.3509 -0.1084  0.2546
 2965SOL    HW1 9794   3.228   5.454   3.198  1.0397 -0.9786  0.4690
 2965SOL    HW2 9795   3.114   5.386   3.103  1.2052 -0.5602 -0.0403
 2966SOL     OW 9796   6.708   1.842   2.938  0.1509 -0.3199  0.3062
 2966SOL    HW1 9797   6.678   1.747   2.936 -0.5681 -0.0836 -0.9108
 2966SOL    HW2 9798   6.760   1.858   3.022 -1.6456 -1.1826  1.6673
 2967SOL     OW 9799   6.567   0.286   5.935  0.0406 -0.3388 -0.6234
 2967SOL    HW1 9800   6.468   0.299   5.941 -0.0836 -1.1104 -0.8985
 2967SOL    HW2 9801   6.592   0.268   5.840  0.0742 -2.8156 -0.2194
 2968SOL     OW 9802   2.147   3.428   3.829 -0.0362  0.0332  0.3746
 2968SOL    HW1 9803   2.124   3.340   3.871 -3.7826  0.4067 -0.5438
 2968SOL    HW2 9804   2.095   3.501   3.873  1.0507  1.4201 -0.5621
 2969SOL     OW 9805   0.718   4.033   6.681 -0.1481 -0.2338 -0.1003
 2969SOL    HW1 9806   0.771   3.970   6.737 -1.6198  0.2597  1.9600
 2969SOL    HW2 9807   0.722   4.125   6.720 -1.7741 -0.0092 -0.3848
 2970SOL     OW 9808   6.732   6.827   0.930  0.3799 -0.1540  0.1398
 2970SOL    HW1 9809   6.807   6.816   0.866  2.3546  2.1802  1.8629
 2970SOL    HW2 9810   6.645   6.816   0.882  1.7427 -1.5941 -2.1950
 2971SOL     OW 9811   3.732   0.412   4.350  0.3250  0.4583 -0.3096
 2971SOL    HW1 9812   3.727   0.505   4.312 -1.2924  1.7082  2.6022
 2971SOL    HW2 9813   3.812   0.405   4.410  0.3587  0.0278 -0.4062
 2972SOL     OW 9814   6.217   4.068   5.960 -0.0277 -0.3150 -0.2887
 2972SOL    HW1 9815   6.238   4.063   5.862 -0.0690 -1.2379 -0.2603
 2972SOL    HW2 9816   6.285   4.125   6.006 -0.2379  0.4529 -0.9153
 2973SOL     OW 9817   4.111   5.289   6.861  0.3111 -0.2358 -0.7343
 2973SOL    HW1 9818   4.034   5.289   6.797 -0.5079 -0.2087  0.2152
 2973SOL    HW2 9819   4.110   5.204   6.915 -2.4114  1.8769  3.0743
 2974SOL     OW 9820   1.857   1.267   1.998 -0.5464  0.1966  0.1566
 2974SOL    HW1 9821   1.780   1.272   2.063  0.4611 -1.5758  1.6080
 2974SOL    HW2 9822   1.941   1.245   2.049  0.8489  1.6243 -1.4453
 2975SOL     OW 9823   1.384   0.302   3.355  0.0728  0.6175  0.1027
 2975SOL    HW1 9824   1.477   0.277   3.381  0.3205  2.1955  0.8674
 2975SOL    HW2 9825   1.349   0.370   3.419 -1.4626  0.3524 -0.4176
 2976SOL     OW 9826   6.927   1.855   6.183 -0.4169  0.1595  0.1028
 2976SOL    HW1 9827   6.936   1.954   6.171 -2.4400  0.3613 -0.1143
 2976SOL    HW2 9828   6.915   1.812   6.093 -2.1118  0.0671  0.3284
 2977SOL     OW 9829   6.329   6.676   4.807  0.1370  0.1788 -0.1702
 2977SOL    HW1 9830   6.254   6.723   4.854 -0.1505  0.4808 -0.9248
 2977SOL    HW2 9831   6.307   6.579   4.798 -0.2746  0.3120 -0.6100
 2978SOL     OW 9832   3.054   1.215   1.488 -0.0451  0.2733 -0.1625
 2978SOL    HW1 9833   3.015   1.128   1.517 -0.1981  0.6539  0.7977
 2978SOL    HW2 9834   3.001   1.252   1.411 -1.0096  0.3246  0.5084
 2979SOL     OW 9835   4.856   4.997   3.193  0.1286  0.1116  0.3034
 2979SOL    HW1 9836   4.925   4.924   3.193  0.6653  0.5228  2.6581
 2979SOL    HW2 9837   4.889   5.075   3.142  0.5220 -0.4486 -0.3121
 2980SOL     OW 9838   2.928   2.385   1.476 -0.1946 -0.1127 -0.2730
 2980SOL    HW1 9839   2.843   2.438   1.480  0.9921  1.9200 -0.4949
 2980SOL    HW2 9840   2.992   2.419   1.545  0.3355 -1.8692  0.1591
 2981SOL     OW 9841   6.054   0.034   0.068 -0.6349 -0.2342  0.8231
 2981SOL    HW1 9842   6.038  -0.029   0.144 -0.4786  0.0863  1.1244
 2981SOL    HW2 9843   6.056   0.128   0.103  1.6751 -0.2247  0.7755
 2982SOL     OW 9844   3.381   0.999   0.279 -0.1958  0.2833  0.2733
 2982SOL    HW1 9845   3.372   1.098   0.264 -1.5761  0.3693  1.4207
 2982SOL    HW2 9846   3.432   0.983   0.363 -1.6787  0.1112  1.1831
 2983SOL     OW 9847   0.958   1.196   1.565 -0.2610  0.4132  0.1334
 2983SOL    HW1 9848   0.863   1.203   1.533 -0.5387 -0.1959  0.7876
 2983SOL    HW2 9849   0.966   1.241   1.654  0.1163  0.6617 -0.0273
 2984SOL     OW 9850   6.191   5.781   0.371 -0.3992  0.2402  0.2663
 2984SOL    HW1 9851   6.264   5.734   0.321  0.7769  0.3772  1.7805
 2984SOL    HW2 9852   6.129   5.713   0.409  0.7957 -0.1082  1.6960
 2985SOL     OW 9853   0.002   4.904   3.891  0.2128  0.3080  0.2751
 2985SOL    HW1 9854   0.067   4.828   3.885 -0.6588 -0.5689  1.4234
 2985SOL    HW2 9855  -0.021   4.935   3.799  2.0664  0.5057 -0.1663
 2986SOL     OW 9856   1.667   6.269   5.511  0.1429  0.0159 -0.6606
 2986SOL    HW1 9857   1.696   6.353   5.464 -1.1859  0.4072 -0.8264
 2986SOL    HW2 9858   1.727   6.253   5.589  1.5647  0.0831 -1.7020
 2987SOL     OW 9859   6.612   6.848   3.039  0.5694  0.7454 -0.0655
 2987SOL    HW1 9860   6.640   6.799   2.956 -0.9116 -2.3566  1.0935
 2987SOL    HW2 9861   6.653   6.939   3.040  2.8776 -0.1219 -2.8222
 2988SOL     OW 9862   1.165   2.501   6.907  0.1197  0.2692 -0.4050
 2988SOL    HW1 9863   1.201   2.554   6.983  0.1405  0.1937 -0.3620
 2988SOL    HW2 9864   1.066   2.491   6.915  0.2160 -0.4132  0.0389
 2989SOL     OW 9865   4.975   1.341   0.271  0.4464  0.5721 -0.7566
 2989SOL    HW1 9866   5.027   1.423   0.297  1.2884 -0.5024  1.1398
 2989SOL    HW2 9867   5.037   1.270   0.238  0.1282 -0.4054  0.6632
 2990SOL     OW 9868   4.832   0.355   2.942 -0.1915 -0.4273  0.1899
 2990SOL    HW1 9869   4.788   0.291   3.005 -0.9205 -0.7821 -0.6667
 2990SOL    HW2 9870   4.764   0.393   2.880  0.5048 -0.0489 -0.3557
 2991SOL     OW 9871   2.165   2.733   2.206  0.9431  0.5531 -0.5966
 2991SOL    HW1 9872   2.141   2.642   2.238  1.7978 -0.2941 -2.2163
 2991SOL    HW2 9873   2.210   2.784   2.279 -1.2606  0.4253  0.9358
 2992SOL     OW 9874   4.014   5.516   6.473  0.7371  0.0540  0.1590
 2992SOL    HW1 9875   4.029   5.418   6.481  2.3868  0.4344  3.1055
 2992SOL    HW2 9876   3.973   5.537   6.384 -1.5430 -3.4584  0.2156
 2993SOL     OW 9877   1.651   2.160   2.468  0.6912  0.1454  0.0341
 2993SOL    HW1 9878   1.638   2.173   2.567 -1.0101 -1.0031  0.0078
 2993SOL    HW2 9879   1.633   2.064   2.445 -0.4146  0.7106 -1.5955
 2994SOL     OW 9880   1.061   4.636   2.172  0.3354  0.0276 -0.1934
 2994SOL    HW1 9881   1.145   4.674   2.133  0.7839  0.9642  1.5635
 2994SOL    HW2 9882   1.083   4.591   2.259 -0.2575 -3.8741 -1.8596
 2995SOL     OW 9883   5.522   1.663   6.462  0.4537  0.0558 -0.0209
 2995SOL    HW1 9884   5.487   1.747   6.420 -0.2404  0.9071  2.1651
 2995SOL    HW2 9885   5.472   1.644   6.546  2.1087 -1.3316  0.7112
 2996SOL     OW 9886   3.678   5.874   4.824  0.4490  0.2377 -0.4767
 2996SOL    HW1 9887   3.644   5.848   4.914 -2.0645  1.0344 -1.1279
 2996SOL    HW2 9888   3.689   5.973   4.820  1.1913  0.1479 -0.8613
 2997SOL     OW 9889   5.447   1.979   5.687  0.3889 -0.4346  0.1979
 2997SOL    HW1 9890   5.527   1.964   5.629  0.6472  0.3936  0.3286
 2997SOL    HW2 9891   5.415   1.891   5.723  1.3695 -0.7545  0.3223
 2998SOL     OW 9892   5.459   1.127   0.784 -0.0380  0.0038  0.0689
 2998SOL    HW1 9893   5.426   1.199   0.845 -0.3925  0.9418 -1.1898
 2998SOL    HW2 9894   5.541   1.085   0.824 -0.6262  0.1393  1.4788
 2999SOL     OW 9895   6.290   3.558   5.065  0.1047  0.1237  0.5926
 2999SOL    HW1 9896   6.198   3.596   5.069 -0.0578 -0.3560  2.0899
 2999SOL    HW2 9897   6.287   3.460   5.085  1.0649  0.3833  2.1956
 3000SOL     OW 9898   1.322   0.487   3.598 -0.2017  0.2814  0.1028
 3000SOL    HW1 9899   1.269   0.484   3.683  0.7480  1.7155  0.7822
 3000SOL    HW2 9900   1.413   0.525   3.617  1.4834 -2.9825 -0.8441
 3001SOL     OW 9901   6.490   1.720   6.324  0.3425 -0.0157 -0.5654
 3001SOL    HW1 9902   6.564   1.670   6.370 -0.1947  0.3449  0.7432
 3001SOL    HW2 9903   6.498   1.708   6.226  0.9862 -1.6079 -0.3496
 3002SOL     OW 9904   5.222   0.256   5.815  0.0273  0.1985  0.6022
 3002SOL    HW1 9905   5.270   0.172   5.789  1.6027  0.5271  2.2002
 3002SOL    HW2 9906   5.222   0.265   5.915 -0.2649  1.9927  0.4849
 3003SOL     OW 9907   6.906   5.447   4.672  0.0462  0.3179 -0.0418
 3003SOL    HW1 9908   6.989   5.499   4.654 -0.1660  0.7602  0.2243
 3003SOL    HW2 9909   6.870   5.473   4.762 -0.0674 -0.2883  0.0927
 3004SOL     OW 9910   5.563   6.550   2.354 -0.4510 -0.5880  0.3984
 3004SOL    HW1 9911   5.515   6.519   2.436 -0.3394 -0.2094  0.6103
 3004SOL    HW2 9912   5.506   6.615   2.304  0.7733  1.9547  2.0364
 3005SOL     OW 9913   6.177   1.536   6.133 -0.1741 -0.0090 -0.1359
 3005SOL    HW1 9914   6.142   1.630   6.136  1.8651  0.8733 -1.7835
 3005SOL    HW2 9915   6.177   1.498   6.226 -1.9481  1.2237  0.4302
 3006SOL     OW 9916   0.948   4.474   6.005 -0.2334 -0.0711  0.0253
 3006SOL    HW1 9917   0.983   4.417   6.079  0.2874 -0.1644 -0.2860
 3006SOL    HW2 9918   0.983   4.440   5.917 -0.8346  0.0418 -0.2672
 3007SOL     OW 9919   0.613   6.821   1.603  0.0185 -0.1744 -0.0480
 3007SOL    HW1 9920   0.710   6.800   1.606  0.4111  1.1588  4.6134
 3007SOL    HW2 9921   0.597   6.909   1.648 -3.4372 -0.9960  0.6335
 3008SOL     OW 9922   1.413   3.161   3.928  0.6504 -0.3962 -0.1047
 3008SOL    HW1 9923   1.486   3.128   3.989  1.1709 -1.9147 -1.4963
 3008SOL    HW2 9924   1.346   3.089   3.915 -0.8500  0.8034  0.6989
 3009SOL     OW 9925   4.226   0.247   1.426 -0.3230 -0.6818  0.1714
 3009SOL    HW1 9926   4.160   0.322   1.431 -0.1966 -0.5144 -0.5477
 3009SOL    HW2 9927   4.190   0.174   1.368  0.8241  0.1666 -1.7071
 3010SOL     OW 9928   5.237   1.388   5.125 -0.6231 -0.4650  0.7936
 3010SOL    HW1 9929   5.234   1.460   5.195 -0.3089 -0.4572  0.8028
 3010SOL    HW2 9930   5.189   1.418   5.044 -0.7690 -0.3704  0.9150
 3011SOL     OW 9931   0.113   5.981   5.305 -1.1804  0.6798  0.0747
 3011SOL    HW1 9932   0.109   6.017   5.398  0.1826  0.2328  0.3275
 3011SOL    HW2 9933   0.102   6.056   5.240 -3.8368  0.7930  0.5434
 3012SOL     OW 9934   5.406   2.469   5.706 -0.1178 -0.2599  0.1057
 3012SOL    HW1 9935   5.398   2.417   5.622  1.7876 -0.2474 -0.1200
 3012SOL    HW2 9936   5.424   2.565   5.685  1.3157 -0.4203  0.4872
 3013SOL     OW 9937   5.350   1.485   1.164  0.5999 -0.5520 -0.3614
 3013SOL    HW1 9938   5.257   1.463   1.134  0.3460  0.1331 -0.1051
 3013SOL    HW2 9939   5.350   1.574   1.209  1.0715 -1.2595  1.1277
 3014SOL     OW 9940   5.184   0.288   3.094  0.0340  0.5461 -0.3125
 3014SOL    HW1 9941   5.228   0.262   3.008  1.7912  1.7631  0.1779
 3014SOL    HW2 9942   5.188   0.387   3.105 -1.3067  0.5179  0.5942
 3015SOL     OW 9943   6.267   3.917   4.507  0.2070  0.2656  0.8151
 3015SOL    HW1 9944   6.250   3.829   4.463 -0.7934  0.6081  0.4770
 3015SOL    HW2 9945   6.206   3.986   4.467  0.1180  0.8444  1.9154
 3016SOL     OW 9946   4.234   0.465   4.041  0.1856 -0.4661  0.1894
 3016SOL    HW1 9947   4.263   0.370   4.026  0.4131 -0.2769 -0.6079
 3016SOL    HW2 9948   4.281   0.502   4.121  0.3332 -0.9176  0.3175
 3017SOL     OW 9949   3.861   0.017   0.948  0.0237 -0.1154  0.5823
 3017SOL    HW1 9950   3.821  -0.008   0.860 -0.1315 -0.0289  0.6278
 3017SOL    HW2 9951   3.817   0.100   0.982 -0.5860 -0.6815  1.1962
 3018SOL     OW 9952   6.730   6.998   4.799 -0.4731 -0.1762  0.0844
 3018SOL    HW1 9953   6.786   7.017   4.718 -0.2152 -0.8484  0.1021
 3018SOL    HW2 9954   6.634   6.994   4.773 -0.5728  1.3152  0.1043
 3019SOL     OW 9955   4.101   1.081   5.570  0.0412 -0.8761  0.2017
 3019SOL    HW1 9956   4.165   1.005   5.556  1.6899  0.7358 -1.7819
 3019SOL    HW2 9957   4.021   1.068   5.512  0.5186 -0.9270 -0.4653
 3020SOL     OW 9958   0.671   2.938   2.066  0.2112 -0.5099  0.4015
 3020SOL    HW1 9959   0.581   2.928   2.022  0.1069  0.9182  0.2471
 3020SOL    HW2 9960   0.727   3.001   2.012 -0.2245  2.0398  2.7026
 3021SOL     OW 9961   1.345   3.514   2.776 -0.4669 -0.2965 -0.1494
 3021SOL    HW1 9962   1.396   3.597   2.799  1.6658 -1.8301  0.9236
 3021SOL    HW2 9963   1.277   3.496   2.847 -0.3100  0.0237  0.0840
 3022SOL     OW 9964   6.445   5.769   1.550  0.0275 -0.2207  0.7855
 3022SOL    HW1 9965   6.498   5.837   1.600 -1.3736  1.5815 -0.0370
 3022SOL    HW2 9966   6.385   5.720   1.613 -1.3387  1.6592  1.0457
 3023SOL     OW 9967   5.013   6.532   5.752 -0.5761 -0.5969 -0.5123
 3023SOL    HW1 9968   5.107   6.498   5.756 -0.5521 -0.4822 -0.0178
 3023SOL    HW2 9969   4.950   6.457   5.771 -0.5787 -0.6471 -0.7190
 3024SOL     OW 9970   0.113   0.377   4.302  0.0662 -0.6597 -0.2065
 3024SOL    HW1 9971   0.208   0.364   4.273 -0.4987 -3.2361 -1.1930
 3024SOL    HW2 9972   0.099   0.330   4.389 -0.6649 -1.7128 -0.8766
 3025SOL     OW 9973   6.398   0.139   6.141 -0.0034 -0.7666  0.0402
 3025SOL    HW1 9974   6.395   0.198   6.060  0.1131 -1.8310 -0.7541
 3025SOL    HW2 9975   6.409   0.196   6.223 -1.0427  0.3926 -0.5896
 3026SOL     OW 9976   5.380   1.718   5.811 -0.2750 -0.1815  0.4053
 3026SOL    HW1 9977   5.323   1.636   5.820 -0.8247  0.3729  2.4792
 3026SOL    HW2 9978   5.476   1.690   5.805 -0.5928 -1.0523 -1.7376
 3027SOL     OW 9979   2.560   3.940   0.732  0.0245  0.2853  0.0215
 3027SOL    HW1 9980   2.471   3.978   0.703  0.0338 -0.5367 -1.1548
 3027SOL    HW2 9981   2.628   4.013   0.731 -0.4000  0.6923 -0.1583
 3028SOL     OW 9982   5.955   5.237   2.857 -0.4054  0.1498  0.6171
 3028SOL    HW1 9983   6.043   5.284   2.849  0.7455 -1.8822  0.7973
 3028SOL    HW2 9984   5.935   5.219   2.954 -1.3161  1.0393  0.6250
 3029SOL     OW 9985   1.695   6.139   1.861 -0.4466  0.0350 -0.0933
 3029SOL    HW1 9986   1.787   6.177   1.866 -0.3103  0.0427 -1.9822
 3029SOL    HW2 9987   1.673   6.117   1.766 -2.1554 -0.5771  0.4073
 3030SOL     OW 9988   4.180   5.367   3.437 -0.7897 -0.0225 -0.6150
 3030SOL    HW1 9989   4.091   5.348   3.477 -0.2517 -1.9491 -0.2477
 3030SOL    HW2 9990   4.236   5.284   3.437  0.7033  0.9184 -1.6353
 3031SOL     OW 9991   5.658   0.841   3.784 -0.1203  0.4688  0.1880
 3031SOL    HW1 9992   5.605   0.763   3.750 -0.6522  0.9184 -0.0298
 3031SOL    HW2 9993   5.639   0.854   3.881 -2.2623  2.0434 -0.3592
 3032SOL     OW 9994   4.016   3.668   5.970  0.3661 -0.2448 -0.0546
 3032SOL    HW1 9995   4.016   3.686   5.872  1.2423 -0.1116 -0.0366
 3032SOL    HW2 9996   4.015   3.569   5.986  0.6595 -0.2728 -0.2047
 3033SOL     OW 9997   1.818   2.191   6.621 -0.1258  0.1684  0.3232
 3033SOL    HW1 9998   1.892   2.247   6.584  0.3499 -1.0008 -0.5916
 3033SOL    HW2 9999   1.732   2.215   6.576  0.4964 -1.4630 -1.9492
 3034SOL     OW10000   1.093   4.197   1.539 -0.5713 -0.3824 -0.0191
 3034SOL    HW110001   1.002   4.220   1.504  0.3611 -0.7145 -2.9456
 3034SOL    HW210002   1.108   4.098   1.530 -0.4301 -0.5893  1.9436
 3035SOL     OW10003   6.783   4.733   3.721  0.5482 -0.1179 -0.1070
 3035SOL    HW110004   6.874   4.692   3.714  0.6321  0.1942 -0.9152
 3035SOL    HW210005   6.749   4.722   3.815  1.6399  0.2270  0.3478
 3036SOL     OW10006   3.469   2.182   0.765  0.0041 -0.7218 -0.1603
 3036SOL    HW110007   3.378   2.220   0.781 -0.1578 -1.5199  0.9798
 3036SOL    HW210008   3.491   2.116   0.838  0.9891 -1.4619 -1.0892
 3037SOL     OW10009   7.003   5.716   4.053  0.1011 -0.0443 -0.0983
 3037SOL    HW110010   6.976   5.752   4.142  0.7922 -1.1436  0.5789
 3037SOL    HW210011   7.086   5.663   4.062  0.8603  0.7987 -1.6257
 3038SOL     OW10012   2.778   3.098   1.067 -0.8626  0.6199 -0.9618
 3038SOL    HW110013   2.767   3.196   1.083 -0.4908  0.4196  0.7605
 3038SOL    HW210014   2.690   3.052   1.082 -0.0618  0.0770  4.1317
 3039SOL     OW10015   2.259   1.034   0.642 -0.3254  0.1629  0.1871
 3039SOL    HW110016   2.312   1.116   0.618 -0.8930 -0.0840 -2.1719
 3039SOL    HW210017   2.182   1.061   0.699  0.4184  1.0159  0.8319
 3040SOL     OW10018   1.144   2.904   5.964 -0.2313  0.1520  0.1857
 3040SOL    HW110019   1.172   2.989   5.919 -1.3597 -0.3121 -1.5285
 3040SOL    HW210020   1.085   2.852   5.902 -2.2475 -0.3679  2.4048
 3041SOL     OW10021   1.189   5.779   3.086  1.0256 -0.6651  0.5894
 3041SOL    HW110022   1.257   5.820   3.147  0.7794 -2.6731  2.3255
 3041SOL    HW210023   1.140   5.707   3.134 -2.0362  0.3458 -0.7591
 3042SOL     OW10024   0.316   4.119   5.495 -0.1765 -0.6606  0.7187
 3042SOL    HW110025   0.388   4.164   5.442 -1.5473 -1.8542 -2.4233
 3042SOL    HW210026   0.346   4.108   5.590  2.8413  0.8111  0.0549
 3043SOL     OW10027   6.394   4.100   2.067 -0.0699 -0.1410  0.4343
 3043SOL    HW110028   6.493   4.093   2.050  0.2227  0.5369  1.8016
 3043SOL    HW210029   6.356   4.176   2.014 -0.0417 -0.9472 -0.7827
 3044SOL     OW10030   3.935   0.966   5.877 -0.1798  0.8753  0.5254
 3044SOL    HW110031   3.897   0.972   5.785 -2.2937  4.8566  1.4310
 3044SOL    HW210032   3.936   0.870   5.906 -2.4246 -0.2140 -2.4348
 3045SOL     OW10033   6.557   5.038   3.836 -0.2735  0.3195 -0.1434
 3045SOL    HW110034   6.637   4.994   3.876  0.0660  1.2454  0.2331
 3045SOL    HW210035   6.476   4.984   3.857  0.2024 -0.4281 -0.2041
 3046SOL     OW10036   5.036   3.600   4.861 -0.3249 -0.1636  0.3073
 3046SOL    HW110037   4.965   3.563   4.920  2.1181 -0.3880  3.3285
 3046SOL    HW210038   5.091   3.667   4.912  1.1953  0.5830 -2.1262
 3047SOL     OW10039   4.681   2.666   2.345 -0.1063 -0.5289 -0.5145
 3047SOL    HW110040   4.666   2.753   2.299 -1.1081 -0.6762 -0.4801
 3047SOL    HW210041   4.616   2.655   2.420  1.4685 -0.3256  0.9254
 3048SOL     OW10042   6.343   3.466   5.485 -0.1787 -0.9339 -0.4810
 3048SOL    HW110043   6.407   3.511   5.548 -0.3599 -0.7150 -0.4513
 3048SOL    HW210044   6.311   3.532   5.418  1.2164 -1.5364 -1.7859
 3049SOL     OW10045   3.934   0.630   3.036 -0.5529 -0.3776 -0.1086
 3049SOL    HW110046   3.859   0.582   3.082  0.8975  0.3198  3.3503
 3049SOL    HW210047   3.993   0.673   3.105  0.4624  3.0711 -2.8242
 3050SOL     OW10048   0.010   4.548   6.618 -0.5906 -0.2815  0.4066
 3050SOL    HW110049   0.077   4.537   6.691 -0.9714  0.7181  0.9316
 3050SOL    HW210050  -0.068   4.602   6.652 -2.1082 -2.1807  0.1039
 3051SOL     OW10051   1.207   1.489   4.981 -0.2003  0.1464  0.2134
 3051SOL    HW110052   1.256   1.408   4.950 -0.4996  0.5775 -1.5116
 3051SOL    HW210053   1.130   1.506   4.919 -0.1092  1.7710  0.5170
 3052SOL     OW10054   4.216   0.843   5.445 -0.0274  0.4855 -0.4097
 3052SOL    HW110055   4.316   0.840   5.438 -0.0243 -1.5256 -0.0185
 3052SOL    HW210056   4.177   0.855   5.354  0.5530 -1.1930 -0.9201
 3053SOL     OW10057   2.291   2.775   0.131 -0.3103  0.0737  0.2525
 3053SOL    HW110058   2.288   2.709   0.056  0.7028  1.1913 -0.8224
 3053SOL    HW210059   2.244   2.738   0.210 -0.8278 -1.4219 -0.7184
 3054SOL     OW10060   6.273   2.495   3.980 -0.4955 -0.0718 -0.1900
 3054SOL    HW110061   6.356   2.440   3.998 -0.2665  0.2747 -0.1838
 3054SOL    HW210062   6.239   2.532   4.067 -1.2219 -1.0046 -0.0516
 3055SOL     OW10063   2.589   1.612   1.790  0.6131  0.1579  0.1352
 3055SOL    HW110064   2.536   1.659   1.720  1.1375 -0.6471 -0.8303
 3055SOL    HW210065   2.528   1.554   1.845  0.2841  0.3388 -0.0355
 3056SOL     OW10066   5.249   0.872   5.189  0.3913  0.1299  0.3832
 3056SOL    HW110067   5.320   0.929   5.230  1.0446 -0.6075  0.3019
 3056SOL    HW210068   5.292   0.801   5.132 -0.3551 -1.0261  1.2124
 3057SOL     OW10069   1.301   0.245   0.533  0.5688 -0.0986  0.5278
 3057SOL    HW110070   1.268   0.265   0.625  0.9593 -2.1994  1.1884
 3057SOL    HW210071   1.392   0.203   0.539  0.1533 -1.2450 -0.7206
 3058SOL     OW10072   2.481   2.754   0.930  0.0577  0.5657  0.4882
 3058SOL    HW110073   2.444   2.661   0.935  0.0749  0.5879  1.0423
 3058SOL    HW210074   2.436   2.804   0.855  1.4146 -0.5011 -1.1192
 3059SOL     OW10075   5.093   5.396   4.642 -0.9498  0.0712 -0.0683
 3059SOL    HW110076   5.062   5.467   4.705 -0.6124 -0.9421  1.3090
 3059SOL    HW210077   5.015   5.361   4.590 -1.2005  1.0839 -0.3794
 3060SOL     OW10078   2.258   2.979   2.939 -0.1351  0.2542  0.2213
 3060SOL    HW110079   2.317   2.907   2.975 -0.3865 -1.8530 -3.2420
 3060SOL    HW210080   2.311   3.063   2.930  1.1144 -0.3935  1.1165
 3061SOL     OW10081   5.352   1.283   0.595  0.2708  0.0638  0.2956
 3061SOL    HW110082   5.386   1.238   0.678 -2.0558  0.0434  1.3293
 3061SOL    HW210083   5.352   1.218   0.519 -0.2227 -0.8046  1.0178
 3062SOL     OW10084   4.117   0.738   4.157  0.2019 -0.0442 -0.3414
 3062SOL    HW110085   4.156   0.822   4.197  1.3466 -0.8851  0.3562
 3062SOL    HW210086   4.172   0.660   4.184 -1.5987 -1.2123  0.1153
 3063SOL     OW10087   3.176   1.435   1.157 -0.0973  0.0850  0.4942
 3063SOL    HW110088   3.184   1.365   1.087  0.5537 -0.1415  0.7887
 3063SOL    HW210089   3.237   1.511   1.135 -0.6832  0.4984  0.2582
 3064SOL     OW10090   3.426   4.318   6.786 -0.0758  0.5104  1.2530
 3064SOL    HW110091   3.466   4.273   6.865 -0.1514 -2.2104 -0.1182
 3064SOL    HW210092   3.389   4.407   6.813  1.5013  0.4854  3.8144
 3065SOL     OW10093   1.589   3.917   5.198  0.4699 -0.6646  0.7250
 3065SOL    HW110094   1.609   3.846   5.131  2.2180 -0.2740  0.7997
 3065SOL    HW210095   1.575   4.004   5.151 -1.0080 -0.8981  0.6867
 3066SOL     OW10096   1.060   0.860   6.637  0.5179  0.0383  0.4017
 3066SOL    HW110097   1.049   0.888   6.541  0.6903  0.4557  0.5029
 3066SOL    HW210098   1.104   0.934   6.688  0.0472 -0.0211  0.8948
 3067SOL     OW10099   4.163   5.439   1.438  0.1276 -0.4718  0.0237
 3067SOL    HW110100   4.102   5.378   1.488 -0.3791  0.4853  0.5939
 3067SOL    HW210101   4.128   5.454   1.346  0.4984 -1.3973 -0.2743
 3068SOL     OW10102   3.926   4.380   0.287  0.1242  0.1104  0.1729
 3068SOL    HW110103   3.948   4.328   0.369 -0.3488 -0.8760 -0.2966
 3068SOL    HW210104   4.008   4.421   0.249  0.3093  0.7429  1.2498
 3069SOL     OW10105   2.581   0.424   0.936  0.3240 -0.5149  0.4767
 3069SOL    HW110106   2.623   0.334   0.947  0.5689 -0.3969  0.4969
 3069SOL    HW210107   2.650   0.495   0.945  0.0723 -0.3072  0.7932
 3070SOL     OW10108   3.114   2.041   0.063  0.3902  0.2023 -0.6963
 3070SOL    HW110109   3.088   1.967   0.001 -2.2002 -1.2861  1.9148
 3070SOL    HW210110   3.160   2.003   0.144 -2.1419  1.1504  1.3222
 3071SOL     OW10111   0.329   6.099   5.626  0.0253 -0.1603  0.0722
 3071SOL    HW110112   0.378   6.049   5.698 -0.0196  1.7089  1.4748
 3071SOL    HW210113   0.392   6.123   5.553  0.3768 -0.9078  0.1200
 3072SOL     OW10114   1.034   3.873   6.737  0.5121  0.3879  0.1869
 3072SOL    HW110115   1.006   3.934   6.811 -1.0567 -2.0364  1.7448
 3072SOL    HW210116   1.057   3.783   6.775  1.1931 -0.5127 -2.1584
 3073SOL     OW10117   3.063   5.308   2.492  0.7342  0.1715  0.1594
 3073SOL    HW110118   3.071   5.339   2.397  1.9609  1.6794  0.7111
 3073SOL    HW210119   3.154   5.300   2.532  0.3393 -2.0917  0.7506
 3074SOL     OW10120   5.057   0.502   6.813 -0.4989 -0.0634  0.0867
 3074SOL    HW110121   5.003   0.583   6.833 -0.6261 -0.2559  0.5378
 3074SOL    HW210122   5.000   0.434   6.767  0.0047  0.7066 -1.7538
 3075SOL     OW10123   2.698   6.773   6.512 -0.5628 -0.1377  0.1176
 3075SOL    HW110124   2.742   6.862   6.523 -0.1165 -0.5415  2.1246
 3075SOL    HW210125   2.610   6.772   6.560  0.1742 -1.2072  1.5595
 3076SOL     OW10126   6.655   3.806   4.011 -0.2023 -0.0644  0.3708
 3076SOL    HW110127   6.700   3.729   3.965 -2.2334 -1.5132  0.6382
 3076SOL    HW210128   6.594   3.771   4.082 -1.4394  1.7712  0.2876
 3077SOL     OW10129   4.408   1.146   5.329  0.5303 -0.1353 -0.5748
 3077SOL    HW110130   4.362   1.166   5.415 -1.7925  0.0810 -1.7846
 3077SOL    HW210131   4.477   1.075   5.344  0.5107  0.2100  1.5088
 3078SOL     OW10132   1.529   3.730   1.480 -0.4585  0.3219 -0.8007
 3078SOL    HW110133   1.625   3.754   1.466 -0.5039  0.6566 -0.5554
 3078SOL    HW210134   1.471   3.807   1.453 -0.5792  0.6980  0.4642
 3079SOL     OW10135   1.717   2.943   2.054 -1.1107 -0.4781  0.1466
 3079SOL    HW110136   1.813   2.930   2.030 -0.7663  0.4660  0.9340
 3079SOL    HW210137   1.705   2.928   2.152 -1.6696 -0.1313  0.1354
 3080SOL     OW10138   6.251   3.064   6.101 -0.3391 -0.0250 -0.5954
 3080SOL    HW110139   6.319   3.092   6.168 -1.6130 -0.2501  0.8610
 3080SOL    HW210140   6.172   3.024   6.148 -1.2688 -0.2490 -2.2409
 3081SOL     OW10141   3.054   3.897   1.073 -0.1956  0.0738 -0.4503
 3081SOL    HW110142   3.134   3.846   1.043  0.6953 -1.1259  3.3655
 3081SOL    HW210143   2.974   3.837   1.071  0.3041 -0.7392  1.3986
 3082SOL     OW10144   2.945   2.713   1.390 -0.5403 -0.2847 -0.2702
 3082SOL    HW110145   2.944   2.811   1.375 -4.4943  0.0369  0.9146
 3082SOL    HW210146   2.945   2.665   1.302 -0.5131  0.8232 -0.8877
 3083SOL     OW10147   5.718   1.207   2.067 -1.0775 -0.6884 -0.0616
 3083SOL    HW110148   5.658   1.173   2.139 -1.8445 -1.5489 -1.0788
 3083SOL    HW210149   5.664   1.252   1.997 -0.3353  0.1471 -0.1158
 3084SOL     OW10150   1.421   6.341   4.212 -0.1901 -0.1407  0.2383
 3084SOL    HW110151   1.445   6.334   4.115  1.6144  0.7396  0.5842
 3084SOL    HW210152   1.324   6.364   4.221 -0.1174  0.9605 -1.3930
 3085SOL     OW10153   0.512   0.760   1.441 -0.2020  0.6185  0.2240
 3085SOL    HW110154   0.414   0.757   1.420 -0.4099 -0.1899  1.2147
 3085SOL    HW210155   0.539   0.854   1.462 -0.5783  0.9784 -0.8524
 3086SOL     OW10156   1.006   2.157   0.540  0.0626 -0.1451 -0.2194
 3086SOL    HW110157   1.098   2.168   0.578  0.0749  0.0941 -0.3200
 3086SOL    HW210158   1.005   2.189   0.445 -0.1147 -0.1890 -0.2332
 3087SOL     OW10159   0.003   3.958   1.281  0.2308  0.0337  0.0735
 3087SOL    HW110160  -0.073   3.967   1.217  0.3708 -0.4464 -0.1651
 3087SOL    HW210161   0.005   4.038   1.342 -1.3078 -0.5995  1.0008
 3088SOL     OW10162   6.932   4.423   1.663 -0.2458  0.5605 -0.0411
 3088SOL    HW110163   6.945   4.476   1.746  0.9842 -1.4468  1.1301
 3088SOL    HW210164   7.000   4.451   1.595  0.8667  0.0433  0.8244
 3089SOL     OW10165   5.763   0.505   4.531  0.3349  0.3243  1.1530
 3089SOL    HW110166   5.815   0.558   4.464  0.3733 -1.3106 -0.1821
 3089SOL    HW210167   5.665   0.514   4.512  0.3879 -1.4102 -0.2272
 3090SOL     OW10168   3.765   1.088   5.228  0.0214 -0.5207 -0.4564
 3090SOL    HW110169   3.841   1.079   5.164 -0.1461 -0.2738 -0.6919
 3090SOL    HW210170   3.699   1.154   5.192  0.4988  0.5163  0.5237
 3091SOL     OW10171   3.643   6.532   2.105  0.5038 -0.0919  0.0336
 3091SOL    HW110172   3.739   6.562   2.109  0.3919  0.5041 -1.1572
 3091SOL    HW210173   3.596   6.582   2.033 -1.4111  1.5693  2.2692
 3092SOL     OW10174   2.960   4.915   0.338 -0.1211  0.3234  0.3427
 3092SOL    HW110175   2.995   4.897   0.430 -0.4217  1.9612  0.8065
 3092SOL    HW210176   3.035   4.908   0.272 -0.0697 -1.7504  0.5341
 3093SOL     OW10177   6.572   3.598   0.709 -0.7157  0.1486 -0.1601
 3093SOL    HW110178   6.550   3.578   0.805  0.8391  0.1027  0.2251
 3093SOL    HW210179   6.494   3.642   0.665 -1.1225  1.1018  1.4143
 3094SOL     OW10180   4.156   3.940   1.533 -0.5403  0.1706  0.4562
 3094SOL    HW110181   4.140   3.939   1.632  2.2159 -1.3775  0.9815
 3094SOL    HW210182   4.111   3.861   1.491 -2.1459  1.1065  0.3259
 3095SOL     OW10183   4.699   1.936   4.863  0.1015 -0.3215  0.3158
 3095SOL    HW110184   4.685   1.891   4.952  0.8196  0.1300  0.6677
 3095SOL    HW210185   4.778   1.895   4.818 -0.2871 -0.5780 -0.1412
 3096SOL     OW10186   3.862   2.207   1.263 -0.3579 -0.2859 -0.2822
 3096SOL    HW110187   3.922   2.275   1.221 -0.3635 -1.0526 -1.5780
 3096SOL    HW210188   3.792   2.254   1.316 -0.8247  0.7757 -1.7643
 3097SOL     OW10189   0.267   0.869   3.274  0.3077  0.0514 -1.1564
 3097SOL    HW110190   0.323   0.787   3.268 -0.2069 -0.3582 -0.4763
 3097SOL    HW210191   0.301   0.927   3.348 -1.7125 -1.4533  1.1080
 3098SOL     OW10192   1.936   5.568   6.159  0.4549  0.1438 -0.1457
 3098SOL    HW110193   1.932   5.634   6.085 -0.1071  0.1024 -0.1543
 3098SOL    HW210194   1.848   5.565   6.207  0.9025  0.3795  0.7035
 3099SOL     OW10195   4.680   1.451   5.747  0.2294 -0.2577 -0.0248
 3099SOL    HW110196   4.607   1.438   5.815 -0.1161 -0.6567 -0.4626
 3099SOL    HW210197   4.664   1.537   5.698 -0.7416 -0.9982 -1.0619
 3100SOL     OW10198   4.253   1.931   4.685  0.4838 -0.2101  0.5183
 3100SOL    HW110199   4.319   2.000   4.716  0.8805 -0.5253  0.3942
 3100SOL    HW210200   4.160   1.964   4.701  0.6432  0.8012 -0.4929
 3101SOL     OW10201   1.258   3.637   2.249  0.4510 -0.2382 -0.1811
 3101SOL    HW110202   1.311   3.612   2.330  1.5972 -0.0798 -0.8510
 3101SOL    HW210203   1.207   3.721   2.267 -0.3988 -0.9538  0.8160
 3102SOL     OW10204   1.503   5.158   0.033 -0.2547 -0.2537 -0.0745
 3102SOL    HW110205   1.518   5.059   0.030 -0.3135 -0.2649  0.0012
 3102SOL    HW210206   1.475   5.184   0.125 -1.0571 -0.2796 -0.3071
 3103SOL     OW10207   0.996   5.457   5.801 -0.3557 -0.2616 -0.4171
 3103SOL    HW110208   1.069   5.433   5.737 -0.6421 -2.4497  0.0050
 3103SOL    HW210209   1.026   5.439   5.895 -1.0107 -0.0065 -0.1519
 3104SOL     OW10210   4.400   3.644   1.680  0.4918  0.1885 -0.2278
 3104SOL    HW110211   4.480   3.691   1.642  1.3482 -0.9471  0.1322
 3104SOL    HW210212   4.430   3.577   1.747 -0.5551 -1.9845 -1.8339
 3105SOL     OW10213   5.539   5.141   3.747  0.0820 -0.4967  0.1963
 3105SOL    HW110214   5.518   5.172   3.840  0.6744 -0.2451  0.2508
 3105SOL    HW210215   5.615   5.195   3.710 -0.2592 -0.4794 -0.5010
 3106SOL     OW10216   4.883   6.445   6.045  0.4567  0.2212  0.1124
 3106SOL    HW110217   4.901   6.542   6.030 -0.1698  0.1877 -0.9109
 3106SOL    HW210218   4.965   6.392   6.025  0.6101  0.4761  0.0634
 3107SOL     OW10219   4.360   2.402   3.307 -0.3988  0.7305  0.0572
 3107SOL    HW110220   4.458   2.386   3.310 -0.3310  0.7593 -1.4462
 3107SOL    HW210221   4.332   2.426   3.214 -1.6727  1.7471  0.6569
 3108SOL     OW10222   5.259   4.389   4.461 -0.0239 -0.8356  0.3914
 3108SOL    HW110223   5.302   4.472   4.424 -0.1084 -0.9348  0.0608
 3108SOL    HW210224   5.172   4.414   4.503 -0.8581 -0.9524 -1.1636
 3109SOL     OW10225   4.589   5.874   1.003  0.0225 -0.8055 -0.1928
 3109SOL    HW110226   4.615   5.958   0.955 -0.4478 -0.0723  0.7960
 3109SOL    HW210227   4.506   5.837   0.961 -1.0351  0.4465  0.7089
 3110SOL     OW10228   0.273   0.446   5.019  0.3019  0.0355 -0.1157
 3110SOL    HW110229   0.322   0.477   4.938  1.7279  0.1152  0.7345
 3110SOL    HW210230   0.188   0.499   5.029  0.7312  0.8906 -0.8687
 3111SOL     OW10231   5.623   0.490   1.125  0.3494  0.1295  0.0906
 3111SOL    HW110232   5.580   0.424   1.188  3.0525  0.3040  2.3243
 3111SOL    HW210233   5.624   0.452   1.033 -1.7587 -1.1564  0.5328
 3112SOL     OW10234   1.242   5.646   2.642 -0.3834 -0.5005  0.7178
 3112SOL    HW110235   1.195   5.615   2.724 -0.8271 -3.9649 -0.6710
 3112SOL    HW210236   1.174   5.676   2.574 -0.6483 -3.6224 -0.5579
 3113SOL     OW10237   6.774   0.967   6.731  0.3028 -0.4168  0.3988
 3113SOL    HW110238   6.779   1.063   6.705 -4.3034  0.3206  1.3334
 3113SOL    HW210239   6.808   0.911   6.656  0.5958  1.8788 -1.2936
 3114SOL     OW10240   1.509   5.138   0.946  0.2271  0.0744  0.0793
 3114SOL    HW110241   1.581   5.103   0.886  1.0198  0.7532  0.6010
 3114SOL    HW210242   1.423   5.092   0.926  0.8225 -0.8124 -0.5082
 3115SOL     OW10243   5.418   1.708   1.997 -0.2377  0.1875 -0.3139
 3115SOL    HW110244   5.506   1.663   2.015 -0.7085 -0.7301 -0.2285
 3115SOL    HW210245   5.348   1.638   1.980 -1.0241  0.8997 -0.0555
 3116SOL     OW10246   1.200   5.461   4.491 -0.2525  0.0083 -0.8392
 3116SOL    HW110247   1.263   5.387   4.512 -0.7667 -0.3371 -0.4877
 3116SOL    HW210248   1.113   5.423   4.459 -0.4672  0.4559 -0.7984
 3117SOL     OW10249   4.969   0.113   5.971 -0.4335  0.6277  0.2486
 3117SOL    HW110250   4.870   0.119   5.962 -0.2428  1.2940 -2.1340
 3117SOL    HW210251   5.003   0.197   6.015 -0.8351  0.7791  0.2763
 3118SOL     OW10252   1.782   2.652   3.361  0.5956  0.0574 -0.3470
 3118SOL    HW110253   1.724   2.630   3.283  1.2000  0.9237 -1.0704
 3118SOL    HW210254   1.732   2.636   3.446 -0.5315  0.3244 -0.9373
 3119SOL     OW10255   6.170   5.892   3.365 -0.4694 -0.6113  0.1899
 3119SOL    HW110256   6.141   5.984   3.394 -1.0752 -0.5600 -0.5406
 3119SOL    HW210257   6.244   5.861   3.423  0.3095  0.6902 -0.0513
 3120SOL     OW10258   4.144   3.295   4.315  0.0117  0.2926 -0.2405
 3120SOL    HW110259   4.224   3.254   4.359 -0.6733 -1.1690 -0.2911
 3120SOL    HW210260   4.088   3.342   4.384  0.0891 -0.0747  0.0753
 3121SOL     OW10261   0.511   5.379   3.956 -0.0567  0.0493 -0.5130
 3121SOL    HW110262   0.495   5.391   3.858 -1.1299 -0.9454 -0.4775
 3121SOL    HW210263   0.599   5.334   3.970  0.3305  0.6464 -0.9889
 3122SOL     OW10264   0.781   6.057   2.401 -0.7638 -0.3030 -0.8209
 3122SOL    HW110265   0.721   6.112   2.459 -1.0454 -0.3926 -1.0215
 3122SOL    HW210266   0.799   6.105   2.316  0.0118  0.0206 -0.4778
 3123SOL     OW10267   4.166   4.421   6.737 -0.0860 -0.4457 -0.2929
 3123SOL    HW110268   4.132   4.345   6.680 -3.0343 -0.3444  1.1194
 3123SOL    HW210269   4.134   4.508   6.699 -0.1968 -0.2192  0.3065
 3124SOL     OW10270   6.190   1.446   3.525 -0.3040  0.2501 -0.6147
 3124SOL    HW110271   6.100   1.437   3.483 -0.0531 -1.8471 -0.8006
 3124SOL    HW210272   6.186   1.414   3.620  0.2681  0.0280 -0.6635
 3125SOL     OW10273   1.253   0.420   6.683 -0.5032 -0.4355  0.0748
 3125SOL    HW110274   1.208   0.353   6.625  0.4658 -1.0641  0.0121
 3125SOL    HW210275   1.351   0.420   6.664 -0.5819  1.6363 -0.5374
 3126SOL     OW10276   4.698   5.848   0.254 -0.1479 -0.1734 -0.1667
 3126SOL    HW110277   4.679   5.934   0.206  1.3216 -0.8492 -2.0668
 3126SOL    HW210278   4.796   5.840   0.273 -0.3877 -1.0257  0.8392
 3127SOL     OW10279   2.385   4.991   1.398  0.0631 -0.1226 -0.1461
 3127SOL    HW110280   2.396   5.068   1.335  2.0350  0.9956  1.4587
 3127SOL    HW210281   2.294   4.994   1.439 -0.5362  0.2544 -1.4660
 3128SOL     OW10282   4.743   4.456   1.026 -0.4939  0.4335 -0.3176
 3128SOL    HW110283   4.761   4.551   1.000 -1.1834  1.5212  2.7476
 3128SOL    HW210284   4.675   4.417   0.965 -0.3065  1.9435 -1.5595
 3129SOL     OW10285   1.743   6.633   5.608 -0.3651  0.0461  0.5182
 3129SOL    HW110286   1.829   6.670   5.642 -0.3744 -1.5034  2.4181
 3129SOL    HW210287   1.755   6.602   5.514  0.4588  1.9804 -0.0565
 3130SOL     OW10288   0.606   0.391   1.763 -0.2172 -0.1210 -0.0335
 3130SOL    HW110289   0.600   0.292   1.752  1.5203 -0.3911  0.9772
 3130SOL    HW210290   0.539   0.422   1.830  0.5680 -0.9535  1.1866
 3131SOL     OW10291   4.379   2.869   1.675  0.1458 -0.1327 -0.5052
 3131SOL    HW110292   4.332   2.954   1.696 -0.2037 -0.7017  1.1968
 3131SOL    HW210293   4.320   2.792   1.700  0.3508 -0.9083 -2.2456
 3132SOL     OW10294   1.953   0.082   4.114 -0.8030 -0.6429 -0.0300
 3132SOL    HW110295   1.956   0.116   4.020 -2.0733 -1.7812 -0.5113
 3132SOL    HW210296   1.993  -0.010   4.118  0.1909 -0.2064  0.7613
 3133SOL     OW10297   3.766   4.635   5.708  0.5526  0.0862  0.1554
 3133SOL    HW110298   3.685   4.605   5.760 -0.5183  1.6510 -0.5504
 3133SOL    HW210299   3.849   4.609   5.758 -0.4069 -0.2894  1.6128
 3134SOL     OW10300   6.268   4.565   4.669  0.2678  0.1568  0.0893
 3134SOL    HW110301   6.229   4.590   4.581  1.4225 -2.0220 -1.1347
 3134SOL    HW210302   6.364   4.593   4.672  0.1373  0.5700  0.8463
 3135SOL     OW10303   5.430   2.578   0.823  0.3943  0.3405 -0.6182
 3135SOL    HW110304   5.370   2.608   0.748 -1.9854  1.4989  1.5888
 3135SOL    HW210305   5.415   2.481   0.840 -0.7855  0.5857 -0.1911
 3136SOL     OW10306   5.196   2.880   3.619 -0.4236  0.1110  0.1241
 3136SOL    HW110307   5.241   2.805   3.571 -0.0579  0.0965  0.4887
 3136SOL    HW210308   5.255   2.914   3.692 -0.7539  0.4868  0.2222
 3137SOL     OW10309   2.562   1.686   0.456 -0.4706  0.2436  0.4660
 3137SOL    HW110310   2.492   1.662   0.389 -1.1307  0.8354  0.9182
 3137SOL    HW210311   2.596   1.778   0.437  0.5747 -0.2274 -0.0547
 3138SOL     OW10312   0.675   0.378   0.456 -0.0048  0.2892  0.3606
 3138SOL    HW110313   0.604   0.372   0.386  0.2579  0.7704  0.0468
 3138SOL    HW210314   0.765   0.372   0.413  0.1989  1.8787  0.4898
 3139SOL     OW10315   6.915   5.322   6.482  0.3342  0.6102 -0.7661
 3139SOL    HW110316   6.854   5.376   6.424 -0.4375  0.1364 -0.4176
 3139SOL    HW210317   7.009   5.333   6.451 -0.0039  0.8106 -1.7554
 3140SOL     OW10318   6.985   6.771   5.871 -0.0211 -0.4676 -0.0996
 3140SOL    HW110319   7.047   6.726   5.935 -0.2198 -0.9944 -0.2718
 3140SOL    HW210320   6.910   6.815   5.921  1.4440  1.7970  0.2832
 3141SOL     OW10321   6.187   3.220   5.892  0.3522  0.3053 -0.6881
 3141SOL    HW110322   6.208   3.151   5.961  0.3508 -1.6038 -2.4641
 3141SOL    HW210323   6.152   3.303   5.936  1.1617 -0.4943  1.5990
 3142SOL     OW10324   5.543   5.900   6.618  0.0369 -0.1997 -0.3642
 3142SOL    HW110325   5.556   5.821   6.678  1.8834 -0.1912 -0.6970
 3142SOL    HW210326   5.454   5.943   6.638 -0.6260 -1.8387  0.3975
 3143SOL     OW10327   2.108   6.259   5.430  0.7612  0.0294 -0.0708
 3143SOL    HW110328   2.108   6.356   5.453  0.8232  0.9280 -3.2711
 3143SOL    HW210329   2.191   6.237   5.378 -0.3983 -1.0862 -1.5537
 3144SOL     OW10330   3.258   4.722   1.069 -0.0363 -0.1214  0.4358
 3144SOL    HW110331   3.297   4.636   1.035  1.2784  0.5543  0.1669
 3144SOL    HW210332   3.171   4.704   1.113  0.4971 -1.6797  0.9024
 3145SOL     OW10333   4.392   1.131   1.094  0.0517 -0.1884  0.6151
 3145SOL    HW110334   4.469   1.165   1.148  0.9161  0.9581 -1.2375
 3145SOL    HW210335   4.417   1.128   0.998 -2.3779  0.7762 -0.1439
 3146SOL     OW10336   5.371   1.109   6.420 -0.3452  0.1954  0.0940
 3146SOL    HW110337   5.453   1.058   6.394 -0.8500  0.6407 -2.5862
 3146SOL    HW210338   5.290   1.055   6.398 -0.8376  1.1987 -0.6107
 3147SOL     OW10339   0.042   0.444   0.968  0.0416 -0.2055  0.5116
 3147SOL    HW110340   0.030   0.361   1.023 -1.1443  0.8346  1.8877
 3147SOL    HW210341   0.136   0.475   0.975  0.8546 -2.0741 -1.0319
 3148SOL     OW10342   0.306   5.568   2.021 -0.5017  0.4046  0.3181
 3148SOL    HW110343   0.226   5.511   2.006  1.2844 -2.2744  0.1698
 3148SOL    HW210344   0.313   5.592   2.118 -0.2326 -1.4838  0.8104
 3149SOL     OW10345   5.156   3.970   6.216 -0.7925  0.7319  0.3575
 3149SOL    HW110346   5.226   3.929   6.158  0.9740  1.1888  2.0316
 3149SOL    HW210347   5.122   3.901   6.281  1.0298  1.4010  2.1260
 3150SOL     OW10348   6.946   4.971   5.354  0.0622  0.0573  0.1580
 3150SOL    HW110349   7.022   5.035   5.369 -0.2968  0.5124  0.0614
 3150SOL    HW210350   6.860   5.017   5.375 -0.3223  0.0948 -1.3758
 3151SOL     OW10351   4.731   0.823   0.215  0.8275  0.3078  0.2197
 3151SOL    HW110352   4.723   0.745   0.278  2.2255 -0.8369 -0.9349
 3151SOL    HW210353   4.640   0.860   0.196  0.0699 -1.3579  0.4344
 3152SOL     OW10354   0.996   4.698   6.174 -0.4492  0.3107  0.4161
 3152SOL    HW110355   0.966   4.609   6.138  1.6354 -0.7287  1.0396
 3152SOL    HW210356   1.000   4.765   6.100 -0.2613 -0.6466 -0.4650
 3153SOL     OW10357   3.783   1.418   3.980 -0.2456 -0.0949  0.0391
 3153SOL    HW110358   3.741   1.338   4.023 -1.6859  0.8259  0.4359
 3153SOL    HW210359   3.836   1.468   4.049 -0.0667 -0.2245 -0.0018
 3154SOL     OW10360   2.472   3.646   5.988 -0.3558  0.4526  0.8171
 3154SOL    HW110361   2.480   3.744   6.010  2.4960  0.8055 -1.1014
 3154SOL    HW210362   2.377   3.624   5.969 -0.9192  3.3432 -0.3904
 3155SOL     OW10363   5.477   6.346   4.465  0.0149 -0.7886  0.2911
 3155SOL    HW110364   5.541   6.312   4.534  2.0786 -1.5032 -1.8629
 3155SOL    HW210365   5.447   6.271   4.406 -0.0814  0.1160 -0.8515
 3156SOL     OW10366   5.688   6.101   5.901 -0.0896 -0.0288 -0.1796
 3156SOL    HW110367   5.784   6.082   5.920 -0.2755 -2.4422 -1.2681
 3156SOL    HW210368   5.680   6.169   5.829  0.7307  1.4410  1.0661
 3157SOL     OW10369   6.578   3.642   2.840  0.0935 -0.7441 -0.6351
 3157SOL    HW110370   6.508   3.696   2.887 -0.3164 -1.6213 -0.2025
 3157SOL    HW210371   6.611   3.570   2.901  0.6338 -0.9780 -1.1934
 3158SOL     OW10372   6.248   3.753   3.586 -0.0222  0.4191 -0.9552
 3158SOL    HW110373   6.182   3.771   3.659  1.6876  2.0407  0.2560
 3158SOL    HW210374   6.229   3.663   3.547 -3.0137  0.8540 -0.7814
 3159SOL     OW10375   2.131   2.557   5.246 -0.0289  0.1323 -0.2624
 3159SOL    HW110376   2.168   2.484   5.304 -0.5294 -0.1498 -0.2973
 3159SOL    HW210377   2.164   2.645   5.279 -0.9905  0.0524  1.0026
 3160SOL     OW10378   3.624   6.623   1.837 -0.2077 -0.0721  0.0551
 3160SOL    HW110379   3.707   6.606   1.783 -0.7480 -0.5527 -0.6429
 3160SOL    HW210380   3.553   6.659   1.777 -0.6309 -0.0493  0.5703
 3161SOL     OW10381   2.426   0.261   1.980 -0.0450 -0.0928 -0.3985
 3161SOL    HW110382   2.366   0.282   2.057 -0.4969  0.2281 -0.8342
 3161SOL    HW210383   2.425   0.162   1.962 -0.3497 -0.1001 -0.3340
 3162SOL     OW10384   2.690   5.927   1.461 -0.3505  0.2275 -0.2300
 3162SOL    HW110385   2.647   5.943   1.372  0.0528  0.5045 -0.3775
 3162SOL    HW210386   2.668   5.835   1.493  1.3347 -0.7244 -1.6572
 3163SOL     OW10387   2.368   3.127   1.430 -0.0495 -0.1448  0.3163
 3163SOL    HW110388   2.278   3.103   1.467 -0.6320 -1.5493 -1.8275
 3163SOL    HW210389   2.436   3.124   1.503 -1.2777 -1.9202  1.4676
 3164SOL     OW10390   2.111   1.630   0.444 -0.1542 -0.0194  0.1253
 3164SOL    HW110391   2.151   1.541   0.467 -1.9304 -0.6468  0.9083
 3164SOL    HW210392   2.183   1.700   0.447  1.0407 -1.2232  0.6430
 3165SOL     OW10393   3.516   5.678   1.718  0.0310 -0.2551  0.4001
 3165SOL    HW110394   3.453   5.606   1.689 -0.1573  0.2787 -0.5473
 3165SOL    HW210395   3.610   5.645   1.713  0.1577  0.2766 -2.4044
 3166SOL     OW10396   3.971   4.930   6.611  0.5831  0.4169 -0.0717
 3166SOL    HW110397   4.050   4.983   6.642  1.0549 -1.1224  1.5849
 3166SOL    HW210398   3.958   4.851   6.672 -1.9747  0.3664 -0.5478
 3167SOL     OW10399   0.631   1.620   2.458  0.0370  0.2668 -0.4200
 3167SOL    HW110400   0.611   1.718   2.452  0.0359  0.6240  3.1466
 3167SOL    HW210401   0.546   1.569   2.470  0.0793 -0.1664 -1.8049
 3168SOL     OW10402   5.903   0.788   4.062  0.6083 -0.3757 -0.4271
 3168SOL    HW110403   5.808   0.819   4.055  0.8483  0.4787 -0.1123
 3168SOL    HW210404   5.951   0.811   3.977  0.3126 -1.6316 -0.9459
 3169SOL     OW10405   6.798   5.996   1.146  0.5189  0.0912  0.6136
 3169SOL    HW110406   6.752   6.028   1.063  2.7654  1.9238 -0.0397
 3169SOL    HW210407   6.861   5.922   1.122 -0.3746 -0.8366  1.0911
 3170SOL     OW10408   5.828   3.721   0.932  0.4319 -0.2442  0.7149
 3170SOL    HW110409   5.827   3.670   0.846  2.2246 -0.7325  0.9515
 3170SOL    HW210410   5.736   3.720   0.972  0.1974 -2.5326  0.2559
 3171SOL     OW10411   5.470   3.475   5.796 -0.1199  0.2000  0.4746
 3171SOL    HW110412   5.452   3.471   5.894 -3.5053 -0.9464 -0.0491
 3171SOL    HW210413   5.389   3.511   5.749  0.8501 -0.6126 -1.9954
 3172SOL     OW10414   1.788   1.208   6.065 -0.1182  0.6832  0.1707
 3172SOL    HW110415   1.715   1.255   6.114 -0.1160 -0.2953  1.1457
 3172SOL    HW210416   1.803   1.118   6.106  1.1412  0.5799 -0.4796
 3173SOL     OW10417   1.862   3.221   2.191  0.5557  0.2332 -0.3049
 3173SOL    HW110418   1.905   3.134   2.216 -0.2661  0.1267  0.8248
 3173SOL    HW210419   1.915   3.265   2.118  2.2733 -0.1410  0.6593
 3174SOL     OW10420   1.883   5.921   3.450 -0.6069  0.0783 -0.2228
 3174SOL    HW110421   1.975   5.958   3.435 -0.6628  0.8318  1.0960
 3174SOL    HW210422   1.829   5.930   3.367  0.2256  0.4827 -0.7306
 3175SOL     OW10423   3.357   1.721   1.986 -0.0101 -0.2789  0.0299
 3175SOL    HW110424   3.440   1.730   2.041  1.0610 -0.4986 -1.4597
 3175SOL    HW210425   3.383   1.695   1.892 -1.7296  0.2959 -0.6350
 3176SOL     OW10426   2.393   2.763   3.039 -0.2733 -0.1153 -0.1245
 3176SOL    HW110427   2.459   2.691   3.015  1.1399  0.8341  0.8077
 3176SOL    HW210428   2.366   2.752   3.134 -3.3566 -1.8995 -1.0475
 3177SOL     OW10429   5.246   6.770   4.523 -0.6250 -0.3161  0.3415
 3177SOL    HW110430   5.292   6.688   4.491  1.0546  0.2779  1.0970
 3177SOL    HW210431   5.191   6.748   4.604  1.7598 -0.3396  2.0739
 3178SOL     OW10432   4.853   3.020   6.151 -0.7989 -0.0121 -0.7766
 3178SOL    HW110433   4.868   2.928   6.116  1.1046 -0.4616  1.0402
 3178SOL    HW210434   4.843   3.017   6.250  1.9049  1.9264 -0.3372
 3179SOL     OW10435   3.170   1.543   0.731  0.0761  0.0129  0.1441
 3179SOL    HW110436   3.212   1.461   0.772 -1.3981 -0.9046 -0.1138
 3179SOL    HW210437   3.072   1.528   0.720 -0.1496  1.6739 -0.3225
 3180SOL     OW10438   1.597   0.146   4.928  0.1278  0.5852  0.3336
 3180SOL    HW110439   1.532   0.110   4.995 -0.9032  2.0185  0.1523
 3180SOL    HW210440   1.548   0.199   4.860  1.2305 -0.3233 -1.2416
 3181SOL     OW10441   6.874   1.314   2.571 -0.2262  0.4642 -0.3537
 3181SOL    HW110442   6.944   1.312   2.643 -1.3412 -0.6972  0.7508
 3181SOL    HW210443   6.897   1.247   2.501  0.6373  1.2916 -0.8872
 3182SOL     OW10444   2.405   6.001   5.424 -0.0431 -0.2659  0.3147
 3182SOL    HW110445   2.388   6.066   5.350 -1.1198  0.6712  1.3407
 3182SOL    HW210446   2.390   5.908   5.390 -2.5775  0.2342 -0.1688
 3183SOL     OW10447   6.877   5.830   4.280  0.2103 -0.1188 -0.1911
 3183SOL    HW110448   6.857   5.750   4.336  2.2693 -0.0381  0.7472
 3183SOL    HW210449   6.839   5.912   4.324 -0.7301 -0.3854 -0.4707
 3184SOL     OW10450   2.695   5.051   1.151  0.2393  0.1575 -0.0133
 3184SOL    HW110451   2.634   4.990   1.101 -2.3413  1.7285  1.0379
 3184SOL    HW210452   2.764   5.088   1.089 -2.3357  1.4136 -2.3132
 3185SOL     OW10453   3.713   4.115   4.221  0.3268  0.0684 -0.0597
 3185SOL    HW110454   3.677   4.193   4.272  1.7559  1.4326 -1.0651
 3185SOL    HW210455   3.736   4.042   4.284  0.4634  1.0612  1.0712
 3186SOL     OW10456   0.346   0.381   2.778 -0.3188  0.3299 -0.1069
 3186SOL    HW110457   0.335   0.319   2.700  0.0843 -2.8681  2.1721
 3186SOL    HW210458   0.262   0.434   2.791 -1.3978 -1.0778 -1.1029
 3187SOL     OW10459   1.325   4.750   5.646 -0.7395  0.8032  0.3778
 3187SOL    HW110460   1.308   4.694   5.728  1.0076  2.5045  2.0145
 3187SOL    HW210461   1.263   4.829   5.646 -2.0444 -0.1683 -1.0257
 3188SOL     OW10462   1.214   4.931   1.135 -0.1331 -0.2123 -0.1318
 3188SOL    HW110463   1.260   4.934   1.046  0.5428 -1.0966  0.1649
 3188SOL    HW210464   1.214   5.022   1.177  1.0923 -0.1251 -0.2817
 3189SOL     OW10465   2.185   2.942   4.350  0.0448  0.4024 -0.4050
 3189SOL    HW110466   2.126   2.912   4.424 -0.7207 -1.1987 -1.6000
 3189SOL    HW210467   2.269   2.888   4.350  0.2630  0.7422 -0.3913
 3190SOL     OW10468   6.296   6.990   5.193 -0.1013 -0.1106  0.3342
 3190SOL    HW110469   6.381   6.938   5.202 -0.8098 -1.4897 -0.6020
 3190SOL    HW210470   6.227   6.952   5.254 -0.0434  1.1007  1.1995
 3191SOL     OW10471   0.826   1.118   2.381 -0.0085 -0.1901  0.4067
 3191SOL    HW110472   0.822   1.109   2.282 -0.2993 -2.3269  0.5734
 3191SOL    HW210473   0.839   1.214   2.405 -0.9618  0.5112 -1.6589
 3192SOL     OW10474   4.721   2.795   0.105 -0.3109 -0.3802  0.3493
 3192SOL    HW110475   4.715   2.884   0.059 -0.2867 -1.1375 -1.1525
 3192SOL    HW210476   4.633   2.748   0.099 -0.0879 -0.8110  0.4182
 3193SOL     OW10477   0.562   6.661   5.338  0.0085  0.2109  0.1764
 3193SOL    HW110478   0.599   6.751   5.315  0.2427  0.1333  0.2462
 3193SOL    HW210479   0.474   6.672   5.384 -0.1969  0.3867 -0.2497
 3194SOL     OW10480   5.608   6.443   0.168  0.3520  0.4187  0.2106
 3194SOL    HW110481   5.589   6.431   0.070 -1.4541 -0.9018  0.6682
 3194SOL    HW210482   5.528   6.481   0.213 -0.8679 -3.6221  1.9412
 3195SOL     OW10483   5.855   4.701   5.838  0.3682  0.2652 -0.0159
 3195SOL    HW110484   5.848   4.786   5.786  4.2922 -0.4559 -2.1238
 3195SOL    HW210485   5.850   4.624   5.775 -0.3965 -0.9814  1.5198
 3196SOL     OW10486   2.965   2.097   1.614 -0.4433 -0.0033  0.0620
 3196SOL    HW110487   2.895   2.163   1.588  0.4366  1.1081  0.4376
 3196SOL    HW210488   3.056   2.135   1.595  0.1474 -0.2196  2.1904
 3197SOL     OW10489   4.327   1.197   5.070 -0.9009 -0.0653  0.0404
 3197SOL    HW110490   4.344   1.157   5.160  1.5671 -1.1089 -0.8057
 3197SOL    HW210491   4.321   1.297   5.079  2.1623  0.1193  1.0932
 3198SOL     OW10492   4.547   0.845   6.075 -0.2326 -0.1517  0.2581
 3198SOL    HW110493   4.642   0.862   6.050 -0.4976  0.2933 -0.4854
 3198SOL    HW210494   4.542   0.768   6.138  0.4765 -1.2781 -1.0257
 3199SOL     OW10495   5.817   1.065   0.193  0.0666 -0.2160 -0.3490
 3199SOL    HW110496   5.887   1.054   0.122  0.2079 -0.7067 -0.1381
 3199SOL    HW210497   5.762   0.982   0.200 -0.1068 -0.0804 -0.0562
 3200SOL     OW10498   1.643   5.240   1.418  0.3291 -0.1496 -0.1538
 3200SOL    HW110499   1.563   5.297   1.433  0.3260  0.5336 -2.4146
 3200SOL    HW210500   1.617   5.143   1.424 -0.9561  0.0450 -1.9088
 3201SOL     OW10501   6.588   1.892   4.090 -0.4728 -0.3720 -0.0624
 3201SOL    HW110502   6.574   1.991   4.083 -2.1249 -0.5245  0.6749
 3201SOL    HW210503   6.537   1.856   4.168 -0.1419 -1.8603 -0.4971
 3202SOL     OW10504   5.659   2.777   3.752 -0.1904 -0.1224  0.1695
 3202SOL    HW110505   5.561   2.789   3.736 -0.1247 -0.3726 -0.4481
 3202SOL    HW210506   5.680   2.679   3.755  0.4840 -0.1455 -2.6784
 3203SOL     OW10507   3.236   1.182   3.521  0.0352  0.1972  0.8511
 3203SOL    HW110508   3.305   1.218   3.585  0.2606  0.2696  0.5683
 3203SOL    HW210509   3.156   1.242   3.523  0.7131  1.1791 -0.1912
 3204SOL     OW10510   3.356   5.963   2.808  0.2963 -0.6080  0.0037
 3204SOL    HW110511   3.453   5.982   2.823 -0.0984  1.8465 -0.0887
 3204SOL    HW210512   3.301   6.024   2.866 -1.2029 -1.3048 -0.6377
 3205SOL     OW10513   3.126   3.719   0.788 -0.1236 -0.3247  0.1023
 3205SOL    HW110514   3.116   3.619   0.786  0.9501 -0.4694  1.1199
 3205SOL    HW210515   3.039   3.761   0.761 -0.1272 -1.5205 -1.9936
 3206SOL     OW10516   2.759   5.465   3.949 -0.1963 -0.1484 -0.1731
 3206SOL    HW110517   2.663   5.483   3.929 -0.5553 -1.5201  0.2121
 3206SOL    HW210518   2.766   5.401   4.026  1.0510  0.8238  0.5746
 3207SOL     OW10519   2.010   5.464   6.782 -0.1595 -0.7207  0.8677
 3207SOL    HW110520   2.038   5.558   6.760  2.1060 -1.6998 -0.8211
 3207SOL    HW210521   1.993   5.457   6.880 -0.9641  1.5557  0.9651
 3208SOL     OW10522   1.849   2.495   1.121  0.3297 -0.2430  0.2609
 3208SOL    HW110523   1.758   2.466   1.091  1.2232 -2.2232 -0.7237
 3208SOL    HW210524   1.840   2.552   1.203 -1.8269  0.4637 -0.3817
 3209SOL     OW10525   0.869   5.099   1.910  0.7887  0.3054  0.2131
 3209SOL    HW110526   0.813   5.077   1.989 -1.9963 -2.6699 -2.3144
 3209SOL    HW210527   0.931   5.023   1.891  1.9626  1.3090 -0.0964
 3210SOL     OW10528   3.978   1.945   1.885 -0.1955  0.0452  0.4332
 3210SOL    HW110529   3.994   1.854   1.923 -0.9479 -0.1794  0.2205
 3210SOL    HW210530   3.939   2.005   1.954 -1.5241 -0.3514  0.0448
 3211SOL     OW10531   2.070   3.230   5.841 -0.4838  0.6067  0.2038
 3211SOL    HW110532   2.078   3.189   5.750  0.5953 -0.2728  0.6680
 3211SOL    HW210533   2.073   3.157   5.910 -0.0422  1.3497  0.9829
 3212SOL     OW10534   3.450   6.544   3.065 -0.1680  0.3704 -0.0283
 3212SOL    HW110535   3.521   6.527   3.133 -2.9522 -0.7935  2.8813
 3212SOL    HW210536   3.400   6.627   3.089  0.0496  1.0948 -1.9145
 3213SOL     OW10537   6.419   5.284   4.768  0.3820  0.1241 -0.3429
 3213SOL    HW110538   6.472   5.231   4.835 -0.2415  0.2056  0.2268
 3213SOL    HW210539   6.444   5.255   4.676  0.3894 -0.8385 -0.0522
 3214SOL     OW10540   1.262   3.562   3.334  0.3827  0.3978 -0.2044
 3214SOL    HW110541   1.248   3.501   3.412  0.9440 -3.4844 -2.9005
 3214SOL    HW210542   1.187   3.551   3.269 -0.4200  4.0402 -0.1024
 3215SOL     OW10543   0.756   5.345   6.164  0.4421 -0.2672 -0.2271
 3215SOL    HW110544   0.741   5.248   6.148 -0.3325 -0.3878  1.0844
 3215SOL    HW210545   0.691   5.398   6.109  0.4810 -0.5143 -0.5106
 3216SOL     OW10546   5.378   3.263   4.787 -0.4397 -0.1325  0.4506
 3216SOL    HW110547   5.279   3.279   4.784 -0.1742  1.5260 -0.4598
 3216SOL    HW210548   5.400   3.208   4.867 -2.1174 -0.6878  0.5701
 3217SOL     OW10549   6.680   2.747   3.018 -0.5025 -0.1503 -0.5192
 3217SOL    HW110550   6.764   2.711   3.059 -0.5307 -0.3739 -0.6558
 3217SOL    HW210551   6.660   2.697   2.934 -1.8634 -1.4917  0.5388
 3218SOL     OW10552   1.762   2.700   2.660 -0.5762 -0.0527 -0.8451
 3218SOL    HW110553   1.824   2.771   2.693 -0.6786  0.5742 -1.9304
 3218SOL    HW210554   1.752   2.629   2.729  0.0123  0.6855  0.0166
 3219SOL     OW10555   6.338   6.286   0.998  0.2088  0.0523  0.3942
 3219SOL    HW110556   6.380   6.356   1.056  1.7435 -0.4850 -0.0153
 3219SOL    HW210557   6.292   6.331   0.921 -2.2992  0.8065  2.1904
 3220SOL     OW10558   2.830   5.272   3.244  0.6134  0.3406  0.1113
 3220SOL    HW110559   2.732   5.277   3.226  0.2321 -0.5806  1.8016
 3220SOL    HW210560   2.847   5.272   3.342  2.1167 -2.1490 -0.0553
 3221SOL     OW10561   2.552   2.529   4.102  0.5047 -0.6364  0.3472
 3221SOL    HW110562   2.651   2.538   4.101  0.5424 -0.9022 -1.8617
 3221SOL    HW210563   2.526   2.447   4.152  1.5268 -1.6360 -0.7031
 3222SOL     OW10564   4.546   4.890   0.124  0.0611 -0.1752 -0.4021
 3222SOL    HW110565   4.614   4.825   0.092 -0.8463 -1.8998  0.9593
 3222SOL    HW210566   4.542   4.888   0.224 -3.2326 -1.6097 -0.4312
 3223SOL     OW10567   3.083   3.249   2.632  0.6353  0.3434 -0.1479
 3223SOL    HW110568   3.039   3.250   2.722 -2.2301  0.6944 -1.4484
 3223SOL    HW210569   3.121   3.158   2.615  0.0872 -0.1091  0.9267
 3224SOL     OW10570   5.951   6.594   2.630  0.5479 -0.4241 -0.2956
 3224SOL    HW110571   5.917   6.544   2.551  0.7780  0.7412 -1.1529
 3224SOL    HW210572   5.877   6.609   2.695 -0.4404  1.2899 -1.7173
 3225SOL     OW10573   3.137   3.213   1.272 -0.7080  0.8377 -0.0124
 3225SOL    HW110574   3.180   3.123   1.268 -2.6669 -0.1213 -1.3143
 3225SOL    HW210575   3.041   3.203   1.297 -0.9570  2.5840 -0.1201
 3226SOL     OW10576   2.302   2.169   2.451  0.4233  0.3787 -0.1358
 3226SOL    HW110577   2.290   2.083   2.401 -2.2568  0.5633  0.0030
 3226SOL    HW210578   2.302   2.245   2.386  0.1921  0.4127 -0.0987
 3227SOL     OW10579   0.382   3.412   1.615  0.6203  0.0964 -0.2663
 3227SOL    HW110580   0.408   3.323   1.653 -0.5091 -0.0095  0.3015
 3227SOL    HW210581   0.326   3.398   1.533 -0.5813  0.2387  0.5047
 3228SOL     OW10582   5.846   6.600   5.920 -0.1545 -0.1729 -0.3865
 3228SOL    HW110583   5.872   6.601   5.823  2.1080  0.9927  0.1695
 3228SOL    HW210584   5.815   6.692   5.946 -2.5452 -0.9156 -0.3860
 3229SOL     OW10585   3.819   4.914   6.144 -0.7568 -0.6016 -0.1556
 3229SOL    HW110586   3.727   4.909   6.106 -1.0478  1.9107  0.0560
 3229SOL    HW210587   3.817   4.892   6.241 -0.8817 -1.7888 -0.4060
 3230SOL     OW10588   6.254   1.661   0.298  0.1252  0.3805 -1.0265
 3230SOL    HW110589   6.191   1.597   0.341 -0.9805  2.3439  0.3504
 3230SOL    HW210590   6.342   1.659   0.346 -0.7725  1.8105  0.7400
 3231SOL     OW10591   6.655   6.553   4.024  0.1363 -0.2404  0.0280
 3231SOL    HW110592   6.570   6.509   4.054  0.6140 -0.7294  0.6975
 3231SOL    HW210593   6.719   6.483   3.993  1.1403 -0.0982  1.6890
 3232SOL     OW10594   0.677   3.822   2.947 -0.4781  0.1753 -0.4379
 3232SOL    HW110595   0.595   3.789   2.901  0.1125 -2.3991  0.2012
 3232SOL    HW210596   0.653   3.863   3.034 -1.1219 -0.2952 -0.3907
 3233SOL     OW10597   5.490   3.522   4.778 -0.1327 -0.3465 -0.3357
 3233SOL    HW110598   5.420   3.451   4.768 -0.6625  0.2658 -1.1123
 3233SOL    HW210599   5.561   3.507   4.709  0.4600 -0.9016  0.3796
 3234SOL     OW10600   4.580   6.798   4.780  0.6186  0.2374  0.0628
 3234SOL    HW110601   4.614   6.873   4.837 -0.9040 -0.3342  1.8198
 3234SOL    HW210602   4.595   6.711   4.827  1.0054 -0.4563 -1.2784
 3235SOL     OW10603   2.004   1.366   4.423 -0.3518  0.4881  0.1631
 3235SOL    HW110604   2.044   1.455   4.401  0.5639 -0.1315 -0.8240
 3235SOL    HW210605   2.041   1.333   4.510 -0.4662  0.9422  0.3848
 3236SOL     OW10606   3.961   3.491   1.031 -0.6268 -0.3942  0.0224
 3236SOL    HW110607   3.951   3.447   0.942 -0.8245 -1.3545  0.5106
 3236SOL    HW210608   3.918   3.435   1.102 -1.2602  0.7750  0.6159
 3237SOL     OW10609   3.351   5.350   4.517  0.0768 -0.1959 -0.0896
 3237SOL    HW110610   3.407   5.424   4.480 -0.1667  0.0918  0.1075
 3237SOL    HW210611   3.259   5.385   4.536  0.4484 -0.0890  1.6409
 3238SOL     OW10612   5.778   1.007   2.471 -0.8858 -0.1834  0.1826
 3238SOL    HW110613   5.784   0.917   2.426  1.4648  0.8397 -1.7859
 3238SOL    HW210614   5.750   1.075   2.404 -0.4176  0.8940  1.0592
 3239SOL     OW10615   1.295   4.178   1.259  0.3597  0.7596 -0.1227
 3239SOL    HW110616   1.237   4.133   1.191 -0.4673  3.1816 -1.0924
 3239SOL    HW210617   1.274   4.141   1.350 -0.1206 -0.9154 -0.8721
 3240SOL     OW10618   5.281   6.682   5.217 -0.1785 -0.0491  0.0919
 3240SOL    HW110619   5.309   6.636   5.133  0.2008  0.1066  0.1335
 3240SOL    HW210620   5.202   6.740   5.197 -1.8716 -2.1065  0.4120
 3241SOL     OW10621   6.626   3.682   6.576 -0.2001  0.6755 -0.5439
 3241SOL    HW110622   6.634   3.668   6.478 -1.4822 -1.5615 -0.3939
 3241SOL    HW210623   6.715   3.664   6.619 -0.2306 -0.8831 -1.0716
 3242SOL     OW10624   0.967   0.603   0.375 -1.5613 -0.0346  0.2832
 3242SOL    HW110625   1.060   0.577   0.347 -1.7005 -0.3941  0.1446
 3242SOL    HW210626   0.963   0.611   0.474 -1.4442 -0.2733  0.3083
 3243SOL     OW10627   0.086   2.715   4.192  0.4351  0.2995 -0.2946
 3243SOL    HW110628   0.126   2.640   4.244 -0.5725  0.9454  1.4921
 3243SOL    HW210629   0.007   2.681   4.141 -0.1499  0.1758  0.6808
 3244SOL     OW10630   5.232   3.926   6.891  0.0394 -0.3097 -0.2023
 3244SOL    HW110631   5.186   3.857   6.948 -0.2848  0.5222  0.5593
 3244SOL    HW210632   5.329   3.901   6.882 -0.5660 -2.2581 -2.1025
 3245SOL     OW10633   4.673   1.032   1.681  0.3432 -0.3394  0.4602
 3245SOL    HW110634   4.697   1.122   1.717  0.9806 -0.7674  1.1232
 3245SOL    HW210635   4.696   0.962   1.748  0.5842 -1.0643 -0.3602
 3246SOL     OW10636   5.181   2.130   3.963 -0.1691 -0.2428  0.0487
 3246SOL    HW110637   5.091   2.163   3.989  0.2951  2.0747 -1.0760
 3246SOL    HW210638   5.249   2.164   4.027  0.2510  0.5622 -0.8051
 3247SOL     OW10639   3.497   5.494   3.620 -0.0043 -0.2696 -0.0445
 3247SOL    HW110640   3.440   5.522   3.697 -1.7679  0.6513 -1.5777
 3247SOL    HW210641   3.591   5.523   3.635 -0.1898 -0.5741  1.9560
 3248SOL     OW10642   0.814   2.232   5.220 -0.2177 -0.4500 -0.4973
 3248SOL    HW110643   0.771   2.152   5.179 -1.1986 -0.1603 -0.0680
 3248SOL    HW210644   0.855   2.207   5.308 -0.8495 -0.4119 -0.1863
 3249SOL     OW10645   3.234   4.109   4.698  0.0649 -0.2754  0.2931
 3249SOL    HW110646   3.206   4.086   4.605  2.7363 -2.0815 -0.1588
 3249SOL    HW210647   3.324   4.154   4.695  0.9262 -1.7661  2.0427
 3250SOL     OW10648   1.934   1.369   3.569  0.0006 -0.2151 -0.4533
 3250SOL    HW110649   1.884   1.283   3.586  0.3644 -0.9515 -2.7463
 3250SOL    HW210650   1.996   1.387   3.645 -0.8674 -1.4020  0.5872
 3251SOL     OW10651   3.567   6.848   0.658  0.1516  0.1050  0.0073
 3251SOL    HW110652   3.469   6.835   0.646  0.1130 -1.7645  1.6732
 3251SOL    HW210653   3.615   6.765   0.630  1.0675  0.3070  0.8992
 3252SOL     OW10654   5.307   3.918   1.557  0.4472  0.5309 -0.1028
 3252SOL    HW110655   5.275   3.973   1.480  0.6397  2.4121  1.0884
 3252SOL    HW210656   5.400   3.946   1.581  0.8729 -0.9249  0.0188
 3253SOL     OW10657   3.782   6.821   1.964 -0.1605  0.0695 -0.3870
 3253SOL    HW110658   3.777   6.911   1.921  0.0203 -0.4755 -1.5665
 3253SOL    HW210659   3.744   6.752   1.903  0.8822 -0.8454 -0.0466
 3254SOL     OW10660   6.475   4.504   2.155 -0.4002 -1.0752 -0.1910
 3254SOL    HW110661   6.437   4.443   2.086 -0.8061 -0.8447 -0.1765
 3254SOL    HW210662   6.413   4.508   2.234 -0.7188 -0.1369 -0.4672
 3255SOL     OW10663   0.815   6.401   3.169  0.0575  0.1614  0.1720
 3255SOL    HW110664   0.719   6.391   3.196 -0.3018  1.4322 -0.5909
 3255SOL    HW210665   0.837   6.498   3.157  0.7877 -0.2304 -2.0033
 3256SOL     OW10666   5.126   1.999   1.070  0.1551 -0.0119 -0.2893
 3256SOL    HW110667   5.213   1.975   1.028  0.1934 -0.4785  0.0568
 3256SOL    HW210668   5.070   1.917   1.082  1.0483 -0.2916  2.6203
 3257SOL     OW10669   2.950   5.131   4.076 -0.1805 -0.3540 -0.3737
 3257SOL    HW110670   2.901   5.051   4.110  0.2352  0.3126  1.9480
 3257SOL    HW210671   2.921   5.212   4.126  2.1858  0.3068  0.0414
 3258SOL     OW10672   0.542   6.904   2.992 -0.1195  0.6969  0.9729
 3258SOL    HW110673   0.495   6.991   2.980 -0.0937  0.7344  1.1386
 3258SOL    HW210674   0.572   6.870   2.903 -0.0151  0.9223  0.9199
 3259SOL     OW10675   4.130   5.525   1.167  0.0066 -0.1463  0.3840
 3259SOL    HW110676   4.130   5.456   1.095 -0.8862  0.4962 -0.2496
 3259SOL    HW210677   4.137   5.616   1.126  0.2454  0.1994  1.1606
 3260SOL     OW10678   3.115   3.283   5.404  0.1362  0.0607  0.2724
 3260SOL    HW110679   3.194   3.344   5.403  0.0414  0.1888  0.4375
 3260SOL    HW210680   3.091   3.261   5.499  1.2569 -1.6643  0.1965
 3261SOL     OW10681   5.188   1.713   3.291 -0.4009  0.1131 -0.6253
 3261SOL    HW110682   5.264   1.703   3.354 -0.7945 -0.5292 -0.2504
 3261SOL    HW210683   5.128   1.787   3.322  1.1451  2.0569 -2.0315
 3262SOL     OW10684   6.069   6.924   6.613 -0.6092 -0.2318  0.2756
 3262SOL    HW110685   6.065   6.884   6.521  1.5840  1.0588 -0.4522
 3262SOL    HW210686   6.130   6.870   6.671 -0.2955  0.1489  0.3071
 3263SOL     OW10687   0.285   4.344   1.347 -0.3054 -0.2770  0.5607
 3263SOL    HW110688   0.290   4.366   1.249  2.1471  2.8936  1.2182
 3263SOL    HW210689   0.361   4.284   1.371 -0.0325  0.1264  0.7242
 3264SOL     OW10690   6.787   3.952   6.252 -0.5352 -0.3938  0.0499
 3264SOL    HW110691   6.821   4.045   6.261 -3.5739  0.8794 -0.3276
 3264SOL    HW210692   6.860   3.887   6.272  2.1863  2.0050 -1.4427
 3265SOL     OW10693   1.025   1.388   3.458 -0.4873  0.2251  0.4609
 3265SOL    HW110694   1.074   1.366   3.543  0.4631 -1.0915 -0.3996
 3265SOL    HW210695   1.021   1.487   3.447  0.4408  0.3918  1.4442
 3266SOL     OW10696   5.070   5.896   2.250  0.3850  0.0404 -0.1079
 3266SOL    HW110697   5.098   5.905   2.155 -0.7001 -0.0105 -0.4529
 3266SOL    HW210698   5.064   5.800   2.275  0.9775  0.0584  0.1141
 3267SOL     OW10699   3.235   5.164   0.740  0.1079  0.2883  0.3716
 3267SOL    HW110700   3.334   5.156   0.726 -0.2462 -0.3862 -2.1541
 3267SOL    HW210701   3.206   5.099   0.810  1.2201 -0.6485 -0.0122
 3268SOL     OW10702   1.300   3.555   0.067  0.2496 -1.0718  0.1701
 3268SOL    HW110703   1.382   3.580   0.015  0.4244 -1.9312  0.0155
 3268SOL    HW210704   1.223   3.542   0.003 -0.8982  2.7756  0.4995
 3269SOL     OW10705   1.628   0.712   5.445 -0.2245  0.0272  0.0087
 3269SOL    HW110706   1.566   0.790   5.445  0.5543  0.6456 -0.6004
 3269SOL    HW210707   1.647   0.685   5.540 -0.1590  0.8436  0.2336
 3270SOL     OW10708   2.263   3.173   0.804  0.3933 -0.4340 -0.1236
 3270SOL    HW110709   2.357   3.204   0.793  0.5755  0.3121  2.7675
 3270SOL    HW210710   2.240   3.170   0.901 -3.0928  1.0407 -0.7344
 3271SOL     OW10711   6.561   6.978   0.753 -0.0333 -0.0885 -0.1106
 3271SOL    HW110712   6.484   7.040   0.736  0.5698  0.6866 -0.0372
 3271SOL    HW210713   6.646   7.022   0.725  0.3567 -1.0662 -0.4843
 3272SOL     OW10714   1.058   4.234   0.707 -0.2164  0.1320  0.1179
 3272SOL    HW110715   1.142   4.269   0.665 -0.5367  0.4508 -0.2693
 3272SOL    HW210716   0.980   4.257   0.648 -0.5989  0.0401  0.5877
 3273SOL     OW10717   2.254   6.011   0.916  0.2918 -0.1144 -0.0319
 3273SOL    HW110718   2.164   6.036   0.881  1.0068  1.4668 -0.8561
 3273SOL    HW210719   2.290   6.087   0.970  0.1929 -1.6182  2.2708
 3274SOL     OW10720   5.659   0.746   1.973  0.0388 -0.1834 -0.1958
 3274SOL    HW110721   5.626   0.821   1.916 -1.0422 -0.7645 -0.3418
 3274SOL    HW210722   5.682   0.667   1.916  0.4963 -0.2196  0.0277
 3275SOL     OW10723   4.503   2.881   0.942  0.5129  0.0586 -0.4808
 3275SOL    HW110724   4.461   2.854   0.855 -1.8936  0.1718  0.5713
 3275SOL    HW210725   4.462   2.967   0.973  1.2922 -0.0110  0.8100
 3276SOL     OW10726   6.973   1.694   2.864  0.8874 -0.2514 -0.0146
 3276SOL    HW110727   7.048   1.659   2.809  0.4308 -0.9297 -0.2168
 3276SOL    HW210728   6.896   1.631   2.859 -0.0556  0.9074 -0.5932
 3277SOL     OW10729   5.381   0.529   1.653  0.2768 -0.0974  0.6610
 3277SOL    HW110730   5.284   0.552   1.645  0.3817  0.0966 -0.1300
 3277SOL    HW210731   5.436   0.613   1.648  0.6230 -0.4057 -1.5300
 3278SOL     OW10732   5.661   1.100   1.209  0.0686  0.4491  0.7636
 3278SOL    HW110733   5.651   1.019   1.150 -0.1402 -0.1662  1.6260
 3278SOL    HW210734   5.694   1.177   1.154 -2.5684  0.6225 -0.7392
 3279SOL     OW10735   5.252   3.275   1.335 -0.0182 -0.7588  0.5707
 3279SOL    HW110736   5.219   3.312   1.248  0.4825 -1.0682  0.2452
 3279SOL    HW210737   5.229   3.338   1.409 -0.5233 -0.5334  0.2274
 3280SOL     OW10738   5.476   2.107   6.918  0.0748  0.5758  0.3023
 3280SOL    HW110739   5.392   2.157   6.939 -0.0280  0.2763  0.5994
 3280SOL    HW210740   5.453   2.017   6.880  0.2334  1.3143 -1.7039
 3281SOL     OW10741   3.361   6.042   6.462  0.1844  0.3228 -0.8820
 3281SOL    HW110742   3.415   6.075   6.540 -1.2650 -0.5242  0.5475
 3281SOL    HW210743   3.389   5.948   6.441  0.0645  0.2866 -0.8805
 3282SOL     OW10744   5.044   1.836   4.487  0.1808 -0.5425 -0.2956
 3282SOL    HW110745   5.043   1.931   4.517 -1.7443 -0.2758 -1.0145
 3282SOL    HW210746   5.103   1.826   4.407  0.0640  0.1479 -0.4700
 3283SOL     OW10747   0.327   5.367   4.271 -0.7027 -0.4693 -0.4252
 3283SOL    HW110748   0.334   5.302   4.195  0.1818 -1.2887  0.3312
 3283SOL    HW210749   0.279   5.324   4.347 -2.0716  0.5343 -0.6842
 3284SOL     OW10750   4.406   2.057   4.309  0.6230  0.1087 -0.1192
 3284SOL    HW110751   4.353   1.975   4.326  0.9825  0.4853  3.8676
 3284SOL    HW210752   4.429   2.101   4.396  1.9842  3.4909 -1.9599
 3285SOL     OW10753   0.006   3.150   5.359 -0.4159 -0.2445  0.0913
 3285SOL    HW110754   0.089   3.095   5.349 -1.4134 -1.8179  0.1496
 3285SOL    HW210755  -0.073   3.090   5.364 -1.4172  1.1126  1.9101
 3286SOL     OW10756   3.782   5.184   2.178  0.2486  0.7530  0.2056
 3286SOL    HW110757   3.866   5.180   2.123  0.1744  0.1886  0.1324
 3286SOL    HW210758   3.770   5.098   2.227 -1.2279  0.1305 -1.1567
 3287SOL     OW10759   1.242   0.997   5.681  0.0704 -0.9338 -0.0856
 3287SOL    HW110760   1.267   1.070   5.618 -0.2425 -0.3604  0.4440
 3287SOL    HW210761   1.171   0.941   5.641  0.9017 -1.4652 -0.8451
 3288SOL     OW10762   4.925   2.095   2.752  0.2141  0.6569 -0.2274
 3288SOL    HW110763   4.897   2.183   2.714 -0.3651  1.4340  1.8448
 3288SOL    HW210764   5.004   2.108   2.812  0.1517 -0.2432  0.0715
 3289SOL     OW10765   0.634   2.491   5.320  0.6112 -0.1999 -0.5265
 3289SOL    HW110766   0.573   2.568   5.337 -0.8014 -1.2185 -0.8574
 3289SOL    HW210767   0.688   2.509   5.238 -0.0576  0.2409 -0.8782
 3290SOL     OW10768   5.597   3.318   4.023 -0.1682 -0.1023  0.0489
 3290SOL    HW110769   5.602   3.219   4.021  0.9537 -0.0608  0.2105
 3290SOL    HW210770   5.539   3.350   3.947 -0.2715 -0.8547 -0.1985
 3291SOL     OW10771   2.598   6.743   3.183  0.6443  0.3182  0.0370
 3291SOL    HW110772   2.672   6.690   3.142 -0.2424 -0.7544 -0.2253
 3291SOL    HW210773   2.514   6.731   3.129 -0.6627 -1.4018  2.2462
 3292SOL     OW10774   5.749   1.635   2.282 -0.1407  0.7992  0.4388
 3292SOL    HW110775   5.830   1.692   2.295  0.5718  0.1036 -0.7681
 3292SOL    HW210776   5.759   1.552   2.337  1.1534 -0.4316 -1.5544
 3293SOL     OW10777   4.729   1.524   1.564 -0.4583  0.0701 -0.1031
 3293SOL    HW110778   4.760   1.601   1.619 -0.7415  0.3795 -0.3749
 3293SOL    HW210779   4.646   1.549   1.514 -0.4466 -0.3449 -0.3399
 3294SOL     OW10780   4.251   5.044   2.249 -0.1666 -0.6026  0.1107
 3294SOL    HW110781   4.155   5.031   2.271 -0.0712 -0.1710  0.8277
 3294SOL    HW210782   4.270   5.141   2.238  0.1730 -0.6884 -0.0842
 3295SOL     OW10783   0.988   0.956   2.206 -0.0721  0.9068 -0.0062
 3295SOL    HW110784   0.930   0.884   2.168  1.2662 -0.4720  0.4654
 3295SOL    HW210785   1.005   0.938   2.302  1.3769  1.1083 -0.2065
 3296SOL     OW10786   4.772   3.628   0.537  0.1327 -0.2269  0.3298
 3296SOL    HW110787   4.782   3.595   0.443 -1.0059  1.2701 -0.3591
 3296SOL    HW210788   4.862   3.632   0.581  0.7104 -0.6950 -0.7782
 3297SOL     OW10789   0.932   4.784   4.198 -0.1290 -0.5440 -0.6043
 3297SOL    HW110790   1.014   4.730   4.179  0.6644  0.7967 -1.1812
 3297SOL    HW210791   0.958   4.880   4.213 -1.3948 -0.4544  1.2779
 3298SOL     OW10792   4.862   6.420   2.354 -0.2981  0.1385  0.4833
 3298SOL    HW110793   4.925   6.376   2.290 -1.1557  1.2581 -1.2419
 3298SOL    HW210794   4.877   6.519   2.353  0.0112  0.1457  2.4681
 3299SOL     OW10795   5.398   6.261   5.670  0.4276 -0.6806  0.4171
 3299SOL    HW110796   5.458   6.321   5.616  0.2192  0.3574  1.3036
 3299SOL    HW210797   5.454   6.207   5.733  0.5123 -0.2870  0.6882
 3300SOL     OW10798   2.575   0.565   1.299  0.0405  0.0974 -0.7654
 3300SOL    HW110799   2.562   0.623   1.219 -0.5450  0.1928 -0.6039
 3300SOL    HW210800   2.669   0.529   1.300  1.4979  3.5243  0.7706
 3301SOL     OW10801   4.848   5.487   1.646 -0.2966 -0.0459 -0.0677
 3301SOL    HW110802   4.898   5.573   1.639 -0.1762 -0.1534 -0.5261
 3301SOL    HW210803   4.911   5.414   1.675 -0.3607 -0.0171  0.1469
 3302SOL     OW10804   4.540   5.142   4.379  0.2655  0.0348 -0.1305
 3302SOL    HW110805   4.539   5.048   4.344  0.5449  0.1954 -0.5669
 3302SOL    HW210806   4.613   5.194   4.335  1.8296 -0.2470  1.9859
 3303SOL     OW10807   3.247   3.020   5.318 -0.4495 -0.1065 -0.8178
 3303SOL    HW110808   3.279   3.026   5.223 -0.1804 -0.6872 -0.7691
 3303SOL    HW210809   3.211   3.108   5.346  0.2141  0.2960 -1.1991
 3304SOL     OW10810   4.185   4.332   0.215  0.0200 -0.0603  0.0362
 3304SOL    HW110811   4.248   4.275   0.161  0.2797 -0.1406  0.4205
 3304SOL    HW210812   4.182   4.298   0.309 -1.2281 -0.5607 -0.1664
 3305SOL     OW10813   0.772   6.269   4.468  0.1422 -0.0615  0.2459
 3305SOL    HW110814   0.684   6.307   4.442  0.5212  0.9211  0.3531
 3305SOL    HW210815   0.771   6.247   4.566  0.4466  1.2142  0.5475
 3306SOL     OW10816   2.685   0.635   4.595  0.2813 -0.6439  0.6156
 3306SOL    HW110817   2.772   0.684   4.607 -0.6501  1.2532  0.0634
 3306SOL    HW210818   2.658   0.639   4.499  0.2420 -2.4530  0.5228
 3307SOL     OW10819   4.791   6.454   3.958  0.0893 -0.8755 -0.1184
 3307SOL    HW110820   4.871   6.476   3.902  0.2842 -1.3080 -0.0088
 3307SOL    HW210821   4.819   6.402   4.038 -0.2755 -0.8463  0.0310
 3308SOL     OW10822   0.103   1.788   3.937  0.4062  0.2033 -0.1567
 3308SOL    HW110823   0.126   1.714   3.874  0.9112 -0.6668  1.0223
 3308SOL    HW210824   0.179   1.804   4.000 -0.9430 -0.5834  1.7780
 3309SOL     OW10825   0.888   0.648   4.080 -0.3747  0.0023  0.2411
 3309SOL    HW110826   0.856   0.743   4.079 -1.3611 -0.2214  2.5261
 3309SOL    HW210827   0.812   0.587   4.058  0.1608 -0.3014 -0.8305
 3310SOL     OW10828   3.274   6.901   0.632 -0.2607  0.2655 -0.1470
 3310SOL    HW110829   3.309   6.994   0.647 -0.1401 -0.0769  2.0494
 3310SOL    HW210830   3.207   6.879   0.704 -0.6075 -1.2023 -0.8832
 3311SOL     OW10831   0.159   1.099   2.895  0.7504  0.1669 -0.1052
 3311SOL    HW110832   0.176   1.125   2.990  1.4182  0.2919 -0.2519
 3311SOL    HW210833   0.181   1.002   2.883  0.8213  0.1905 -0.1668
 3312SOL     OW10834   1.482   1.040   6.429 -0.2642  0.4073 -0.1898
 3312SOL    HW110835   1.516   1.066   6.520 -0.9303  0.2819  0.1049
 3312SOL    HW210836   1.508   1.109   6.362  2.4999 -0.7670 -0.4273
 3313SOL     OW10837   0.735   3.618   3.497  0.4149  0.1529 -0.1790
 3313SOL    HW110838   0.760   3.676   3.420  0.7618  1.1009  0.6157
 3313SOL    HW210839   0.791   3.643   3.577  0.4536 -1.1750  0.2328
 3314SOL     OW10840   3.760   0.273   4.811  0.2209  0.2535 -0.6977
 3314SOL    HW110841   3.706   0.298   4.892 -0.5178 -0.3242 -1.0052
 3314SOL    HW210842   3.705   0.284   4.729  0.8919  0.5993 -1.1066
 3315SOL     OW10843   4.332   6.290   6.094  0.1835  0.0422  0.6522
 3315SOL    HW110844   4.415   6.345   6.087 -0.2789  0.5682 -1.0980
 3315SOL    HW210845   4.279   6.321   6.174  1.5604 -0.2046  1.7042
 3316SOL     OW10846   4.253   5.123   5.648  0.1400  0.6129 -0.4005
 3316SOL    HW110847   4.226   5.104   5.554  0.3101  2.2751 -0.8080
 3316SOL    HW210848   4.207   5.058   5.710  0.3351 -0.7524 -1.6310
 3317SOL     OW10849   4.251   4.923   6.115  0.0450 -0.2142 -0.4673
 3317SOL    HW110850   4.192   4.851   6.078 -0.3989 -0.5655  0.8630
 3317SOL    HW210851   4.196   5.006   6.131  0.3512  0.1180 -1.1046
 3318SOL     OW10852   3.044   1.827   5.838  0.0264  0.7931 -0.4222
 3318SOL    HW110853   3.105   1.885   5.784  0.0540  1.2861  0.1313
 3318SOL    HW210854   3.017   1.747   5.784  0.4296  1.0403 -0.9931
 3319SOL     OW10855   3.503   2.100   0.206 -0.3027  0.5779  0.7169
 3319SOL    HW110856   3.541   2.177   0.257 -0.4304  1.6191 -0.7107
 3319SOL    HW210857   3.472   2.131   0.116 -1.5132 -0.9014  0.5822
 3320SOL     OW10858   4.423   1.861   0.895  0.0137 -0.0969 -0.0508
 3320SOL    HW110859   4.422   1.767   0.860  0.5457  0.2713 -1.1015
 3320SOL    HW210860   4.335   1.904   0.876 -0.7200 -0.7655  1.6033
 3321SOL     OW10861   6.490   5.033   4.281  0.3087  0.1353 -0.0043
 3321SOL    HW110862   6.558   4.989   4.222  0.3008 -0.6726  0.5793
 3321SOL    HW210863   6.491   4.990   4.371  1.2094  2.1707  1.0333
 3322SOL     OW10864   0.797   1.137   6.210  0.3644  0.3230 -0.3146
 3322SOL    HW110865   0.880   1.148   6.155  0.5906 -2.1813 -0.5652
 3322SOL    HW210866   0.817   1.083   6.291 -0.9769 -0.1646 -0.2835
 3323SOL     OW10867   5.312   2.350   2.909 -0.0831  0.6490  0.0082
 3323SOL    HW110868   5.291   2.382   3.001 -0.1610  1.1701 -0.1864
 3323SOL    HW210869   5.378   2.275   2.913  0.7304  1.3689  0.4280
 3324SOL     OW10870   3.504   5.152   0.681 -0.3575 -0.4925  0.1154
 3324SOL    HW110871   3.515   5.053   0.679 -0.1856 -0.4820 -1.9882
 3324SOL    HW210872   3.570   5.192   0.745  0.0185 -1.6934  0.4961
 3325SOL     OW10873   0.270   3.840   5.451  0.0551 -0.2244 -0.5232
 3325SOL    HW110874   0.270   3.939   5.466  2.8930 -0.2272  0.0074
 3325SOL    HW210875   0.337   3.816   5.381 -0.0724 -1.8366 -0.1513
 3326SOL     OW10876   1.196   6.694   1.753 -0.4552 -0.1370 -0.0293
 3326SOL    HW110877   1.145   6.716   1.835 -2.1229  3.8021 -1.8724
 3326SOL    HW210878   1.269   6.762   1.739  1.8806 -2.5215 -0.2947
 3327SOL     OW10879   3.830   1.084   5.484 -0.6312 -0.2745 -0.4873
 3327SOL    HW110880   3.789   0.997   5.512  0.4068 -0.9230 -0.9300
 3327SOL    HW210881   3.805   1.104   5.390  1.0958 -1.3531 -1.2234
 3328SOL     OW10882   0.621   2.207   5.566 -0.5608 -0.7864  0.2995
 3328SOL    HW110883   0.706   2.232   5.521 -0.6409 -1.7093 -0.4023
 3328SOL    HW210884   0.563   2.288   5.577  0.3273 -0.1897  0.6334
 3329SOL     OW10885   5.768   3.551   6.094 -0.1199  0.1602  0.7579
 3329SOL    HW110886   5.675   3.528   6.123  0.2307 -0.8810  1.0864
 3329SOL    HW210887   5.767   3.578   5.997 -0.6446 -0.6729  0.5221
 3330SOL     OW10888   5.062   2.079   5.904 -0.0166 -0.3882 -0.0492
 3330SOL    HW110889   5.112   2.162   5.928  0.7650 -0.4896 -1.2536
 3330SOL    HW210890   5.097   2.002   5.958  1.4013 -0.5234 -1.0994
 3331SOL     OW10891   0.301   0.559   3.063  0.6370  0.2251 -0.0230
 3331SOL    HW110892   0.258   0.514   2.985  0.1544 -0.9979  0.9227
 3331SOL    HW210893   0.257   0.529   3.147  1.5860  1.0122  0.7775
 3332SOL     OW10894   0.835   3.941   6.392 -0.4801 -0.1825 -0.6224
 3332SOL    HW110895   0.802   4.012   6.331  0.7648  2.4998  1.6069
 3332SOL    HW210896   0.833   3.975   6.486 -1.2223 -3.6797  0.7961
 3333SOL     OW10897   6.910   3.308   2.062  0.2435  0.2346  0.5997
 3333SOL    HW110898   6.830   3.305   2.121 -1.1305  0.6539 -1.1817
 3333SOL    HW210899   6.882   3.323   1.968  2.5538  2.6747  0.1831
 3334SOL     OW10900   2.545   2.546   2.666 -0.0750  0.3679  0.1925
 3334SOL    HW110901   2.550   2.558   2.567 -0.5916 -0.1285  0.0961
 3334SOL    HW210902   2.622   2.491   2.697 -0.2518 -0.0038 -0.0245
 3335SOL     OW10903   3.918   6.123   5.379  0.4796 -0.2159  0.0259
 3335SOL    HW110904   3.947   6.053   5.313  0.9880 -0.2777  0.3084
 3335SOL    HW210905   3.822   6.147   5.362  0.5433 -0.3856 -0.5966
 3336SOL     OW10906   4.908   3.435   0.764  0.0897  0.1035  0.0976
 3336SOL    HW110907   4.883   3.339   0.769 -1.9806  0.6447  1.1520
 3336SOL    HW210908   5.002   3.447   0.797  0.4322 -1.5348 -0.1954
 3337SOL     OW10909   5.845   5.596   0.898  0.1424 -0.3639  0.1034
 3337SOL    HW110910   5.932   5.623   0.938  0.8509 -0.6869 -1.1558
 3337SOL    HW210911   5.817   5.664   0.830 -1.7983  0.9681  2.1076
 3338SOL     OW10912   1.158   3.938   5.834 -0.0185  0.1315  0.9981
 3338SOL    HW110913   1.080   3.910   5.777 -0.1098 -0.2345  1.2989
 3338SOL    HW210914   1.213   4.005   5.784  0.2923 -0.6942  0.1937
 3339SOL     OW10915   3.144   4.792   5.721  0.5177 -0.3869  0.4287
 3339SOL    HW110916   3.097   4.797   5.633 -0.2813 -1.5327  0.7661
 3339SOL    HW210917   3.226   4.737   5.713  1.8104  1.5110 -0.1311
 3340SOL     OW10918   4.742   0.193   4.373  0.1726 -0.0750  0.7939
 3340SOL    HW110919   4.812   0.265   4.375  0.2998 -0.1910  2.5684
 3340SOL    HW210920   4.699   0.186   4.463  0.0510 -2.1229  0.6269
 3341SOL     OW10921   4.122   3.044   6.838 -0.0223  0.3398  0.0700
 3341SOL    HW110922   4.115   3.116   6.768  0.1907 -0.5014 -0.8331
 3341SOL    HW210923   4.189   3.072   6.908 -1.6206  2.0342  1.0005
 3342SOL     OW10924   6.131   2.656   6.063 -0.3910  0.4198  0.3562
 3342SOL    HW110925   6.106   2.752   6.080 -0.8626  0.2841  0.4496
 3342SOL    HW210926   6.195   2.651   5.987 -0.7991  0.7677 -0.0172
 3343SOL     OW10927   6.076   0.353   6.561 -0.3946 -0.1037  0.7800
 3343SOL    HW110928   6.153   0.413   6.541 -0.9476 -0.1929 -2.0896
 3343SOL    HW210929   6.089   0.266   6.513 -2.7265  0.2785 -0.6906
 3344SOL     OW10930   0.738   2.598   3.329 -0.1765 -0.2293 -0.0464
 3344SOL    HW110931   0.710   2.575   3.236 -0.2241 -0.0390 -0.0807
 3344SOL    HW210932   0.660   2.588   3.391 -1.0450  2.6193 -0.5227
 3345SOL     OW10933   2.768   3.923   5.549 -0.1696 -0.0994 -0.1783
 3345SOL    HW110934   2.763   4.020   5.572 -0.5067 -0.6169  2.1272
 3345SOL    HW210935   2.740   3.910   5.453  0.5510  2.1160 -0.7484
 3346SOL     OW10936   3.229   0.519   0.668 -0.0143 -0.5391  0.0052
 3346SOL    HW110937   3.131   0.531   0.656 -0.0766 -0.1755  0.8491
 3346SOL    HW210938   3.276   0.605   0.650 -0.0134 -0.2623  1.2684
 3347SOL     OW10939   1.056   1.279   5.394 -0.8967 -0.8874 -0.1475
 3347SOL    HW110940   1.151   1.283   5.366 -0.8648 -2.3546 -0.3512
 3347SOL    HW210941   1.045   1.209   5.465 -1.6324  0.0572  0.6970
 3348SOL     OW10942   3.729   4.062   2.902  0.2718  0.7287  0.0331
 3348SOL    HW110943   3.763   3.973   2.871  0.9892  0.7378  0.7756
 3348SOL    HW210944   3.651   4.089   2.845 -0.7007 -0.8976  0.5210
 3349SOL     OW10945   5.433   1.742   4.373  0.5251  0.5479  0.0296
 3349SOL    HW110946   5.439   1.761   4.471 -1.0124  2.6666 -0.2217
 3349SOL    HW210947   5.496   1.667   4.349  0.6683 -0.2657  2.6656
 3350SOL     OW10948   1.243   1.124   4.281  0.7925  0.0642  0.0247
 3350SOL    HW110949   1.336   1.137   4.317  0.6638  1.1870 -0.0281
 3350SOL    HW210950   1.180   1.184   4.330  0.6087  1.6532 -2.0533
 3351SOL     OW10951   0.431   2.306   4.348 -0.1890 -0.7226  0.0791
 3351SOL    HW110952   0.460   2.347   4.434 -0.5458  1.0715 -0.6109
 3351SOL    HW210953   0.510   2.265   4.302  0.5151  0.6321  0.0428
 3352SOL     OW10954   5.160   4.708   6.587  0.5532  0.3714 -0.1923
 3352SOL    HW110955   5.062   4.703   6.606  0.9398 -0.2671  1.8742
 3352SOL    HW210956   5.182   4.649   6.509 -0.3026 -1.8879  1.1861
 3353SOL     OW10957   4.121   5.703   5.588 -0.6442 -0.3719  0.3182
 3353SOL    HW110958   4.056   5.659   5.526 -0.6766 -2.1308  1.5433
 3353SOL    HW210959   4.100   5.677   5.682  0.6874  0.5686  0.9051
 3354SOL     OW10960   0.375   3.570   5.361  0.2294  1.1531  0.2238
 3354SOL    HW110961   0.371   3.627   5.442 -0.3050  3.6171 -1.4277
 3354SOL    HW210962   0.399   3.626   5.281 -2.0598 -0.5584 -1.8162
 3355SOL     OW10963   2.323   1.139   0.030  0.5723  0.1697  0.0121
 3355SOL    HW110964   2.242   1.148  -0.029 -0.0123 -1.5893  0.4994
 3355SOL    HW210965   2.356   1.230   0.054  0.8243  0.9689 -2.9871
 3356SOL     OW10966   0.205   1.603   2.761  0.5930  0.3152  0.2466
 3356SOL    HW110967   0.245   1.613   2.853 -0.2866 -0.8214  0.7663
 3356SOL    HW210968   0.257   1.536   2.709 -0.1384 -0.5953  0.6586
 3357SOL     OW10969   3.148   6.060   1.861  0.3346 -0.2223  0.2482
 3357SOL    HW110970   3.060   6.023   1.831  0.5444 -0.5554  0.0282
 3357SOL    HW210971   3.168   6.028   1.954 -0.4592  1.0611  0.8855
 3358SOL     OW10972   6.505   5.179   0.400  0.5842 -0.4758  0.0799
 3358SOL    HW110973   6.471   5.197   0.492  0.3605  0.9143 -0.2510
 3358SOL    HW210974   6.579   5.244   0.378  0.1714 -0.3294 -0.9620
 3359SOL     OW10975   4.972   1.359   3.057 -0.3771 -0.5957  0.2880
 3359SOL    HW110976   5.000   1.277   3.107 -1.4519 -0.2596  1.5002
 3359SOL    HW210977   5.035   1.434   3.076 -1.3737 -0.1557  2.0980
 3360SOL     OW10978   0.514   1.837   5.916 -0.1340 -0.6554 -0.2928
 3360SOL    HW110979   0.608   1.805   5.926  0.7932  1.3579 -1.7725
 3360SOL    HW210980   0.477   1.803   5.829 -0.2121 -0.1707 -0.4490
 3361SOL     OW10981   1.668   5.443   4.962 -0.3875  0.1714 -0.1063
 3361SOL    HW110982   1.589   5.499   4.986  0.2357  0.5322  1.1782
 3361SOL    HW210983   1.736   5.447   5.035  1.1415  0.4381 -1.4735
 3362SOL     OW10984   2.718   1.469   4.610  0.4841  0.3632  0.2217
 3362SOL    HW110985   2.648   1.528   4.568 -1.4042 -1.6204  0.3684
 3362SOL    HW210986   2.702   1.464   4.708  1.8732  1.1191  0.5133
 3363SOL     OW10987   0.255   4.239   4.423 -0.6068  0.6194 -0.7155
 3363SOL    HW110988   0.277   4.263   4.517 -1.5734 -2.0567  0.2714
 3363SOL    HW210989   0.335   4.198   4.380 -0.6614  0.3099 -0.5196
 3364SOL     OW10990   6.236   3.886   3.909  0.5261  0.5091  0.0138
 3364SOL    HW110991   6.204   3.801   3.867  1.4708 -0.0612  0.4062
 3364SOL    HW210992   6.247   3.955   3.838  0.4532  0.0813 -0.4228
 3365SOL     OW10993   2.173   4.845   0.341  0.3327  0.3582  0.0768
 3365SOL    HW110994   2.202   4.855   0.245  1.4423 -1.2171  0.1975
 3365SOL    HW210995   2.178   4.934   0.386  0.4649  1.0067 -1.1535
 3366SOL     OW10996   0.306   4.014   0.614 -1.1420  0.0533  0.7794
 3366SOL    HW110997   0.275   4.004   0.708 -1.5389 -0.1201  0.6358
 3366SOL    HW210998   0.261   3.945   0.557 -0.3936 -0.2880  0.5808
 3367SOL     OW10999   5.949   1.541   0.222 -0.0761  0.3557 -0.1582
 3367SOL    HW111000   6.007   1.480   0.167  0.4832  0.0269  0.7749
 3367SOL    HW211001   5.937   1.628   0.174 -0.2999 -0.2294 -1.1875
 3368SOL     OW11002   1.403   0.465   2.734  0.0091 -0.6384  0.5767
 3368SOL    HW111003   1.479   0.446   2.673  0.7382  0.4588  1.1123
 3368SOL    HW211004   1.423   0.546   2.789 -1.3286 -0.6271  1.0991
 3369SOL     OW11005   6.628   5.349   6.136 -0.8411 -0.3667  0.1205
 3369SOL    HW111006   6.706   5.291   6.113 -0.6812 -0.0676 -0.0979
 3369SOL    HW211007   6.558   5.340   6.064 -0.9937 -0.6071  0.2978
 3370SOL     OW11008   6.440   6.499   1.173  0.3261  0.4615 -0.5708
 3370SOL    HW111009   6.468   6.488   1.269  0.1339 -0.6597 -0.6278
 3370SOL    HW211010   6.353   6.550   1.169 -0.2449 -0.4401 -0.0607
 3371SOL     OW11011   6.113   6.615   0.787 -0.0141  0.1652 -0.2389
 3371SOL    HW111012   6.122   6.630   0.886  0.3759  1.7032 -0.4858
 3371SOL    HW211013   6.089   6.701   0.742  2.0422  0.0332 -1.7492
 3372SOL     OW11014   4.619   1.262   3.890 -0.0172 -1.0433 -0.1852
 3372SOL    HW111015   4.665   1.173   3.894 -0.7311 -1.4963 -1.2891
 3372SOL    HW211016   4.520   1.249   3.896 -0.1058 -0.2744  0.1475
 3373SOL     OW11017   5.931   3.849   2.999  0.0527  0.3121  1.0987
 3373SOL    HW111018   5.894   3.778   3.058  0.4876 -0.2158  0.7497
 3373SOL    HW211019   5.931   3.817   2.904  0.2441  0.7792  0.9385
 3374SOL     OW11020   5.549   1.068   2.265  0.4874 -0.7896  0.7197
 3374SOL    HW111021   5.457   1.098   2.238 -0.4656 -1.8914  2.5251
 3374SOL    HW211022   5.555   0.968   2.255  1.1536 -0.8386  1.5628
 3375SOL     OW11023   6.506   4.993   3.464  0.1992 -0.2537  0.4414
 3375SOL    HW111024   6.499   4.899   3.500 -1.3121  0.6900  2.8959
 3375SOL    HW211025   6.441   5.005   3.389  0.8321 -1.2968 -0.3043
 3376SOL     OW11026   4.555   2.828   6.676 -0.1751  0.1555  0.0252
 3376SOL    HW111027   4.629   2.786   6.728 -0.8176  1.2251  1.8888
 3376SOL    HW211028   4.508   2.758   6.623  1.9731 -0.5977 -1.0301
 3377SOL     OW11029   6.926   2.088   6.795  0.3349 -0.7097  0.3765
 3377SOL    HW111030   6.963   2.061   6.884 -2.7743  0.0421  2.0373
 3377SOL    HW211031   6.945   2.185   6.780  1.9574 -1.1179 -0.4477
 3378SOL     OW11032   4.772   0.217   0.555  0.3856 -0.2474  0.2822
 3378SOL    HW111033   4.740   0.308   0.582  1.0796  0.3834 -0.9392
 3378SOL    HW211034   4.699   0.168   0.508  0.6397  0.5397 -0.9905
 3379SOL     OW11035   1.799   5.644   3.420 -0.2299  0.2021  0.4834
 3379SOL    HW111036   1.835   5.732   3.448  0.0139 -0.5663  2.7578
 3379SOL    HW211037   1.709   5.630   3.461 -0.1750 -0.6987  0.3234
 3380SOL     OW11038   5.680   0.023   3.312 -0.0004  0.0718  0.0380
 3380SOL    HW111039   5.608   0.065   3.258 -0.4663 -0.1960  0.4444
 3380SOL    HW211040   5.743  -0.027   3.252  0.2558  0.8919 -0.3893
 3381SOL     OW11041   1.146   6.645   5.957  0.1928 -0.1604 -0.2549
 3381SOL    HW111042   1.118   6.601   6.042  1.2104 -1.9099 -0.7734
 3381SOL    HW211043   1.237   6.684   5.967  0.5300 -0.8194 -0.6630
 3382SOL     OW11044   5.122   3.158   6.250 -0.4101  0.1753  0.2895
 3382SOL    HW111045   5.214   3.126   6.229 -0.6057 -0.0265 -0.2875
 3382SOL    HW211046   5.067   3.081   6.284  0.0477  0.6044  2.0683
 3383SOL     OW11047   6.159   2.908   6.831  0.2487 -0.5882  0.1237
 3383SOL    HW111048   6.061   2.920   6.845  0.5118  0.4830  1.2517
 3383SOL    HW211049   6.178   2.814   6.804 -1.1765 -0.5642 -1.1319
 3384SOL     OW11050   2.824   0.303   2.551  0.0978  0.6270 -0.3702
 3384SOL    HW111051   2.873   0.353   2.623  0.6985 -0.8538  0.2742
 3384SOL    HW211052   2.887   0.241   2.505 -1.0232 -0.8685  0.0580
 3385SOL     OW11053   0.757   3.136   6.998  0.6447  0.0766 -0.1616
 3385SOL    HW111054   0.810   3.197   6.940 -3.3309  1.7631 -2.3755
 3385SOL    HW211055   0.780   3.041   6.976  3.3466  0.6569 -0.2185
 3386SOL     OW11056   6.535   0.685   5.774  0.0300 -0.1615 -0.3183
 3386SOL    HW111057   6.553   0.772   5.728  2.3064  0.0167  0.7586
 3386SOL    HW211058   6.455   0.695   5.833 -0.2833  0.9168 -0.8894
 3387SOL     OW11059   5.479   6.054   4.376  0.7691 -0.2384 -0.1397
 3387SOL    HW111060   5.404   5.992   4.398  0.3731  0.2450 -0.1215
 3387SOL    HW211061   5.527   6.021   4.294 -0.9537  0.7098 -1.6174
 3388SOL     OW11062   1.452   5.359   0.585  0.6218 -0.1337  0.2879
 3388SOL    HW111063   1.353   5.366   0.590  0.6581 -0.3392  1.7329
 3388SOL    HW211064   1.494   5.435   0.634  1.1964  0.0848 -0.5142
 3389SOL     OW11065   6.016   2.634   3.259  0.8375 -0.7274 -0.0547
 3389SOL    HW111066   5.940   2.699   3.263 -0.2088 -1.7842 -1.3397
 3389SOL    HW211067   6.099   2.681   3.230  0.1845  0.1163 -0.6317
 3390SOL     OW11068   0.330   3.197   2.025 -0.6889  0.5349 -0.5222
 3390SOL    HW111069   0.381   3.112   2.037 -0.5236  0.6499 -0.4038
 3390SOL    HW211070   0.241   3.189   2.070  0.0910  1.1138  1.2397
 3391SOL     OW11071   4.485   1.337   6.479  0.0338  0.8882  0.1943
 3391SOL    HW111072   4.513   1.248   6.443 -0.9842  0.8899 -0.6456
 3391SOL    HW211073   4.524   1.409   6.421  0.5732  0.9833  0.6703
 3392SOL     OW11074   5.333   6.729   3.732  0.1765  0.2448 -0.2624
 3392SOL    HW111075   5.363   6.646   3.779  1.2775 -0.6421 -2.3524
 3392SOL    HW211076   5.246   6.760   3.769  0.4561 -1.0027  1.5452
 3393SOL     OW11077   3.004   6.686   5.404 -0.2337  0.8626  0.2722
 3393SOL    HW111078   3.096   6.677   5.442 -0.7255  0.3635  1.4184
 3393SOL    HW211079   2.994   6.626   5.325 -0.0592 -0.3371  1.1304
 3394SOL     OW11080   2.534   1.138   1.862  0.2063 -0.0636 -0.2076
 3394SOL    HW111081   2.598   1.061   1.869 -0.6033 -0.8093 -0.7796
 3394SOL    HW211082   2.497   1.143   1.769 -1.1597 -0.1430  0.3056
 3395SOL     OW11083   2.363   2.236   5.659 -0.0028 -0.3109 -0.0886
 3395SOL    HW111084   2.322   2.291   5.586 -0.6851  0.0155  0.5178
 3395SOL    HW211085   2.456   2.269   5.677 -0.1867  0.2606 -0.1402
 3396SOL     OW11086   2.458   6.175   6.056  0.0836 -0.0039  0.3367
 3396SOL    HW111087   2.414   6.087   6.074 -0.5197  0.6399  2.2050
 3396SOL    HW211088   2.477   6.221   6.142 -1.1889  2.4790 -0.5980
 3397SOL     OW11089   4.691   4.639   0.072 -0.2899  0.0902 -0.1770
 3397SOL    HW111090   4.778   4.685   0.087 -0.3607  0.2915 -0.3775
 3397SOL    HW211091   4.707   4.550   0.029 -0.2804  0.9020 -1.9638
 3398SOL     OW11092   2.419   4.967   2.898  0.6999  0.4682  0.1154
 3398SOL    HW111093   2.467   4.880   2.886 -0.3936 -0.0287 -0.9186
 3398SOL    HW211094   2.475   5.041   2.860  0.9972  0.0161 -0.3449
 3399SOL     OW11095   4.686   7.001   4.924  0.2159  0.1862  0.4329
 3399SOL    HW111096   4.638   7.054   4.994 -1.0885  0.8708 -0.9088
 3399SOL    HW211097   4.717   7.063   4.851  0.3724 -0.6606 -0.2392
 3400SOL     OW11098   6.358   6.813   5.593 -0.1575  0.4653 -0.0966
 3400SOL    HW111099   6.391   6.751   5.665  1.1876  2.7440  1.3432
 3400SOL    HW211100   6.285   6.767   5.542  1.2484 -2.5693  0.3938
 3401SOL     OW11101   6.695   3.821   6.027 -0.2666  0.4344 -0.2531
 3401SOL    HW111102   6.721   3.724   6.022 -0.2036  0.3986  0.6357
 3401SOL    HW211103   6.739   3.863   6.106 -0.6220  1.0931 -0.4003
 3402SOL     OW11104   3.616   0.907   4.438  0.6096 -0.0322  0.5168
 3402SOL    HW111105   3.526   0.940   4.409  1.4887  1.7607 -0.3583
 3402SOL    HW211106   3.646   0.959   4.518  0.7814 -0.7520  0.9221
 3403SOL     OW11107   5.066   6.196   4.108  0.2666 -0.5914 -0.2138
 3403SOL    HW111108   5.161   6.178   4.080  0.3526  1.1321 -1.1495
 3403SOL    HW211109   5.006   6.131   4.062  1.0343 -2.2310  1.0113
 3404SOL     OW11110   2.947   1.582   3.381  0.3660 -0.0054 -0.0350
 3404SOL    HW111111   2.848   1.568   3.387  0.7310 -2.3470  4.0383
 3404SOL    HW211112   2.968   1.679   3.390 -1.5125  0.4326  0.0487
 3405SOL     OW11113   6.296   5.179   1.694  0.0593 -0.4770 -0.7505
 3405SOL    HW111114   6.288   5.262   1.749 -0.1086  0.0499 -1.5457
 3405SOL    HW211115   6.254   5.195   1.605  0.5187 -1.2400 -1.1116
 3406SOL     OW11116   0.734   4.007   5.917  0.0187 -0.1893  0.3287
 3406SOL    HW111117   0.637   3.999   5.940 -0.1141  1.4672  0.4422
 3406SOL    HW211118   0.748   4.084   5.855  1.4968  0.9610  1.9946
 3407SOL     OW11119   1.878   0.489   1.786 -0.1968 -0.2844  0.3926
 3407SOL    HW111120   1.869   0.433   1.869  0.7845 -1.4709 -0.2631
 3407SOL    HW211121   1.918   0.434   1.713  0.7533  1.2597 -0.3177
 3408SOL     OW11122   3.299   6.473   1.511 -0.3988 -0.2791 -0.6071
 3408SOL    HW111123   3.244   6.394   1.538  0.1423 -0.1871  0.8778
 3408SOL    HW211124   3.394   6.457   1.537 -0.5221  1.4626  1.1334
 3409SOL     OW11125   1.445   5.633   2.473  0.3292 -0.0036 -0.3364
 3409SOL    HW111126   1.404   5.616   2.383  0.6918  1.6528 -0.8410
 3409SOL    HW211127   1.375   5.626   2.544  0.0334 -1.2899 -0.7318
 3410SOL     OW11128   0.161   1.479   5.561  0.5105  0.0079  0.1856
 3410SOL    HW111129   0.148   1.563   5.507  0.9724 -0.4511 -0.6612
 3410SOL    HW211130   0.099   1.480   5.639 -2.3177 -0.5870 -1.8603
 3411SOL     OW11131   0.685   0.660   6.191 -0.2247  0.3911  0.2033
 3411SOL    HW111132   0.630   0.733   6.231 -1.8959 -1.6228  1.8751
 3411SOL    HW211133   0.743   0.620   6.262 -0.7516 -1.0915 -0.1657
 3412SOL     OW11134   4.389   4.802   6.729  0.2560 -0.0360 -0.0393
 3412SOL    HW111135   4.333   4.754   6.797  0.7668 -0.6962 -0.0716
 3412SOL    HW211136   4.371   4.900   6.734 -0.1230 -0.1336  0.6669
 3413SOL     OW11137   0.959   0.924   1.420 -0.2453 -0.1110 -0.0299
 3413SOL    HW111138   0.965   0.863   1.499 -1.1159 -0.5265 -0.2670
 3413SOL    HW211139   0.975   1.018   1.450  0.4286 -0.3718  0.4612
 3414SOL     OW11140   2.863   5.503   0.335  0.5895  0.1357  0.3183
 3414SOL    HW111141   2.883   5.544   0.246 -0.8415  1.0927  0.3935
 3414SOL    HW211142   2.783   5.443   0.326  0.2250  0.5116  1.0147
 3415SOL     OW11143   1.245   6.383   6.421  0.4300 -0.0162 -0.0327
 3415SOL    HW111144   1.262   6.406   6.517 -3.6910 -3.1532  1.7813
 3415SOL    HW211145   1.299   6.302   6.397 -1.9325 -2.2370  1.4992
 3416SOL     OW11146   6.965   5.549   3.552 -0.2709 -0.0646  0.3437
 3416SOL    HW111147   6.873   5.512   3.537 -0.1915 -1.0248  1.9167
 3416SOL    HW211148   6.964   5.607   3.634  0.4034  0.4348  0.0054
 3417SOL     OW11149   2.441   4.241   0.120 -0.2301 -0.3307 -0.4335
 3417SOL    HW111150   2.532   4.204   0.098  0.1733  0.3873 -0.0057
 3417SOL    HW211151   2.451   4.333   0.158 -1.1224 -0.3702 -0.0872
 3418SOL     OW11152   3.545   1.905   4.291 -0.3580 -0.8986  0.3049
 3418SOL    HW111153   3.547   1.979   4.224  0.1647 -0.6323  0.6148
 3418SOL    HW211154   3.495   1.827   4.252 -0.2536 -0.6671 -0.3075
 3419SOL     OW11155   4.765   5.823   3.536 -0.4596 -0.2570  0.2105
 3419SOL    HW111156   4.836   5.772   3.584  0.9004  0.9708 -0.4164
 3419SOL    HW211157   4.697   5.760   3.499  2.6551 -2.0121 -3.0776
 3420SOL     OW11158   0.488   0.299   3.191 -0.1766  0.1136  0.3193
 3420SOL    HW111159   0.436   0.378   3.223  1.2096  0.6883  1.2707
 3420SOL    HW211160   0.446   0.215   3.226 -1.6935  0.3904 -0.7507
 3421SOL     OW11161   4.595   6.748   0.719  0.3362 -0.2240  0.6107
 3421SOL    HW111162   4.652   6.742   0.801  0.3233  0.5001  0.6842
 3421SOL    HW211163   4.511   6.697   0.732  0.3509 -0.1386  1.0348
 3422SOL     OW11164   5.981   5.869   5.773 -0.3716 -0.2362  0.4682
 3422SOL    HW111165   5.999   5.879   5.871 -0.2747 -1.9339  0.6687
 3422SOL    HW211166   6.001   5.954   5.726 -1.6134  1.0075  2.0851
 3423SOL     OW11167   1.227   2.909   1.707  0.0207 -0.2045  0.0178
 3423SOL    HW111168   1.266   2.888   1.796  0.6297  1.8716  0.2823
 3423SOL    HW211169   1.300   2.928   1.642 -0.3645 -2.6638 -1.2603
 3424SOL     OW11170   4.652   1.902   3.309 -0.2238  0.1008  0.5707
 3424SOL    HW111171   4.614   1.836   3.374 -1.4803 -0.4618 -0.6706
 3424SOL    HW211172   4.717   1.856   3.249  1.2727  0.7142  1.6524
 3425SOL     OW11173   0.834   4.431   3.402 -0.5503 -0.1146  0.4361
 3425SOL    HW111174   0.862   4.491   3.328 -1.1372  0.0556  0.3465
 3425SOL    HW211175   0.810   4.341   3.365  0.8647 -0.5965  0.6337
 3426SOL     OW11176   5.459   6.797   0.766 -0.5451 -0.3375  0.3802
 3426SOL    HW111177   5.558   6.808   0.764 -0.0593 -1.4682  5.2065
 3426SOL    HW211178   5.415   6.886   0.766  0.5912  0.2407  0.4101
 3427SOL     OW11179   5.264   3.250   3.337 -0.2230  0.2033 -0.0492
 3427SOL    HW111180   5.224   3.182   3.275  1.2046 -0.3981 -0.3571
 3427SOL    HW211181   5.193   3.290   3.394 -1.2218 -0.9144 -0.4855
 3428SOL     OW11182   4.785   3.842   6.815 -0.1861 -0.5174  0.4328
 3428SOL    HW111183   4.824   3.761   6.860  0.6376  0.1680  0.9841
 3428SOL    HW211184   4.843   3.869   6.738  0.4514  0.4906  1.2401
 3429SOL     OW11185   3.240   0.760   5.291 -0.0894 -0.3328  0.2998
 3429SOL    HW111186   3.234   0.663   5.271  1.6814 -0.2515 -0.8476
 3429SOL    HW211187   3.301   0.775   5.369  2.3025 -0.0276 -1.5209
 3430SOL     OW11188   2.559   2.545   3.012 -0.2290  0.1799 -0.4180
 3430SOL    HW111189   2.484   2.492   2.972  0.1089 -2.4014  2.0249
 3430SOL    HW211190   2.646   2.515   2.972 -0.1866  0.4684 -0.5480
 3431SOL     OW11191   1.396   0.702   3.970 -0.2201  0.4447  0.0747
 3431SOL    HW111192   1.332   0.754   4.026  0.6037  1.4386  0.1292
 3431SOL    HW211193   1.454   0.765   3.919  1.5201 -0.4067  0.9371
 3432SOL     OW11194   3.791   5.599   1.691  0.2639  0.1654 -0.1229
 3432SOL    HW111195   3.803   5.542   1.773  0.1732 -1.6533 -1.3209
 3432SOL    HW211196   3.866   5.665   1.685  1.6384 -1.3228  0.1428
 3433SOL     OW11197   0.127   6.233   2.324 -0.0008  0.3238  0.0046
 3433SOL    HW111198   0.106   6.300   2.253  0.6182 -0.9029 -1.4171
 3433SOL    HW211199   0.155   6.147   2.280  3.0374  0.3086  1.6968
 3434SOL     OW11200   6.720   2.210   3.503  0.4414 -0.4675 -0.1382
 3434SOL    HW111201   6.650   2.230   3.434  0.0938 -1.1463  0.0023
 3434SOL    HW211202   6.811   2.218   3.462  0.3609  1.7678  0.0251
 3435SOL     OW11203   6.387   2.964   2.125 -0.3060  0.9437 -0.1381
 3435SOL    HW111204   6.395   2.982   2.027  2.3802 -1.8696 -0.6030
 3435SOL    HW211205   6.398   3.050   2.175 -1.5212  2.4210 -2.2315
 3436SOL     OW11206   2.814   6.646   6.197 -0.1125 -0.4495  0.4438
 3436SOL    HW111207   2.766   6.654   6.109  2.2328  2.1419 -0.7472
 3436SOL    HW211208   2.765   6.698   6.267 -1.0677 -1.0837  0.2644
 3437SOL     OW11209   1.198   4.170   3.924  0.1606 -0.9524 -0.5078
 3437SOL    HW111210   1.100   4.171   3.943  0.2610  1.0788  0.1909
 3437SOL    HW211211   1.212   4.162   3.825 -0.9393  2.5027 -1.1032
 3438SOL     OW11212   1.341   5.618   4.289 -0.9172 -0.0225 -0.2619
 3438SOL    HW111213   1.273   5.689   4.271 -2.8508 -1.8645 -0.5515
 3438SOL    HW211214   1.296   5.535   4.319  1.0995 -1.8051 -1.8665
 3439SOL     OW11215   4.927   1.737   5.778  0.6291 -0.8009  0.3822
 3439SOL    HW111216   4.899   1.792   5.857  2.2647  1.4750 -0.5132
 3439SOL    HW211217   4.958   1.647   5.810 -2.0632 -1.2985  1.9116
 3440SOL     OW11218   6.177   5.308   6.085  0.5073  0.1869  0.0642
 3440SOL    HW111219   6.220   5.391   6.120  1.3689 -0.7545  1.3274
 3440SOL    HW211220   6.196   5.298   5.987 -0.3220  1.8838 -0.3040
 3441SOL     OW11221   3.128   1.850   4.574 -0.1142 -0.2966  0.6674
 3441SOL    HW111222   3.071   1.833   4.655 -0.8920  1.3187  0.4940
 3441SOL    HW211223   3.152   1.947   4.569  2.7187 -0.9215  0.7235
 3442SOL     OW11224   0.290   5.946   0.284 -0.0022  0.4281  0.0154
 3442SOL    HW111225   0.296   5.869   0.348  2.6703 -1.6177 -2.4393
 3442SOL    HW211226   0.196   5.979   0.280 -1.0249 -1.9579  2.0084
 3443SOL     OW11227   5.628   1.825   1.603  0.0226 -0.7761 -0.2497
 3443SOL    HW111228   5.555   1.758   1.620  1.0650 -1.5308  1.5667
 3443SOL    HW211229   5.595   1.895   1.541 -2.3027 -1.0355  0.5871
 3444SOL     OW11230   5.838   2.460   4.437 -0.1078 -0.0246 -0.0292
 3444SOL    HW111231   5.916   2.406   4.470 -0.9064 -0.6896  0.8347
 3444SOL    HW211232   5.767   2.398   4.402 -0.8157  0.4805  0.4834
 3445SOL     OW11233   6.606   3.256   0.168  0.9568  0.3420 -0.3417
 3445SOL    HW111234   6.685   3.264   0.229 -0.0227 -1.0768  1.2020
 3445SOL    HW211235   6.593   3.160   0.143 -0.0180  0.6149 -0.9453
 3446SOL     OW11236   1.463   1.746   4.068 -0.5764  0.2928  0.4485
 3446SOL    HW111237   1.431   1.767   3.975 -0.2891  0.4643  0.3851
 3446SOL    HW211238   1.514   1.660   4.066 -2.5186 -0.9196  0.8724
 3447SOL     OW11239   6.151   3.499   6.045  0.1937  0.8360 -0.1881
 3447SOL    HW111240   6.088   3.575   6.060  0.6895  1.0492  0.9230
 3447SOL    HW211241   6.211   3.490   6.124  1.0182  0.1178 -0.8786
 3448SOL     OW11242   5.719   1.314   6.951  0.3423 -0.2924  0.0211
 3448SOL    HW111243   5.791   1.315   6.881 -0.1050 -0.0813 -0.4476
 3448SOL    HW211244   5.758   1.335   7.040  0.6841  0.9622 -0.4058
 3449SOL     OW11245   2.083   0.867   6.892 -0.1348  0.2899 -0.4533
 3449SOL    HW111246   2.047   0.811   6.966 -1.0080 -1.4173 -2.0736
 3449SOL    HW211247   2.130   0.808   6.826  2.5219  2.0246 -0.2281
 3450SOL     OW11248   2.371   6.680   0.054 -0.0694  0.3832 -1.1564
 3450SOL    HW111249   2.460   6.688   0.010 -0.3777  1.8815 -1.5523
 3450SOL    HW211250   2.348   6.766   0.099  0.1684 -0.9787  1.8899
 3451SOL     OW11251   1.403   0.642   5.938  0.1276  0.4335  0.2247
 3451SOL    HW111252   1.484   0.665   5.992 -0.5298  1.3477  0.8529
 3451SOL    HW211253   1.341   0.721   5.935 -0.4181 -0.0062 -0.8516
 3452SOL     OW11254   6.250   6.632   0.368  0.0172 -0.6238  0.2206
 3452SOL    HW111255   6.331   6.592   0.324  0.6430 -1.1519  1.7873
 3452SOL    HW211256   6.229   6.581   0.451 -1.8066 -0.3398 -0.0302
 3453SOL     OW11257   5.123   4.264   2.664  0.3043  0.2521  0.3924
 3453SOL    HW111258   5.190   4.299   2.730  0.4133  0.1107  0.3572
 3453SOL    HW211259   5.087   4.177   2.697 -1.2513  1.2141  1.3489
 3454SOL     OW11260   2.762   3.843   1.425  0.2468  0.2993  0.2095
 3454SOL    HW111261   2.720   3.820   1.338 -2.0889  0.3580  1.2358
 3454SOL    HW211262   2.857   3.870   1.411 -0.1817  0.6890 -2.3417
 3455SOL     OW11263   5.187   1.035   3.620  0.1597 -0.0592  0.0912
 3455SOL    HW111264   5.246   1.035   3.702  0.6287  0.5915 -0.2319
 3455SOL    HW211265   5.092   1.048   3.648  0.2210 -0.6247  0.5893
 3456SOL     OW11266   1.166   3.738   6.451  0.0273 -0.1484  0.8189
 3456SOL    HW111267   1.214   3.704   6.531  0.3877  1.4425  1.3182
 3456SOL    HW211268   1.166   3.838   6.452  0.3987 -0.0749 -1.3898
 3457SOL     OW11269   6.406   6.812   2.592  0.0103  0.3382  0.4939
 3457SOL    HW111270   6.423   6.715   2.610 -0.9223 -0.2863 -1.6283
 3457SOL    HW211271   6.492   6.858   2.574  0.3410 -0.4728 -0.0571
 3458SOL     OW11272   1.830   5.999   3.709 -0.6371  0.2153 -0.3032
 3458SOL    HW111273   1.846   5.970   3.615 -0.9586 -0.9751 -0.0108
 3458SOL    HW211274   1.864   5.928   3.771  1.0535  1.6796  0.5367
 3459SOL     OW11275   5.693   4.121   2.478 -0.1588 -0.2211  0.1884
 3459SOL    HW111276   5.776   4.102   2.532 -0.0900  1.7288  0.8750
 3459SOL    HW211277   5.700   4.212   2.438 -1.4750 -0.5094 -0.7690
 3460SOL     OW11278   3.280   3.081   4.216  0.1344  0.4414  0.1402
 3460SOL    HW111279   3.181   3.093   4.227 -0.2198 -0.7548 -1.4208
 3460SOL    HW211280   3.320   3.167   4.185 -1.0526  0.0151 -2.9136
 3461SOL     OW11281   6.312   5.409   3.580  0.0972 -0.3387 -0.6532
 3461SOL    HW111282   6.379   5.350   3.624 -1.6944 -1.4958  0.6723
 3461SOL    HW211283   6.271   5.469   3.649 -1.4410 -0.8584 -1.0891
 3462SOL     OW11284   0.475   2.339   6.145  0.0115  0.3323 -0.0677
 3462SOL    HW111285   0.500   2.405   6.074  3.5712 -0.6447  0.0935
 3462SOL    HW211286   0.464   2.249   6.104  1.0025 -0.0291  0.4186
 3463SOL     OW11287   3.047   3.832   2.075 -0.1280 -0.5694  0.1688
 3463SOL    HW111288   3.046   3.732   2.084 -1.1052 -0.4953  1.0097
 3463SOL    HW211289   3.008   3.858   1.987 -1.7967 -0.8665  0.7907
 3464SOL     OW11290   6.295   6.760   4.110  0.6527 -0.1004  0.2757
 3464SOL    HW111291   6.290   6.858   4.129  1.3767  0.2531 -1.1892
 3464SOL    HW211292   6.203   6.722   4.106  0.3804  0.4400  1.1991
 3465SOL     OW11293   4.584   0.218   5.057 -0.2553  0.1545  0.1994
 3465SOL    HW111294   4.503   0.159   5.066  0.8247 -1.4268  0.0825
 3465SOL    HW211295   4.590   0.278   5.137 -0.5998 -0.9728  1.1200
 3466SOL     OW11296   0.428   0.915   1.076 -0.7847 -0.6162 -0.1831
 3466SOL    HW111297   0.398   0.834   1.127 -0.9366 -2.6440 -3.2004
 3466SOL    HW211298   0.349   0.973   1.056 -1.1997 -1.2462 -0.4159
 3467SOL     OW11299   3.254   0.371   3.196  0.2700  0.4776 -0.2552
 3467SOL    HW111300   3.204   0.328   3.121  0.4802  2.6794 -1.7566
 3467SOL    HW211301   3.343   0.327   3.206  0.3732  0.3374 -1.5478
 3468SOL     OW11302   1.404   5.870   6.811  0.4411 -0.2281  0.3195
 3468SOL    HW111303   1.453   5.790   6.845  0.0934  0.0025  1.3750
 3468SOL    HW211304   1.465   5.948   6.808  0.1598  0.0683  1.6698
 3469SOL     OW11305   4.491   0.292   1.369  0.6017 -0.0703 -0.0592
 3469SOL    HW111306   4.506   0.390   1.355  1.9241 -0.2436 -0.0298
 3469SOL    HW211307   4.393   0.271   1.362  0.2118  1.3725  0.7819
 3470SOL     OW11308   0.398   2.914   1.397 -0.3216  0.6466 -0.2928
 3470SOL    HW111309   0.466   2.841   1.403 -0.7417  0.3106  0.6041
 3470SOL    HW211310   0.372   2.928   1.302 -1.3586 -1.4542 -0.3894
 3471SOL     OW11311   4.144   2.162   0.291  0.1677  1.1506 -0.2016
 3471SOL    HW111312   4.102   2.127   0.207  0.8259  1.9160 -0.8789
 3471SOL    HW211313   4.244   2.158   0.281  0.3111 -0.6762  1.3789
 3472SOL     OW11314   2.194   4.861   5.809 -0.0538 -0.0914  0.4938
 3472SOL    HW111315   2.270   4.801   5.832  0.7636  0.6350 -0.2249
 3472SOL    HW211316   2.195   4.941   5.869  1.2145  1.0899 -0.9904
 3473SOL     OW11317   3.755   6.030   3.951  0.3925 -0.0257 -0.2996
 3473SOL    HW111318   3.753   6.082   4.037 -0.9045 -0.1217 -0.2491
 3473SOL    HW211319   3.814   6.077   3.885  0.0275  0.9960  0.0771
 3474SOL     OW11320   1.001   0.115   0.395 -0.0713  0.3926  0.0129
 3474SOL    HW111321   0.944   0.110   0.313  0.6627  1.1449 -0.5617
 3474SOL    HW211322   1.065   0.191   0.386  1.0877 -0.4837  0.5985
 3475SOL     OW11323   3.586   4.232   1.609 -0.1356  0.4015 -0.2666
 3475SOL    HW111324   3.648   4.309   1.625  1.0137 -0.8008  1.4063
 3475SOL    HW211325   3.505   4.243   1.666  0.5790 -0.1919  0.8974
 3476SOL     OW11326   5.074   5.996   6.259  0.4009  0.6800  0.4120
 3476SOL    HW111327   5.020   5.954   6.332  1.0124 -0.8008  0.0544
 3476SOL    HW211328   5.168   6.009   6.291  0.7415 -0.2351 -0.1858
 3477SOL     OW11329   0.916   2.270   0.114  0.2872 -0.7993 -0.2048
 3477SOL    HW111330   0.825   2.284   0.153  0.5600  0.0298  0.1633
 3477SOL    HW211331   0.907   2.239   0.020 -0.4843  2.9694 -1.5668
 3478SOL     OW11332   1.291   3.678   5.266 -0.0717 -0.4002  0.9394
 3478SOL    HW111333   1.343   3.594   5.250  0.7672  0.2161  0.3531
 3478SOL    HW211334   1.351   3.747   5.306 -0.1251  0.6947 -0.7913
 3479SOL     OW11335   4.733   6.978   2.422 -0.1752  0.2553 -0.5949
 3479SOL    HW111336   4.739   7.063   2.474  0.3827  0.2257 -0.6085
 3479SOL    HW211337   4.672   6.991   2.344  0.0175  0.6847 -0.6752
 3480SOL     OW11338   5.619   2.237   3.866  0.1070  0.6739  0.3994
 3480SOL    HW111339   5.557   2.246   3.788 -1.2530 -1.4531  1.1447
 3480SOL    HW211340   5.713   2.229   3.834 -0.4514 -0.3969 -1.0754
 3481SOL     OW11341   1.551   2.031   1.785 -0.1942 -0.0102 -0.7169
 3481SOL    HW111342   1.549   2.002   1.689 -2.3022  0.0935 -0.7383
 3481SOL    HW211343   1.500   2.116   1.796  0.8257  0.4868  0.3615
 3482SOL     OW11344   3.839   5.616   1.020  0.4391  0.2234  0.4678
 3482SOL    HW111345   3.743   5.642   1.007  0.7785  0.6517 -1.5779
 3482SOL    HW211346   3.844   5.532   1.073 -1.3048 -1.5961 -2.0195
 3483SOL     OW11347   6.932   6.816   0.767 -0.6795 -0.0549 -0.0803
 3483SOL    HW111348   7.013   6.765   0.794  1.1402  3.1691  1.1011
 3483SOL    HW211349   6.952   6.870   0.685 -1.8981  0.2179 -0.2209
 3484SOL     OW11350   4.920   0.428   5.607  0.5454  0.4180 -0.8304
 3484SOL    HW111351   4.839   0.486   5.607 -1.3328 -2.0568 -0.0066
 3484SOL    HW211352   4.893   0.332   5.609  3.5026 -0.5160  0.9820
 3485SOL     OW11353   3.950   4.660   6.703  0.3395  0.4730 -0.0937
 3485SOL    HW111354   3.856   4.649   6.737 -0.4375  2.6861 -1.3267
 3485SOL    HW211355   3.957   4.621   6.611  0.7790 -0.0864  0.1688
 3486SOL     OW11356   1.286   4.442   3.195 -0.0700 -0.0144 -0.2601
 3486SOL    HW111357   1.226   4.377   3.147 -0.0436  1.0577 -1.7839
 3486SOL    HW211358   1.253   4.535   3.181 -0.1973  0.3423  2.0392
 3487SOL     OW11359   1.898   5.026   2.112 -0.6589  0.2239  0.1289
 3487SOL    HW111360   1.912   5.125   2.115  1.1699 -0.0234  1.9348
 3487SOL    HW211361   1.986   4.980   2.126 -1.6757 -1.6411  0.6255
 3488SOL     OW11362   2.052   4.765   5.587  0.9638  0.4558  0.8435
 3488SOL    HW111363   2.099   4.817   5.659 -0.2882  1.0622  1.2643
 3488SOL    HW211364   1.979   4.821   5.549 -0.8258 -1.1678  1.7035
 3489SOL     OW11365   1.612   6.205   4.014 -0.6286 -0.0600 -0.7828
 3489SOL    HW111366   1.529   6.149   4.019 -0.6183 -0.0363 -0.2846
 3489SOL    HW211367   1.658   6.204   4.102  0.3046 -0.6726 -1.2662
 3490SOL     OW11368   4.768   6.308   3.535  0.2968  0.7070  0.2582
 3490SOL    HW111369   4.750   6.281   3.630 -0.1988  0.9085  0.2256
 3490SOL    HW211370   4.821   6.236   3.489 -0.7767 -0.1047  0.2471
 3491SOL     OW11371   4.573   1.348   2.696 -0.1442  0.2708  0.6169
 3491SOL    HW111372   4.595   1.443   2.719  0.9268 -0.0312  0.8845
 3491SOL    HW211373   4.507   1.313   2.763 -0.2092  0.6887  0.7775
 3492SOL     OW11374   0.760   4.456   1.805 -0.2232 -0.2754  0.3209
 3492SOL    HW111375   0.694   4.510   1.858  0.2880  1.7736 -0.9950
 3492SOL    HW211376   0.852   4.473   1.839  0.0640  0.7031 -0.8804
 3493SOL     OW11377   6.822   4.803   1.544 -0.1328  0.6612  0.3564
 3493SOL    HW111378   6.807   4.739   1.469  1.5385  1.1385 -0.4324
 3493SOL    HW211379   6.751   4.791   1.613 -0.3416 -1.4583 -0.1628
 3494SOL     OW11380   0.264   4.374   1.890 -0.8116  0.1407 -0.5032
 3494SOL    HW111381   0.184   4.315   1.901 -0.7554  0.2712  0.7598
 3494SOL    HW211382   0.234   4.465   1.861 -1.3475  0.7336  1.7200
 3495SOL     OW11383   2.726   5.348   6.965 -0.4071 -0.0421  0.5031
 3495SOL    HW111384   2.652   5.396   7.010 -1.9391 -1.5489 -0.2864
 3495SOL    HW211385   2.771   5.286   7.029 -1.4518 -0.9125  0.4156
 3496SOL     OW11386   0.809   5.123   3.005 -0.0067  0.1219  0.2574
 3496SOL    HW111387   0.907   5.104   3.008  0.1575  0.6828 -0.8835
 3496SOL    HW211388   0.758   5.039   3.024  0.6865 -0.0658  1.3295
 3497SOL     OW11389   4.132   5.600   2.654  0.2506 -0.0984  0.3609
 3497SOL    HW111390   4.184   5.530   2.702 -0.1057  0.8290  2.1640
 3497SOL    HW211391   4.034   5.580   2.661  0.1167  0.7669  1.2759
 3498SOL     OW11392   2.586   1.780   0.775  0.3046 -0.4021  0.2494
 3498SOL    HW111393   2.655   1.762   0.845 -0.7185 -4.5116  0.4632
 3498SOL    HW211394   2.630   1.790   0.686  1.3020 -0.0138  0.7725
 3499SOL     OW11395   6.225   1.954   3.137 -1.3072  0.2045  0.0350
 3499SOL    HW111396   6.190   1.862   3.155  0.9118 -0.8906 -0.8953
 3499SOL    HW211397   6.299   1.949   3.070  0.1820  2.4326  1.4034
 3500SOL     OW11398   5.024   2.566   2.578 -0.0881 -0.2316  0.3572
 3500SOL    HW111399   4.962   2.606   2.646 -0.7464 -0.8944  0.1603
 3500SOL    HW211400   4.977   2.559   2.490  0.3197 -0.5860  0.1623
 3501SOL     OW11401   3.256   1.725   6.728  0.0207  0.0503  0.2421
 3501SOL    HW111402   3.269   1.795   6.658 -1.8675 -0.0998 -0.3156
 3501SOL    HW211403   3.298   1.640   6.698  2.6175  0.9644  1.0676
 3502SOL     OW11404   0.343   1.712   0.880 -0.3664  0.5838 -0.1797
 3502SOL    HW111405   0.435   1.706   0.841  0.2635 -0.0501  1.3156
 3502SOL    HW211406   0.302   1.621   0.883  0.1202  0.3806  1.7356
 3503SOL     OW11407   0.396   1.766   3.583 -0.2859 -0.6049  0.2102
 3503SOL    HW111408   0.300   1.793   3.584 -0.6481 -1.8144 -0.0056
 3503SOL    HW211409   0.432   1.774   3.490 -0.0872  0.1315  0.3470
 3504SOL     OW11410   5.997   4.591   2.350  0.2699  0.2893 -0.3508
 3504SOL    HW111411   6.049   4.634   2.424 -1.4897 -0.6451  1.5145
 3504SOL    HW211412   5.994   4.654   2.272  0.1520  2.3699  1.2286
 3505SOL     OW11413   0.853   3.777   1.130 -0.4847 -0.2710  0.2567
 3505SOL    HW111414   0.872   3.856   1.188  0.4969 -1.1977  1.2371
 3505SOL    HW211415   0.925   3.768   1.062 -0.5470 -0.3782  0.2055
 3506SOL     OW11416   4.006   3.388   6.045 -0.2258 -0.1785  0.0482
 3506SOL    HW111417   4.081   3.419   6.104 -0.7568  1.4378 -0.0948
 3506SOL    HW211418   3.988   3.291   6.063 -0.7336  0.3627  2.9293
 3507SOL     OW11419   1.224   0.906   1.774  0.0802  0.2304  0.4391
 3507SOL    HW111420   1.199   0.916   1.871  0.9654  0.5976  0.6352
 3507SOL    HW211421   1.318   0.872   1.767 -0.4815 -1.2786 -0.2871
 3508SOL     OW11422   3.838   1.092   2.536 -0.4140 -0.3529 -0.0394
 3508SOL    HW111423   3.787   1.175   2.557 -1.1566 -0.9400  0.5619
 3508SOL    HW211424   3.774   1.016   2.526  0.3549 -1.1482  0.8721
 3509SOL     OW11425   2.236   6.294   4.987 -0.0904 -0.4748  0.7394
 3509SOL    HW111426   2.302   6.368   4.980 -0.9460  0.5601  2.6815
 3509SOL    HW211427   2.147   6.325   4.954 -0.3235 -0.8172  1.0269
 3510SOL     OW11428   5.859   1.296   4.440  0.1093  0.1599 -0.3488
 3510SOL    HW111429   5.953   1.280   4.470  0.5217  0.3629 -1.4967
 3510SOL    HW211430   5.836   1.393   4.450 -0.3537 -0.0646  0.9341
 3511SOL     OW11431   2.653   5.157   2.653 -0.4743 -0.1875 -0.2226
 3511SOL    HW111432   2.688   5.249   2.667  1.1879 -0.7361 -0.5578
 3511SOL    HW211433   2.663   5.104   2.738 -3.7995  0.5983  0.8184
 3512SOL     OW11434   5.205   4.776   1.703  0.5223  0.5446 -0.2597
 3512SOL    HW111435   5.244   4.760   1.794  1.0324  0.4818 -0.4860
 3512SOL    HW211436   5.128   4.839   1.711  0.2164  0.1151  0.2869
 3513SOL     OW11437   3.511   0.707   1.944 -0.0375 -0.6399 -0.3200
 3513SOL    HW111438   3.586   0.641   1.953 -0.4680 -1.3497 -1.6475
 3513SOL    HW211439   3.501   0.732   1.848 -2.1532 -1.3497 -0.3329
 3514SOL     OW11440   5.661   6.462   5.274  0.2246 -0.2728  0.1171
 3514SOL    HW111441   5.741   6.403   5.282  0.6345  0.3977  1.2083
 3514SOL    HW211442   5.592   6.417   5.218  2.4206  0.2930 -3.3597
 3515SOL     OW11443   6.862   1.718   4.031 -0.2665  0.1372  0.7624
 3515SOL    HW111444   6.956   1.744   4.009 -0.7199 -1.3733 -4.2637
 3515SOL    HW211445   6.800   1.787   3.993 -1.2552 -0.1985  1.7359
 3516SOL     OW11446   4.796   4.166   3.839  0.5656  0.2739  0.4537
 3516SOL    HW111447   4.709   4.209   3.863 -1.1387 -1.2610 -2.4172
 3516SOL    HW211448   4.822   4.194   3.747  1.8034 -1.2540  0.2964
 3517SOL     OW11449   5.712   3.603   4.191 -0.2080  0.2501 -0.7389
 3517SOL    HW111450   5.795   3.654   4.216 -0.5345  1.1457 -1.4480
 3517SOL    HW211451   5.648   3.663   4.143 -1.7242 -0.1545  0.6793
 3518SOL     OW11452   4.706   0.642   4.749 -0.2837  0.4854  0.3094
 3518SOL    HW111453   4.624   0.642   4.693 -0.9303  3.1010  1.1295
 3518SOL    HW211454   4.786   0.623   4.692 -1.0462  1.8731 -1.2937
 3519SOL     OW11455   3.454   3.527   3.890  0.3804  0.2691  0.1061
 3519SOL    HW111456   3.424   3.539   3.795  0.3624  0.2056  0.1032
 3519SOL    HW211457   3.540   3.577   3.904  1.2672 -1.0357 -0.4058
 3520SOL     OW11458   1.586   5.003   1.538  0.3735  0.3293  0.8441
 3520SOL    HW111459   1.667   5.004   1.598  0.0538  0.3554  1.2810
 3520SOL    HW211460   1.550   4.910   1.533 -1.4871  0.8012  3.2969
 3521SOL     OW11461   1.721   6.285   5.074 -0.6860 -0.2731  0.0106
 3521SOL    HW111462   1.639   6.319   5.121 -0.2526  0.6967  0.0772
 3521SOL    HW211463   1.694   6.235   4.991 -1.3561 -0.2941  0.2364
 3522SOL     OW11464   2.695   0.600   5.214  0.4103  0.2628  0.4402
 3522SOL    HW111465   2.777   0.556   5.250  0.4351  0.0101  0.0818
 3522SOL    HW211466   2.710   0.626   5.119 -0.0542 -0.1394  0.2520
 3523SOL     OW11467   2.840   0.643   3.584 -0.7737 -0.1008 -0.3131
 3523SOL    HW111468   2.891   0.691   3.513 -0.4994  1.8279  1.0950
 3523SOL    HW211469   2.796   0.710   3.644 -1.4005 -1.6581  1.0387
 3524SOL     OW11470   0.317   6.158   3.912 -0.1716  0.0617  0.3199
 3524SOL    HW111471   0.334   6.256   3.898 -0.0068 -0.1308 -0.9119
 3524SOL    HW211472   0.360   6.129   3.997  3.2711  0.2254 -1.2154
 3525SOL     OW11473   3.041   4.044   6.728  0.0614 -0.0867 -0.2551
 3525SOL    HW111474   2.989   4.126   6.707  0.0549 -0.4604 -1.8479
 3525SOL    HW211475   3.139   4.066   6.729  0.0444 -0.0018 -0.4088
 3526SOL     OW11476   0.932   2.815   1.910 -0.5338  0.0654  0.3407
 3526SOL    HW111477   0.838   2.839   1.934 -0.5258 -0.6129  1.0984
 3526SOL    HW211478   0.947   2.718   1.929 -0.3045 -0.3712 -1.7849
 3527SOL     OW11479   3.147   3.013   4.527  0.0688 -0.3729 -0.0628
 3527SOL    HW111480   3.119   2.923   4.562 -0.2617 -0.5228 -0.7013
 3527SOL    HW211481   3.240   3.007   4.493 -0.1722 -0.6402 -0.6873
 3528SOL     OW11482   5.135   1.608   0.322  0.4684  0.2163 -0.4783
 3528SOL    HW111483   5.189   1.679   0.367  1.3698 -0.8975  0.2541
 3528SOL    HW211484   5.193   1.559   0.256  0.6316 -1.5086  0.8777
 3529SOL     OW11485   0.612   5.855   4.862 -0.4018  0.2476 -0.2219
 3529SOL    HW111486   0.609   5.863   4.763 -1.8328 -0.3629 -0.2481
 3529SOL    HW211487   0.687   5.794   4.888  0.4298  0.9732 -0.8786
 3530SOL     OW11488   0.324   5.796   4.538 -0.4477 -0.5325 -0.0793
 3530SOL    HW111489   0.404   5.757   4.583  0.0707  0.4845 -0.0984
 3530SOL    HW211490   0.290   5.873   4.591 -1.8936 -1.4016  0.3337
 3531SOL     OW11491   1.183   0.930   5.280 -0.1658 -0.2466 -0.2657
 3531SOL    HW111492   1.095   0.943   5.327  0.1070 -1.0631  0.5047
 3531SOL    HW211493   1.168   0.881   5.195 -0.7793  2.0256 -1.5521
 3532SOL     OW11494   1.030   4.293   6.187  0.5695 -0.4468  0.3264
 3532SOL    HW111495   1.012   4.209   6.136  1.5790 -0.5951  0.2076
 3532SOL    HW211496   0.974   4.294   6.269 -2.2369  0.4711 -1.4339
 3533SOL     OW11497   1.972   5.402   0.014 -0.5439 -0.2009 -0.0406
 3533SOL    HW111498   2.004   5.311   0.042  1.4829  0.7250  0.9044
 3533SOL    HW211499   1.911   5.438   0.084 -2.2316 -1.2092 -0.9258
 3534SOL     OW11500   3.684   6.538   6.309  0.0694  0.8872  0.1610
 3534SOL    HW111501   3.669   6.478   6.230  0.7491 -0.8035  1.2550
 3534SOL    HW211502   3.780   6.565   6.313  0.1353  0.5988  0.6401
 3535SOL     OW11503   2.510   4.693   5.616  0.0145 -0.4175 -0.8319
 3535SOL    HW111504   2.495   4.726   5.523 -0.2409 -1.0921 -1.0369
 3535SOL    HW211505   2.573   4.615   5.614  0.4475 -0.0910 -0.3783
 3536SOL     OW11506   4.150   0.953   0.058  0.2171 -0.3199 -0.0131
 3536SOL    HW111507   4.085   1.004   0.003 -2.4565 -2.5829  0.8239
 3536SOL    HW211508   4.199   0.888   0.001 -0.3256 -0.5583 -0.2069
 3537SOL     OW11509   2.494   6.948   4.936 -0.3366  0.0302 -0.4305
 3537SOL    HW111510   2.409   6.999   4.926  0.7648  2.0156 -0.1953
 3537SOL    HW211511   2.568   6.997   4.890  0.9465 -0.9129  0.5574
 3538SOL     OW11512   1.013   3.443   5.316 -0.2900 -0.3417  0.0797
 3538SOL    HW111513   1.019   3.498   5.232  1.8007  0.4318  0.6804
 3538SOL    HW211514   1.029   3.501   5.395  2.0531 -1.7765  0.7381
 3539SOL     OW11515   4.399   0.567   6.662 -0.2005  0.5108  0.2134
 3539SOL    HW111516   4.309   0.588   6.700 -0.1687  3.1526 -0.9384
 3539SOL    HW211517   4.388   0.524   6.573 -0.3763  1.3101 -0.1656
 3540SOL     OW11518   0.890   4.710   0.139  0.8551  0.3706  0.5128
 3540SOL    HW111519   0.902   4.690   0.236  1.1349  2.2495  0.9028
 3540SOL    HW211520   0.964   4.770   0.108  0.4890  0.1967 -0.7328
 3541SOL     OW11521   2.114   3.097   1.528 -0.1015  0.2658  0.7078
 3541SOL    HW111522   2.150   3.160   1.597 -2.2705 -0.6535  2.8086
 3541SOL    HW211523   2.027   3.059   1.559 -1.1458 -0.2992 -2.5457
 3542SOL     OW11524   5.938   0.512   5.754  0.1631 -0.4997 -0.1448
 3542SOL    HW111525   5.927   0.554   5.664 -1.8434  0.5222  0.5284
 3542SOL    HW211526   5.989   0.573   5.814  0.0530 -0.4424 -0.1087
 3543SOL     OW11527   1.596   2.788   3.115 -0.3845  0.3187  0.1360
 3543SOL    HW111528   1.637   2.699   3.099 -2.9071 -1.0988  1.0415
 3543SOL    HW211529   1.535   2.811   3.039 -0.9870  0.4969  0.6614
 3544SOL     OW11530   5.360   3.096   1.746  0.5671 -1.1267  0.7419
 3544SOL    HW111531   5.349   3.140   1.835  2.1292  0.6047  0.1549
 3544SOL    HW211532   5.275   3.050   1.720 -2.1266  3.4470  0.4230
 3545SOL     OW11533   3.289   6.343   6.479 -0.3583  0.7500  0.0969
 3545SOL    HW111534   3.378   6.367   6.519  0.1152  0.3311 -0.6763
 3545SOL    HW211535   3.279   6.243   6.477 -0.0410  0.7242 -1.4908
 3546SOL     OW11536   0.008   3.778   4.631  0.2168  0.7571  0.2944
 3546SOL    HW111537  -0.043   3.699   4.597 -0.4039  1.0770  0.4523
 3546SOL    HW211538   0.085   3.747   4.687  0.0869  0.2627  0.2075
 3547SOL     OW11539   1.004   2.402   4.944  0.1655  0.1391  0.1516
 3547SOL    HW111540   0.929   2.461   4.973 -0.6343 -0.1911 -1.1518
 3547SOL    HW211541   1.080   2.411   5.007 -1.3329 -0.3040  2.1331
 3548SOL     OW11542   4.836   2.291   4.565  0.3350  0.0892  0.7110
 3548SOL    HW111543   4.900   2.359   4.530 -0.0961  0.3741  0.4560
 3548SOL    HW211544   4.754   2.337   4.599  0.2138 -0.2764  0.9194
 3549SOL     OW11545   4.251   6.983   0.654  0.1034 -0.2695 -0.0070
 3549SOL    HW111546   4.347   6.988   0.682 -0.4279 -1.2377  2.1939
 3549SOL    HW211547   4.239   6.908   0.589  0.9158  0.2496 -0.7828
 3550SOL     OW11548   4.830   4.238   3.542  0.1165 -0.1364  0.5276
 3550SOL    HW111549   4.878   4.305   3.485 -0.1012  0.3665  0.9288
 3550SOL    HW211550   4.886   4.156   3.550 -0.1960 -0.5512 -1.0775
 3551SOL     OW11551   1.991   5.962   1.638 -0.3379  0.9313  0.1206
 3551SOL    HW111552   1.901   5.967   1.595 -0.3446  1.0820  0.1534
 3551SOL    HW211553   2.040   5.882   1.603 -0.3828  0.9975 -0.0950
 3552SOL     OW11554   1.914   5.307   0.855 -0.5076 -0.1387  0.0368
 3552SOL    HW111555   2.012   5.292   0.840  0.5524  2.5434  3.1579
 3552SOL    HW211556   1.864   5.225   0.827  2.5261 -1.5407 -1.8950
 3553SOL     OW11557   6.405   3.805   0.611  0.9022  0.2749 -0.2568
 3553SOL    HW111558   6.317   3.795   0.658  0.7015  1.7386 -0.2649
 3553SOL    HW211559   6.389   3.827   0.515  1.2943 -0.3713 -0.4745
 3554SOL     OW11560   5.651   3.071   4.081 -0.3203 -0.4707  0.0472
 3554SOL    HW111561   5.651   3.025   4.170 -0.8919 -1.8809 -0.6419
 3554SOL    HW211562   5.732   3.043   4.030  0.1323  0.5268  0.2058
 3555SOL     OW11563   0.871   5.117   5.618 -0.2749 -0.3123  0.2456
 3555SOL    HW111564   0.949   5.178   5.630 -0.3368 -0.2986  0.6069
 3555SOL    HW211565   0.859   5.096   5.521 -0.3578  0.3790  0.1019
 3556SOL     OW11566   0.905   1.154   2.019 -0.3180  0.0384  0.3365
 3556SOL    HW111567   0.947   1.107   2.097 -0.5224 -1.0475 -0.1942
 3556SOL    HW211568   0.826   1.206   2.051 -1.9642 -2.4253  0.5391
 3557SOL     OW11569   4.666   4.854   4.479  0.9276 -0.5635  0.1184
 3557SOL    HW111570   4.755   4.894   4.457  0.7334 -0.8805 -1.3216
 3557SOL    HW211571   4.646   4.869   4.576  1.8793  0.7957  0.1245
 3558SOL     OW11572   1.458   6.713   0.240  0.3194  0.5146  0.0118
 3558SOL    HW111573   1.521   6.678   0.309 -0.3004  0.0447  0.3398
 3558SOL    HW211574   1.399   6.640   0.208  2.9318 -0.2677 -3.6913
 3559SOL     OW11575   0.743   2.987   1.328  0.4380 -0.1759 -0.0114
 3559SOL    HW111576   0.719   3.009   1.422  1.4912 -0.1100  0.2505
 3559SOL    HW211577   0.825   2.930   1.326 -0.3628 -1.3615 -0.8340
 3560SOL     OW11578   4.761   6.394   6.773  0.4515 -0.0355 -0.0955
 3560SOL    HW111579   4.831   6.434   6.832  0.3494  0.0292 -0.0162
 3560SOL    HW211580   4.794   6.389   6.679  0.6532 -0.2301 -0.0156
 3561SOL     OW11581   2.285   5.235   5.367 -0.2627  0.2675  0.3045
 3561SOL    HW111582   2.265   5.218   5.271  1.2183 -1.4056  0.2482
 3561SOL    HW211583   2.357   5.305   5.374 -1.3219  1.3940  0.2800
 3562SOL     OW11584   2.969   1.161   2.518  0.4722  0.3025 -0.0281
 3562SOL    HW111585   3.057   1.126   2.550 -0.1256 -1.7309 -0.4856
 3562SOL    HW211586   2.895   1.111   2.563 -0.4203  0.4234 -1.3085
 3563SOL     OW11587   5.409   1.900   6.385  0.3660  0.3500 -0.1777
 3563SOL    HW111588   5.427   1.954   6.303  2.1651 -0.1687 -0.1642
 3563SOL    HW211589   5.379   1.960   6.459 -0.3760  0.9384 -0.9420
 3564SOL     OW11590   2.250   0.825   3.352  0.1320 -0.0851 -0.5186
 3564SOL    HW111591   2.190   0.878   3.412  0.5288 -2.3268  2.0291
 3564SOL    HW211592   2.339   0.812   3.396  0.7076 -1.2378 -1.9302
 3565SOL     OW11593   3.613   6.363   4.708 -0.3215  0.0415 -0.1618
 3565SOL    HW111594   3.611   6.459   4.733 -1.4776  0.0054 -0.0702
 3565SOL    HW211595   3.558   6.348   4.626  1.6233 -0.2121 -1.4828
 3566SOL     OW11596   3.830   6.197   1.439 -0.6160  0.8005  0.4910
 3566SOL    HW111597   3.853   6.224   1.345  1.5278 -0.0794  0.6899
 3566SOL    HW211598   3.887   6.250   1.503 -0.7871  0.1609  1.1839
 3567SOL     OW11599   4.035   0.968   2.719  0.6856 -0.5526 -0.5535
 3567SOL    HW111600   4.000   1.030   2.650 -0.6383  0.6184  1.0820
 3567SOL    HW211601   3.959   0.926   2.769  1.5715 -0.3953  1.0218
 3568SOL     OW11602   5.902   4.184   1.298  0.1089 -0.0471  0.1388
 3568SOL    HW111603   5.805   4.184   1.320  0.1093 -0.0113  0.1388
 3568SOL    HW211604   5.936   4.090   1.299 -0.0081 -0.0954 -0.2238
 3569SOL     OW11605   0.510   3.462   3.641  0.1640 -0.3528  0.3771
 3569SOL    HW111606   0.589   3.494   3.590 -2.3758  2.3104 -2.2358
 3569SOL    HW211607   0.444   3.420   3.578 -1.0202 -1.5246  2.2923
 3570SOL     OW11608   1.616   3.163   4.105  0.4374  0.6047 -0.1302
 3570SOL    HW111609   1.693   3.128   4.051  0.0951  0.6576 -0.6705
 3570SOL    HW211610   1.642   3.251   4.146  0.7862  0.4475 -0.0073
 3571SOL     OW11611   5.758   5.834   2.212 -0.2735 -0.1083  0.3960
 3571SOL    HW111612   5.703   5.876   2.140 -0.4345  1.0222  1.1581
 3571SOL    HW211613   5.815   5.903   2.257 -2.2214 -0.1482  3.2060
 3572SOL     OW11614   5.536   5.164   5.382  0.8035  1.2694 -0.1909
 3572SOL    HW111615   5.466   5.235   5.385 -2.0274 -1.2923  0.2639
 3572SOL    HW211616   5.513   5.097   5.312  0.2190 -1.9592  2.7522
 3573SOL     OW11617   5.849   4.238   4.241 -0.4608  0.2446 -0.1583
 3573SOL    HW111618   5.756   4.241   4.279 -0.3388  0.7739  0.1230
 3573SOL    HW211619   5.907   4.301   4.293 -0.0010  0.0851 -0.4780
 3574SOL     OW11620   5.580   2.473   2.933  0.1417  0.4714  0.3213
 3574SOL    HW111621   5.536   2.391   2.898  0.2282  0.3444  0.5131
 3574SOL    HW211622   5.673   2.452   2.963  0.5243  0.8492 -0.5742
 3575SOL     OW11623   5.319   6.164   1.810 -0.0649  0.3279 -1.1612
 3575SOL    HW111624   5.289   6.149   1.716 -0.9962  0.4021 -0.8829
 3575SOL    HW211625   5.411   6.126   1.822  0.1895  0.5843 -2.1733
 3576SOL     OW11626   0.188   3.511   2.408 -0.5297 -0.5512 -0.0284
 3576SOL    HW111627   0.246   3.436   2.377 -1.7844 -1.9336  0.8112
 3576SOL    HW211628   0.096   3.499   2.371 -0.6634  0.8315 -0.2171
 3577SOL     OW11629   5.024   6.651   1.362 -0.0825  0.1001  0.3650
 3577SOL    HW111630   5.021   6.726   1.297  1.0757  1.2513  1.5864
 3577SOL    HW211631   5.077   6.575   1.324  1.6966  1.2637  0.4247
 3578SOL     OW11632   6.132   2.113   0.660 -0.3273 -0.6903  0.3406
 3578SOL    HW111633   6.136   2.025   0.612 -1.7467 -0.6487  0.1090
 3578SOL    HW211634   6.199   2.175   0.620 -1.5592 -0.6055 -1.7424
 3579SOL     OW11635   5.376   5.983   3.146 -0.1252  0.8361 -0.3070
 3579SOL    HW111636   5.285   6.025   3.136 -0.2449  0.9902  1.2105
 3579SOL    HW211637   5.445   6.046   3.110 -0.3787  2.0444  1.1713
 3580SOL     OW11638   3.315   1.675   2.724 -0.4267 -0.3057  0.7844
 3580SOL    HW111639   3.251   1.606   2.693  1.0275 -1.2947 -0.1449
 3580SOL    HW211640   3.280   1.766   2.701  0.1446 -0.9181 -3.1498
 3581SOL     OW11641   5.620   2.860   4.613  0.1532  0.7476  0.2548
 3581SOL    HW111642   5.560   2.939   4.603  0.2025  0.7201 -0.3060
 3581SOL    HW211643   5.661   2.860   4.704 -1.5876  0.1412  1.0854
 3582SOL     OW11644   6.924   4.692   0.147  0.1456 -0.6903  0.4880
 3582SOL    HW111645   6.937   4.716   0.243  1.7554 -0.0644  0.1497
 3582SOL    HW211646   6.835   4.727   0.116  0.5035  0.9379  1.2071
 3583SOL     OW11647   4.051   3.729   3.324  0.1374  0.1096 -0.4951
 3583SOL    HW111648   4.070   3.750   3.420  2.0396  1.1576 -1.0606
 3583SOL    HW211649   4.013   3.810   3.280  0.5809  0.0680 -0.9524
 3584SOL     OW11650   1.210   1.216   2.081 -0.0106  0.1794 -0.1649
 3584SOL    HW111651   1.146   1.168   2.022 -0.0693 -0.1143  0.1332
 3584SOL    HW211652   1.300   1.220   2.038  0.7949 -2.7510  0.9842
 3585SOL     OW11653   4.825   1.750   3.165 -0.0698  0.1683  0.1875
 3585SOL    HW111654   4.877   1.669   3.190 -0.7046 -0.4532 -0.4877
 3585SOL    HW211655   4.875   1.802   3.095  0.8417  0.9446  1.3775
 3586SOL     OW11656   4.349   0.714   3.097  0.0523  0.2486 -0.5010
 3586SOL    HW111657   4.253   0.723   3.124 -0.3842  0.0509 -1.9192
 3586SOL    HW211658   4.398   0.798   3.118 -0.7474  0.8412 -0.9556
 3587SOL     OW11659   3.324   6.290   5.786 -0.2515  0.2241 -0.2905
 3587SOL    HW111660   3.225   6.290   5.775 -0.3815 -0.7883  0.6285
 3587SOL    HW211661   3.348   6.245   5.873  0.9091  2.3422  0.5720
 3588SOL     OW11662   0.687   2.972   2.779  0.3473 -0.4275  0.3583
 3588SOL    HW111663   0.604   2.956   2.831 -1.2522  0.6668 -1.7069
 3588SOL    HW211664   0.721   3.064   2.797 -2.7317  1.7790 -3.4699
 3589SOL     OW11665   2.983   3.494   3.914 -0.2789 -0.2055  0.6853
 3589SOL    HW111666   3.028   3.569   3.866 -0.3398 -0.5509  0.0709
 3589SOL    HW211667   2.932   3.438   3.847 -2.6645  0.8750  1.4724
 3590SOL     OW11668   6.205   1.929   5.021  0.2228  0.1414  0.6008
 3590SOL    HW111669   6.130   1.992   4.997 -1.2060 -1.1755  1.4083
 3590SOL    HW211670   6.245   1.956   5.108 -1.3807 -0.8574  1.6930
 3591SOL     OW11671   6.744   5.393   4.189 -0.5537  0.2327  0.5401
 3591SOL    HW111672   6.815   5.325   4.168 -0.8794 -0.6518  2.1990
 3591SOL    HW211673   6.670   5.385   4.121 -0.1593 -0.4269  0.1722
 3592SOL     OW11674   6.631   3.100   6.801  0.5399  0.0885  0.1597
 3592SOL    HW111675   6.669   3.087   6.710 -1.2309  1.2060 -0.8134
 3592SOL    HW211676   6.566   3.026   6.821  1.1002 -0.2851  0.6323
 3593SOL     OW11677   5.471   3.551   3.553  0.3932 -0.6632  0.2011
 3593SOL    HW111678   5.525   3.622   3.597  0.1469 -1.7144  2.3039
 3593SOL    HW211679   5.374   3.572   3.561  0.3520 -0.6245 -0.3169
 3594SOL     OW11680   4.308   6.093   5.617  0.3106 -0.4881 -0.3988
 3594SOL    HW111681   4.321   6.175   5.561  1.3163 -0.9610 -0.8786
 3594SOL    HW211682   4.213   6.090   5.650  0.3997  1.1710  0.1330
 3595SOL     OW11683   6.758   5.972   3.555 -0.3764  0.0637  0.2948
 3595SOL    HW111684   6.771   5.993   3.652  1.8818  1.1205 -0.1753
 3595SOL    HW211685   6.831   5.912   3.524 -1.2600 -0.5242 -0.6945
 3596SOL     OW11686   0.051   1.420   6.426 -0.5599 -0.5604 -0.1795
 3596SOL    HW111687   0.012   1.404   6.517  0.6589 -0.3000  0.4259
 3596SOL    HW211688  -0.007   1.379   6.356 -0.3642 -2.7786  0.8720
 3597SOL     OW11689   4.487   0.253   2.147 -0.6133 -0.0154 -0.4560
 3597SOL    HW111690   4.556   0.312   2.190 -0.1165 -1.5896  0.9795
 3597SOL    HW211691   4.531   0.172   2.109 -1.7235 -1.4943  1.2656
 3598SOL     OW11692   2.291   5.126   1.741 -0.1855 -0.6653 -0.0834
 3598SOL    HW111693   2.361   5.097   1.806 -0.4500  2.4451  1.7497
 3598SOL    HW211694   2.329   5.194   1.679 -0.9519 -0.7661 -0.6780
 3599SOL     OW11695   6.160   2.292   5.962 -0.1036 -0.3217 -0.2159
 3599SOL    HW111696   6.176   2.382   5.921  1.1499 -0.8133 -0.8592
 3599SOL    HW211697   6.089   2.299   6.032  1.0939  1.5007  0.8884
 3600SOL     OW11698   2.686   3.892   5.301  0.2891 -0.6149 -0.0229
 3600SOL    HW111699   2.597   3.924   5.270  0.6040  1.1191  0.7496
 3600SOL    HW211700   2.733   3.846   5.225 -0.5175  0.0998 -0.9777
 3601SOL     OW11701   6.184   0.674   5.507  0.0876  0.1411 -0.2614
 3601SOL    HW111702   6.093   0.639   5.527  0.3524 -0.0742  0.5930
 3601SOL    HW211703   6.176   0.761   5.459 -0.5784  0.5571  0.5750
 3602SOL     OW11704   5.217   1.939   1.480  0.3330  0.0311  0.1295
 3602SOL    HW111705   5.212   2.014   1.413 -0.5143 -1.1657 -1.2017
 3602SOL    HW211706   5.224   1.977   1.572 -1.0522  1.7784 -0.4295
 3603SOL     OW11707   5.260   1.765   2.872 -0.0206 -0.7299  0.3391
 3603SOL    HW111708   5.356   1.770   2.901  0.1784  1.1447 -0.4737
 3603SOL    HW211709   5.252   1.703   2.794  0.3205 -1.7789  1.1228
 3604SOL     OW11710   0.334   4.033   3.709  0.0608 -0.0084  0.5058
 3604SOL    HW111711   0.406   4.022   3.778  0.5115  1.0504  0.2361
 3604SOL    HW211712   0.343   3.962   3.639  1.6413  0.8153 -0.1856
 3605SOL     OW11713   0.788   3.055   4.911 -0.1392 -0.6912 -0.4059
 3605SOL    HW111714   0.835   3.142   4.930  0.6876 -1.3993  0.9559
 3605SOL    HW211715   0.848   2.979   4.935 -1.8412 -1.6387  1.0835
 3606SOL     OW11716   1.853   5.097   5.840 -0.3201  0.4800  0.3852
 3606SOL    HW111717   1.774   5.092   5.778  0.6724 -0.7808 -0.8391
 3606SOL    HW211718   1.924   5.154   5.799 -0.2475  0.9243  1.1057
 3607SOL     OW11719   2.679   4.641   2.235  0.2919  0.2135  0.3454
 3607SOL    HW111720   2.746   4.640   2.161 -1.5322  2.2115 -1.5101
 3607SOL    HW211721   2.679   4.731   2.278 -2.3008  0.9275 -0.9239
 3608SOL     OW11722   3.454   6.350   2.255 -0.4221  0.5403  0.1817
 3608SOL    HW111723   3.528   6.388   2.200 -1.3180  1.1018 -0.6732
 3608SOL    HW211724   3.457   6.250   2.251  1.7735  0.4505  2.2031
 3609SOL     OW11725   4.571   5.437   5.318 -0.0176 -0.2622 -0.0365
 3609SOL    HW111726   4.622   5.360   5.356 -1.8662 -0.5396  2.0394
 3609SOL    HW211727   4.556   5.506   5.389 -1.4739  0.3556 -0.9065
 3610SOL     OW11728   3.074   5.424   4.506 -0.4200 -0.5386  0.3985
 3610SOL    HW111729   3.039   5.388   4.593 -0.9413  1.1989  0.9461
 3610SOL    HW211730   3.065   5.524   4.505 -1.4852 -0.5967 -2.1338
 3611SOL     OW11731   6.634   3.240   3.982 -0.3569  0.1674 -0.6650
 3611SOL    HW111732   6.696   3.165   3.957  2.1388 -0.1044  4.7755
 3611SOL    HW211733   6.540   3.205   3.984  0.3312 -1.9089 -1.3539
 3612SOL     OW11734   5.892   2.221   3.803  0.4479 -0.5232  0.0613
 3612SOL    HW111735   5.942   2.307   3.804 -2.6155  1.4396  0.0773
 3612SOL    HW211736   5.932   2.159   3.736  2.1763  1.2799 -0.6620
 3613SOL     OW11737   2.302   4.301   5.046 -0.2905 -0.0530  0.5052
 3613SOL    HW111738   2.328   4.206   5.027  1.0910  0.4233 -0.1267
 3613SOL    HW211739   2.379   4.347   5.090 -0.9201  0.8067  0.7185
 3614SOL     OW11740   2.533   0.779   4.817  0.2883 -0.3480  0.5009
 3614SOL    HW111741   2.574   0.734   4.737  1.7130 -0.5947  1.3338
 3614SOL    HW211742   2.582   0.864   4.836 -1.3147  0.7433 -0.0417
 3615SOL     OW11743   0.878   6.138   4.729 -0.4997 -0.5487 -0.1099
 3615SOL    HW111744   0.879   6.129   4.828 -2.8221 -0.6100 -0.0440
 3615SOL    HW211745   0.948   6.079   4.689  1.3267  0.4063  1.5010
 3616SOL     OW11746   4.655   1.775   4.357  0.0660 -0.6842  0.0084
 3616SOL    HW111747   4.725   1.847   4.360 -0.1464 -0.4984  0.8172
 3616SOL    HW211748   4.633   1.747   4.451 -1.0659 -0.6250 -0.2330
 3617SOL     OW11749   6.207   3.098   5.360 -0.0752 -0.4720 -0.6695
 3617SOL    HW111750   6.301   3.065   5.367  0.3066  0.7345  0.2243
 3617SOL    HW211751   6.190   3.164   5.432 -0.7393  1.4034 -2.4460
 3618SOL     OW11752   5.822   5.454   2.033 -0.5577 -0.1393  0.3514
 3618SOL    HW111753   5.920   5.458   2.056 -0.3831 -0.5233 -0.2820
 3618SOL    HW211754   5.771   5.417   2.110  0.1817 -2.6732 -0.2755
 3619SOL     OW11755   6.414   2.059   3.756 -0.2532  0.2876 -0.0693
 3619SOL    HW111756   6.340   2.054   3.824  0.0940 -0.8515  0.2477
 3619SOL    HW211757   6.383   2.016   3.671  0.5035 -1.5357  0.5280
 3620SOL     OW11758   4.131   3.611   2.968 -0.1691  0.1059  0.1585
 3620SOL    HW111759   4.214   3.604   3.024 -0.9050  0.7676  1.3572
 3620SOL    HW211760   4.087   3.699   2.984 -0.0989  0.5738 -1.9223
 3621SOL     OW11761   3.292   4.831   1.792 -0.3537  0.5205 -0.2297
 3621SOL    HW111762   3.339   4.766   1.732 -1.9267 -0.1673 -0.7625
 3621SOL    HW211763   3.351   4.854   1.869  0.7788 -0.4212 -0.7912
 3622SOL     OW11764   2.764   2.638   1.739 -0.1486 -0.0861  0.6265
 3622SOL    HW111765   2.813   2.564   1.785 -0.4890 -1.0136 -0.4532
 3622SOL    HW211766   2.731   2.606   1.650 -0.8196  1.1898  0.3899
 3623SOL     OW11767   3.866   3.360   2.625 -0.7390  0.1044  0.2463
 3623SOL    HW111768   3.842   3.317   2.712 -1.4842  0.2571  0.1284
 3623SOL    HW211769   3.940   3.425   2.638 -1.1532  0.4609  0.8557
 3624SOL     OW11770   0.058   2.093   2.105 -0.1081 -0.5248  0.1771
 3624SOL    HW111771   0.058   2.129   2.198  0.3910  0.1822 -0.0923
 3624SOL    HW211772   0.064   2.168   2.040 -1.8884 -0.9064 -0.4857
 3625SOL     OW11773   3.896   5.856   5.204  0.4156 -0.4486 -0.3656
 3625SOL    HW111774   3.901   5.817   5.111 -0.0034 -0.5746 -0.3379
 3625SOL    HW211775   3.988   5.864   5.241  0.6161 -0.0583 -0.9361
 3626SOL     OW11776   5.667   6.024   4.137  0.1643  0.5763 -0.2001
 3626SOL    HW111777   5.691   6.119   4.121  4.2957 -0.4208 -0.9496
 3626SOL    HW211778   5.647   5.979   4.049 -0.3241  0.3745  0.0058
 3627SOL     OW11779   4.055   3.532   6.569  0.2003 -0.1939  0.0829
 3627SOL    HW111780   4.138   3.557   6.519 -1.0713  0.5370 -1.7893
 3627SOL    HW211781   4.013   3.614   6.608  0.2389 -0.5252  0.8301
 3628SOL     OW11782   5.487   4.506   0.120  0.0893  0.3791 -0.2509
 3628SOL    HW111783   5.395   4.468   0.129 -0.0339  0.1315 -2.1081
 3628SOL    HW211784   5.516   4.545   0.208 -1.3433 -0.4854  0.6517
 3629SOL     OW11785   1.979   5.632   5.889  0.4576  0.5102  0.3897
 3629SOL    HW111786   2.012   5.691   5.815  1.5757 -0.0648  0.4039
 3629SOL    HW211787   1.973   5.538   5.856 -2.2154  0.7191  0.0889
 3630SOL     OW11788   2.419   5.139   1.158 -0.4253 -0.5727  0.0253
 3630SOL    HW111789   2.509   5.107   1.188  0.1815  0.4675 -0.6329
 3630SOL    HW211790   2.418   5.147   1.058 -0.7429  0.8517  0.1183
 3631SOL     OW11791   6.817   3.276   6.888  0.8814  0.7873 -0.0986
 3631SOL    HW111792   6.731   3.235   6.857  0.1804  1.6651  0.6107
 3631SOL    HW211793   6.872   3.206   6.934 -0.0920  0.5114  0.6908
 3632SOL     OW11794   6.859   1.583   1.098  0.0940 -0.2026 -0.7863
 3632SOL    HW111795   6.870   1.656   1.031  1.8864  0.5547  0.2666
 3632SOL    HW211796   6.852   1.495   1.051 -0.4439  0.4804 -2.0141
 3633SOL     OW11797   6.498   6.010   2.421 -0.3370 -0.2023  0.6096
 3633SOL    HW111798   6.512   6.105   2.391 -0.3828 -0.2966  0.2841
 3633SOL    HW211799   6.527   5.948   2.348 -1.3516 -0.4199  0.3693
 3634SOL     OW11800   2.169   2.474   5.734 -0.3533  0.5725  0.0548
 3634SOL    HW111801   2.101   2.431   5.793 -1.5004  1.5812 -0.4893
 3634SOL    HW211802   2.242   2.514   5.791 -1.5177  1.6687  0.8314
 3635SOL     OW11803   4.990   2.670   2.063  0.1264 -0.1670  1.0925
 3635SOL    HW111804   4.981   2.596   2.130  1.2742 -3.0108 -1.6322
 3635SOL    HW211805   4.946   2.643   1.978  0.4609  2.4522 -0.0053
 3636SOL     OW11806   3.024   6.422   5.254  0.4073 -0.3280 -0.0144
 3636SOL    HW111807   3.008   6.449   5.159  1.1366  1.5377  0.3408
 3636SOL    HW211808   3.008   6.324   5.265  1.3729 -0.7812 -2.2882
 3637SOL     OW11809   3.495   3.073   1.121 -0.2241 -0.1998  0.3701
 3637SOL    HW111810   3.402   3.048   1.094 -0.5611  1.0328  0.2874
 3637SOL    HW211811   3.512   3.169   1.096  0.9696 -0.3205  0.6506
 3638SOL     OW11812   0.884   6.711   0.940  0.3651  0.8372  0.2479
 3638SOL    HW111813   0.834   6.625   0.942  0.3340  0.8632  0.7015
 3638SOL    HW211814   0.959   6.705   0.875 -0.5944  1.0034 -0.9114
 3639SOL     OW11815   3.443   5.813   3.425 -0.4934 -0.4128 -0.9196
 3639SOL    HW111816   3.523   5.755   3.440 -0.6335 -0.4683 -0.3387
 3639SOL    HW211817   3.471   5.907   3.410 -0.2339 -0.6916 -2.3383
 3640SOL     OW11818   3.956   5.356   5.818  0.1959 -0.0313  0.2593
 3640SOL    HW111819   3.967   5.265   5.860 -0.5765 -0.8326 -1.2099
 3640SOL    HW211820   4.046   5.390   5.791  0.3879 -0.9082 -0.2639
 3641SOL     OW11821   1.232   3.517   3.023 -0.0975 -0.5118  0.2687
 3641SOL    HW111822   1.272   3.427   3.041 -0.7263 -0.9974 -0.6586
 3641SOL    HW211823   1.304   3.586   3.022  0.9186 -1.4806 -2.2046
 3642SOL     OW11824   6.742   5.495   4.884 -0.1327 -0.4055 -0.0546
 3642SOL    HW111825   6.738   5.550   4.967 -1.8914 -0.8282  0.1701
 3642SOL    HW211826   6.695   5.542   4.809 -0.0056 -0.7683 -0.3698
 3643SOL     OW11827   2.545   6.581   1.739 -0.3144 -0.2118  0.2546
 3643SOL    HW111828   2.469   6.563   1.801 -0.6332 -1.7256 -0.5435
 3643SOL    HW211829   2.515   6.645   1.668 -0.8261 -0.7114  0.0103
 3644SOL     OW11830   4.413   4.600   3.839 -0.1716 -0.0115 -0.2387
 3644SOL    HW111831   4.415   4.664   3.762  0.2413  0.1394 -0.1028
 3644SOL    HW211832   4.320   4.566   3.850 -0.3146  0.2594 -0.5642
 3645SOL     OW11833   3.860   3.760   6.225 -0.4092 -0.4800  0.4098
 3645SOL    HW111834   3.834   3.676   6.273 -1.2333 -0.1380  0.5911
 3645SOL    HW211835   3.940   3.743   6.168 -0.4874 -1.3546  0.5445
 3646SOL     OW11836   2.425   1.617   0.253  0.2402 -0.6677 -0.1657
 3646SOL    HW111837   2.368   1.548   0.210  0.2949  0.2542 -1.8045
 3646SOL    HW211838   2.386   1.708   0.236  1.1261 -0.1740  0.3789
 3647SOL     OW11839   5.612   1.499   0.760 -0.3120 -0.5019  0.0184
 3647SOL    HW111840   5.536   1.511   0.697 -1.3339  2.3705  1.6353
 3647SOL    HW211841   5.593   1.422   0.822 -1.8480  0.0755  0.2894
 3648SOL     OW11842   4.252   1.708   5.858 -0.0177 -0.3612 -0.6307
 3648SOL    HW111843   4.191   1.731   5.782  0.0608 -2.9982 -1.5949
 3648SOL    HW211844   4.201   1.657   5.927  0.5423 -0.3782 -0.2291
 3649SOL     OW11845   3.649   5.911   0.780  0.0686  0.4213  0.3565
 3649SOL    HW111846   3.582   5.974   0.740  0.1901 -0.0960 -0.6726
 3649SOL    HW211847   3.739   5.952   0.779  0.1977  0.1288 -0.5798
 3650SOL     OW11848   6.733   6.486   0.312  0.0121 -0.3331 -0.2475
 3650SOL    HW111849   6.767   6.531   0.395  2.4534 -1.1319 -0.7356
 3650SOL    HW211850   6.786   6.518   0.233 -2.1293  0.2574 -1.5417
 3651SOL     OW11851   0.236   6.997   4.540  0.6153  0.5111  0.3753
 3651SOL    HW111852   0.168   6.968   4.472  1.5405  0.2569 -0.4535
 3651SOL    HW211853   0.188   7.035   4.620 -0.4951  0.5629 -0.2884
 3652SOL     OW11854   1.970   1.527   6.738  0.1387  0.3976 -0.0798
 3652SOL    HW111855   1.977   1.609   6.794 -0.3764  0.6346 -0.3539
 3652SOL    HW211856   1.893   1.472   6.769  1.0917 -0.5084  0.7639
 3653SOL     OW11857   4.181   3.617   0.141  0.1968 -0.5094  0.8060
 3653SOL    HW111858   4.218   3.692   0.086  1.2226 -1.7584 -0.2843
 3653SOL    HW211859   4.218   3.622   0.233  0.1615  0.3809  0.7846
 3654SOL     OW11860   5.968   1.247   1.443 -0.4199  0.5262  0.1722
 3654SOL    HW111861   5.958   1.234   1.344 -0.5594  2.7032 -0.1462
 3654SOL    HW211862   5.967   1.158   1.488 -1.4237 -0.4746 -1.6813
 3655SOL     OW11863   4.818   1.646   4.046  0.4238  0.5729  0.3201
 3655SOL    HW111864   4.802   1.573   3.979 -4.5574  0.1476  1.5785
 3655SOL    HW211865   4.831   1.605   4.136 -1.8260  1.0936  0.9395
 3656SOL     OW11866   3.352   0.886   4.844  0.0320 -1.0848 -0.0512
 3656SOL    HW111867   3.288   0.957   4.872 -0.1576 -1.0574 -0.5381
 3656SOL    HW211868   3.345   0.872   4.745  0.5804 -1.2746 -0.0688
 3657SOL     OW11869   5.536   2.903   2.345  0.0712 -0.1912 -0.1041
 3657SOL    HW111870   5.471   2.839   2.305  0.2409 -0.3158 -0.1856
 3657SOL    HW211871   5.543   2.984   2.287 -0.9905  0.4115  0.5911
 3658SOL     OW11872   1.101   4.183   3.105 -0.5322 -0.3260  0.4525
 3658SOL    HW111873   1.157   4.117   3.155 -2.2209 -1.6910  0.6284
 3658SOL    HW211874   1.011   4.143   3.085 -1.8318  2.0927  1.0256
 3659SOL     OW11875   5.016   0.019   2.278 -0.6160  0.7860 -0.3186
 3659SOL    HW111876   5.044   0.022   2.374 -2.3708  0.9536  0.2360
 3659SOL    HW211877   5.019  -0.075   2.244  4.2899  1.1428 -1.5593
 3660SOL     OW11878   3.160   4.012   5.709  0.0366 -0.9866 -0.0618
 3660SOL    HW111879   3.089   3.988   5.643 -0.0793 -1.0908  0.1008
 3660SOL    HW211880   3.128   3.991   5.801 -0.0517 -0.2312  0.0831
 3661SOL     OW11881   1.851   0.657   2.735 -1.1745  0.2909  0.3479
 3661SOL    HW111882   1.921   0.586   2.741 -0.8815  0.6746  2.3668
 3661SOL    HW211883   1.780   0.630   2.670  0.2582 -0.6165 -0.8858
 3662SOL     OW11884   0.559   3.021   6.529 -0.7061  0.1082 -0.5540
 3662SOL    HW111885   0.610   2.939   6.554  1.7968  1.5679 -0.5385
 3662SOL    HW211886   0.462   2.999   6.521 -0.4335 -2.3623  1.5741
 3663SOL     OW11887   2.697   2.154   0.943 -0.2724  0.2418  0.6139
 3663SOL    HW111888   2.690   2.252   0.962 -2.1551  0.3725 -0.4901
 3663SOL    HW211889   2.713   2.105   1.029  1.5992  1.5485  1.0592
 3664SOL     OW11890   1.143   2.460   4.685  0.2096 -0.0943 -0.3558
 3664SOL    HW111891   1.101   2.430   4.770  0.7619 -0.7373 -0.3011
 3664SOL    HW211892   1.130   2.390   4.615 -0.7337  0.6681 -0.9772
 3665SOL     OW11893   0.099   4.167   1.950  0.2504  0.7024  0.2660
 3665SOL    HW111894   0.033   4.207   2.013  0.1190  0.5887  0.2012
 3665SOL    HW211895   0.156   4.100   1.998 -1.9510 -1.8197 -0.3730
 3666SOL     OW11896   5.145   2.897   4.041 -0.0926 -0.1407 -0.0985
 3666SOL    HW111897   5.073   2.832   4.063 -1.3812  1.5233  0.8086
 3666SOL    HW211898   5.124   2.941   3.954  0.0814  0.0038 -0.0669
 3667SOL     OW11899   1.254   1.914   5.411 -0.0227 -0.1858 -0.3586
 3667SOL    HW111900   1.247   1.849   5.336  0.2643 -0.3789 -0.2184
 3667SOL    HW211901   1.334   1.892   5.468 -0.5143 -0.3438  0.2913
 3668SOL     OW11902   3.565   6.080   4.461 -0.6448  0.1656  0.4861
 3668SOL    HW111903   3.494   6.009   4.457 -1.3841  0.9352 -1.1818
 3668SOL    HW211904   3.522   6.169   4.475 -0.0531  0.6530 -0.6390
 3669SOL     OW11905   1.727   4.211   2.208  0.4193 -0.4271 -0.1344
 3669SOL    HW111906   1.794   4.210   2.283  0.3171  2.8173  0.1577
 3669SOL    HW211907   1.714   4.305   2.177 -4.3955 -0.7652  0.1596
 3670SOL     OW11908   2.636   4.902   5.000  0.3346  0.2561 -0.1468
 3670SOL    HW111909   2.638   4.811   5.043 -0.4067 -0.7755 -2.1842
 3670SOL    HW211910   2.688   4.900   4.914 -1.7530  1.0472 -1.4951
 3671SOL     OW11911   5.119   3.946   3.360  0.1881  0.0753 -0.1027
 3671SOL    HW111912   5.030   3.929   3.318  0.9749 -0.7862 -1.4849
 3671SOL    HW211913   5.106   3.993   3.448 -1.7917 -2.2004  0.9383
 3672SOL     OW11914   4.853   1.042   0.654 -0.6402 -0.0783  0.4315
 3672SOL    HW111915   4.951   1.023   0.655 -0.4541  0.6682 -0.9216
 3672SOL    HW211916   4.810   0.993   0.579 -1.0346  0.7353  0.1095
 3673SOL     OW11917   3.593   6.793   5.319  0.4141 -0.0131  0.4192
 3673SOL    HW111918   3.569   6.810   5.415  0.1829  1.9810  0.0420
 3673SOL    HW211919   3.693   6.790   5.311  0.4923 -3.0808  1.1245
 3674SOL     OW11920   5.839   6.224   2.512  0.3810 -0.6837 -0.0274
 3674SOL    HW111921   5.796   6.237   2.601  1.6884  2.2082  0.3243
 3674SOL    HW211922   5.871   6.313   2.477  1.4744 -1.9597 -2.5820
 3675SOL     OW11923   3.961   6.305   6.740  0.1247 -0.1243  0.4137
 3675SOL    HW111924   4.006   6.235   6.795  0.7955 -0.1466 -0.1400
 3675SOL    HW211925   4.025   6.381   6.724  0.0089 -0.2006 -0.4742
 3676SOL     OW11926   6.479   1.400   4.261 -0.5006  0.3681  0.1386
 3676SOL    HW111927   6.520   1.490   4.275 -1.3673  0.6425  1.0045
 3676SOL    HW211928   6.546   1.330   4.284 -0.1587  0.7997  0.4920
 3677SOL     OW11929   1.099   6.507   4.544 -0.0586  0.1100  0.9907
 3677SOL    HW111930   1.064   6.524   4.636 -0.7759  0.8189  0.5932
 3677SOL    HW211931   1.032   6.537   4.476  0.7379  0.1969  0.2265
 3678SOL     OW11932   6.683   6.576   2.437 -0.1278  0.5204 -0.1059
 3678SOL    HW111933   6.754   6.545   2.499 -0.8008 -0.5891  0.1382
 3678SOL    HW211934   6.680   6.676   2.437  0.5687  0.5548  0.8422
 3679SOL     OW11935   1.486   3.696   1.785 -0.3406 -0.1516  0.4460
 3679SOL    HW111936   1.505   3.685   1.687 -1.7402  0.9632  0.0004
 3679SOL    HW211937   1.516   3.615   1.835 -1.8633 -1.8604 -1.2601
 3680SOL     OW11938   4.327   4.302   1.114  0.2717  0.4375 -0.1871
 3680SOL    HW111939   4.264   4.278   1.040  0.5236  0.6412 -0.4738
 3680SOL    HW211940   4.276   4.345   1.189  0.0237  0.2932 -0.2729
 3681SOL     OW11941   0.370   2.229   4.828  0.3498  0.5397  0.2821
 3681SOL    HW111942   0.298   2.244   4.760  1.7460 -0.0761 -1.4025
 3681SOL    HW211943   0.363   2.299   4.899 -1.0556  1.3345 -0.5884
 3682SOL     OW11944   5.291   0.342   4.516 -0.0763  0.0304  0.6544
 3682SOL    HW111945   5.362   0.389   4.465 -0.3565 -0.7789 -0.5086
 3682SOL    HW211946   5.257   0.402   4.588 -0.3869  1.5940 -0.7369
 3683SOL     OW11947   6.639   0.906   2.449 -0.2977  0.0171 -0.4939
 3683SOL    HW111948   6.564   0.971   2.462 -0.8354 -0.5029 -0.9157
 3683SOL    HW211949   6.637   0.839   2.523  0.2508  0.4710 -0.0639
 3684SOL     OW11950   3.843   1.073   1.868 -0.3513  0.0626  0.2398
 3684SOL    HW111951   3.938   1.041   1.863 -0.0010  1.0770  0.0156
 3684SOL    HW211952   3.789   1.010   1.924  0.2994 -0.8788 -0.1748
 3685SOL     OW11953   0.218   2.425   1.411  0.3463 -0.1524  0.3792
 3685SOL    HW111954   0.258   2.497   1.355  0.4250 -0.9657 -0.6372
 3685SOL    HW211955   0.205   2.459   1.504  0.5049  1.1204 -0.0430
 3686SOL     OW11956   5.287   6.318   6.822 -0.2951 -0.0678  0.1019
 3686SOL    HW111957   5.358   6.328   6.891 -1.2448  0.6417  1.0164
 3686SOL    HW211958   5.235   6.234   6.840 -1.2730  0.6926  0.9916
 3687SOL     OW11959   4.094   3.569   5.084  0.0954 -0.0342  0.4125
 3687SOL    HW111960   3.998   3.544   5.071  0.0601  0.4027 -0.2487
 3687SOL    HW211961   4.147   3.488   5.106 -0.4015 -0.3046  0.6232
 3688SOL     OW11962   4.957   5.986   3.360  0.1379  0.3480 -0.2000
 3688SOL    HW111963   4.942   5.962   3.456  2.2223  1.1111  0.3700
 3688SOL    HW211964   4.902   5.927   3.302 -3.3180  1.6103  1.4988
 3689SOL     OW11965   6.264   3.716   3.248 -0.3794  0.4873  0.1330
 3689SOL    HW111966   6.200   3.663   3.193 -1.1438 -0.1124  1.5617
 3689SOL    HW211967   6.224   3.806   3.268 -0.0709  0.7334 -0.3558
 3690SOL     OW11968   6.497   1.365   0.423  0.3468  0.2820 -0.0061
 3690SOL    HW111969   6.449   1.368   0.336 -0.8457  0.8208  0.6464
 3690SOL    HW211970   6.572   1.299   0.418  0.9119  1.0238 -1.7293
 3691SOL     OW11971   6.347   1.350   0.639  0.1510  0.1062 -0.7567
 3691SOL    HW111972   6.397   1.357   0.553 -0.8942 -3.5353 -1.8217
 3691SOL    HW211973   6.253   1.323   0.620 -0.2098 -0.3942  1.5308
 3692SOL     OW11974   6.037   0.111   3.300 -0.2095  0.4357  0.3618
 3692SOL    HW111975   5.991   0.043   3.356 -1.2652 -0.2516 -1.2858
 3692SOL    HW211976   6.095   0.065   3.232 -1.4877  1.0855 -1.2415
 3693SOL     OW11977   0.973   4.314   3.618  0.0999  0.2653  0.3190
 3693SOL    HW111978   0.891   4.302   3.675  0.6576  2.1446  1.6297
 3693SOL    HW211979   0.947   4.357   3.532 -0.2435  1.7161  1.1054
 3694SOL     OW11980   5.587   2.882   3.073  0.0652  0.0466 -0.7284
 3694SOL    HW111981   5.577   2.927   3.162 -0.5492  1.2194 -1.3576
 3694SOL    HW211982   5.518   2.811   3.063  0.5952 -0.5822  0.0082
 3695SOL     OW11983   2.322   4.005   1.328  0.0501  0.7036  0.4871
 3695SOL    HW111984   2.271   3.987   1.412  0.0569  1.4431  0.6563
 3695SOL    HW211985   2.299   3.936   1.260 -2.0814  1.6661  0.1567
 3696SOL     OW11986   3.151   2.120   4.813  0.2358  0.0372  0.2984
 3696SOL    HW111987   3.142   2.021   4.823 -0.7399  0.2138  1.4034
 3696SOL    HW211988   3.113   2.165   4.894  1.3812  1.3000  0.1767
 3697SOL     OW11989   3.193   2.851   5.920  0.0218 -0.1095 -0.5021
 3697SOL    HW111990   3.170   2.893   5.831  0.3732  1.8505  0.2870
 3697SOL    HW211991   3.236   2.919   5.979  0.5518 -1.6073  0.9060
 3698SOL     OW11992   5.880   5.147   1.569  0.5311 -0.2339  0.5962
 3698SOL    HW111993   5.885   5.047   1.581  1.5883  0.0657  3.7955
 3698SOL    HW211994   5.785   5.177   1.578  0.3649 -0.8525  0.9693
 3699SOL     OW11995   1.449   5.329   4.835  0.0808 -0.0669  0.1257
 3699SOL    HW111996   1.411   5.396   4.771 -0.8616 -0.2080  0.5313
 3699SOL    HW211997   1.542   5.356   4.859  0.1760  0.3968 -0.7125
 3700SOL     OW11998   0.419   3.107   3.160  0.4896  0.0353 -0.3466
 3700SOL    HW111999   0.428   3.067   3.069  0.9635 -2.2201  0.6309
 3700SOL    HW212000   0.324   3.134   3.175  0.1502 -0.7111 -1.0843
 3701SOL     OW12001   4.328   3.745   5.393 -0.5492  0.0545 -0.0342
 3701SOL    HW112002   4.393   3.680   5.354 -0.6602 -0.4072  0.5320
 3701SOL    HW212003   4.371   3.835   5.401 -0.3944  0.0579 -0.8285
 3702SOL     OW12004   6.729   0.988   0.298 -0.0331  0.1596  0.0490
 3702SOL    HW112005   6.713   1.041   0.381  1.6180 -0.9873  1.1627
 3702SOL    HW212006   6.705   1.043   0.218  1.3481  2.5165  1.1475
 3703SOL     OW12007   4.366   5.050   2.504  0.0404  0.3122 -0.1054
 3703SOL    HW112008   4.324   5.050   2.413  0.6239  1.1599 -0.3829
 3703SOL    HW212009   4.462   5.079   2.496  0.5344 -1.0494  0.5875
 3704SOL     OW12010   1.210   6.791   0.377 -0.5089 -0.1246 -0.1677
 3704SOL    HW112011   1.307   6.775   0.358 -0.2727  2.7254 -1.8972
 3704SOL    HW212012   1.199   6.829   0.468 -0.5162 -3.8914  1.5916
 3705SOL     OW12013   5.629   2.236   5.394 -0.2765  0.1173  0.0585
 3705SOL    HW112014   5.618   2.153   5.338 -0.7482  0.9220 -1.0950
 3705SOL    HW212015   5.718   2.234   5.439  0.5149 -0.1745 -1.4326
 3706SOL     OW12016   6.918   5.158   1.153  0.2479  0.1520  0.5151
 3706SOL    HW112017   7.003   5.138   1.104  0.8048 -1.7750  2.1239
 3706SOL    HW212018   6.856   5.080   1.146 -0.3896  0.5651  1.3534
 3707SOL     OW12019   5.429   0.842   0.232  0.5778 -0.0494 -0.7925
 3707SOL    HW112020   5.399   0.937   0.235 -1.1489 -0.6026  1.1995
 3707SOL    HW212021   5.529   0.839   0.240  0.8013  1.6096 -2.2997
 3708SOL     OW12022   4.600   3.922   6.311  0.3555  0.0806 -0.7391
 3708SOL    HW112023   4.529   3.929   6.241  0.4977  1.1266 -0.7955
 3708SOL    HW212024   4.657   4.004   6.309 -0.9688  1.2026  2.0376
 3709SOL     OW12025   5.673   1.667   5.791  0.3212 -0.3405 -0.1358
 3709SOL    HW112026   5.697   1.761   5.769  1.9653 -0.7260 -0.0741
 3709SOL    HW212027   5.743   1.627   5.850  0.9990 -2.3964 -2.2055
 3710SOL     OW12028   2.051   4.381   0.295 -0.4970 -0.1663  0.1185
 3710SOL    HW112029   1.961   4.352   0.329 -0.1415  1.0606  2.3093
 3710SOL    HW212030   2.121   4.318   0.331 -0.1654  0.8442  1.2962
 3711SOL     OW12031   5.336   1.959   2.051  0.3290  0.0873  0.2043
 3711SOL    HW112032   5.376   1.873   2.021  0.2534  0.5440 -1.2551
 3711SOL    HW212033   5.261   1.941   2.114  0.5048 -0.8933  0.1362
 3712SOL     OW12034   4.798   2.857   2.179  0.2149 -0.6455 -0.1642
 3712SOL    HW112035   4.842   2.774   2.144  1.2434  0.3056 -1.2212
 3712SOL    HW212036   4.764   2.912   2.102  0.8548  0.6022  0.4019
 3713SOL     OW12037   0.315   5.184   2.608  0.3358  0.2310  0.0667
 3713SOL    HW112038   0.380   5.259   2.604 -1.1602  1.6608  1.2852
 3713SOL    HW212039   0.265   5.177   2.522  0.1616  0.9485  0.1060
 3714SOL     OW12040   1.863   3.317   0.843  0.2377  0.4911 -0.0412
 3714SOL    HW112041   1.830   3.235   0.796  0.3278  1.1974 -1.3889
 3714SOL    HW212042   1.863   3.394   0.779  1.2030  1.2964  0.8955
 3715SOL     OW12043   0.001   1.890   1.901 -0.5967  0.4647  0.0112
 3715SOL    HW112044   0.033   1.947   1.976  0.1958  0.7163 -0.4958
 3715SOL    HW212045   0.057   1.909   1.820 -1.6544  0.4618 -0.7406
 3716SOL     OW12046   5.481   5.781   0.228 -0.2887 -0.6948 -0.3679
 3716SOL    HW112047   5.553   5.712   0.239 -1.8844 -2.1742  1.8184
 3716SOL    HW212048   5.515   5.870   0.258  0.5555 -1.4197  0.9171
 3717SOL     OW12049   5.735   1.906   6.711  0.1335 -0.1041  0.1929
 3717SOL    HW112050   5.738   1.906   6.611  0.3788 -0.4797  0.1979
 3717SOL    HW212051   5.782   1.987   6.746  0.4089 -0.1844  0.0120
 3718SOL     OW12052   1.076   0.586   2.620 -0.1313 -0.4229 -0.0243
 3718SOL    HW112053   0.979   0.590   2.593 -0.1963  0.4455  0.3161
 3718SOL    HW212054   1.086   0.520   2.694 -0.6636  0.3177  0.7233
 3719SOL     OW12055   4.253   0.985   1.678 -0.0412 -0.1039 -0.0202
 3719SOL    HW112056   4.340   0.946   1.709  0.3336  1.5246  1.0557
 3719SOL    HW212057   4.270   1.073   1.635 -1.1937  0.3425  0.4302
 3720SOL     OW12058   6.781   1.302   0.377  0.2389  0.2043  0.3824
 3720SOL    HW112059   6.846   1.252   0.434  0.3309 -0.6574 -0.4687
 3720SOL    HW212060   6.825   1.386   0.343  1.3909 -0.9981 -1.2385
 3721SOL     OW12061   3.631   6.611   4.862 -0.3980 -0.1409 -0.4262
 3721SOL    HW112062   3.641   6.702   4.902 -1.9416 -0.0567 -0.1396
 3721SOL    HW212063   3.556   6.563   4.908  0.3251 -1.5229 -0.6458
 3722SOL     OW12064   4.003   0.638   5.467  0.3063 -0.4286 -0.3392
 3722SOL    HW112065   3.927   0.662   5.407 -0.2286  0.5456  0.6894
 3722SOL    HW212066   4.074   0.708   5.461  0.9853 -1.1594 -1.0334
 3723SOL     OW12067   6.252   0.851   6.366 -0.3672 -0.0280  0.3738
 3723SOL    HW112068   6.258   0.929   6.304  0.6919 -1.1867 -1.0550
 3723SOL    HW212069   6.343   0.811   6.378 -0.8314 -0.8279  1.3816
 3724SOL     OW12070   4.307   5.187   2.743 -0.4210 -0.6430 -0.4873
 3724SOL    HW112071   4.325   5.126   2.666 -3.5900 -1.8319 -0.4332
 3724SOL    HW212072   4.277   5.134   2.822 -0.5208  0.7976  0.4860
 3725SOL     OW12073   5.175   1.924   2.281  0.5875 -0.5824  0.2010
 3725SOL    HW112074   5.099   1.871   2.317  1.6289 -0.7066  2.3836
 3725SOL    HW212075   5.147   2.020   2.270 -0.2895 -0.9046 -0.4666
 3726SOL     OW12076   0.249   3.863   6.082 -0.4761  0.0257 -0.3364
 3726SOL    HW112077   0.252   3.936   6.150 -0.7150  0.9076 -1.2466
 3726SOL    HW212078   0.333   3.809   6.086 -0.5189  0.0326  0.6894
 3727SOL     OW12079   1.153   5.707   5.711 -0.2517 -0.0933  0.5022
 3727SOL    HW112080   1.189   5.614   5.715  0.3543  0.1588  1.0968
 3727SOL    HW212081   1.134   5.740   5.803  0.4957  0.7277  0.3783
 3728SOL     OW12082   5.878   2.145   4.700  0.3185 -0.1082  0.5026
 3728SOL    HW112083   5.798   2.141   4.641 -0.2664 -0.0484  1.2675
 3728SOL    HW212084   5.911   2.239   4.705  0.7823 -0.2270 -0.2578
 3729SOL     OW12085   3.892   7.014   0.391 -0.1853  0.0367 -0.4970
 3729SOL    HW112086   3.875   6.962   0.475  2.0544  0.4318  0.2441
 3729SOL    HW212087   3.985   7.051   0.392 -1.3581  3.3923 -1.3705
 3730SOL     OW12088   4.195   2.096   2.117 -0.4416  0.6153  0.0912
 3730SOL    HW112089   4.267   2.164   2.101 -0.3909  0.0983 -2.1566
 3730SOL    HW212090   4.108   2.131   2.083 -0.2283 -0.7707 -2.0507
 3731SOL     OW12091   1.895   5.700   7.007  0.2876 -0.0689  0.4106
 3731SOL    HW112092   1.905   5.786   6.957  1.3896  0.8166  2.0603
 3731SOL    HW212093   1.986   5.662   7.026 -0.0996 -0.4334  1.6115
 3732SOL     OW12094   1.509   6.653   2.746  0.1549  0.3864 -0.7050
 3732SOL    HW112095   1.477   6.745   2.769 -1.6985  0.0327 -1.6233
 3732SOL    HW212096   1.501   6.594   2.827  2.1061  1.1768  0.1087
 3733SOL     OW12097   1.851   5.324   3.099 -0.2556 -0.9458  0.3156
 3733SOL    HW112098   1.770   5.379   3.082  0.8375  0.2868 -1.1387
 3733SOL    HW212099   1.879   5.278   3.015  1.0568 -0.6278  0.5563
 3734SOL     OW12100   1.619   5.985   0.411 -0.4880 -0.1323 -0.4598
 3734SOL    HW112101   1.711   6.011   0.383  0.0782 -1.5304 -0.0067
 3734SOL    HW212102   1.609   6.000   0.510 -0.0429 -1.8078 -0.1279
 3735SOL     OW12103   3.317   2.901   0.472 -0.0231 -0.4370  0.5464
 3735SOL    HW112104   3.233   2.856   0.440  1.1294 -1.5171 -1.1801
 3735SOL    HW212105   3.346   2.968   0.403 -0.2943  1.0929  1.8780
 3736SOL     OW12106   1.388   6.538   6.919 -0.0105 -0.1564  0.2386
 3736SOL    HW112107   1.360   6.545   7.015  2.6465  0.6045  1.0722
 3736SOL    HW212108   1.488   6.543   6.914 -0.0768 -0.2318 -2.5962
 3737SOL     OW12109   5.316   5.509   0.557 -0.3351 -0.1021 -0.8389
 3737SOL    HW112110   5.389   5.493   0.490  0.7433 -2.0168  0.6721
 3737SOL    HW212111   5.233   5.463   0.528  0.0424 -0.6787 -1.0358
 3738SOL     OW12112   6.179   5.753   4.853  0.6670  0.0180 -0.1763
 3738SOL    HW112113   6.239   5.673   4.860 -0.4362 -0.6895  2.4607
 3738SOL    HW212114   6.176   5.800   4.941  1.5176  3.2403 -1.7203
 3739SOL     OW12115   2.221   5.922   4.671 -0.1919 -0.3436  0.0493
 3739SOL    HW112116   2.152   5.990   4.695 -0.3785 -0.0826 -1.1418
 3739SOL    HW212117   2.304   5.939   4.724 -0.0156  1.2207 -0.6396
 3740SOL     OW12118   1.425   1.076   0.198 -0.7536 -0.1938  0.0528
 3740SOL    HW112119   1.370   1.032   0.128  1.2791 -1.6708 -0.7024
 3740SOL    HW212120   1.402   1.039   0.288  0.6748 -2.7344 -0.5241
 3741SOL     OW12121   6.648   3.781   2.618 -0.0613  0.1262  0.2670
 3741SOL    HW112122   6.678   3.870   2.652  0.5498 -0.0452  0.1808
 3741SOL    HW212123   6.618   3.724   2.695  0.6151  0.0073  0.4460
 3742SOL     OW12124   5.921   2.284   6.166 -0.3641 -0.1258 -0.2098
 3742SOL    HW112125   5.962   2.344   6.234  0.1332 -1.6701  0.8996
 3742SOL    HW212126   5.831   2.319   6.141 -1.1872 -0.2377  2.3198
 3743SOL     OW12127   4.996   6.435   0.508  0.2065  0.3077  0.4919
 3743SOL    HW112128   4.984   6.531   0.480 -0.6463 -0.3652 -1.6901
 3743SOL    HW212129   5.027   6.382   0.429 -0.2037 -1.3711  1.4311
 3744SOL     OW12130   4.852   0.646   2.231  0.4039 -0.2909  0.1737
 3744SOL    HW112131   4.765   0.688   2.256  0.4867 -0.3235  0.5339
 3744SOL    HW212132   4.926   0.713   2.240  0.2805  0.0467 -1.1884
 3745SOL     OW12133   2.266   4.554   5.279  0.1783  0.6314  0.0015
 3745SOL    HW112134   2.251   4.466   5.233  0.9261 -0.0049  0.9388
 3745SOL    HW212135   2.331   4.542   5.354 -0.7520  1.7142  1.0209
 3746SOL     OW12136   0.061   2.989   2.900  1.0554 -0.1387  0.0710
 3746SOL    HW112137  -0.002   2.944   2.837 -0.6108  0.3497  1.3124
 3746SOL    HW212138   0.105   3.066   2.853 -0.9410  0.8720 -0.2555
 3747SOL     OW12139   2.719   3.715   0.064 -0.5148 -0.6195  0.2959
 3747SOL    HW112140   2.655   3.644   0.036 -2.0616  0.7226  0.2882
 3747SOL    HW212141   2.789   3.726  -0.007 -2.7748  0.8200 -1.9016
 3748SOL     OW12142   5.826   2.983   3.853  0.1968 -0.0654  0.0238
 3748SOL    HW112143   5.910   2.934   3.877 -1.1912 -1.8549  1.5534
 3748SOL    HW212144   5.759   2.919   3.815 -1.2767  0.8605  0.9486
 3749SOL     OW12145   4.184   5.177   0.419 -0.3300  0.0336 -0.0643
 3749SOL    HW112146   4.239   5.117   0.477 -0.6702  0.3004  0.5481
 3749SOL    HW212147   4.150   5.254   0.474 -0.4783  0.4062 -0.6742
 3750SOL     OW12148   6.272   0.142   6.937 -0.3502  0.1779 -0.7024
 3750SOL    HW112149   6.226   0.075   6.995  0.2200  1.3068  1.1467
 3750SOL    HW212150   6.320   0.095   6.863  1.0665 -1.6438  1.2345
 3751SOL     OW12151   6.614   2.559   3.302 -0.1562 -0.3339 -0.0069
 3751SOL    HW112152   6.584   2.653   3.285 -0.5175 -0.3861  0.3349
 3751SOL    HW212153   6.681   2.559   3.377 -1.6439 -0.5658  1.3544
 3752SOL     OW12154   1.979   2.986   2.262 -1.0354 -0.1450 -0.7280
 3752SOL    HW112155   2.015   2.935   2.183 -2.2272 -0.9819 -0.7637
 3752SOL    HW212156   1.951   2.921   2.333  1.9710  0.6063  1.3716
 3753SOL     OW12157   3.402   0.341   1.795  0.1181 -0.3633 -0.0873
 3753SOL    HW112158   3.494   0.377   1.806  0.6928 -2.0121  0.9058
 3753SOL    HW212159   3.406   0.242   1.783 -1.4777 -0.3450 -1.1679
 3754SOL     OW12160   4.410   2.512   6.910  0.2679 -0.1026  0.4986
 3754SOL    HW112161   4.503   2.537   6.881  0.2866  0.4396  0.9926
 3754SOL    HW212162   4.364   2.461   6.837  0.1671  1.5690 -0.6641
 3755SOL     OW12163   1.572   4.714   3.244 -0.0139 -0.6588  1.0268
 3755SOL    HW112164   1.551   4.666   3.159  1.3805 -0.0491  0.3108
 3755SOL    HW212165   1.664   4.687   3.276  1.0953  1.9513  0.2515
 3756SOL     OW12166   2.302   5.744   2.673 -0.2204  0.5492  0.5307
 3756SOL    HW112167   2.216   5.770   2.716  0.1955  0.9562  1.1307
 3756SOL    HW212168   2.285   5.670   2.607 -0.4939 -2.0355  3.3132
 3757SOL     OW12169   4.362   5.945   6.239  0.3127  0.4168  0.1317
 3757SOL    HW112170   4.290   5.984   6.181 -1.1461  0.2166  1.7294
 3757SOL    HW212171   4.449   5.991   6.219  0.0785 -0.1528 -2.6963
 3758SOL     OW12172   1.651   5.546   4.052  0.2071 -0.3705 -0.7044
 3758SOL    HW112173   1.740   5.511   4.022  1.1615  1.2350  0.1389
 3758SOL    HW212174   1.661   5.592   4.140 -1.8851 -1.9944  0.4688
 3759SOL     OW12175   4.711   2.490   5.393 -0.0907  0.5768  0.3925
 3759SOL    HW112176   4.683   2.505   5.298  2.3637 -1.1546 -0.6983
 3759SOL    HW212177   4.698   2.394   5.417 -0.0686  0.8607  1.6122
 3760SOL     OW12178   1.945   3.679   1.223 -0.2106  0.1346 -0.4257
 3760SOL    HW112179   1.997   3.626   1.156  1.5967  2.8239 -1.3069
 3760SOL    HW212180   1.973   3.653   1.315 -0.3223 -1.3065 -0.7810
 3761SOL     OW12181   1.453   4.808   3.866 -0.5115 -0.2294 -0.5136
 3761SOL    HW112182   1.368   4.860   3.853  0.8042  1.9161 -0.9122
 3761SOL    HW212183   1.531   4.869   3.858  1.1358 -2.2669 -0.7627
 3762SOL     OW12184   6.574   0.318   6.682  0.4386  0.1965  0.0658
 3762SOL    HW112185   6.663   0.323   6.728  0.3888  2.2624  0.0154
 3762SOL    HW212186   6.579   0.366   6.595 -0.1244 -1.6741 -1.0632
 3763SOL     OW12187   0.015   5.070   2.479 -0.3315 -0.1307 -0.0451
 3763SOL    HW112188   0.015   4.991   2.417  1.3037 -0.8396  0.7841
 3763SOL    HW212189   0.074   5.051   2.558 -2.3871  0.7347  1.7932
 3764SOL     OW12190   5.047   0.747   5.018  0.2352 -0.2250  0.3432
 3764SOL    HW112191   5.132   0.763   5.068 -0.3556  2.4354  0.6686
 3764SOL    HW212192   4.970   0.764   5.079 -0.5066  0.8687 -0.8537
 3765SOL     OW12193   4.207   6.317   2.803  0.2758  0.0706 -1.0188
 3765SOL    HW112194   4.253   6.403   2.782 -1.0806  1.0274 -0.2725
 3765SOL    HW212195   4.175   6.275   2.718 -0.3315  1.0701 -1.3073
 3766SOL     OW12196   4.115   2.846   0.514 -0.2623  0.2900 -0.2736
 3766SOL    HW112197   4.069   2.808   0.434 -0.0312  0.8822 -0.6941
 3766SOL    HW212198   4.175   2.777   0.555  0.5965  0.3549 -1.3682
 3767SOL     OW12199   3.214   4.368   5.566  0.3972 -0.6619 -0.1633
 3767SOL    HW112200   3.227   4.351   5.468  2.4557  0.5685 -0.1730
 3767SOL    HW212201   3.251   4.292   5.618  0.0832 -0.9228 -0.3134
 3768SOL     OW12202   3.911   4.132   4.946  0.0534 -0.3348 -0.7255
 3768SOL    HW112203   3.891   4.207   4.883 -2.4711 -0.1471  0.1638
 3768SOL    HW212204   3.843   4.132   5.019  1.1349 -2.3585  0.3604
 3769SOL     OW12205   0.084   4.269   3.221  0.2019  0.4090 -0.2707
 3769SOL    HW112206   0.139   4.329   3.162 -1.1258  0.8547 -1.1030
 3769SOL    HW212207   0.087   4.302   3.315 -0.5944  1.8999 -0.7303
 3770SOL     OW12208   6.046   1.728   2.231  0.2414 -0.4046  0.7899
 3770SOL    HW112209   6.090   1.730   2.321 -0.8962 -0.5225  1.3587
 3770SOL    HW212210   6.049   1.635   2.194  3.0613  0.0965 -0.5214
 3771SOL     OW12211   1.852   6.427   3.642  0.4891 -0.0158 -0.5390
 3771SOL    HW112212   1.861   6.397   3.737  0.0391 -2.0041 -1.0633
 3771SOL    HW212213   1.755   6.430   3.617  0.6308 -0.3690 -1.1643
 3772SOL     OW12214   1.117   0.967   0.366  0.4161 -0.1574  0.0316
 3772SOL    HW112215   1.048   0.938   0.433 -0.1904  1.0939 -0.0196
 3772SOL    HW212216   1.202   0.989   0.412  0.0754  0.4589  0.3779
 3773SOL     OW12217   0.318   3.390   6.348 -0.2597  0.3179  0.3815
 3773SOL    HW112218   0.398   3.388   6.406  0.5288 -0.3604 -0.6879
 3773SOL    HW212219   0.315   3.307   6.292 -2.2073 -0.1180  1.0484
 3774SOL     OW12220   5.639   6.006   6.161 -0.2676 -0.3210  0.3807
 3774SOL    HW112221   5.560   5.946   6.177 -1.3313  0.6689 -0.9591
 3774SOL    HW212222   5.624   6.061   6.079  1.6632  0.1903  0.3148
 3775SOL     OW12223   1.582   4.726   5.953  0.2216 -0.0195  0.0040
 3775SOL    HW112224   1.676   4.700   5.933 -0.0481 -0.9665 -0.0947
 3775SOL    HW212225   1.522   4.647   5.938 -0.7620  0.9328 -1.2233
 3776SOL     OW12226   2.404   5.745   5.847 -0.0809  0.4512  0.0235
 3776SOL    HW112227   2.416   5.843   5.832  0.3963  0.2530 -1.0665
 3776SOL    HW212228   2.340   5.729   5.921 -0.0059  1.5879  0.3468
 3777SOL     OW12229   4.432   4.182   6.894  0.1931  0.2356 -0.3727
 3777SOL    HW112230   4.425   4.195   6.795  3.1014  2.7695 -0.3991
 3777SOL    HW212231   4.440   4.271   6.939 -0.3960 -0.8749  2.1286
 3778SOL     OW12232   1.891   5.251   6.615 -0.7456  0.0893 -0.3812
 3778SOL    HW112233   1.845   5.261   6.526 -2.7516  0.4982  0.6339
 3778SOL    HW212234   1.889   5.338   6.664  0.2585 -0.1533  0.1166
 3779SOL     OW12235   5.230   0.803   2.047  0.5231 -0.2217  0.0692
 3779SOL    HW112236   5.322   0.777   2.077  0.2202 -1.3136  0.0787
 3779SOL    HW212237   5.237   0.878   1.981  1.3463  0.4342  0.8654
 3780SOL     OW12238   0.925   0.338   3.678  0.1754 -0.5813 -0.1775
 3780SOL    HW112239   0.932   0.394   3.595  3.8453 -0.9876 -0.2740
 3780SOL    HW212240   1.007   0.350   3.734 -1.3913 -1.7155  2.5764
 3781SOL     OW12241   6.120   0.742   6.823 -0.1028  0.1343 -0.1813
 3781SOL    HW112242   6.148   0.805   6.895  0.0176 -1.1279  0.9298
 3781SOL    HW212243   6.202   0.706   6.778 -0.1940  1.4308 -1.4493
 3782SOL     OW12244   3.196   6.956   5.372  0.1001 -0.3926 -0.1324
 3782SOL    HW112245   3.229   6.893   5.302 -1.2237  0.1597 -1.2757
 3782SOL    HW212246   3.096   6.953   5.376 -0.1189  2.5988 -1.1964
 3783SOL     OW12247   4.869   1.854   2.300 -0.7505  0.7829 -0.5144
 3783SOL    HW112248   4.900   1.890   2.388  0.7370 -0.0450 -0.6629
 3783SOL    HW212249   4.794   1.790   2.315  0.2866 -0.2758  0.2891
 3784SOL     OW12250   3.167   0.444   1.861  0.4164 -0.2068  0.1653
 3784SOL    HW112251   3.098   0.403   1.802 -0.5756  1.6933 -0.0520
 3784SOL    HW212252   3.257   0.408   1.836 -0.1863 -0.7863 -1.2772
 3785SOL     OW12253   4.901   3.168   1.158 -0.3730  0.2127 -0.3857
 3785SOL    HW112254   4.911   3.079   1.202  1.0626  1.1477  1.3131
 3785SOL    HW212255   4.892   3.239   1.228 -1.5288  1.4373 -1.6915
 3786SOL     OW12256   0.416   2.031   0.623  0.2205 -0.1027  0.4954
 3786SOL    HW112257   0.489   1.978   0.579  1.1682  1.5734 -0.0220
 3786SOL    HW212258   0.329   1.985   0.610  0.6117 -0.2079 -2.2567
 3787SOL     OW12259   1.800   5.178   4.579  0.0394 -0.3357  0.3363
 3787SOL    HW112260   1.783   5.080   4.563 -1.2429  0.1103 -1.2796
 3787SOL    HW212261   1.848   5.189   4.666 -0.1137 -2.3703  0.7380
 3788SOL     OW12262   6.968   3.375   1.417  0.4523  0.2333  0.7126
 3788SOL    HW112263   6.963   3.474   1.421 -0.0361  0.4267 -2.2996
 3788SOL    HW212264   6.877   3.336   1.426  0.4932  0.1408  0.7244
 3789SOL     OW12265   6.931   0.218   4.023  0.1896 -0.3456 -0.1066
 3789SOL    HW112266   6.978   0.135   4.052  0.6103 -0.8191 -1.9953
 3789SOL    HW212267   6.841   0.194   3.985 -1.1975  0.4456  2.4382
 3790SOL     OW12268   1.329   2.013   4.917 -0.5363  0.2962 -0.6144
 3790SOL    HW112269   1.256   1.986   4.855  0.1897 -1.8803 -0.5840
 3790SOL    HW212270   1.293   2.075   4.986 -2.1220  0.0281 -1.1697
 3791SOL     OW12271   5.511   6.219   1.353 -0.1314 -0.4055  0.0376
 3791SOL    HW112272   5.550   6.243   1.264  2.6623  2.3393  1.8113
 3791SOL    HW212273   5.531   6.123   1.374  2.4584 -0.1071 -0.7776
 3792SOL     OW12274   6.104   2.138   6.972  0.2997  0.2188 -0.1392
 3792SOL    HW112275   6.125   2.040   6.971  0.1991  0.1898  0.3244
 3792SOL    HW212276   6.036   2.157   7.042 -0.1689  0.5299 -0.6734
 3793SOL     OW12277   5.542   7.007   2.445  0.4654  0.2971 -0.3413
 3793SOL    HW112278   5.541   6.923   2.392 -2.6872 -1.1818  1.7326
 3793SOL    HW212279   5.515   7.084   2.387  0.3637 -0.6460 -1.5782
 3794SOL     OW12280   2.763   6.727   4.414  0.9242 -0.1760 -0.3332
 3794SOL    HW112281   2.809   6.681   4.490 -0.3112  2.7006  2.3803
 3794SOL    HW212282   2.817   6.806   4.384  0.4228 -0.0840 -1.0185
 3795SOL     OW12283   5.736   2.091   6.996 -0.1643  0.1736  0.5726
 3795SOL    HW112284   5.747   2.051   7.087 -1.4654 -1.2085  0.1712
 3795SOL    HW212285   5.639   2.092   6.972  0.2205 -0.2120 -1.1188
 3796SOL     OW12286   5.603   0.203   4.279  0.1296  0.5551 -0.5364
 3796SOL    HW112287   5.699   0.178   4.292  0.0042 -0.4776 -1.5351
 3796SOL    HW212288   5.547   0.121   4.280 -0.6697  1.0901 -0.7052
 3797SOL     OW12289   5.770   2.514   0.369  0.3614 -0.2247 -0.1120
 3797SOL    HW112290   5.737   2.420   0.359  0.2597 -0.2564  0.4734
 3797SOL    HW212291   5.869   2.513   0.384  0.3915 -0.2233 -0.3032
 3798SOL     OW12292   6.079   1.841   3.623  0.2288  0.0973  0.2538
 3798SOL    HW112293   6.097   1.776   3.697  1.2886  0.5447  0.4094
 3798SOL    HW212294   6.131   1.814   3.542 -2.5253 -1.6269 -1.1107
 3799SOL     OW12295   6.205   1.169   6.295  0.6179 -1.2391 -0.7268
 3799SOL    HW112296   6.266   1.201   6.223 -0.1648  2.2037 -0.0785
 3799SOL    HW212297   6.255   1.165   6.382  0.4182 -0.2319 -0.5456
 3800SOL     OW12298   4.624   4.040   1.705  0.6833 -0.5348  0.0980
 3800SOL    HW112299   4.562   4.108   1.743  0.0764 -1.0292  0.0119
 3800SOL    HW212300   4.696   4.086   1.652  1.0332  0.1039  1.0945
 3801SOL     OW12301   1.386   3.437   6.408 -0.0847  0.2932 -0.3208
 3801SOL    HW112302   1.433   3.372   6.468  1.4817  0.1880 -1.5994
 3801SOL    HW212303   1.332   3.388   6.340  0.9999  0.3007 -1.2094
 3802SOL     OW12304   1.866   2.946   5.587  0.4456  0.0821 -0.6188
 3802SOL    HW112305   1.935   2.907   5.647 -0.1820 -0.5114 -0.2584
 3802SOL    HW212306   1.843   2.880   5.515  0.0932  0.1703 -0.5925
 3803SOL     OW12307   0.625   3.603   2.324  0.1939  0.1739  0.1091
 3803SOL    HW112308   0.613   3.527   2.260 -0.8699  0.4875 -0.0822
 3803SOL    HW212309   0.691   3.668   2.287  0.3546 -0.1563 -0.1894
 3804SOL     OW12310   3.967   0.163   5.371  0.5214 -0.0313 -0.1496
 3804SOL    HW112311   3.929   0.212   5.293  1.3926 -1.3613 -1.4535
 3804SOL    HW212312   3.901   0.094   5.402  0.0235  0.7431  0.5532
 3805SOL     OW12313   1.259   5.872   5.177 -0.7877  0.3319 -0.0597
 3805SOL    HW112314   1.274   5.880   5.275 -0.0957 -0.8181 -0.0625
 3805SOL    HW212315   1.323   5.932   5.129  0.1793 -0.5127  0.1376
 3806SOL     OW12316   5.935   0.926   3.812 -0.4008 -0.9066  0.0050
 3806SOL    HW112317   6.017   0.912   3.757 -0.2970 -1.6437  0.3426
 3806SOL    HW212318   5.866   0.859   3.786 -0.5746 -0.8587  0.3409
 3807SOL     OW12319   0.266   0.822   2.866  0.4739 -0.1529 -0.0104
 3807SOL    HW112320   0.261   0.726   2.894 -1.2334 -0.6521 -1.7669
 3807SOL    HW212321   0.205   0.837   2.788  0.4896  2.4345  0.3832
 3808SOL     OW12322   3.192   5.020   4.107  0.0941 -0.2263  0.2728
 3808SOL    HW112323   3.116   5.085   4.110  0.2050 -0.0832  0.0443
 3808SOL    HW212324   3.259   5.044   4.177  0.6639  0.5777 -0.5158
 3809SOL     OW12325   1.737   4.118   6.590 -0.1614  0.4542  0.1891
 3809SOL    HW112326   1.649   4.161   6.570  0.0212  0.6558 -0.1852
 3809SOL    HW212327   1.788   4.176   6.654 -1.8150 -1.4032  3.4722
 3810SOL     OW12328   3.135   5.783   6.665  0.5253 -0.1586 -0.0392
 3810SOL    HW112329   3.212   5.721   6.680  0.8741  0.3164  0.1615
 3810SOL    HW212330   3.124   5.798   6.566  0.5960 -0.3438 -0.0761
 3811SOL     OW12331   4.636   5.266   4.049  0.7367  0.0360 -0.1723
 3811SOL    HW112332   4.718   5.321   4.037  0.9293 -0.0626  0.6111
 3811SOL    HW212333   4.652   5.174   4.011  1.1275 -0.0995  0.3039
 3812SOL     OW12334   2.869   6.414   6.769  0.5326 -0.2597 -0.2203
 3812SOL    HW112335   2.924   6.332   6.755 -1.1702 -1.5244  0.0678
 3812SOL    HW212336   2.819   6.406   6.856 -2.6798 -0.8323 -1.9410
 3813SOL     OW12337   1.078   1.214   4.018 -0.6911  0.5270 -0.4846
 3813SOL    HW112338   1.071   1.201   4.117 -1.5831 -0.4136 -0.6555
 3813SOL    HW212339   0.990   1.243   3.981 -0.8932 -0.9163 -1.2272
 3814SOL     OW12340   6.561   0.104   1.929  0.1252  0.2878 -0.0667
 3814SOL    HW112341   6.482   0.162   1.947  0.9015  2.6094 -3.2352
 3814SOL    HW212342   6.600   0.072   2.016 -0.4310  4.4706  1.9637
 3815SOL     OW12343   2.970   4.001   0.815  0.0802  1.1231  0.2212
 3815SOL    HW112344   2.876   4.034   0.805 -0.7419 -1.2279 -0.3743
 3815SOL    HW212345   2.973   3.931   0.887  0.9191 -0.3230 -1.1741
 3816SOL     OW12346   1.690   5.463   5.434 -0.0264  0.4460  0.5590
 3816SOL    HW112347   1.612   5.478   5.374 -0.4834  0.5845  1.1705
 3816SOL    HW212348   1.764   5.525   5.409  1.3792 -2.2148 -2.4893
 3817SOL     OW12349   5.593   0.795   4.451  0.2612  0.1015  0.4143
 3817SOL    HW112350   5.614   0.798   4.548  0.9036  0.1626  0.2731
 3817SOL    HW212351   5.671   0.760   4.400  0.0427  0.3705 -0.1171
 3818SOL     OW12352   3.226   2.226   6.904 -0.5631  0.1927 -0.1232
 3818SOL    HW112353   3.315   2.180   6.908 -0.8292 -0.3035  0.0799
 3818SOL    HW212354   3.157   2.171   6.951 -1.3617 -0.2958 -1.7918
 3819SOL     OW12355   1.370   2.430   0.802 -0.1220  0.3009 -0.0173
 3819SOL    HW112356   1.321   2.500   0.855  1.8537  2.0474 -0.3663
 3819SOL    HW212357   1.464   2.422   0.836 -0.0456 -1.5922 -0.5696
 3820SOL     OW12358   5.546   3.932   4.777 -0.1482 -0.4098  0.5567
 3820SOL    HW112359   5.514   3.943   4.871  0.3022 -1.3243  0.8262
 3820SOL    HW212360   5.471   3.900   4.719 -0.6994  1.1446  0.3735
 3821SOL     OW12361   2.629   2.572   6.525 -0.0807  0.0557 -0.4844
 3821SOL    HW112362   2.700   2.506   6.503 -1.2039 -0.7454 -1.9187
 3821SOL    HW212363   2.632   2.595   6.622  2.7049  0.7845 -0.6700
 3822SOL     OW12364   6.504   0.532   1.784 -0.1298  0.2385  0.2114
 3822SOL    HW112365   6.482   0.629   1.774  2.1622  0.7377 -0.6550
 3822SOL    HW212366   6.477   0.482   1.702  0.0141  0.4300  0.0470
 3823SOL     OW12367   2.881   4.672   0.836 -0.2425  0.1624 -0.6451
 3823SOL    HW112368   2.947   4.741   0.808 -1.9317  0.9629 -2.9818
 3823SOL    HW212369   2.851   4.620   0.755 -0.8042 -1.7086  0.6940
 3824SOL     OW12370   6.455   4.793   6.216 -0.1771 -0.7757 -0.3080
 3824SOL    HW112371   6.445   4.864   6.285 -0.2205 -0.2636 -0.8343
 3824SOL    HW212372   6.367   4.747   6.202 -0.7598  0.6703 -1.6641
 3825SOL     OW12373   3.254   1.715   5.962  0.0945 -0.1898  0.5286
 3825SOL    HW112374   3.178   1.780   5.961  0.8206  0.6758  0.8339
 3825SOL    HW212375   3.313   1.732   5.883  0.2789 -0.4945  0.6021
 3826SOL     OW12376   0.159   6.280   5.229 -0.7786  0.7579 -0.2722
 3826SOL    HW112377   0.229   6.307   5.294  0.0240  0.4695 -0.9957
 3826SOL    HW212378   0.197   6.282   5.136 -1.5658  0.0672 -0.6246
 3827SOL     OW12379   0.882   2.750   5.177 -0.1609 -0.2161  1.0327
 3827SOL    HW112380   0.878   2.830   5.237  0.1053 -0.0882  0.8783
 3827SOL    HW212381   0.934   2.678   5.223 -1.0010 -0.5549  1.4696
 3828SOL     OW12382   1.550   1.996   2.149 -0.7211  0.1482 -0.4865
 3828SOL    HW112383   1.570   1.898   2.148 -0.1470  0.2606 -0.1413
 3828SOL    HW212384   1.483   2.016   2.221  0.3211  0.2301  0.4773
 3829SOL     OW12385   3.863   0.611   0.098  1.0041 -0.0053  0.0042
 3829SOL    HW112386   3.801   0.687   0.116 -3.3270 -2.9283 -1.1675
 3829SOL    HW212387   3.888   0.568   0.184 -0.7345 -0.2330  0.4333
 3830SOL     OW12388   1.221   1.180   3.212 -0.5475 -0.0722  0.2803
 3830SOL    HW112389   1.296   1.171   3.147 -1.9367  0.6919 -1.5174
 3830SOL    HW212390   1.236   1.259   3.271 -0.5031  0.7891 -0.8637
 3831SOL     OW12391   1.927   6.198   0.915 -0.1824 -0.1871  0.6316
 3831SOL    HW112392   1.880   6.280   0.883  0.5007  0.1917  0.5731
 3831SOL    HW212393   1.893   6.173   1.006  1.1720  1.4876  1.6519
 3832SOL     OW12394   2.672   6.501   6.616 -0.3510 -0.3884  0.4731
 3832SOL    HW112395   2.737   6.459   6.679 -1.8941 -0.6193  1.9611
 3832SOL    HW212396   2.703   6.593   6.593 -0.0779 -0.0348  2.1244
 3833SOL     OW12397   4.943   6.805   2.119 -0.4937  0.0828 -0.0343
 3833SOL    HW112398   4.917   6.855   2.036 -1.3693 -2.7343 -1.5731
 3833SOL    HW212399   5.028   6.754   2.103 -0.5057 -0.2529  0.9085
 3834SOL     OW12400   2.260   0.354   3.279 -0.1542  0.1474  0.2771
 3834SOL    HW112401   2.236   0.443   3.241  0.6889 -0.0687 -0.8155
 3834SOL    HW212402   2.266   0.287   3.205  1.6903 -0.2520  0.7523
 3835SOL     OW12403   6.185   1.772   6.870  0.6256  0.1450 -0.5263
 3835SOL    HW112404   6.156   1.775   6.774  0.4179  1.3295 -0.4446
 3835SOL    HW212405   6.258   1.839   6.884  0.0946  0.5597  0.3157
 3836SOL     OW12406   4.828   1.960   5.953  0.0616  0.3870  0.3474
 3836SOL    HW112407   4.740   2.007   5.960 -0.2588 -0.2818  1.1374
 3836SOL    HW212408   4.899   2.024   5.925 -0.4245  1.2563  1.0556
 3837SOL     OW12409   0.319   1.864   4.069 -0.0712 -0.4097 -0.0524
 3837SOL    HW112410   0.298   1.942   4.128  0.7584  0.0536 -0.3614
 3837SOL    HW212411   0.397   1.886   4.010 -1.1556 -0.6860 -1.6558
 3838SOL     OW12412   6.885   0.839   5.960 -0.5715  0.4562  0.4159
 3838SOL    HW112413   6.811   0.889   5.915 -1.0382  1.1653  1.9343
 3838SOL    HW212414   6.913   0.762   5.901 -1.3625  1.1512 -0.9300
 3839SOL     OW12415   3.901   4.582   1.032 -0.1382 -0.4253 -0.6944
 3839SOL    HW112416   3.856   4.649   1.092  1.3566  0.3522 -0.3998
 3839SOL    HW212417   4.000   4.589   1.043  0.1522 -4.7820  1.7225
 3840SOL     OW12418   3.672   6.713   6.555  0.2787 -0.3247  0.2484
 3840SOL    HW112419   3.677   6.619   6.523  0.6733 -0.6294  1.1775
 3840SOL    HW212420   3.627   6.716   6.644  1.5952  0.1723  0.9266
 3841SOL     OW12421   1.374   2.934   6.123 -0.2838 -0.3552 -0.7439
 3841SOL    HW112422   1.335   2.921   6.214 -0.2500  1.4299 -0.4291
 3841SOL    HW212423   1.302   2.961   6.059 -0.0548  0.0204 -0.8487
 3842SOL     OW12424   4.168   4.600   1.048 -0.3138  0.1432 -0.3233
 3842SOL    HW112425   4.184   4.693   1.014  0.2154  0.6531  1.2372
 3842SOL    HW212426   4.254   4.549   1.047  0.3106  0.9624  2.4428
 3843SOL     OW12427   6.246   2.606   1.707 -0.7945  0.3913  0.2020
 3843SOL    HW112428   6.267   2.663   1.627 -1.0836 -1.3157 -1.1535
 3843SOL    HW212429   6.180   2.535   1.681  0.8054 -1.6249  1.3220
 3844SOL     OW12430   4.335   2.808   5.980  0.7190 -0.3619  0.1190
 3844SOL    HW112431   4.269   2.824   5.907 -0.4450 -0.6416  1.0808
 3844SOL    HW212432   4.422   2.781   5.941 -0.4514 -2.6002 -1.1087
 3845SOL     OW12433   2.351   3.990   0.275  0.1791  0.7764 -0.0332
 3845SOL    HW112434   2.432   3.935   0.296 -0.1182 -0.0040 -0.8175
 3845SOL    HW212435   2.377   4.066   0.215 -0.0374 -1.1671 -2.8018
 3846SOL     OW12436   1.717   5.276   6.871 -0.0217  0.5632 -0.7204
 3846SOL    HW112437   1.644   5.236   6.927  0.1958  2.7878  1.3068
 3846SOL    HW212438   1.792   5.305   6.930  1.2649  0.9001 -2.4569
 3847SOL     OW12439   4.231   0.565   4.793 -0.2770 -0.8735 -0.5109
 3847SOL    HW112440   4.263   0.472   4.809 -2.0133 -1.1267  1.9764
 3847SOL    HW212441   4.281   0.629   4.851  0.9450 -0.1705 -2.2399
 3848SOL     OW12442   5.423   1.599   1.601  0.3029  0.0522 -0.2223
 3848SOL    HW112443   5.372   1.537   1.660 -1.0198  0.6637 -0.6823
 3848SOL    HW212444   5.466   1.546   1.527 -0.0480 -0.4290 -0.0921
 3849SOL     OW12445   4.766   0.801   1.799  0.7293  0.3220  0.2654
 3849SOL    HW112446   4.806   0.779   1.710  2.4147  0.8519  0.8546
 3849SOL    HW212447   4.835   0.789   1.870 -0.6427 -0.2770  1.5439
 3850SOL     OW12448   2.884   5.272   6.041 -0.4099  0.5371  0.4474
 3850SOL    HW112449   2.841   5.229   6.121 -1.9351 -0.3850 -0.7960
 3850SOL    HW212450   2.833   5.247   5.959 -0.1233  3.1163 -0.6116
 3851SOL     OW12451   3.249   0.451   3.795  0.1677 -0.2255  0.0541
 3851SOL    HW112452   3.213   0.517   3.729  0.0130 -0.7662 -0.4113
 3851SOL    HW212453   3.175   0.416   3.852  0.2787  0.1343  0.4252
 3852SOL     OW12454   5.650   0.742   3.110  0.2999 -0.1166 -0.2274
 3852SOL    HW112455   5.590   0.726   3.188  0.1960  0.0593 -0.2694
 3852SOL    HW212456   5.599   0.724   3.025  0.7546 -1.4427 -0.2345
 3853SOL     OW12457   1.231   6.225   3.238  0.5500  0.1167 -0.2161
 3853SOL    HW112458   1.277   6.256   3.322  0.4900 -1.2385  0.3324
 3853SOL    HW212459   1.278   6.264   3.158  0.7056  1.2908  0.4284
 3854SOL     OW12460   3.149   0.198   3.012 -0.4529  0.0718 -0.2204
 3854SOL    HW112461   3.163   0.184   2.914 -0.6403  1.3175 -0.4355
 3854SOL    HW212462   3.053   0.219   3.030 -0.7028 -1.4586  0.4087
 3855SOL     OW12463   0.544   5.248   0.413  0.3480  0.1194 -0.4918
 3855SOL    HW112464   0.589   5.297   0.339  1.7435  2.2658  1.6307
 3855SOL    HW212465   0.613   5.219   0.480 -0.9308 -1.0898  0.3602
 3856SOL     OW12466   3.489   5.449   3.368  0.0141 -0.7973  0.0618
 3856SOL    HW112467   3.487   5.455   3.468  0.2201 -0.4763  0.0467
 3856SOL    HW212468   3.450   5.361   3.339  1.3901 -1.5703  0.4935
 3857SOL     OW12469   1.515   4.987   5.873  0.0891 -0.3292  0.5777
 3857SOL    HW112470   1.445   5.040   5.920 -1.6100 -1.5087 -0.5046
 3857SOL    HW212471   1.548   4.914   5.933 -0.6819 -0.6581  0.6086
 3858SOL     OW12472   0.189   4.094   1.103 -0.2937 -0.3024 -0.2750
 3858SOL    HW112473   0.128   4.050   1.169  0.8990  1.6838  2.3321
 3858SOL    HW212474   0.136   4.158   1.047 -1.0044 -0.4568  0.2036
 3859SOL     OW12475   2.640   1.315   2.938 -0.2302  0.0599  0.2352
 3859SOL    HW112476   2.607   1.260   2.862  0.8746 -1.2473  0.6733
 3859SOL    HW212477   2.563   1.335   3.000 -0.8117 -0.2575 -0.3706
 3860SOL     OW12478   1.242   6.539   0.823  0.0912 -0.4060  0.0980
 3860SOL    HW112479   1.144   6.521   0.815  0.2460 -1.0540 -0.4245
 3860SOL    HW212480   1.276   6.499   0.908 -0.0105 -0.5886  0.0539
 3861SOL     OW12481   2.242   0.731   5.683 -0.1344  0.1036 -0.4885
 3861SOL    HW112482   2.157   0.763   5.725  0.4593  0.0928  0.7388
 3861SOL    HW212483   2.273   0.648   5.728  1.0516  0.6563 -0.2552
 3862SOL     OW12484   5.127   3.149   5.826  0.0179  0.6424  0.0722
 3862SOL    HW112485   5.197   3.220   5.817  1.0274 -0.1111  1.5747
 3862SOL    HW212486   5.076   3.162   5.911 -1.4260  0.9371 -0.8070
 3863SOL     OW12487   6.629   1.139   1.104  0.4654 -0.2323  0.7858
 3863SOL    HW112488   6.640   1.218   1.165 -0.0611 -0.4565  1.1838
 3863SOL    HW212489   6.561   1.077   1.143  0.9946 -0.9637  0.5548
 3864SOL     OW12490   3.740   1.285   6.427  0.5042  0.4567 -0.5841
 3864SOL    HW112491   3.835   1.257   6.442  0.5492  1.0423  0.2942
 3864SOL    HW212492   3.679   1.228   6.482  0.3593  0.2354 -0.9689
 3865SOL     OW12493   1.099   5.474   0.134 -0.1346 -0.1021 -0.2457
 3865SOL    HW112494   1.146   5.547   0.183  1.7050 -0.0243 -2.0014
 3865SOL    HW212495   1.045   5.513   0.059  0.2986 -0.4978 -0.7632
 3866SOL     OW12496   4.499   6.797   0.012  0.3880 -0.0533  0.2216
 3866SOL    HW112497   4.509   6.713   0.065 -1.7450 -0.2267  0.4679
 3866SOL    HW212498   4.532   6.781  -0.081  1.5188 -0.6370  0.7048
 3867SOL     OW12499   4.684   6.443   4.292  0.3351  0.2002 -0.1050
 3867SOL    HW112500   4.589   6.463   4.315  0.2107  0.2861 -0.6814
 3867SOL    HW212501   4.741   6.523   4.312 -0.0980  1.0279 -2.0250
 3868SOL     OW12502   1.180   6.565   5.630 -0.8404  0.0413 -0.6060
 3868SOL    HW112503   1.126   6.634   5.581 -1.0833 -0.0956 -0.5326
 3868SOL    HW212504   1.273   6.599   5.644 -1.2779  0.8432  0.4886
 3869SOL     OW12505   3.866   0.387   6.168 -0.0971  0.6441  0.3220
 3869SOL    HW112506   3.808   0.390   6.087 -0.4998  0.9581  0.6172
 3869SOL    HW212507   3.809   0.382   6.250  0.3107  0.0013  0.5732
 3870SOL     OW12508   0.259   6.811   2.485 -0.3153  0.1861  0.0009
 3870SOL    HW112509   0.204   6.843   2.562 -2.1448 -1.8756 -0.3552
 3870SOL    HW212510   0.349   6.783   2.518 -0.2609  1.4299  0.9841
 3871SOL     OW12511   0.204   2.005   6.688  0.2918  0.2168 -0.4287
 3871SOL    HW112512   0.139   2.015   6.764  0.0518  0.9908 -0.7282
 3871SOL    HW212513   0.216   1.908   6.668 -0.0734  0.0254  0.2291
 3872SOL     OW12514   1.465   6.897   5.666 -0.1518  0.0834 -0.4644
 3872SOL    HW112515   1.411   6.979   5.647  2.4438  1.5344 -2.1916
 3872SOL    HW212516   1.529   6.915   5.740  1.0002 -0.0513 -1.3945
 3873SOL     OW12517   4.799   0.801   5.406  0.0690 -0.1693 -0.3127
 3873SOL    HW112518   4.892   0.837   5.398 -0.9764  2.5977 -1.3825
 3873SOL    HW212519   4.779   0.744   5.327  0.4858  0.1668 -0.6702
 3874SOL     OW12520   4.451   2.614   6.511 -0.5961  0.0335 -0.3787
 3874SOL    HW112521   4.437   2.626   6.412 -2.2470  1.7809  0.0019
 3874SOL    HW212522   4.368   2.578   6.553 -0.8386  1.7086  0.6838
 3875SOL     OW12523   1.720   6.038   2.430  0.0557 -0.6097  0.0802
 3875SOL    HW112524   1.625   6.008   2.417 -0.1106 -0.1096  0.0975
 3875SOL    HW212525   1.774   6.012   2.350  0.3750 -2.6355  0.8870
 3876SOL     OW12526   1.336   4.984   6.100  0.2289 -0.3689  0.7864
 3876SOL    HW112527   1.404   4.987   6.174  1.3283 -0.6362 -0.1833
 3876SOL    HW212528   1.289   5.072   6.095  1.9077  0.5566  0.2223
 3877SOL     OW12529   0.947   6.147   3.246 -0.9838  0.4320  0.2754
 3877SOL    HW112530   1.043   6.134   3.218 -0.9618  0.2322  0.4419
 3877SOL    HW212531   0.910   6.227   3.200 -0.5585  0.8522  0.6613
 3878SOL     OW12532   6.177   4.726   4.186 -0.1126  0.5898 -1.1456
 3878SOL    HW112533   6.211   4.784   4.111 -0.1500  2.3874  0.1576
 3878SOL    HW212534   6.095   4.678   4.156 -0.6986  2.0437 -1.9818
 3879SOL     OW12535   0.380   2.126   5.418  0.0566  0.5544 -0.0944
 3879SOL    HW112536   0.456   2.104   5.480 -1.0694 -1.9672  0.5270
 3879SOL    HW212537   0.294   2.096   5.460 -0.8689 -0.1055 -2.3345
 3880SOL     OW12538   0.749   1.267   4.265  0.1907 -0.9515 -0.1856
 3880SOL    HW112539   0.825   1.319   4.226  0.0906 -0.5918  0.0974
 3880SOL    HW212540   0.671   1.329   4.281  0.1330 -1.1502  0.3188
 3881SOL     OW12541   0.195   5.967   4.707 -0.3003 -0.3064  0.0380
 3881SOL    HW112542   0.244   5.909   4.772 -0.4615 -0.2848  0.1791
 3881SOL    HW212543   0.220   6.062   4.722 -1.6187 -0.1116  1.2125
 3882SOL     OW12544   2.260   1.995   1.680 -0.2396 -0.7450 -0.5998
 3882SOL    HW112545   2.187   2.062   1.670  0.1662 -0.2256 -0.2061
 3882SOL    HW212546   2.333   2.035   1.736  1.4300 -0.3485 -2.9040
 3883SOL     OW12547   3.779   1.224   1.659  0.2600  0.2456  0.7233
 3883SOL    HW112548   3.790   1.205   1.756 -0.1004 -0.2543  0.6733
 3883SOL    HW212549   3.862   1.266   1.623  0.0175  1.4203  1.4752
 3884SOL     OW12550   3.392   1.004   4.051  0.3263  0.4067 -0.1076
 3884SOL    HW112551   3.439   0.918   4.028  0.4591  0.0596  1.3411
 3884SOL    HW212552   3.441   1.081   4.010  1.3351 -0.0674  0.1746
 3885SOL     OW12553   6.602   5.689   6.490  0.5267  0.2865 -0.3071
 3885SOL    HW112554   6.569   5.770   6.540  2.5285 -0.1771  1.9509
 3885SOL    HW212555   6.661   5.719   6.416  1.2239  0.9374  0.4818
 3886SOL     OW12556   6.790   0.895   6.217  0.1486  0.1620  0.8108
 3886SOL    HW112557   6.733   0.818   6.245 -0.5405  0.6617  0.8003
 3886SOL    HW212558   6.822   0.881   6.123 -0.7108  0.3076  0.4902
 3887SOL     OW12559   3.099   2.062   5.511 -0.1406  0.4152 -0.2840
 3887SOL    HW112560   3.166   2.033   5.580 -0.4629  0.0831 -0.1079
 3887SOL    HW212561   3.145   2.115   5.440  0.5936 -1.1764 -1.0243
 3888SOL     OW12562   5.298   3.863   1.809  0.4957  0.3908  0.1672
 3888SOL    HW112563   5.208   3.869   1.853  0.5499 -1.5566  0.6441
 3888SOL    HW212564   5.291   3.889   1.713 -0.5684  0.3036  0.2137
 3889SOL     OW12565   0.129   5.289   4.722  0.3858 -0.3583 -0.5864
 3889SOL    HW112566   0.136   5.384   4.690 -0.2989  0.8012  2.3918
 3889SOL    HW212567   0.133   5.287   4.821  0.3171 -3.5071 -0.5543
 3890SOL     OW12568   4.022   4.883   3.939 -0.0358 -0.0810 -0.7751
 3890SOL    HW112569   3.946   4.872   4.004  0.1617  0.5025 -0.4351
 3890SOL    HW212570   4.100   4.829   3.970  0.3929  0.9433  0.0292
 3891SOL     OW12571   6.922   5.953   1.738 -0.0587 -0.0611 -0.2121
 3891SOL    HW112572   6.894   5.923   1.647  0.9018  2.4199 -1.4102
 3891SOL    HW212573   7.001   5.900   1.768  0.6050  0.1243 -1.5447
 3892SOL     OW12574   6.735   1.182   3.534  0.5996  0.6330  0.5550
 3892SOL    HW112575   6.724   1.280   3.514 -1.3271  0.1970 -0.7916
 3892SOL    HW212576   6.793   1.141   3.464 -0.7412  0.3637 -0.4485
 3893SOL     OW12577   1.945   0.100   4.832 -0.2660  0.1774  0.1822
 3893SOL    HW112578   1.957   0.160   4.911 -0.1440 -0.0420  0.3283
 3893SOL    HW212579   1.850   0.106   4.800 -0.3608  0.1339  0.4499
 3894SOL     OW12580   0.264   0.821   0.668 -0.4589 -0.1588  0.5492
 3894SOL    HW112581   0.212   0.784   0.590 -2.2754  0.5924  1.3445
 3894SOL    HW212582   0.362   0.810   0.651 -0.8351 -0.9949 -1.3463
 3895SOL     OW12583   1.455   3.195   1.048 -1.1470 -0.2556  0.4201
 3895SOL    HW112584   1.494   3.171   0.960  0.9396  0.5024  1.0838
 3895SOL    HW212585   1.416   3.113   1.091 -1.4954 -0.7705 -0.8443
 3896SOL     OW12586   4.216   6.739   1.000 -0.1153 -0.1580  0.2729
 3896SOL    HW112587   4.194   6.834   0.978  2.7820  0.2141 -1.5416
 3896SOL    HW212588   4.290   6.737   1.067 -0.4575 -1.1853  0.6400
 3897SOL     OW12589   2.974   4.711   6.365 -0.3696  0.6707  0.1233
 3897SOL    HW112590   2.940   4.739   6.276 -0.0284 -0.3911 -0.3611
 3897SOL    HW212591   2.981   4.611   6.368  1.5437  0.7664  0.5987
 3898SOL     OW12592   3.864   2.907   1.853 -0.7983  0.0080 -0.1282
 3898SOL    HW112593   3.768   2.886   1.836 -0.8111  0.5914 -0.8578
 3898SOL    HW212594   3.911   2.920   1.765 -0.0771 -0.1580  0.2220
 3899SOL     OW12595   0.398   6.006   4.171 -0.5305 -0.3517 -0.3133
 3899SOL    HW112596   0.375   6.074   4.241 -1.2283 -0.8618 -0.0445
 3899SOL    HW212597   0.388   5.914   4.209  3.9743 -0.7258  0.5745
 3900SOL     OW12598   2.040   2.377   2.827  0.4036 -0.0027 -0.6709
 3900SOL    HW112599   2.047   2.436   2.747  0.2206  0.1745 -0.5573
 3900SOL    HW212600   2.101   2.410   2.899  0.0238  0.2744 -0.4691
 3901SOL     OW12601   3.972   4.879   4.274  0.1191 -0.0207  0.0436
 3901SOL    HW112602   4.045   4.810   4.276  0.5336  0.4117  0.0624
 3901SOL    HW212603   3.939   4.896   4.367  1.2315  1.0700  0.2589
 3902SOL     OW12604   3.978   2.019   4.646 -0.2860  0.1184  0.2907
 3902SOL    HW112605   3.924   2.079   4.705 -0.0293  1.5701 -0.8917
 3902SOL    HW212606   3.984   2.058   4.554  0.3300 -1.4818 -0.3970
 3903SOL     OW12607   1.338   4.425   4.049 -0.1601 -0.4439  0.1189
 3903SOL    HW112608   1.273   4.360   4.010  0.0165 -1.3519  1.3026
 3903SOL    HW212609   1.401   4.456   3.978 -0.2971 -1.5095 -0.4808
 3904SOL     OW12610   0.155   5.037   4.073  0.1917  0.0992 -0.1645
 3904SOL    HW112611   0.160   4.966   4.003  1.3690 -2.5809  2.4277
 3904SOL    HW212612   0.246   5.075   4.088 -0.2519  1.4914 -0.7770
 3905SOL     OW12613   3.669   0.726   4.682  0.2208  0.0667 -0.1525
 3905SOL    HW112614   3.752   0.680   4.713  0.5300  0.5479 -0.2609
 3905SOL    HW212615   3.681   0.757   4.587 -0.9349 -1.9565 -1.0301
 3906SOL     OW12616   2.914   1.429   5.969 -0.0690 -0.0163 -0.1322
 3906SOL    HW112617   2.906   1.334   5.939 -1.6999  0.2858 -0.8176
 3906SOL    HW212618   2.844   1.484   5.922  0.0214  1.2803  1.1813
 3907SOL     OW12619   0.027   0.283   6.836  0.1534  0.1585  0.1755
 3907SOL    HW112620   0.126   0.286   6.821 -0.0144 -0.1394 -1.0800
 3907SOL    HW212621  -0.011   0.204   6.789 -0.5249 -0.4548  1.7058
 3908SOL     OW12622   2.114   5.333   3.582  0.4408 -0.5262  0.2126
 3908SOL    HW112623   2.183   5.274   3.624  1.5993  0.4323 -0.3041
 3908SOL    HW212624   2.055   5.278   3.522 -0.0241 -1.5641  1.5613
 3909SOL     OW12625   2.424   4.220   1.812 -0.5104 -0.3504 -0.2044
 3909SOL    HW112626   2.341   4.265   1.779 -0.4804  0.0031  0.2009
 3909SOL    HW212627   2.502   4.247   1.754 -0.7027 -0.8265 -0.6985
 3910SOL     OW12628   3.513   3.281   3.781 -0.2336 -0.2874 -0.2202
 3910SOL    HW112629   3.469   3.366   3.811 -0.3355  0.1444 -1.5364
 3910SOL    HW212630   3.449   3.205   3.793 -1.0755  0.2056 -1.3015
 3911SOL     OW12631   0.571   1.295   4.784  0.4745 -0.3963 -0.0974
 3911SOL    HW112632   0.570   1.211   4.730 -1.2804 -1.1032  0.9468
 3911SOL    HW212633   0.587   1.273   4.880 -0.0349  0.4422  0.1925
 3912SOL     OW12634   4.802   1.292   4.159  0.7193  0.2039  0.2780
 3912SOL    HW112635   4.901   1.275   4.165  0.5419 -0.8414  0.4491
 3912SOL    HW212636   4.779   1.372   4.214  1.6850  1.4168 -1.0149
 3913SOL     OW12637   3.349   6.634   1.022  0.6685  0.5004  0.0915
 3913SOL    HW112638   3.335   6.574   1.100 -0.0000  0.4101 -0.0969
 3913SOL    HW212639   3.352   6.579   0.938  0.2257  0.7091 -0.0636
 3914SOL     OW12640   5.126   0.600   1.630  0.7455  0.4969  0.1496
 3914SOL    HW112641   5.075   0.525   1.672 -0.3629  1.7581  1.1416
 3914SOL    HW212642   5.063   0.672   1.603  1.6266  0.5102 -2.1181
 3915SOL     OW12643   4.029   1.748   4.508  0.2859 -0.0711  0.2072
 3915SOL    HW112644   4.021   1.831   4.562  0.6849 -0.2672  0.5739
 3915SOL    HW212645   4.030   1.668   4.568 -1.8313 -0.4777 -0.2305
 3916SOL     OW12646   3.796   3.543   6.377 -0.8435 -0.0224  0.0238
 3916SOL    HW112647   3.739   3.556   6.458 -0.4254 -0.7797  0.4593
 3916SOL    HW212648   3.875   3.485   6.401 -0.5800 -0.0517 -0.8651
 3917SOL     OW12649   2.693   2.378   4.966 -0.3689 -0.1072  0.1098
 3917SOL    HW112650   2.616   2.316   4.981 -0.1305 -0.8715 -1.5400
 3917SOL    HW212651   2.660   2.461   4.922 -0.5316  0.4969  1.3376
 3918SOL     OW12652   4.961   2.264   1.657 -0.1975 -0.3951  0.3217
 3918SOL    HW112653   4.974   2.165   1.669  1.0964 -0.3242 -0.3190
 3918SOL    HW212654   5.031   2.299   1.595 -2.5838  0.3527 -2.1707
 3919SOL     OW12655   3.452   5.123   0.399  0.8557  0.2169 -0.6862
 3919SOL    HW112656   3.443   5.150   0.495 -0.9849 -0.6665 -0.5616
 3919SOL    HW212657   3.474   5.026   0.394 -1.9559 -0.4903 -1.0884
 3920SOL     OW12658   6.806   3.279   1.132 -0.2400 -0.3039 -0.3463
 3920SOL    HW112659   6.804   3.378   1.116  1.5637 -0.3700 -1.2329
 3920SOL    HW212660   6.876   3.237   1.074  0.6950 -1.7735  1.7059
 3921SOL     OW12661   0.462   4.288   3.852 -0.1269  0.0519  0.4022
 3921SOL    HW112662   0.468   4.199   3.897  0.1674 -0.3987 -0.5009
 3921SOL    HW212663   0.464   4.361   3.921  1.2125 -0.5838  1.0707
 3922SOL     OW12664   0.882   5.646   2.350 -0.3587  0.2192 -0.3815
 3922SOL    HW112665   0.792   5.604   2.365 -0.3555  0.1649 -0.5102
 3922SOL    HW212666   0.876   5.710   2.273  0.1875 -1.3312 -1.7734
 3923SOL     OW12667   4.737   2.948   6.416  0.7454  0.6550  0.2811
 3923SOL    HW112668   4.666   2.878   6.424  0.9042  0.4989  0.3310
 3923SOL    HW212669   4.716   3.023   6.478  1.4575 -0.1124  1.4918
 3924SOL     OW12670   6.106   2.222   3.073  0.4842  0.0019 -0.0107
 3924SOL    HW112671   6.142   2.142   3.120  0.2704  0.2335  0.5485
 3924SOL    HW212672   6.042   2.193   3.001  0.1382 -0.3096  0.4236
 3925SOL     OW12673   1.086   2.289   2.450 -0.1091  0.0940 -0.2738
 3925SOL    HW112674   1.011   2.341   2.409 -0.2241  0.2088  0.0751
 3925SOL    HW212675   1.055   2.195   2.468 -0.4956  0.4057  0.7714
 3926SOL     OW12676   5.293   3.529   0.067  0.3872 -0.0764 -0.2228
 3926SOL    HW112677   5.372   3.470   0.053 -1.2578 -2.9778  1.6459
 3926SOL    HW212678   5.293   3.566   0.160  0.2369  1.1038 -0.6636
 3927SOL     OW12679   5.452   3.466   1.946  0.3487 -0.0417  0.1810
 3927SOL    HW112680   5.389   3.498   1.875  0.0290  0.2050  0.5680
 3927SOL    HW212681   5.524   3.535   1.959 -0.7145  0.8807  1.4828
 3928SOL     OW12682   3.655   1.291   2.187  0.3014  0.4127  0.1923
 3928SOL    HW112683   3.581   1.224   2.176  1.3091 -0.8357  0.6791
 3928SOL    HW212684   3.620   1.383   2.169 -1.2034 -0.2037 -0.2122
 3929SOL     OW12685   5.632   4.771   2.241  0.3476  0.5422  0.6880
 3929SOL    HW112686   5.536   4.792   2.221  0.4534 -0.3347 -0.8761
 3929SOL    HW212687   5.684   4.856   2.247 -0.5397  1.0335  1.6822
 3930SOL     OW12688   6.034   3.734   6.161 -0.0791 -0.1087  0.4665
 3930SOL    HW112689   5.948   3.781   6.181 -0.4770 -0.7138  0.2187
 3930SOL    HW212690   6.065   3.684   6.241 -0.1587 -0.1991  0.4410
 3931SOL     OW12691   0.402   4.909   2.964  0.2913 -0.5331 -0.2758
 3931SOL    HW112692   0.346   4.989   2.941 -0.3229 -0.4773  1.3325
 3931SOL    HW212693   0.497   4.927   2.939  0.5703  1.5826  1.9198
 3932SOL     OW12694   2.706   2.560   5.557 -0.2242  0.5767  0.1019
 3932SOL    HW112695   2.695   2.650   5.515  1.0187  1.3023  1.2475
 3932SOL    HW212696   2.744   2.571   5.649  1.8311 -1.2161 -0.4589
 3933SOL     OW12697   4.903   2.518   2.346 -0.3856  0.1261 -0.0939
 3933SOL    HW112698   4.826   2.581   2.353 -0.6062  0.1385 -2.0583
 3933SOL    HW212699   4.876   2.437   2.294  1.3047  0.8530 -2.2595
 3934SOL     OW12700   3.343   0.673   3.592  0.0730  0.2204 -0.0469
 3934SOL    HW112701   3.264   0.653   3.650  0.7485  1.3160  1.3277
 3934SOL    HW212702   3.312   0.696   3.500 -1.1561  0.1250  0.3212
 3935SOL     OW12703   1.474   5.818   1.164  0.0888  0.0204 -0.2391
 3935SOL    HW112704   1.486   5.728   1.206  0.8117  0.0423 -0.3972
 3935SOL    HW212705   1.563   5.856   1.139 -0.0558  1.4891  1.2689
 3936SOL     OW12706   6.801   6.606   5.016 -0.0604  0.0881  0.2059
 3936SOL    HW112707   6.847   6.518   5.014 -0.8525 -0.3663  0.9416
 3936SOL    HW212708   6.742   6.615   4.936  0.5083  0.2316 -0.2023
 3937SOL     OW12709   6.310   3.709   6.545  0.1389 -0.6145 -0.0861
 3937SOL    HW112710   6.306   3.769   6.625 -1.7593 -1.6976  0.6958
 3937SOL    HW212711   6.406   3.691   6.522  0.7304  0.3658  1.4442
 3938SOL     OW12712   2.928   5.240   1.258  0.2581 -0.3457 -0.3229
 3938SOL    HW112713   2.979   5.280   1.182 -0.4299 -1.6671 -1.5190
 3938SOL    HW212714   2.933   5.140   1.252 -1.3637 -0.4828  0.2829
 3939SOL     OW12715   1.157   2.767   3.528 -0.0611 -0.3449 -0.0761
 3939SOL    HW112716   1.139   2.711   3.447  2.4284  2.3518 -2.7400
 3939SOL    HW212717   1.100   2.848   3.527  1.5133  0.8154 -0.4632
 3940SOL     OW12718   1.618   3.583   2.161 -0.1324 -0.5720  0.7576
 3940SOL    HW112719   1.590   3.667   2.206 -0.8896 -0.0857 -0.5783
 3940SOL    HW212720   1.693   3.541   2.213 -0.7308  0.1363  2.2396
 3941SOL     OW12721   2.050   4.311   4.145  0.1051 -0.5927 -0.1923
 3941SOL    HW112722   2.083   4.229   4.191  0.9228 -0.1354  0.0426
 3941SOL    HW212723   2.031   4.290   4.049 -0.0238 -1.1358 -0.0494
 3942SOL     OW12724   4.997   2.434   5.297 -0.0322 -0.2548  0.5597
 3942SOL    HW112725   4.902   2.463   5.308 -0.5720 -1.4288 -0.8832
 3942SOL    HW212726   5.012   2.350   5.348 -0.3134 -1.1488 -0.8047
 3943SOL     OW12727   4.155   6.835   6.924 -0.7025 -0.1987 -0.5122
 3943SOL    HW112728   4.223   6.869   6.989 -0.1720 -0.9953 -0.6382
 3943SOL    HW212729   4.076   6.799   6.975 -0.3860 -0.6210 -0.3207
 3944SOL     OW12730   0.439   5.018   5.617  0.0860  0.3356  0.1876
 3944SOL    HW112731   0.343   5.002   5.594 -0.2552  1.9395  0.3859
 3944SOL    HW212732   0.497   4.959   5.561 -0.8735  1.6370 -2.3259
 3945SOL     OW12733   0.134   6.807   5.391 -0.1674  0.2672 -0.0813
 3945SOL    HW112734   0.117   6.810   5.292  2.7515  0.1633 -0.6655
 3945SOL    HW212735   0.133   6.901   5.427  1.6888  0.6253 -0.8432
 3946SOL     OW12736   2.031   0.266   0.169 -0.2555  0.6530 -0.3991
 3946SOL    HW112737   1.963   0.303   0.106  0.5145 -1.8460 -2.9435
 3946SOL    HW212738   1.986   0.216   0.243 -1.2352  0.1098 -1.3312
 3947SOL     OW12739   0.005   4.783   2.358  0.0390  0.2730  0.2876
 3947SOL    HW112740   0.082   4.720   2.351 -0.9010 -0.8533 -0.3725
 3947SOL    HW212741  -0.080   4.731   2.371 -0.6613  1.4590  0.6753
 3948SOL     OW12742   0.804   3.093   5.541  0.1509 -0.7325 -0.1883
 3948SOL    HW112743   0.815   3.178   5.594 -1.3231  0.1395 -1.2071
 3948SOL    HW212744   0.863   3.022   5.580  2.3769  1.0709 -0.0414
 3949SOL     OW12745   4.764   4.000   0.224 -0.1695 -0.2885 -0.1274
 3949SOL    HW112746   4.704   4.063   0.274 -0.8114 -1.5123  0.6956
 3949SOL    HW212747   4.742   4.002   0.127 -1.0636 -0.1842  0.0735
 3950SOL     OW12748   4.913   5.258   3.982 -0.4855 -0.3443  0.0690
 3950SOL    HW112749   4.910   5.343   3.929  0.4291  0.9884  2.0431
 3950SOL    HW212750   4.987   5.263   4.049  0.3888 -3.2241 -0.5254
 3951SOL     OW12751   6.492   2.272   5.025 -0.6455 -0.1235 -0.0798
 3951SOL    HW112752   6.514   2.212   5.103 -1.3975  1.3840  1.3599
 3951SOL    HW212753   6.402   2.247   4.989 -1.7196  1.1369  1.5996
 3952SOL     OW12754   3.625   5.928   6.955 -0.5494  0.2499  0.0468
 3952SOL    HW112755   3.706   5.917   7.013  0.4354  1.4029 -1.0417
 3952SOL    HW212756   3.615   5.849   6.896  0.8967  0.8775 -1.0987
 3953SOL     OW12757   6.036   5.311   3.685 -0.6293  0.3141 -0.0889
 3953SOL    HW112758   6.038   5.331   3.783 -0.7242 -1.1264  0.2236
 3953SOL    HW212759   6.107   5.364   3.639 -2.1206  2.8735  0.3549
 3954SOL     OW12760   0.474   4.183   6.009 -0.2848 -0.6133  0.0467
 3954SOL    HW112761   0.500   4.263   6.062  0.7041 -1.0762  0.2970
 3954SOL    HW212762   0.466   4.104   6.070  1.0356 -1.1898 -0.4740
 3955SOL     OW12763   4.718   2.119   6.916  0.2708 -0.1226 -0.3474
 3955SOL    HW112764   4.786   2.184   6.883  0.3274  0.4329  0.7979
 3955SOL    HW212765   4.762   2.051   6.975  0.3450 -1.7085 -2.1434
 3956SOL     OW12766   0.828   0.848   5.688  0.1309 -0.0339  0.3271
 3956SOL    HW112767   0.881   0.879   5.767  1.0901  0.6800 -0.5697
 3956SOL    HW212768   0.731   0.847   5.712  0.5660 -2.4206  2.3350
 3957SOL     OW12769   3.119   1.001   3.159  0.0384 -0.1355 -0.5118
 3957SOL    HW112770   3.059   1.017   3.237  1.1467  4.1901 -0.3022
 3957SOL    HW212771   3.065   0.964   3.083 -1.9581 -0.4210  0.9526
 3958SOL     OW12772   4.325   1.059   4.602  0.6701 -0.1062 -0.4073
 3958SOL    HW112773   4.323   1.106   4.690  2.0798  0.2458 -0.5325
 3958SOL    HW212774   4.235   1.023   4.581 -0.1508  1.4732  0.2871
 3959SOL     OW12775   3.184   3.041   6.391 -0.3706 -0.1266  0.1970
 3959SOL    HW112776   3.168   2.996   6.304  0.8154 -1.5483  0.6745
 3959SOL    HW212777   3.193   2.972   6.463  0.4846  0.9234  1.1290
 3960SOL     OW12778   2.766   6.535   3.122 -0.2651  0.7516  0.1543
 3960SOL    HW112779   2.689   6.490   3.078 -1.3160  2.4095  0.2150
 3960SOL    HW212780   2.838   6.468   3.140 -0.4513 -0.2948 -2.5837
 3961SOL     OW12781   0.382   3.114   2.605 -0.0137  0.3694  0.0980
 3961SOL    HW112782   0.394   3.021   2.570 -0.4522  0.2267  0.3197
 3961SOL    HW212783   0.471   3.151   2.632  0.2680  0.3046 -0.7182
 3962SOL     OW12784   1.787   5.024   1.745 -0.9967  0.3156  0.5283
 3962SOL    HW112785   1.716   5.080   1.787 -0.0832  0.9058  1.3161
 3962SOL    HW212786   1.871   5.077   1.736 -0.7018 -0.2968 -0.6074
 3963SOL     OW12787   4.124   1.457   4.550 -0.0834 -0.0013 -0.0275
 3963SOL    HW112788   4.098   1.377   4.496 -1.4678  2.2391 -2.9818
 3963SOL    HW212789   4.202   1.502   4.506  1.0198  0.0470  1.8903
 3964SOL     OW12790   5.508   1.149   4.863  0.3755  0.6350  0.2807
 3964SOL    HW112791   5.448   1.112   4.935  0.5529  1.9715  1.1521
 3964SOL    HW212792   5.463   1.139   4.774  0.0563 -0.8642  0.5816
 3965SOL     OW12793   5.748   2.802   4.869  0.2164 -0.0277  0.1386
 3965SOL    HW112794   5.845   2.779   4.876 -0.0270 -1.0887  0.2295
 3965SOL    HW212795   5.693   2.718   4.874 -0.6369  0.3958 -1.3309
 3966SOL     OW12796   3.619   2.056   3.588  0.3628 -0.3545 -0.0527
 3966SOL    HW112797   3.661   2.053   3.679  0.7944 -3.0223 -0.2569
 3966SOL    HW212798   3.678   2.105   3.525 -0.1438  1.9390  1.1224
 3967SOL     OW12799   5.143   2.734   5.420 -0.6163 -0.2154 -1.0045
 3967SOL    HW112800   5.100   2.798   5.483  0.8842 -0.3649  0.2191
 3967SOL    HW212801   5.073   2.687   5.368 -1.8182  1.2227 -0.7620
 3968SOL     OW12802   4.869   2.124   3.756  0.3202  0.1188 -0.4163
 3968SOL    HW112803   4.845   2.079   3.670 -2.2998  2.2223 -0.9091
 3968SOL    HW212804   4.815   2.084   3.831 -0.6338  1.1618 -0.5354
 3969SOL     OW12805   6.356   2.093   6.030 -0.7014 -0.0795  0.0718
 3969SOL    HW112806   6.292   2.158   5.989 -1.6761 -0.8496  0.3351
 3969SOL    HW212807   6.323   2.000   6.015 -0.2105 -0.4457  1.1728
 3970SOL     OW12808   5.297   5.236   2.865  0.0802  0.4209  0.5933
 3970SOL    HW112809   5.335   5.274   2.949 -0.0822  2.3687 -0.1544
 3970SOL    HW212810   5.221   5.293   2.834  0.4565  0.0347 -1.1379
 3971SOL     OW12811   2.713   4.928   0.477 -0.1272 -0.1268 -0.1868
 3971SOL    HW112812   2.690   5.025   0.475  3.5713  0.9430  1.0076
 3971SOL    HW212813   2.793   4.911   0.419  0.2466 -2.1264  0.8177
 3972SOL     OW12814   1.361   3.607   6.606 -0.3779  0.3247  0.2578
 3972SOL    HW112815   1.423   3.683   6.586 -1.5259  0.8381 -1.7282
 3972SOL    HW212816   1.376   3.534   6.540 -1.5349  0.2715  0.0179
 3973SOL     OW12817   6.115   3.395   2.333 -0.5521 -0.1527  0.6338
 3973SOL    HW112818   6.063   3.450   2.268 -0.6198  0.5489  1.2656
 3973SOL    HW212819   6.158   3.455   2.401 -0.0550 -0.8283  0.9325
 3974SOL     OW12820   5.953   3.068   5.889  0.1258  0.0689 -0.4920
 3974SOL    HW112821   6.053   3.070   5.891  0.1013  1.4354  0.4015
 3974SOL    HW212822   5.922   2.973   5.888  1.4110 -0.3795  0.1402
 3975SOL     OW12823   2.776   2.846   0.356  0.4887 -0.3436  0.2518
 3975SOL    HW112824   2.767   2.814   0.450  1.9013  2.9162  1.6595
 3975SOL    HW212825   2.687   2.842   0.310 -0.6227 -0.3740  2.3299
 3976SOL     OW12826   5.358   3.423   3.151  0.7367  0.0737  0.4936
 3976SOL    HW112827   5.318   3.397   3.063  1.7065 -1.1514  0.3935
 3976SOL    HW212828   5.322   3.365   3.223  1.0233  0.1151  0.6734
 3977SOL     OW12829   0.778   5.794   6.579  0.1548  0.3421  0.1288
 3977SOL    HW112830   0.789   5.828   6.485 -0.6325  0.2697  0.0003
 3977SOL    HW212831   0.740   5.866   6.636 -0.2900  0.0887  0.1599
 3978SOL     OW12832   5.925   2.913   1.005  0.1591  0.0060 -0.0542
 3978SOL    HW112833   5.918   3.010   0.982  2.7592 -0.0311 -1.4407
 3978SOL    HW212834   5.874   2.859   0.938 -0.6841  0.3700  0.2848
 3979SOL     OW12835   6.855   6.759   3.563 -0.2130 -0.8012  0.6594
 3979SOL    HW112836   6.761   6.726   3.559 -0.3076 -0.4806  0.0405
 3979SOL    HW212837   6.861   6.836   3.627 -0.2554 -1.1776  1.1181
 3980SOL     OW12838   0.854   1.193   0.573  0.1566  0.0588  0.1490
 3980SOL    HW112839   0.808   1.107   0.550  1.2880 -0.5787  0.1502
 3980SOL    HW212840   0.930   1.174   0.636  0.2150  1.1084  0.4129
 3981SOL     OW12841   3.152   5.424   2.258 -0.5068  0.2669 -0.0040
 3981SOL    HW112842   3.076   5.453   2.200  1.0560  1.2590 -1.6570
 3981SOL    HW212843   3.187   5.502   2.309  1.9060  0.8157 -2.3215
 3982SOL     OW12844   2.591   4.857   0.982  0.0823 -0.5492  0.0637
 3982SOL    HW112845   2.517   4.877   0.918 -0.1419 -0.6202  0.2991
 3982SOL    HW212846   2.594   4.759   1.000 -0.4818 -0.4173  0.9115
 3983SOL     OW12847   0.877   0.238   0.598  0.8849 -0.0184 -0.2238
 3983SOL    HW112848   0.878   0.182   0.681  1.8222  0.7529  0.2981
 3983SOL    HW212849   0.920   0.188   0.523  1.2800 -0.1803  0.1133
 3984SOL     OW12850   6.355   2.720   3.491 -0.6791 -0.4566  0.1562
 3984SOL    HW112851   6.349   2.621   3.505 -0.5193 -0.6980 -1.3282
 3984SOL    HW212852   6.411   2.738   3.410  0.6693  0.9144  1.3454
 3985SOL     OW12853   0.016   3.892   0.194  0.2444 -0.4504 -0.1384
 3985SOL    HW112854  -0.049   3.913   0.267 -0.3881  0.7131 -0.9858
 3985SOL    HW212855  -0.033   3.856   0.115  0.7231 -0.3349 -0.4940
 3986SOL     OW12856   4.449   6.322   0.196 -0.0180 -0.3376 -0.0160
 3986SOL    HW112857   4.490   6.349   0.108 -0.6923  0.5235 -0.0842
 3986SOL    HW212858   4.467   6.393   0.264 -1.2917  0.0174 -0.0243
 3987SOL     OW12859   2.202   0.357   2.259  0.3725 -0.5941  0.4324
 3987SOL    HW112860   2.203   0.425   2.185 -1.4026 -0.7544  0.2041
 3987SOL    HW212861   2.274   0.377   2.325 -0.4671  1.8691  0.6799
 3988SOL     OW12862   3.899   5.339   6.218  0.3305 -0.1392  0.0089
 3988SOL    HW112863   3.873   5.435   6.225 -0.5184 -0.3203 -0.5605
 3988SOL    HW212864   3.991   5.332   6.179  1.2782  0.5103  1.9815
 3989SOL     OW12865   0.866   4.063   3.037 -0.4749  0.1306  0.1095
 3989SOL    HW112866   0.902   3.992   3.098 -0.5844  0.4543  0.5566
 3989SOL    HW212867   0.852   4.025   2.946  1.1037  0.0234 -0.1116
 3990SOL     OW12868   1.542   3.194   3.055 -0.3123 -0.3359  0.2508
 3990SOL    HW112869   1.583   3.109   3.090  0.4002 -0.6711 -1.3154
 3990SOL    HW212870   1.593   3.272   3.090  0.3886 -0.6583 -0.0440
 3991SOL     OW12871   3.101   5.750   6.399 -0.3124 -0.2987 -0.6283
 3991SOL    HW112872   3.104   5.808   6.317  1.5595 -0.5818 -0.8010
 3991SOL    HW212873   3.079   5.656   6.372  0.3862 -0.4090 -0.8283
 3992SOL     OW12874   3.185   1.816   0.734  0.3733  0.2306 -0.2618
 3992SOL    HW112875   3.259   1.834   0.670  0.7447 -0.5408 -0.0571
 3992SOL    HW212876   3.177   1.718   0.750  1.2096  0.4398  1.9158
 3993SOL     OW12877   4.767   4.609   3.280 -0.2096  0.0867  0.4285
 3993SOL    HW112878   4.670   4.583   3.277 -0.5362  1.2521  0.1989
 3993SOL    HW212879   4.775   4.700   3.322  0.7404  0.2084  0.0024
 3994SOL     OW12880   3.212   1.312   5.753  0.1014 -0.1583 -0.2798
 3994SOL    HW112881   3.184   1.377   5.823 -1.1494 -1.3236  0.3373
 3994SOL    HW212882   3.142   1.307   5.682  0.3401 -0.5936 -0.4900
 3995SOL     OW12883   3.911   6.640   2.111 -0.0551  0.1761 -0.1898
 3995SOL    HW112884   4.004   6.637   2.073 -0.4919  0.5432 -1.3447
 3995SOL    HW212885   3.858   6.709   2.062 -1.7378 -1.8926 -1.4886
 3996SOL     OW12886   4.723   6.260   4.844  1.0472 -0.1450 -0.0373
 3996SOL    HW112887   4.778   6.222   4.770  0.9576 -0.6455  0.1460
 3996SOL    HW212888   4.766   6.343   4.880  0.5862  0.6581 -1.3055
 3997SOL     OW12889   2.889   3.359   3.714 -0.0393 -0.4030  0.6075
 3997SOL    HW112890   2.802   3.338   3.668  0.2558 -0.7018  0.1703
 3997SOL    HW212891   2.964   3.348   3.648  0.1473  2.2833  0.2596
 3998SOL     OW12892   3.453   5.431   2.615 -0.1420  0.0200 -0.0603
 3998SOL    HW112893   3.358   5.455   2.632 -0.0193  0.8649 -0.5145
 3998SOL    HW212894   3.512   5.507   2.641  0.4581 -0.6519  0.6140
 3999SOL     OW12895   4.839   6.210   0.165 -0.1817  0.0017 -0.0946
 3999SOL    HW112896   4.739   6.200   0.163 -0.2676  0.8153 -0.2101
 3999SOL    HW212897   4.881   6.123   0.141 -0.8441 -0.7044  1.1646
 4000SOL     OW12898   4.542   6.883   3.137  0.5993 -0.2976 -0.0745
 4000SOL    HW112899   4.479   6.873   3.059  1.8209  1.1848 -1.3091
 4000SOL    HW212900   4.636   6.868   3.106  1.1610  0.9279  0.9729
 4001SOL     OW12901   1.706   3.364   2.583 -0.0293  0.4725 -0.3745
 4001SOL    HW112902   1.709   3.397   2.677 -0.2592  0.7485 -0.4595
 4001SOL    HW212903   1.702   3.264   2.582 -0.9609  0.4925 -0.0580
 4002SOL     OW12904   4.658   2.111   3.970  0.1174  0.0894  0.0646
 4002SOL    HW112905   4.690   2.094   4.063 -0.9119 -1.7616  0.1219
 4002SOL    HW212906   4.567   2.152   3.973  0.1739  0.2293 -0.1198
 4003SOL     OW12907   2.555   2.886   0.217 -0.4031  0.7013  0.0203
 4003SOL    HW112908   2.478   2.841   0.172 -0.0061 -0.2848  0.3017
 4003SOL    HW212909   2.521   2.943   0.291 -0.7620 -1.8986  2.0174
 4004SOL     OW12910   2.618   1.244   4.267 -0.2301 -0.2999  0.3491
 4004SOL    HW112911   2.702   1.258   4.319  0.6858  1.1749 -1.3917
 4004SOL    HW212912   2.576   1.333   4.246 -1.8908 -0.9725  0.6112
 4005SOL     OW12913   3.995   4.790   2.955 -0.2732 -0.8100  0.6881
 4005SOL    HW112914   3.957   4.769   3.045  0.3141 -1.1020  0.8715
 4005SOL    HW212915   3.920   4.801   2.889 -0.6581 -1.8255  0.9365
 4006SOL     OW12916   1.816   3.059   6.461  1.1174 -0.1167 -0.0113
 4006SOL    HW112917   1.815   2.959   6.471  1.8496  0.0371  2.4918
 4006SOL    HW212918   1.726   3.096   6.482  1.1694 -0.1921  0.3573
 4007SOL     OW12919   1.386   4.116   0.751  0.0501  0.5910 -0.1171
 4007SOL    HW112920   1.463   4.089   0.693 -0.8096  0.0716 -1.0557
 4007SOL    HW212921   1.328   4.181   0.700  0.1499  1.3952  0.7749
 4008SOL     OW12922   3.848   3.321   6.602 -0.0796  0.5646 -0.9748
 4008SOL    HW112923   3.803   3.410   6.600 -0.5662  0.4208  0.9106
 4008SOL    HW212924   3.947   3.333   6.608 -0.1019  0.9646 -1.3997
 4009SOL     OW12925   1.718   4.449   0.037 -0.3753  0.5749  0.8831
 4009SOL    HW112926   1.758   4.358   0.028  0.5346  0.9290  1.2728
 4009SOL    HW212927   1.723   4.496  -0.051 -1.0083  0.1982  0.6336
 4010SOL     OW12928   2.659   1.857   2.971  0.3781  0.0413 -0.4188
 4010SOL    HW112929   2.604   1.777   2.948 -0.3281  0.6606 -0.9521
 4010SOL    HW212930   2.752   1.845   2.936 -0.0271 -0.0760 -1.5102
 4011SOL     OW12931   3.906   2.435   6.948 -0.6747  0.3651 -0.0323
 4011SOL    HW112932   3.826   2.471   6.996  0.2794  0.5866  1.4689
 4011SOL    HW212933   3.976   2.409   7.015  0.8264  0.9198 -1.3250
 4012SOL     OW12934   1.934   1.468   0.885  0.1244  0.5715  0.1820
 4012SOL    HW112935   2.024   1.433   0.861 -0.3421 -1.8111  1.5112
 4012SOL    HW212936   1.864   1.417   0.835 -0.5825  3.6276 -2.2923
 4013SOL     OW12937   1.549   5.647   6.886  0.2340 -0.0626 -0.3280
 4013SOL    HW112938   1.648   5.638   6.888  0.2939  0.6633  1.2626
 4013SOL    HW212939   1.507   5.583   6.950 -0.4088 -0.9519 -1.5888
 4014SOL     OW12940   4.742   2.582   1.553  0.3449  0.0094  0.1308
 4014SOL    HW112941   4.698   2.507   1.602  1.9067 -0.2231  1.2412
 4014SOL    HW212942   4.775   2.550   1.465 -0.9637 -0.0060 -0.3783
 4015SOL     OW12943   2.200   6.537   2.280  0.8866  0.0459  0.0052
 4015SOL    HW112944   2.289   6.492   2.275  1.1587  0.5123  0.5682
 4015SOL    HW212945   2.160   6.522   2.370 -0.9121 -2.5776 -1.1289
 4016SOL     OW12946   0.713   4.339   4.636  0.0359 -0.4592  0.0233
 4016SOL    HW112947   0.625   4.352   4.590  0.0419 -2.3877 -0.6147
 4016SOL    HW212948   0.704   4.267   4.704  1.3158 -1.2933 -0.6637
 4017SOL     OW12949   5.875   4.686   4.447  0.3939 -0.7129  0.8706
 4017SOL    HW112950   5.853   4.656   4.354  2.9234 -3.0783  0.8981
 4017SOL    HW212951   5.958   4.639   4.478  1.2520  2.1120  3.3104
 4018SOL     OW12952   4.923   3.663   3.545  0.1718 -0.0002  0.3523
 4018SOL    HW112953   4.872   3.740   3.584  2.6323  1.2267  1.3828
 4018SOL    HW212954   4.912   3.582   3.603 -3.6986 -1.0916 -1.5438
 4019SOL     OW12955   2.430   6.863   5.619 -0.0859  0.4969  0.0467
 4019SOL    HW112956   2.478   6.944   5.585 -2.5589  2.0874  0.1022
 4019SOL    HW212957   2.477   6.828   5.700  1.0109  1.9149  0.0627
 4020SOL     OW12958   1.297   1.561   3.543 -0.5558  0.4892  0.8057
 4020SOL    HW112959   1.268   1.655   3.532 -1.0400  0.1661 -1.0908
 4020SOL    HW212960   1.245   1.517   3.616 -2.3652  0.9196 -0.1741
 4021SOL     OW12961   3.948   4.751   5.371  0.3499 -0.5019 -0.0728
 4021SOL    HW112962   3.875   4.687   5.346  0.5371 -0.8069  0.1595
 4021SOL    HW212963   4.036   4.717   5.338  0.1775  0.7887 -2.0506
 4022SOL     OW12964   6.030   6.786   3.646  0.0720 -0.0610 -0.2213
 4022SOL    HW112965   6.036   6.803   3.548  0.2595 -1.6092 -0.5080
 4022SOL    HW212966   6.109   6.825   3.692 -0.1281  0.8629 -0.6435
 4023SOL     OW12967   6.207   5.906   5.092 -0.3932  0.1577 -0.0552
 4023SOL    HW112968   6.201   6.003   5.117  1.5408 -0.6318  4.5306
 4023SOL    HW212969   6.138   5.854   5.141  1.4380 -1.2153  1.2110
 4024SOL     OW12970   2.059   5.357   5.486  0.7606  0.2276 -0.3636
 4024SOL    HW112971   2.085   5.282   5.424 -0.1862 -0.6027  0.2081
 4024SOL    HW212972   1.997   5.419   5.438 -1.1716 -1.2186  0.1331
 4025SOL     OW12973   0.730   6.860   3.616  0.5650 -0.3786 -0.1056
 4025SOL    HW112974   0.763   6.924   3.685 -1.0004 -0.6372  0.9500
 4025SOL    HW212975   0.778   6.772   3.626 -0.2411 -0.7013  1.2898
 4026SOL     OW12976   1.924   0.213   6.140 -0.0655 -0.1057 -0.5449
 4026SOL    HW112977   2.001   0.182   6.084 -0.6814 -1.1179 -0.8582
 4026SOL    HW212978   1.936   0.181   6.234  0.6162  0.9941 -0.2409
 4027SOL     OW12979   5.431   6.747   3.462  0.3295 -0.7112  0.0584
 4027SOL    HW112980   5.469   6.839   3.453 -2.0153  0.3045 -0.0468
 4027SOL    HW212981   5.384   6.739   3.550 -1.1847 -1.1239 -0.7606
 4028SOL     OW12982   5.216   1.105   2.428  0.1439  0.3067  0.6406
 4028SOL    HW112983   5.299   1.101   2.483 -0.9431  0.9677  2.4099
 4028SOL    HW212984   5.155   1.030   2.453 -1.2424  1.7610  1.9148
 4029SOL     OW12985   4.356   5.681   2.202 -0.6189 -0.2408 -0.7563
 4029SOL    HW112986   4.273   5.672   2.256  1.0137 -0.7549  1.8195
 4029SOL    HW212987   4.374   5.778   2.184 -1.5232 -0.1040 -1.0073
 4030SOL     OW12988   0.850   2.101   1.359 -0.7344  0.1733  0.0364
 4030SOL    HW112989   0.861   2.097   1.259  1.2733 -0.0075  0.2243
 4030SOL    HW212990   0.814   2.014   1.392  1.1907 -0.8059 -0.2960
 4031SOL     OW12991   5.663   1.878   5.532 -0.0155  0.0070  0.2150
 4031SOL    HW112992   5.625   1.865   5.440  1.7350  1.3176 -0.7677
 4031SOL    HW212993   5.711   1.795   5.560 -1.6739 -0.8803  0.5597
 4032SOL     OW12994   5.243   2.886   4.431  0.2407  0.0052  0.3172
 4032SOL    HW112995   5.326   2.844   4.468  0.6963  0.4325 -0.2102
 4032SOL    HW212996   5.268   2.958   4.365 -0.4075  2.7847  2.8632
 4033SOL     OW12997   5.302   6.404   0.508 -0.0380  0.5239 -0.0215
 4033SOL    HW112998   5.237   6.331   0.529  0.4659 -1.1685 -3.6283
 4033SOL    HW212999   5.393   6.378   0.542 -0.4499  1.1254  1.6521
 4034SOL     OW13000   0.947   0.626   6.369 -0.1110  0.3238  0.3109
 4034SOL    HW113001   0.999   0.709   6.351  2.2959 -0.8128  1.5183
 4034SOL    HW213002   0.933   0.615   6.468  0.7408 -1.2983  0.2934
 4035SOL     OW13003   2.081   5.111   0.365  0.0243 -0.4629  0.2828
 4035SOL    HW113004   2.134   5.146   0.288  1.3378  0.5614  1.5956
 4035SOL    HW213005   1.983   5.119   0.345  0.3344  0.8451 -0.8306
 4036SOL     OW13006   0.462   3.454   4.173 -0.0090  0.1546 -0.1886
 4036SOL    HW113007   0.476   3.506   4.089  0.0585  2.1856  1.0281
 4036SOL    HW213008   0.488   3.509   4.252 -1.0695 -1.3103  1.2608
 4037SOL     OW13009   4.748   2.972   1.644  0.5941 -0.2571 -0.4435
 4037SOL    HW113010   4.820   3.028   1.603  0.2935  0.3243 -0.1774
 4037SOL    HW213011   4.726   3.006   1.736 -1.9169  1.3064 -1.5127
 4038SOL     OW13012   5.788   1.423   0.394 -0.0141  0.7678 -0.1454
 4038SOL    HW113013   5.852   1.438   0.320  1.3596 -0.7021  0.6810
 4038SOL    HW213014   5.837   1.424   0.481 -1.1394 -0.1505  0.5275
 4039SOL     OW13015   3.565   5.342   6.970 -0.4402  0.2831 -0.1992
 4039SOL    HW113016   3.655   5.386   6.972 -0.0898 -0.4273  0.0275
 4039SOL    HW213017   3.520   5.353   7.059 -0.4755  0.4210 -0.2332
 4040SOL     OW13018   6.288   0.899   3.184  0.4878  0.0955 -0.6519
 4040SOL    HW113019   6.279   0.985   3.234  0.7346  0.4192 -1.1592
 4040SOL    HW213020   6.230   0.830   3.227  1.6584  0.0017  0.8758
 4041SOL     OW13021   3.451   5.798   6.366 -0.0849 -0.1050  0.4356
 4041SOL    HW113022   3.517   5.723   6.373 -0.2625 -0.1828  1.3706
 4041SOL    HW213023   3.378   5.771   6.302 -0.6658 -1.1457  1.4872
 4042SOL     OW13024   1.652   4.678   4.281  0.6538 -0.4831 -0.5315
 4042SOL    HW113025   1.745   4.691   4.246  0.1443  0.5196 -1.5834
 4042SOL    HW213026   1.623   4.584   4.265  0.7250 -0.2544 -2.1634
 4043SOL     OW13027   4.970   5.645   4.751 -0.2047  0.6594 -0.2288
 4043SOL    HW113028   5.024   5.729   4.744 -1.5688  1.4199 -3.0415
 4043SOL    HW213029   4.873   5.668   4.764 -0.6049 -0.4405 -1.0453
 4044SOL     OW13030   0.970   6.503   0.287 -0.1007  0.2032 -0.2092
 4044SOL    HW113031   1.006   6.415   0.321 -0.6248 -0.0622 -0.3253
 4044SOL    HW213032   0.938   6.557   0.365 -2.2012 -0.8063 -0.2769
 4045SOL     OW13033   3.559   5.174   6.459 -0.5777  0.8585  0.2299
 4045SOL    HW113034   3.526   5.205   6.548 -0.7142  0.3124  0.3683
 4045SOL    HW213035   3.564   5.253   6.397 -0.0763  1.3149  0.8376
 4046SOL     OW13036   3.457   1.535   4.276  0.2663 -0.6077 -0.1817
 4046SOL    HW113037   3.415   1.601   4.214 -0.7800 -1.3148 -0.2619
 4046SOL    HW213038   3.552   1.559   4.292  0.3098  0.0695 -1.3872
 4047SOL     OW13039   2.416   6.443   3.175 -0.1745  0.3066 -0.0335
 4047SOL    HW113040   2.381   6.420   3.265 -2.7892  1.0256 -0.7846
 4047SOL    HW213041   2.504   6.398   3.161  0.3591  0.2666  2.8734
 4048SOL     OW13042   2.849   6.202   6.960  0.2117  0.4186 -0.3254
 4048SOL    HW113043   2.874   6.128   6.897  0.3352 -0.3148  0.5585
 4048SOL    HW213044   2.927   6.223   7.019 -0.5008 -0.2814  0.9062
 4049SOL     OW13045   3.188   1.443   5.984  0.1137  0.3752  0.0540
 4049SOL    HW113046   3.089   1.453   5.985  0.0778  0.4090  2.4628
 4049SOL    HW213047   3.232   1.532   5.976 -0.0374  0.3861 -0.7008
 4050SOL     OW13048   0.658   6.463   2.136 -1.3701 -0.6674  0.3412
 4050SOL    HW113049   0.690   6.548   2.093  0.5328 -1.0802  0.8328
 4050SOL    HW213050   0.637   6.480   2.232  0.6085 -1.0241  0.8891
 4051SOL     OW13051   4.966   5.258   6.775  0.6090  0.1282 -0.3210
 4051SOL    HW113052   4.906   5.338   6.781  1.1188  0.6642 -1.8672
 4051SOL    HW213053   4.919   5.183   6.731  1.1256  0.6657 -1.8700
 4052SOL     OW13054   6.787   6.150   5.361 -0.0270  0.1824  0.1698
 4052SOL    HW113055   6.807   6.062   5.320 -0.8973  0.6632 -1.3858
 4052SOL    HW213056   6.847   6.220   5.321  1.3454  0.1949  2.0951
 4053SOL     OW13057   0.571   4.396   6.157  0.2917  0.3742 -0.5724
 4053SOL    HW113058   0.527   4.457   6.091 -1.1043  0.1098  0.0636
 4053SOL    HW213059   0.557   4.431   6.249 -2.6936 -2.0079  0.0582
 4054SOL     OW13060   6.833   6.042   6.243  0.4815 -0.3257 -0.4581
 4054SOL    HW113061   6.878   6.001   6.163  2.8467  1.0172  0.0845
 4054SOL    HW213062   6.902   6.082   6.302 -1.4659  1.5308  0.6751
 4055SOL     OW13063   3.590   3.985   3.696 -0.3177 -0.5755 -0.1917
 4055SOL    HW113064   3.567   3.921   3.622  0.0113 -1.9385  0.8623
 4055SOL    HW213065   3.676   4.030   3.675  0.1116 -1.4437 -0.3313
 4056SOL     OW13066   2.342   1.306   6.359  0.5488  0.4402  0.3029
 4056SOL    HW113067   2.413   1.315   6.289 -0.2039 -1.0401 -0.7023
 4056SOL    HW213068   2.261   1.358   6.330  0.4119  0.2404  0.3299
 4057SOL     OW13069   2.177   0.126   7.017  0.1333  0.7310  0.4807
 4057SOL    HW113070   2.253   0.096   7.074  0.2034  1.8945  1.0266
 4057SOL    HW213071   2.111   0.176   7.073  0.7190  2.8097 -0.6074
 4058SOL     OW13072   4.094   5.254   2.559 -0.1363  1.2617  0.5453
 4058SOL    HW113073   4.039   5.209   2.629 -1.0109 -0.7589 -1.2991
 4058SOL    HW213074   4.190   5.231   2.572 -0.6037 -1.9731 -0.7049
 4059SOL     OW13075   1.621   0.134   3.816  0.0903 -0.3708  0.2320
 4059SOL    HW113076   1.664   0.057   3.863 -0.9934 -0.3870  1.2508
 4059SOL    HW213077   1.690   0.183   3.763  1.1621 -0.9494  1.0423
 4060SOL     OW13078   0.623   0.566   4.984 -0.3467 -0.2263 -0.2761
 4060SOL    HW113079   0.694   0.513   5.031 -0.9817 -0.6971  0.1739
 4060SOL    HW213080   0.543   0.573   5.044  0.1635  2.3186  0.2170
 4061SOL     OW13081   0.078   4.904   4.307 -0.3367  0.5297  0.6496
 4061SOL    HW113082   0.161   4.874   4.353  0.7100 -0.0810 -1.5084
 4061SOL    HW213083   0.102   4.952   4.223 -2.1734  0.4459  0.0317
 4062SOL     OW13084   1.371   4.748   6.654  0.1776  0.1432 -0.3331
 4062SOL    HW113085   1.428   4.672   6.622 -0.6474 -0.0535 -1.3646
 4062SOL    HW213086   1.419   4.835   6.638  1.1706 -0.1267  0.9536
 4063SOL     OW13087   5.903   4.965   6.359  0.0042  0.2373  0.1077
 4063SOL    HW113088   5.918   5.062   6.377  2.5256 -0.3357  1.4032
 4063SOL    HW213089   5.832   4.930   6.420  0.5558  0.8198  1.0992
 4064SOL     OW13090   4.883   1.636   4.561 -0.2577 -0.0391  0.0668
 4064SOL    HW113091   4.943   1.708   4.528  0.3119  0.3385  1.8216
 4064SOL    HW213092   4.795   1.675   4.588 -0.0800 -0.0303  0.6644
 4065SOL     OW13093   1.431   3.104   3.397  0.0687  0.0296  0.6293
 4065SOL    HW113094   1.426   3.012   3.435 -0.8954 -0.0520  0.3340
 4065SOL    HW213095   1.524   3.123   3.366  0.2934 -0.7962  0.7905
 4066SOL     OW13096   6.561   4.329   2.507  0.0747 -0.1515 -0.5073
 4066SOL    HW113097   6.486   4.292   2.451  0.3825 -0.9690 -0.3920
 4066SOL    HW213098   6.563   4.282   2.595 -0.6423  1.3844  0.3714
 4067SOL     OW13099   1.526   1.235   4.234  0.2131 -0.0982 -0.0748
 4067SOL    HW113100   1.624   1.217   4.236  0.0684 -0.9067  0.2151
 4067SOL    HW213101   1.491   1.218   4.141  0.4944  1.0747 -0.4084
 4068SOL     OW13102   6.103   6.807   2.501  0.0076  0.2593 -0.8953
 4068SOL    HW113103   6.186   6.822   2.555  0.0979 -1.5950 -0.4637
 4068SOL    HW213104   6.044   6.742   2.548 -0.1269 -1.0625 -2.8101
 4069SOL     OW13105   1.742   6.697   4.044 -0.2350 -0.6534  0.9184
 4069SOL    HW113106   1.823   6.660   4.089 -0.0093 -0.7053  0.4663
 4069SOL    HW213107   1.769   6.747   3.962 -0.6777 -0.8364  0.6597
 4070SOL     OW13108   2.845   1.815   3.635  0.2835 -0.0650  0.2909
 4070SOL    HW113109   2.878   1.827   3.541 -0.2894  0.4990  0.1536
 4070SOL    HW213110   2.791   1.895   3.661  1.4974  0.3883  1.5537
 4071SOL     OW13111   2.663   5.552   1.454 -0.3821  0.5634  0.1697
 4071SOL    HW113112   2.616   5.484   1.397 -0.5731  1.0053 -0.2003
 4071SOL    HW213113   2.762   5.534   1.452 -0.5242 -0.4686  1.0806
 4072SOL     OW13114   2.095   1.439   3.786  0.2022  0.1266  0.3589
 4072SOL    HW113115   2.064   1.436   3.881 -1.5459 -0.2669 -0.1789
 4072SOL    HW213116   2.117   1.534   3.762 -0.2897  0.3879  0.8879
 4073SOL     OW13117   1.750   5.990   0.131 -0.3048 -0.0195  0.2137
 4073SOL    HW113118   1.765   5.946   0.042 -0.6923  0.0441  0.1149
 4073SOL    HW213119   1.664   5.959   0.169  0.4320 -0.9956  1.1520
 4074SOL     OW13120   0.280   5.217   0.819  0.6421  0.3805  0.7939
 4074SOL    HW113121   0.293   5.159   0.739  0.8619 -0.3766  1.3758
 4074SOL    HW213122   0.363   5.218   0.874  1.4175  2.9372 -0.2726
 4075SOL     OW13123   3.358   5.896   5.909 -0.2612  0.7616 -0.1661
 4075SOL    HW113124   3.325   5.983   5.946 -0.7700  0.7732 -0.6202
 4075SOL    HW213125   3.442   5.870   5.954  0.5782  2.1139 -0.8769
 4076SOL     OW13126   6.273   5.892   4.637  0.3719  0.0533  0.2799
 4076SOL    HW113127   6.257   5.988   4.660 -2.4156 -0.4053  0.5581
 4076SOL    HW213128   6.238   5.833   4.710 -1.6691 -1.2323 -1.6103
 4077SOL     OW13129   3.157   4.047   4.952  0.0673  0.6307 -0.3904
 4077SOL    HW113130   3.084   3.978   4.948  1.7185 -1.2256 -0.0359
 4077SOL    HW213131   3.171   4.087   4.862 -1.1951  0.8445 -0.5114
 4078SOL     OW13132   1.731   6.423   4.258 -0.1369  0.2345 -0.0622
 4078SOL    HW113133   1.721   6.328   4.289 -2.0720  0.5013  0.2481
 4078SOL    HW213134   1.644   6.455   4.221  0.6156  1.7634 -0.5773
 4079SOL     OW13135   1.895   2.565   0.126 -0.1604  0.8221 -0.0704
 4079SOL    HW113136   1.885   2.553   0.224  1.7033  0.0122  0.0609
 4079SOL    HW213137   1.888   2.662   0.103 -2.0565  0.8954  0.6359
 4080SOL     OW13138   1.855   6.684   3.554  0.0768  0.4581  0.5134
 4080SOL    HW113139   1.902   6.666   3.467 -2.5207  0.3720 -0.9643
 4080SOL    HW213140   1.854   6.600   3.609  1.2511  0.3600  0.4201
 4081SOL     OW13141   6.952   0.412   2.934  0.5839 -0.2629 -1.3262
 4081SOL    HW113142   6.896   0.408   3.017  2.3482  2.8554  0.2427
 4081SOL    HW213143   7.034   0.356   2.946  1.7778  1.6259 -0.0012
 4082SOL     OW13144   0.107   0.047   0.861  0.3523  0.6917 -0.0311
 4082SOL    HW113145   0.116  -0.029   0.796  0.5496  1.8761 -1.4552
 4082SOL    HW213146   0.022   0.037   0.912  0.9277 -1.0896  0.6829
 4083SOL     OW13147   1.956   5.866   2.400  0.2098 -0.1847 -0.0493
 4083SOL    HW113148   1.948   5.955   2.444  0.5964 -0.3897  0.4512
 4083SOL    HW213149   1.904   5.866   2.315 -0.4988  0.2435  0.3750
 4084SOL     OW13150   6.038   3.659   2.161  0.3901 -0.2256  0.3018
 4084SOL    HW113151   5.990   3.630   2.078 -0.4071  0.8947  0.3480
 4084SOL    HW213152   6.091   3.742   2.142 -0.3920  0.4737  1.0677
 4085SOL     OW13153   3.555   6.105   3.283  0.6705  0.7235 -0.2540
 4085SOL    HW113154   3.524   6.116   3.377  0.8819  0.1008 -0.1073
 4085SOL    HW213155   3.570   6.195   3.242  1.6455  1.0068  0.6612
 4086SOL     OW13156   4.240   6.356   5.842 -0.3049  0.5129 -0.8239
 4086SOL    HW113157   4.320   6.372   5.784 -0.6223 -0.3236 -1.5149
 4086SOL    HW213158   4.270   6.344   5.937  0.3893  0.1893 -1.0751
 4087SOL     OW13159   2.167   0.008   0.690  0.7425 -0.5713 -0.0381
 4087SOL    HW113160   2.190   0.101   0.720 -1.4927  0.0917 -0.1614
 4087SOL    HW213161   2.243  -0.053   0.709  1.4356  0.8468  2.1202
 4088SOL     OW13162   5.015   4.388   3.843 -0.1686 -0.7652 -0.9791
 4088SOL    HW113163   5.084   4.318   3.826 -0.1277 -1.1390  0.5540
 4088SOL    HW213164   4.945   4.351   3.905 -0.5177  0.3142 -0.7120
 4089SOL     OW13165   6.519   5.299   0.952 -0.3107  0.0108 -0.4114
 4089SOL    HW113166   6.591   5.310   0.884  1.8371 -1.6846  1.4240
 4089SOL    HW213167   6.430   5.300   0.907  0.9587 -0.0980 -3.0962
 4090SOL     OW13168   3.819   0.289   5.185 -0.0657  0.1178  0.2719
 4090SOL    HW113169   3.760   0.334   5.252 -0.5920 -2.2948  1.5376
 4090SOL    HW213170   3.762   0.231   5.126  0.9500 -1.7682  1.1049
 4091SOL     OW13171   1.331   3.908   5.478  0.6470  0.5695  0.0468
 4091SOL    HW113172   1.299   3.922   5.572 -0.1208  3.1679 -0.5039
 4091SOL    HW213173   1.430   3.922   5.475  0.6151  0.9131  0.4159
 4092SOL     OW13174   3.898   6.396   2.245  0.3322 -0.0419  0.5215
 4092SOL    HW113175   3.911   6.483   2.197  1.1477 -0.2706  0.2981
 4092SOL    HW213176   3.980   6.340   2.233 -1.1419 -1.9579 -1.6246
 4093SOL     OW13177   6.783   0.257   2.112  0.3224  0.0000  0.2986
 4093SOL    HW113178   6.736   0.284   2.196 -0.5219  3.6933 -1.1547
 4093SOL    HW213179   6.718   0.258   2.035  1.2972 -2.1975 -0.6468
 4094SOL     OW13180   2.214   2.901   0.516 -0.4069  0.2867 -0.2684
 4094SOL    HW113181   2.172   2.826   0.465 -2.1882  0.7592  0.4405
 4094SOL    HW213182   2.249   2.969   0.451 -1.6309  0.3424 -0.9004
 4095SOL     OW13183   4.133   0.454   5.918 -0.8397  0.1066  0.6910
 4095SOL    HW113184   4.093   0.541   5.947 -2.1286  0.1942 -1.1623
 4095SOL    HW213185   4.061   0.384   5.915  0.3811 -1.4360  3.3653
 4096SOL     OW13186   6.756   2.353   4.977  0.1729 -0.2482  0.3928
 4096SOL    HW113187   6.819   2.373   5.052  0.9063 -0.6015 -0.1246
 4096SOL    HW213188   6.662   2.361   5.010  0.4881 -0.4853  1.3838
 4097SOL     OW13189   3.976   4.503   5.794 -0.0571  0.0481  0.6368
 4097SOL    HW113190   4.003   4.505   5.890  2.1248 -2.3918  0.1950
 4097SOL    HW213191   3.927   4.417   5.775 -0.2233  0.3795 -0.4902
 4098SOL     OW13192   1.203   1.894   2.705 -0.4347  0.5734  0.7510
 4098SOL    HW113193   1.231   1.798   2.707  1.8664  1.1627 -0.1593
 4098SOL    HW213194   1.111   1.902   2.744 -0.4296 -1.8860  1.4767
 4099SOL     OW13195   1.921   6.653   0.984  0.2880 -1.0207 -0.2996
 4099SOL    HW113196   1.851   6.665   1.054 -0.5625 -1.4896 -1.0506
 4099SOL    HW213197   1.958   6.742   0.957  0.6724 -0.8382  0.7716
 4100SOL     OW13198   6.740   3.739   1.383  0.4203  0.1441  0.6385
 4100SOL    HW113199   6.733   3.829   1.340  1.0984 -0.5337 -0.9773
 4100SOL    HW213200   6.668   3.729   1.452  1.9486  2.9406  2.8686
 4101SOL     OW13201   3.169   2.995   2.599 -0.6007  0.0911 -0.4173
 4101SOL    HW113202   3.252   2.946   2.625 -0.9300  0.1325  0.7664
 4101SOL    HW213203   3.161   2.995   2.499 -1.0306 -3.0501 -0.5030
 4102SOL     OW13204   0.050   6.797   6.744  0.0386 -0.1555  0.4973
 4102SOL    HW113205   0.068   6.707   6.705  2.0618  1.4741 -2.7566
 4102SOL    HW213206   0.014   6.857   6.673  0.8916  2.2115  1.9681
 4103SOL     OW13207   0.172   2.129   3.864  0.2153  0.7478  0.2882
 4103SOL    HW113208   0.097   2.194   3.868 -0.2403  0.4557 -2.1589
 4103SOL    HW213209   0.136   2.037   3.848  1.0072  0.3344  0.7971
 4104SOL     OW13210   6.626   2.009   6.576 -0.2214 -0.0944  0.3658
 4104SOL    HW113211   6.577   2.069   6.512  0.9168  1.2329  0.7084
 4104SOL    HW213212   6.685   1.947   6.524 -1.5553 -1.1247  0.0001
 4105SOL     OW13213   1.538   1.710   3.364 -0.3664  0.1538 -0.1459
 4105SOL    HW113214   1.561   1.621   3.324  0.8884  0.3594  0.0549
 4105SOL    HW213215   1.603   1.731   3.437 -1.0998  0.9096  0.2974
 4106SOL     OW13216   5.513   4.778   4.781  0.3019  0.3334  0.7425
 4106SOL    HW113217   5.456   4.711   4.733 -1.7957  2.1321  0.5495
 4106SOL    HW213218   5.600   4.789   4.733  0.6270 -2.0367  0.6720
 4107SOL     OW13219   6.328   4.840   1.425 -0.6816 -0.3451  0.0201
 4107SOL    HW113220   6.281   4.777   1.363 -1.4853  1.3747 -1.2341
 4107SOL    HW213221   6.279   4.844   1.512 -0.8304 -1.1707 -0.0218
 4108SOL     OW13222   5.066   2.325   4.179 -0.3367 -0.2224 -0.1969
 4108SOL    HW113223   5.041   2.255   4.246 -1.0763  0.8766  0.7285
 4108SOL    HW213224   4.983   2.361   4.137  0.0338  0.0896 -0.6642
 4109SOL     OW13225   0.115   2.464   3.218 -0.6429  0.2819 -0.0844
 4109SOL    HW113226   0.173   2.530   3.265 -1.3624  0.7546  0.1504
 4109SOL    HW213227   0.172   2.391   3.179  0.2749  1.5756 -1.2631
 4110SOL     OW13228   1.132   2.214   3.415  0.1501  0.1820 -0.0716
 4110SOL    HW113229   1.194   2.143   3.449  0.0746  0.6166  1.0178
 4110SOL    HW213230   1.040   2.197   3.449  0.0101  0.4780 -0.2975
 4111SOL     OW13231   1.341   6.231   0.496 -0.6549  0.1295  0.1862
 4111SOL    HW113232   1.397   6.274   0.567 -0.1433 -1.0848  0.5419
 4111SOL    HW213233   1.394   6.227   0.411 -1.4529  2.0561 -0.4460
 4112SOL     OW13234   2.395   2.748   4.314  0.0808 -0.0649 -0.1603
 4112SOL    HW113235   2.459   2.688   4.362 -0.6124 -0.9803 -0.3510
 4112SOL    HW213236   2.375   2.710   4.224 -0.1084  0.6346 -0.4151
 4113SOL     OW13237   6.826   5.260   0.890  0.4971 -0.0964 -0.4457
 4113SOL    HW113238   6.909   5.300   0.851  0.5886 -0.4163 -0.5831
 4113SOL    HW213239   6.842   5.237   0.986  0.0167  1.4460  0.0339
 4114SOL     OW13240   3.599   3.290   5.727  0.1714 -0.1144  0.3341
 4114SOL    HW113241   3.575   3.298   5.823 -0.6099 -0.5651  0.1829
 4114SOL    HW213242   3.698   3.282   5.717  0.4388  1.8163  0.9778
 4115SOL     OW13243   1.771   1.163   6.513 -0.0445 -0.0127 -0.3916
 4115SOL    HW113244   1.720   1.241   6.476 -0.2224 -0.4356 -1.0480
 4115SOL    HW213245   1.720   1.123   6.589 -0.4290 -0.0948 -0.6917
 4116SOL     OW13246   4.679   6.401   1.623 -0.3387 -0.2061 -0.1388
 4116SOL    HW113247   4.636   6.379   1.711 -0.3275 -0.8216 -0.2795
 4116SOL    HW213248   4.767   6.444   1.639  1.2511 -3.3219  0.2184
 4117SOL     OW13249   3.201   1.188   4.560 -0.2200  0.0217  0.1575
 4117SOL    HW113250   3.228   1.117   4.494  1.2818  0.8419 -0.1615
 4117SOL    HW213251   3.184   1.273   4.511 -2.9426 -0.2810  0.4264
 4118SOL     OW13252   1.523   3.953   2.720 -0.0303  0.0063  0.1323
 4118SOL    HW113253   1.442   3.962   2.661  1.5242  2.1133 -1.8841
 4118SOL    HW213254   1.537   4.039   2.770  0.8235 -0.4314  0.6710
 4119SOL     OW13255   6.636   1.414   3.364  0.6556  0.8058 -0.2899
 4119SOL    HW113256   6.562   1.363   3.321 -0.4690  0.9115  1.4093
 4119SOL    HW213257   6.598   1.491   3.415  1.9735  1.0588  0.3597
 4120SOL     OW13258   3.394   2.217   0.497 -0.6281 -0.4382 -0.3280
 4120SOL    HW113259   3.346   2.138   0.459 -2.4547  0.2249  0.5115
 4120SOL    HW213260   3.443   2.190   0.580 -0.8215 -0.7934 -0.3280
 4121SOL     OW13261   6.163   1.229   4.492  0.6734  0.0371  0.2617
 4121SOL    HW113262   6.188   1.321   4.522  1.2496  0.1645 -0.5793
 4121SOL    HW213263   6.208   1.161   4.550  0.7294  0.2808  0.5051
 4122SOL     OW13264   2.514   4.975   5.664  0.0556  0.0217  0.1522
 4122SOL    HW113265   2.505   5.016   5.754  1.5068  1.1130 -0.1653
 4122SOL    HW213266   2.511   4.876   5.672 -0.0141  0.1090  1.3706
 4123SOL     OW13267   0.804   0.981   3.455 -0.5187  0.8194  0.0605
 4123SOL    HW113268   0.777   0.938   3.541 -1.6089  0.7360 -0.2973
 4123SOL    HW213269   0.813   0.911   3.384  0.6232  0.8593  0.1544
 4124SOL     OW13270   4.393   5.744   1.904 -0.2740  0.0338 -0.5336
 4124SOL    HW113271   4.406   5.645   1.916  1.4473  0.3615  0.5890
 4124SOL    HW213272   4.318   5.775   1.962 -0.4239 -0.5054 -0.4335
 4125SOL     OW13273   3.687   0.863   2.416  0.4243 -0.0201  0.5772
 4125SOL    HW113274   3.605   0.881   2.361  0.2143 -0.4869  0.7331
 4125SOL    HW213275   3.747   0.801   2.367  0.4861 -0.0154  0.6470
 4126SOL     OW13276   0.758   6.225   2.953 -0.0625  0.3497  0.4583
 4126SOL    HW113277   0.852   6.201   2.929 -0.1442 -0.0482  0.5328
 4126SOL    HW213278   0.758   6.301   3.017  0.1918  0.7426 -0.0038
 4127SOL     OW13279   6.084   4.441   1.998 -0.0737 -0.0149  0.4497
 4127SOL    HW113280   6.019   4.510   2.030  0.0839 -0.1746  1.1456
 4127SOL    HW213281   6.100   4.375   2.072  0.4235 -0.3113  0.0791
 4128SOL     OW13282   1.314   3.658   6.205  0.0622 -0.7485  1.0001
 4128SOL    HW113283   1.291   3.665   6.302 -0.8430 -0.9656  0.8116
 4128SOL    HW213284   1.282   3.740   6.157  2.2224  0.2640  1.1893
 4129SOL     OW13285   4.178   1.445   3.943 -0.2670  0.1480 -0.1057
 4129SOL    HW113286   4.170   1.486   4.034 -0.6418 -0.3341  0.0785
 4129SOL    HW213287   4.250   1.493   3.892  0.3880  0.0187  0.6615
 4130SOL     OW13288   5.950   6.461   4.952  0.6095  0.0539 -0.9949
 4130SOL    HW113289   5.953   6.362   4.968  0.1362  0.4285  1.8816
 4130SOL    HW213290   5.888   6.480   4.876 -1.3118 -1.7574  0.0174
 4131SOL     OW13291   5.715   1.591   1.385 -0.0584  0.1161  1.1410
 4131SOL    HW113292   5.697   1.689   1.379 -0.8421 -0.1179 -1.7939
 4131SOL    HW213293   5.634   1.545   1.423 -0.3897  0.4137  0.8002
 4132SOL     OW13294   0.794   0.220   2.880  0.0734 -0.0636  0.0329
 4132SOL    HW113295   0.804   0.159   2.801 -0.5162 -0.2564  0.0960
 4132SOL    HW213296   0.730   0.293   2.857  0.7603  0.5275 -0.0312
 4133SOL     OW13297   1.852   0.593   6.724  0.1264  0.3148  1.0337
 4133SOL    HW113298   1.887   0.510   6.681 -1.5801  0.9312 -1.8594
 4133SOL    HW213299   1.919   0.667   6.711  0.6424 -0.0499  1.5656
 4134SOL     OW13300   1.095   0.558   5.072  0.1686 -0.0251  0.0291
 4134SOL    HW113301   1.136   0.599   5.153 -0.5559 -1.1340  0.9764
 4134SOL    HW213302   1.162   0.499   5.026  0.4134  0.1889  0.1106
 4135SOL     OW13303   0.829   2.109   2.092 -0.2481 -0.3987  0.3584
 4135SOL    HW113304   0.826   2.059   2.006  0.2447 -0.4863  0.3895
 4135SOL    HW213305   0.923   2.114   2.125 -0.3237  0.3277  0.4843
 4136SOL     OW13306   3.388   6.463   4.833 -0.0582  0.0466  0.3026
 4136SOL    HW113307   3.455   6.392   4.815 -0.0331 -0.0549  0.7833
 4136SOL    HW213308   3.345   6.492   4.747  0.2632 -0.2172  0.0535
 4137SOL     OW13309   2.956   0.926   1.842 -0.8888 -0.1149 -0.1906
 4137SOL    HW113310   2.857   0.917   1.855 -1.0436  1.6011 -0.0018
 4137SOL    HW213311   2.974   0.953   1.747 -0.5055 -1.3938 -0.5082
 4138SOL     OW13312   4.741   6.192   4.237  0.3818  0.5958  0.4710
 4138SOL    HW113313   4.778   6.175   4.146 -1.2259 -0.7450  0.0111
 4138SOL    HW213314   4.730   6.291   4.250  1.0245  0.8330 -0.6263
 4139SOL     OW13315   5.413   1.191   4.593  0.4142 -0.0578 -0.0046
 4139SOL    HW113316   5.374   1.281   4.573 -1.4072 -0.5905  1.0050
 4139SOL    HW213317   5.507   1.187   4.557 -0.0665  1.6207 -1.6049
 4140SOL     OW13318   2.010   0.576   1.063  0.0871 -0.5600 -0.1511
 4140SOL    HW113319   1.969   0.640   1.127 -2.7443 -0.7376 -1.6342
 4140SOL    HW213320   2.082   0.622   1.011 -1.3149  1.2356 -0.6008
 4141SOL     OW13321   6.638   4.598   1.755  0.6192  0.6327 -0.5968
 4141SOL    HW113322   6.631   4.512   1.806 -0.0899  1.1013  0.1168
 4141SOL    HW213323   6.669   4.670   1.817 -0.0164  1.1607 -0.8822
 4142SOL     OW13324   4.163   4.338   0.481 -0.0078 -0.2120 -0.0487
 4142SOL    HW113325   4.126   4.423   0.519  2.6257  1.6616 -1.3210
 4142SOL    HW213326   4.238   4.305   0.539  3.0981  1.8953 -2.4778
 4143SOL     OW13327   3.942   3.754   0.966  0.0983 -0.4479  0.0045
 4143SOL    HW113328   3.939   3.655   0.961  1.2290 -0.5151  0.4387
 4143SOL    HW213329   4.032   3.787   0.937 -0.1079  0.4182  0.2934
 4144SOL     OW13330   3.267   6.904   1.024 -0.4579  0.5819 -0.1860
 4144SOL    HW113331   3.207   6.879   0.948 -2.0775  1.2606  0.8013
 4144SOL    HW213332   3.302   6.821   1.067 -1.1951  0.1446 -0.4057
 4145SOL     OW13333   6.905   2.111   3.796  1.2519 -0.5693  0.0379
 4145SOL    HW113334   6.890   2.190   3.856 -0.5430  1.0726 -2.3646
 4145SOL    HW213335   6.820   2.058   3.790  1.1535 -0.2548 -1.6023
 4146SOL     OW13336   3.336   3.967   6.404 -0.3382 -1.1591 -0.1070
 4146SOL    HW113337   3.293   3.885   6.442 -0.8206 -0.8182  0.1028
 4146SOL    HW213338   3.274   4.045   6.415  0.1361 -0.7537 -0.2546
 4147SOL     OW13339   5.574   2.748   4.282  0.4194 -0.0859 -0.0841
 4147SOL    HW113340   5.504   2.698   4.231  0.5135 -0.3390  0.0375
 4147SOL    HW213341   5.586   2.707   4.372 -0.1417  0.7026  0.3602
 4148SOL     OW13342   3.682   6.686   4.594 -0.3765  0.7738  0.3162
 4148SOL    HW113343   3.762   6.637   4.562 -0.9281 -0.5166  0.8600
 4148SOL    HW213344   3.673   6.676   4.693  1.0914  4.3750  0.9863
 4149SOL     OW13345   0.148   0.613   5.996  0.1058 -0.1316  0.0458
 4149SOL    HW113346   0.071   0.551   6.007 -0.2057 -0.1025 -1.6238
 4149SOL    HW213347   0.158   0.636   5.899  1.7557  0.4606  0.3250
 4150SOL     OW13348   0.550   1.186   6.109  0.5395  0.1014  0.1460
 4150SOL    HW113349   0.644   1.188   6.141 -0.0931  1.8467  2.1328
 4150SOL    HW213350   0.541   1.121   6.033  2.9966 -1.1637  0.8655
 4151SOL     OW13351   5.202   2.271   4.682 -0.1390  0.2241  0.3985
 4151SOL    HW113352   5.261   2.294   4.760 -1.3859  0.8579  1.1879
 4151SOL    HW213353   5.163   2.355   4.645 -1.3007 -0.2537  0.5057
 4152SOL     OW13354   2.034   2.096   2.863 -0.3268 -0.2242  0.0668
 4152SOL    HW113355   2.020   2.188   2.899  0.4257 -0.3372  0.6580
 4152SOL    HW213356   2.052   2.033   2.937 -1.9238 -1.0848 -0.2323
 4153SOL     OW13357   5.556   2.856   5.844 -0.3292  0.7260  1.0361
 4153SOL    HW113358   5.464   2.879   5.812  0.0414  1.1163  0.2090
 4153SOL    HW213359   5.622   2.877   5.772  0.2057 -1.5989  0.7902
 4154SOL     OW13360   0.020   0.221   2.169 -0.3837 -0.0477 -0.1642
 4154SOL    HW113361   0.073   0.188   2.090 -0.8251  0.1440 -0.5447
 4154SOL    HW213362  -0.076   0.231   2.143 -0.3476  1.0565  0.0798
 4155SOL     OW13363   3.694   5.089   6.943  0.2572  0.2510  0.0453
 4155SOL    HW113364   3.794   5.092   6.947  0.2973 -0.4098 -0.3903
 4155SOL    HW213365   3.658   5.182   6.953  0.9320  0.5589 -0.3009
 4156SOL     OW13366   5.985   4.249   4.554 -0.6926 -0.1944 -0.1716
 4156SOL    HW113367   5.936   4.172   4.514  0.1676 -0.4074 -0.8493
 4156SOL    HW213368   5.992   4.236   4.653 -0.4697 -1.0508 -0.2876
 4157SOL     OW13369   3.755   5.476   3.491  0.3448  0.5304 -0.4734
 4157SOL    HW113370   3.707   5.431   3.415 -0.0418  0.2555 -0.0692
 4157SOL    HW213371   3.803   5.408   3.546  0.3178  0.6867 -0.2528
 4158SOL     OW13372   4.799   4.907   6.407 -0.0264  0.5992  0.4200
 4158SOL    HW113373   4.855   4.885   6.327 -1.0082  0.8827 -0.3691
 4158SOL    HW213374   4.719   4.960   6.378 -1.1614 -0.5166  1.3630
 4159SOL     OW13375   1.633   0.868   5.858 -0.3916 -0.1915  0.2073
 4159SOL    HW113376   1.590   0.795   5.806 -0.2222  0.5054 -0.9604
 4159SOL    HW213377   1.568   0.943   5.871  0.5592  1.1538 -2.1501
 4160SOL     OW13378   0.043   5.807   2.882 -0.2261 -0.1581 -0.5470
 4160SOL    HW113379  -0.036   5.855   2.920 -0.6824 -1.5435  0.3552
 4160SOL    HW213380   0.023   5.779   2.788 -1.7475 -2.3215  0.3088
 4161SOL     OW13381   5.834   6.634   2.133 -0.5655  0.3273 -0.5725
 4161SOL    HW113382   5.822   6.707   2.067 -1.3123 -0.2869 -1.1464
 4161SOL    HW213383   5.892   6.563   2.094 -1.8695 -0.5365 -1.0242
 4162SOL     OW13384   5.768   4.335   5.811  0.4114  0.4597  0.3859
 4162SOL    HW113385   5.826   4.264   5.852 -1.3186 -1.1368  0.1840
 4162SOL    HW213386   5.820   4.384   5.741  1.0663 -2.0526 -0.9878
 4163SOL     OW13387   0.007   6.105   2.016  0.4942 -0.2227 -0.2051
 4163SOL    HW113388   0.055   6.147   1.939  0.1654  0.5971  0.0317
 4163SOL    HW213389  -0.089   6.090   1.991  0.5222 -0.4872 -0.1556
 4164SOL     OW13390   2.026   6.935   0.985 -0.1360 -0.4319 -0.2432
 4164SOL    HW113391   2.071   6.993   0.917  0.0098 -0.5370 -0.2391
 4164SOL    HW213392   2.020   6.984   1.072 -1.2954  0.1063 -0.6116
 4165SOL     OW13393   3.853   2.996   2.100  0.1368  0.0368  0.0153
 4165SOL    HW113394   3.913   3.075   2.112  0.4481 -0.2928  0.6731
 4165SOL    HW213395   3.879   2.947   2.017 -0.0656  0.6242 -0.4050
 4166SOL     OW13396   1.159   6.002   6.216 -0.6778 -0.0736 -0.5229
 4166SOL    HW113397   1.251   5.963   6.210 -1.0982 -0.8852 -2.3810
 4166SOL    HW213398   1.136   6.048   6.130 -1.1623  2.1856  0.7394
 4167SOL     OW13399   6.081   2.895   6.495 -0.1691 -0.6085 -0.3031
 4167SOL    HW113400   6.172   2.930   6.521 -0.3518 -0.6287  0.3932
 4167SOL    HW213401   6.011   2.956   6.530 -0.5106 -1.8202  1.2472
 4168SOL     OW13402   2.791   0.500   6.999 -0.1562 -0.6390 -0.2125
 4168SOL    HW113403   2.867   0.439   6.976 -0.6938 -0.7791 -1.7444
 4168SOL    HW213404   2.720   0.491   6.930 -0.7377  0.9158  0.1500
 4169SOL     OW13405   6.400   0.123   3.252  0.1708 -0.1960 -0.6836
 4169SOL    HW113406   6.437   0.031   3.262  1.4387  0.2705 -0.9178
 4169SOL    HW213407   6.372   0.137   3.157 -2.1770 -1.0928 -0.1812
 4170SOL     OW13408   1.767   3.661   0.627  0.2711 -0.3072  0.4810
 4170SOL    HW113409   1.829   3.598   0.578 -0.3510 -0.4850 -0.1009
 4170SOL    HW213410   1.820   3.715   0.693  1.1787  0.0614 -0.5066
 4171SOL     OW13411   2.712   5.778   0.086 -0.5478 -0.1316 -0.1275
 4171SOL    HW113412   2.706   5.795  -0.013 -0.4446 -2.9853 -0.7082
 4171SOL    HW213413   2.805   5.795   0.117 -0.3382 -0.1721 -0.7279
 4172SOL     OW13414   1.797   0.475   4.123  0.1696 -0.1679  0.1010
 4172SOL    HW113415   1.858   0.518   4.190  1.4666 -1.6011 -0.0942
 4172SOL    HW213416   1.749   0.400   4.168  1.4246 -1.4654 -0.6312
 4173SOL     OW13417   0.160   6.317   1.552  0.1325  0.2000  0.1112
 4173SOL    HW113418   0.088   6.270   1.500 -0.2226  0.7648  0.0788
 4173SOL    HW213419   0.196   6.392   1.497  2.3272 -1.4128 -0.7827
 4174SOL     OW13420   6.318   1.501   1.775 -0.2122 -0.3752 -0.3346
 4174SOL    HW113421   6.270   1.588   1.768 -0.8341 -0.6979 -0.1634
 4174SOL    HW213422   6.406   1.507   1.728 -0.6276  0.0754 -1.0638
 4175SOL     OW13423   1.091   6.340   1.923 -0.8740 -0.1137 -0.0297
 4175SOL    HW113424   1.126   6.428   1.954  0.1779 -1.0812  1.6569
 4175SOL    HW213425   1.165   6.290   1.877 -1.2201 -0.4933 -0.1761
 4176SOL     OW13426   6.939   5.691   3.766 -0.2240 -0.2391 -0.2886
 4176SOL    HW113427   6.921   5.783   3.734 -0.8959 -0.0987  0.4649
 4176SOL    HW213428   6.978   5.694   3.858  0.6935 -0.6744 -0.6467
 4177SOL     OW13429   4.108   3.842   5.705  0.1130 -0.0377  0.1564
 4177SOL    HW113430   4.196   3.823   5.749  1.0491  0.2312 -1.4744
 4177SOL    HW213431   4.116   3.925   5.650 -0.6882 -0.8045 -1.1929
 4178SOL     OW13432   0.787   6.406   4.975 -0.5383 -0.2084  0.0362
 4178SOL    HW113433   0.769   6.428   4.879 -0.9952 -1.1849 -0.1201
 4178SOL    HW213434   0.794   6.306   4.986  0.9285 -0.0578  0.7811
 4179SOL     OW13435   4.906   6.715   5.190  0.1416  0.0077  0.3086
 4179SOL    HW113436   4.919   6.783   5.118 -0.1874  0.2628  0.4848
 4179SOL    HW213437   4.885   6.761   5.276 -1.9819 -0.3303  0.0391
 4180SOL     OW13438   3.864   1.454   2.829  0.7139 -0.4206 -0.2928
 4180SOL    HW113439   3.793   1.512   2.869 -0.3260 -1.1542 -1.0266
 4180SOL    HW213440   3.902   1.499   2.748 -0.7226 -1.1089 -1.3893
 4181SOL     OW13441   2.327   3.134   0.104 -0.8301  0.1649  0.5544
 4181SOL    HW113442   2.419   3.169   0.088 -0.8460  0.3249  0.8065
 4181SOL    HW213443   2.293   3.088   0.021 -1.2646  1.7711 -0.2011
 4182SOL     OW13444   5.137   5.183   0.598 -0.0256 -0.4289  0.0371
 4182SOL    HW113445   5.064   5.240   0.559 -0.0179  0.4875  1.2687
 4182SOL    HW213446   5.185   5.235   0.669 -1.2877 -2.5560  2.6477
 4183SOL     OW13447   2.613   0.451   2.065  0.3365  0.2421 -0.2190
 4183SOL    HW113448   2.562   0.370   2.034  1.0265 -0.3222  0.0930
 4183SOL    HW213449   2.647   0.435   2.157 -0.5341  1.3743  0.3160
 4184SOL     OW13450   0.676   1.699   0.255  0.0528  0.3595  0.2298
 4184SOL    HW113451   0.602   1.727   0.194 -0.5687 -0.1100  0.7616
 4184SOL    HW213452   0.649   1.618   0.307  1.0028  0.0762  0.3139
 4185SOL     OW13453   3.137   5.296   2.912  0.2844  0.2855  0.0381
 4185SOL    HW113454   3.204   5.223   2.924 -0.1590 -0.4182 -1.5374
 4185SOL    HW213455   3.045   5.258   2.918  0.0425  0.7912 -0.4244
 4186SOL     OW13456   0.882   0.579   2.847 -0.1219 -0.3992  0.2331
 4186SOL    HW113457   0.953   0.511   2.865  0.5239  0.1961 -0.0372
 4186SOL    HW213458   0.794   0.533   2.838 -0.5134 -0.8922  4.3383
 4187SOL     OW13459   0.138   2.698   4.572 -0.6010 -0.3778 -0.6985
 4187SOL    HW113460   0.043   2.699   4.541 -0.5915 -0.9591 -0.7562
 4187SOL    HW213461   0.140   2.693   4.672 -0.6308  1.3855 -0.5770
 4188SOL     OW13462   1.013   4.095   6.569  0.0731  0.2250  0.7585
 4188SOL    HW113463   1.002   4.016   6.630 -2.4982  1.0572  1.5261
 4188SOL    HW213464   1.044   4.174   6.622  1.3812  0.0727  0.2415
 4189SOL     OW13465   2.107   0.465   4.314 -0.1568  0.0326  0.4926
 4189SOL    HW113466   2.144   0.499   4.400 -1.4533  0.7007  0.8110
 4189SOL    HW213467   2.137   0.371   4.299  0.1358 -0.0659  1.6452
 4190SOL     OW13468   3.310   6.499   0.780  0.4133 -0.0608  0.0850
 4190SOL    HW113469   3.354   6.552   0.707  0.9330 -0.8116 -0.1570
 4190SOL    HW213470   3.324   6.402   0.764  0.7317 -0.2325  1.3219
 4191SOL     OW13471   6.425   4.877   6.828  0.4579  0.0971  0.1294
 4191SOL    HW113472   6.375   4.843   6.749 -1.4211  1.5212  0.6339
 4191SOL    HW213473   6.466   4.966   6.806  1.0659 -0.1208  0.3564
 4192SOL     OW13474   2.529   5.228   3.838 -0.2279 -0.8460  0.2072
 4192SOL    HW113475   2.534   5.320   3.876 -0.4659 -0.5929 -0.3609
 4192SOL    HW213476   2.451   5.222   3.776 -0.1352 -1.3898  0.1396
 4193SOL     OW13477   3.961   2.348   6.116  0.0180 -0.0659  0.5174
 4193SOL    HW113478   4.010   2.403   6.184  0.2311 -0.9363  1.0922
 4193SOL    HW213479   4.027   2.309   6.052  0.0734 -0.9583  1.0873
 4194SOL     OW13480   5.757   5.137   4.102  0.2632  0.4870 -0.2395
 4194SOL    HW113481   5.837   5.186   4.138  1.4557 -1.4785 -0.0452
 4194SOL    HW213482   5.694   5.117   4.177  0.1954  0.9508 -0.1700
 4195SOL     OW13483   4.987   4.976   1.744 -0.0975 -0.4745  0.3816
 4195SOL    HW113484   5.007   5.026   1.829  1.5483 -0.0977 -0.1840
 4195SOL    HW213485   4.933   5.034   1.683 -1.0218 -0.6304  1.0276
 4196SOL     OW13486   2.277   4.698   2.111  0.2268 -0.4846 -0.2779
 4196SOL    HW113487   2.290   4.719   2.014 -1.2867 -0.0348 -0.4122
 4196SOL    HW213488   2.321   4.611   2.133  0.6191 -0.5734 -1.3584
 4197SOL     OW13489   1.693   3.727   5.586 -0.9351 -0.9794  0.3051
 4197SOL    HW113490   1.613   3.759   5.637 -0.5935  2.0972 -0.8602
 4197SOL    HW213491   1.776   3.758   5.631 -0.5844  0.1901 -1.0802
 4198SOL     OW13492   6.759   5.747   3.067  0.2180 -0.1175 -0.4588
 4198SOL    HW113493   6.783   5.728   3.162  0.5267 -1.6372 -0.8051
 4198SOL    HW213494   6.804   5.680   3.008  0.8730  1.4196 -1.7874
 4199SOL     OW13495   4.067   3.662   1.944 -0.3150 -0.0478 -1.0515
 4199SOL    HW113496   4.120   3.580   1.920  1.4490  0.9019 -0.6202
 4199SOL    HW213497   4.073   3.677   2.043 -0.4233  0.7152 -1.1563
 4200SOL     OW13498   5.480   6.971   0.414  0.2042  0.2633 -0.0839
 4200SOL    HW113499   5.450   6.877   0.401 -1.0141  0.7065 -0.5966
 4200SOL    HW213500   5.460   7.000   0.507 -1.5412  0.7324 -0.5740
 4201SOL     OW13501   0.516   1.471   0.409  0.2960 -0.5199 -0.7482
 4201SOL    HW113502   0.470   1.389   0.444 -0.1281  0.6853  1.6935
 4201SOL    HW213503   0.448   1.539   0.383  0.6468 -0.8754 -2.8542
 4202SOL     OW13504   4.893   3.039   2.373  0.0674 -0.1532  0.1831
 4202SOL    HW113505   4.856   3.027   2.465 -1.3595  1.8840 -0.0347
 4202SOL    HW213506   4.840   2.985   2.308  0.1419 -0.4792  0.3965
 4203SOL     OW13507   1.444   2.575   4.287 -0.3779  0.2611 -0.3263
 4203SOL    HW113508   1.405   2.652   4.337 -0.2129 -0.3618  0.8146
 4203SOL    HW213509   1.381   2.497   4.289 -0.1048  0.0286 -0.5521
 4204SOL     OW13510   1.200   5.934   2.343 -0.0078 -0.4924 -0.1972
 4204SOL    HW113511   1.175   5.923   2.247 -0.1179  1.9764 -0.5163
 4204SOL    HW213512   1.132   5.887   2.400 -0.1836 -1.6269 -1.2902
 4205SOL     OW13513   0.958   2.310   6.674 -0.0653  0.0654 -0.8642
 4205SOL    HW113514   1.028   2.300   6.603  0.9117  0.5060  0.0164
 4205SOL    HW213515   0.894   2.383   6.648 -0.6010 -0.7715 -1.9762
 4206SOL     OW13516   4.391   6.711   5.126  0.1400 -0.1195  0.0216
 4206SOL    HW113517   4.472   6.744   5.076  0.2424 -0.4677 -0.0485
 4206SOL    HW213518   4.400   6.613   5.141 -0.8882 -0.4166 -1.1546
 4207SOL     OW13519   0.294   3.097   5.356 -0.2896 -0.1433 -0.1740
 4207SOL    HW113520   0.262   3.091   5.261 -0.7233  4.7308 -0.6017
 4207SOL    HW213521   0.373   3.158   5.361  0.7679 -1.5640  2.5045
 4208SOL     OW13522   3.365   5.059   5.957  0.0561 -0.7363  0.0620
 4208SOL    HW113523   3.310   5.101   5.884 -1.5028  0.5196  1.8500
 4208SOL    HW213524   3.413   5.130   6.008 -0.6905 -1.3180  1.6542
 4209SOL     OW13525   5.112   1.733   6.492  0.2275 -0.4834  0.8524
 4209SOL    HW113526   5.024   1.758   6.531 -0.0697 -1.0097  0.5290
 4209SOL    HW213527   5.098   1.686   6.405  0.9126  2.4336 -0.9713
 4210SOL     OW13528   6.417   1.459   1.087  0.2807  0.3734  0.2660
 4210SOL    HW113529   6.493   1.409   1.127  0.3253  2.0722  2.4978
 4210SOL    HW213530   6.337   1.453   1.147  0.0440  2.2205  0.2004
 4211SOL     OW13531   1.213   3.915   5.002  0.7031  0.0717 -0.1283
 4211SOL    HW113532   1.198   3.944   5.097 -1.4970  1.4735 -0.8085
 4211SOL    HW213533   1.232   3.996   4.946 -1.1056 -0.2686 -1.3477
 4212SOL     OW13534   1.806   4.567   5.669  0.7962 -0.4422 -0.0536
 4212SOL    HW113535   1.834   4.635   5.737 -0.5796  0.5180 -0.4019
 4212SOL    HW213536   1.716   4.592   5.632 -1.4474 -4.2512  2.2768
 4213SOL     OW13537   5.582   6.223   2.296 -0.1371  0.7767  0.4292
 4213SOL    HW113538   5.571   6.128   2.324 -2.5483  0.7860 -0.2179
 4213SOL    HW213539   5.629   6.275   2.368 -0.4986 -0.5041  1.6198
 4214SOL     OW13540   0.908   0.293   6.117 -0.1801  0.1783 -0.0251
 4214SOL    HW113541   0.822   0.343   6.112  0.1943  0.8587  0.2186
 4214SOL    HW213542   0.967   0.321   6.041 -0.1192 -0.1850 -0.1132
 4215SOL     OW13543   2.086   3.060   1.246  0.2516  0.0753  0.7176
 4215SOL    HW113544   2.009   3.118   1.218 -0.0887 -0.2158  1.0396
 4215SOL    HW213545   2.088   3.054   1.345  0.6155 -0.0246  0.7045
 4216SOL     OW13546   2.797   4.233   0.399 -0.1867  0.1732 -0.1449
 4216SOL    HW113547   2.812   4.144   0.357  1.7642  1.0267 -1.4307
 4216SOL    HW213548   2.731   4.285   0.344 -1.8097 -0.6579  0.9555
 4217SOL     OW13549   3.178   1.015   5.861 -0.0858 -0.3632 -0.6664
 4217SOL    HW113550   3.241   0.972   5.925 -1.1118 -1.6108 -0.4715
 4217SOL    HW213551   3.192   1.114   5.862 -0.2558 -0.3163  1.6778
 4218SOL     OW13552   6.073   1.968   0.309  0.5011 -0.0160 -0.0308
 4218SOL    HW113553   6.093   1.921   0.395  0.0861 -1.0407 -0.4835
 4218SOL    HW213554   6.151   1.958   0.247  2.0095  3.0147  1.1104
 4219SOL     OW13555   0.139   2.077   1.756  0.0101  0.0917 -0.2319
 4219SOL    HW113556   0.233   2.081   1.789 -0.0736  0.0571  0.0089
 4219SOL    HW213557   0.137   2.098   1.658  0.2077  0.6104 -0.1297
 4220SOL     OW13558   1.727   3.118   5.935  0.2257  0.5970 -0.1104
 4220SOL    HW113559   1.757   3.023   5.937 -1.4449  0.0601  1.5962
 4220SOL    HW213560   1.761   3.166   6.016 -2.1746  0.3370  1.1396
 4221SOL     OW13561   0.790   5.397   4.834  0.0844 -0.2590 -0.9664
 4221SOL    HW113562   0.769   5.474   4.775 -0.7826  1.4643  1.4377
 4221SOL    HW213563   0.714   5.333   4.835 -0.4327  0.3526 -0.7664
 4222SOL     OW13564   0.104   2.092   3.243  0.0808  0.3947 -0.0215
 4222SOL    HW113565   0.073   1.998   3.261 -0.8467  0.7432  0.2420
 4222SOL    HW213566   0.148   2.096   3.153  0.0206 -0.2618 -0.0837
 4223SOL     OW13567   3.615   0.762   6.406 -0.7938  0.5554 -0.0314
 4223SOL    HW113568   3.654   0.757   6.315  1.6040  0.7303  0.9113
 4223SOL    HW213569   3.674   0.818   6.465 -2.5364  0.8819  1.5082
 4224SOL     OW13570   0.354   4.349   4.661 -0.3813 -0.4760 -0.0949
 4224SOL    HW113571   0.274   4.330   4.718 -0.3500  1.0462  0.4869
 4224SOL    HW213572   0.351   4.443   4.627  0.8388 -0.5899 -0.6023
 4225SOL     OW13573   0.972   1.412   4.185 -0.1708 -0.2519 -0.2691
 4225SOL    HW113574   1.071   1.406   4.192 -0.0656  0.7518 -0.6706
 4225SOL    HW213575   0.942   1.498   4.227 -1.0648 -1.3747  1.5337
 4226SOL     OW13576   3.188   0.924   2.502 -0.1301 -0.5032 -0.4307
 4226SOL    HW113577   3.136   0.841   2.520  0.6356 -1.2774 -1.5951
 4226SOL    HW213578   3.207   0.972   2.588 -1.1129 -1.1934  0.1890
 4227SOL     OW13579   3.513   3.195   5.103  0.2783  0.3657 -0.0621
 4227SOL    HW113580   3.556   3.116   5.060  2.9748  1.7272 -0.0632
 4227SOL    HW213581   3.414   3.180   5.109  0.6040 -2.6758 -0.6500
 4228SOL     OW13582   1.427   0.618   0.635  0.1407 -0.0394  0.0022
 4228SOL    HW113583   1.407   0.699   0.690 -0.8670 -0.0161 -0.3762
 4228SOL    HW213584   1.368   0.543   0.664  0.0855 -0.2271 -0.5922
 4229SOL     OW13585   0.333   6.821   6.366 -0.0714 -0.3413 -0.1907
 4229SOL    HW113586   0.421   6.790   6.329 -0.9345 -4.6768  0.7940
 4229SOL    HW213587   0.260   6.802   6.300 -0.6928 -0.6891  0.5737
 4230SOL     OW13588   6.133   5.458   6.560  0.1867  0.0800 -0.3516
 4230SOL    HW113589   6.055   5.520   6.572 -1.9303 -2.5775  0.6059
 4230SOL    HW213590   6.190   5.460   6.642 -0.6306 -0.1938  0.2398
 4231SOL     OW13591   5.408   6.497   2.565  0.0472 -0.0723  0.2673
 4231SOL    HW113592   5.387   6.550   2.647 -0.1357 -1.4708  1.1544
 4231SOL    HW213593   5.345   6.420   2.558  1.0850 -0.8903 -0.3139
 4232SOL     OW13594   5.088   2.594   0.325  0.0529 -0.3190 -0.0530
 4232SOL    HW113595   5.165   2.548   0.369  1.1020 -0.6022 -2.0627
 4232SOL    HW213596   5.074   2.684   0.366  2.1163  0.1543 -0.3006
 4233SOL     OW13597   5.359   2.477   0.397  0.2658  0.8260 -0.5248
 4233SOL    HW113598   5.356   2.378   0.410  0.2365  0.7214 -1.2480
 4233SOL    HW213599   5.422   2.498   0.322  1.0015  1.4240  0.2469
 4234SOL     OW13600   2.516   4.494   1.478 -0.4185 -0.3157  0.1951
 4234SOL    HW113601   2.445   4.442   1.525  0.8372 -1.0991  1.2980
 4234SOL    HW213602   2.528   4.457   1.386 -1.0917 -0.5064  0.1782
 4235SOL     OW13603   2.091   0.468   1.328  0.1928 -0.0634 -0.1489
 4235SOL    HW113604   2.155   0.400   1.364 -1.2889 -1.5563 -0.1870
 4235SOL    HW213605   2.075   0.450   1.231 -0.6559 -0.0153 -0.0209
 4236SOL     OW13606   4.806   2.211   0.646  0.0128  0.0892 -0.2659
 4236SOL    HW113607   4.898   2.175   0.629  0.9879  2.6312 -0.9011
 4236SOL    HW213608   4.757   2.150   0.707  3.2959  0.1499  2.7975
 4237SOL     OW13609   5.179   4.121   0.925  0.5486 -0.1378  0.3796
 4237SOL    HW113610   5.232   4.198   0.893  1.3065 -0.1744  1.5084
 4237SOL    HW213611   5.218   4.085   1.009 -0.1578 -1.3604  0.2208
 4238SOL     OW13612   3.699   4.781   0.796 -0.1682  0.1123 -0.5074
 4238SOL    HW113613   3.623   4.817   0.741 -1.7107 -0.3087  1.2356
 4238SOL    HW213614   3.681   4.685   0.818  1.9130 -0.6126 -1.7418
 4239SOL     OW13615   5.843   4.258   0.222 -0.2335 -0.0552 -0.2907
 4239SOL    HW113616   5.758   4.307   0.240 -0.8627 -1.0766 -0.3844
 4239SOL    HW213617   5.888   4.235   0.309 -0.1073  0.3881 -0.2384
 4240SOL     OW13618   2.195   6.967   1.425  0.2871  0.3604 -0.2459
 4240SOL    HW113619   2.256   6.938   1.351  0.3462 -0.5087  0.1237
 4240SOL    HW213620   2.238   6.947   1.513  0.1639  1.2771  0.0261
 4241SOL     OW13621   1.809   4.405   5.005  0.0657  0.5903  0.4476
 4241SOL    HW113622   1.794   4.468   5.080  0.6276 -0.8819  1.8699
 4241SOL    HW213623   1.907   4.386   4.997  0.0606  1.0275 -0.9423
 4242SOL     OW13624   4.694   0.179   5.932 -0.0125 -0.1100  0.4357
 4242SOL    HW113625   4.713   0.158   5.836 -1.7808  0.8361 -0.1694
 4242SOL    HW213626   4.617   0.124   5.964 -0.4640  0.7157  0.8150
 4243SOL     OW13627   6.778   0.302   3.117  0.1668  0.1889  0.1912
 4243SOL    HW113628   6.703   0.366   3.100 -0.0294 -0.4924 -1.8506
 4243SOL    HW213629   6.789   0.287   3.215 -1.3183  1.5143  0.5925
 4244SOL     OW13630   5.268   5.460   2.089  0.1474  0.1144 -0.6073
 4244SOL    HW113631   5.209   5.379   2.095  1.0384 -0.5890 -1.0083
 4244SOL    HW213632   5.341   5.443   2.023 -0.0115  1.5008 -1.1784
 4245SOL     OW13633   1.313   3.340   4.109 -0.5932 -0.3104  0.0918
 4245SOL    HW113634   1.378   3.413   4.130 -0.8832  0.1209 -0.4603
 4245SOL    HW213635   1.354   3.275   4.046 -0.7161 -0.0102 -0.2974
 4246SOL     OW13636   6.707   3.044   6.557 -0.4129  0.1220 -0.3446
 4246SOL    HW113637   6.632   2.982   6.533  0.7350 -1.4606 -0.0182
 4246SOL    HW213638   6.772   3.049   6.481  1.0217 -1.4826  0.7210
 4247SOL     OW13639   5.366   2.173   5.465  0.1605  0.2751  0.2617
 4247SOL    HW113640   5.342   2.099   5.528 -0.0562 -1.8217 -2.1326
 4247SOL    HW213641   5.461   2.199   5.478 -0.4382  1.5037  2.8942
 4248SOL     OW13642   3.121   2.053   1.336 -0.1178  0.1505  0.1684
 4248SOL    HW113643   3.151   2.136   1.290 -1.7149  0.2195 -0.8224
 4248SOL    HW213644   3.114   2.070   1.434 -1.3861  1.5197 -0.1238
 4249SOL     OW13645   5.464   1.462   2.804 -0.3408  0.0796  0.1933
 4249SOL    HW113646   5.478   1.559   2.784 -1.0156  0.5304  1.7730
 4249SOL    HW213647   5.408   1.421   2.732 -0.7108  1.0604 -0.0930
 4250SOL     OW13648   1.342   5.338   3.469  0.5225 -0.0210 -0.4696
 4250SOL    HW113649   1.297   5.426   3.488  2.9542  1.2642 -0.2896
 4250SOL    HW213650   1.321   5.274   3.544  1.2715  1.4695  1.0884
 4251SOL     OW13651   4.051   1.957   2.548  0.1086  0.6123  0.3190
 4251SOL    HW113652   4.133   1.928   2.598 -1.4501 -0.3243  2.5018
 4251SOL    HW213653   4.061   1.933   2.451  2.0745 -0.1777  0.6592
 4252SOL     OW13654   1.247   3.870   0.587 -0.4595 -0.1275  0.2661
 4252SOL    HW113655   1.182   3.795   0.576 -0.1950 -0.4387  0.7726
 4252SOL    HW213656   1.253   3.894   0.684  0.7915 -0.6548  0.3364
 4253SOL     OW13657   2.771   6.449   5.383  0.0235 -0.1375 -0.4563
 4253SOL    HW113658   2.824   6.398   5.315 -2.4210 -0.9018 -1.9059
 4253SOL    HW213659   2.791   6.547   5.375  1.5637 -0.4453 -0.5955
 4254SOL     OW13660   1.761   6.752   2.014  0.5603  0.1572 -0.2149
 4254SOL    HW113661   1.789   6.837   2.060 -0.8801 -0.2325  1.4609
 4254SOL    HW213662   1.689   6.772   1.948  0.2372  0.2503  0.1623
 4255SOL     OW13663   3.965   5.622   5.388 -0.1292  0.0156  0.0511
 4255SOL    HW113664   3.922   5.532   5.388 -0.4440  0.1437 -1.4303
 4255SOL    HW213665   3.921   5.681   5.320  2.2598  0.1702 -1.5012
 4256SOL     OW13666   4.391   3.770   1.254 -0.0879  0.0060  0.5155
 4256SOL    HW113667   4.394   3.821   1.340 -2.0505  0.5275  0.3270
 4256SOL    HW213668   4.299   3.732   1.241 -0.3843  1.4057 -2.1610
 4257SOL     OW13669   3.522   4.937   3.610 -0.4553  0.3028  0.1387
 4257SOL    HW113670   3.603   4.985   3.579 -0.3225 -0.7219 -1.1982
 4257SOL    HW213671   3.522   4.932   3.710  0.2303  1.8047  0.2303
 4258SOL     OW13672   6.095   1.479   2.101  0.2974  0.2394  0.6954
 4258SOL    HW113673   6.063   1.400   2.153  1.4708  0.0955  1.2139
 4258SOL    HW213674   6.195   1.477   2.094  0.2907  1.2734  0.0569
 4259SOL     OW13675   0.361   1.294   5.613 -0.1051  0.2499  0.3722
 4259SOL    HW113676   0.288   1.357   5.586 -0.5074  0.2526  1.4295
 4259SOL    HW213677   0.438   1.346   5.648 -0.0924  0.1906  0.4308
 4260SOL     OW13678   0.732   1.688   6.009 -0.5072  0.1103  0.4333
 4260SOL    HW113679   0.780   1.665   5.924 -1.8417  0.4303 -0.4418
 4260SOL    HW213680   0.737   1.611   6.072  0.1431 -0.2965 -0.0987
 4261SOL     OW13681   5.170   6.665   2.039 -0.1339 -0.0639  0.1005
 4261SOL    HW113682   5.238   6.735   2.017 -1.0770  0.9233  0.2465
 4261SOL    HW213683   5.176   6.590   1.972  0.6404  0.3274 -0.2770
 4262SOL     OW13684   0.556   0.186   0.669  0.0793  0.4420 -0.0074
 4262SOL    HW113685   0.574   0.237   0.585 -1.2687 -0.4658 -0.8913
 4262SOL    HW213686   0.587   0.091   0.659 -0.0970  0.3203  0.5144
 4263SOL     OW13687   5.140   1.785   6.996  0.7797  0.3314 -0.3133
 4263SOL    HW113688   5.214   1.813   7.057 -0.5985  1.7736  0.7712
 4263SOL    HW213689   5.101   1.699   7.028  0.4901  0.7476  0.4828
 4264SOL     OW13690   3.544   5.758   0.581 -0.4028 -0.1025 -0.2012
 4264SOL    HW113691   3.465   5.714   0.624  0.8527 -2.6679 -0.2874
 4264SOL    HW213692   3.608   5.788   0.651  0.1556 -1.3304 -0.1549
 4265SOL     OW13693   5.517   5.770   3.018 -0.3390  0.3477 -0.1670
 4265SOL    HW113694   5.472   5.788   2.931 -1.2600  0.3192  0.2901
 4265SOL    HW213695   5.492   5.841   3.084 -0.5010 -0.2147  0.3841
 4266SOL     OW13696   5.638   2.322   6.096  0.7669  0.4201  0.2171
 4266SOL    HW113697   5.592   2.269   6.024  2.4919 -1.8845  0.6866
 4266SOL    HW213698   5.593   2.410   6.107 -0.9965 -0.1138 -2.0513
 4267SOL     OW13699   1.198   5.042   2.751 -0.0272 -0.2356 -0.0873
 4267SOL    HW113700   1.288   5.082   2.767  0.2331 -0.7107 -0.3614
 4267SOL    HW213701   1.205   4.967   2.686 -0.2337 -1.7869  1.5885
 4268SOL     OW13702   3.917   0.937   3.140 -0.4473  0.2985  0.1168
 4268SOL    HW113703   3.948   1.011   3.200  3.0227 -0.6636 -0.2944
 4268SOL    HW213704   3.883   0.977   3.054 -2.2356  1.5028  1.3032
 4269SOL     OW13705   5.496   5.344   3.123 -0.1640 -0.3538 -0.1279
 4269SOL    HW113706   5.564   5.407   3.158  0.9347 -2.3951  1.6500
 4269SOL    HW213707   5.539   5.257   3.099 -2.0970 -1.6991  0.9749
 4270SOL     OW13708   4.012   5.918   6.326  0.4218 -0.2518  0.4383
 4270SOL    HW113709   4.082   5.858   6.364  1.2554  0.0563 -0.5661
 4270SOL    HW213710   3.994   5.894   6.231  1.1164  1.3567 -0.1376
 4271SOL     OW13711   1.081   6.266   0.426 -0.1536  0.2314 -0.5658
 4271SOL    HW113712   1.005   6.287   0.488 -1.6837  0.4364 -2.3981
 4271SOL    HW213713   1.168   6.280   0.473 -1.2329  1.0327  1.2919
 4272SOL     OW13714   3.177   6.842   6.076  0.5207 -0.3777  0.2432
 4272SOL    HW113715   3.122   6.921   6.103 -1.9674 -1.5998 -0.9407
 4272SOL    HW213716   3.165   6.770   6.145  1.2148 -0.4168  0.3233
 4273SOL     OW13717   0.124   0.258   3.014 -0.5543  0.3787  0.6658
 4273SOL    HW113718   0.117   0.236   3.111  0.2396  0.6999  0.8039
 4273SOL    HW213719   0.140   0.174   2.962  0.0074  0.3227  0.9228
 4274SOL     OW13720   3.178   6.462   2.984  0.4757 -0.6192 -0.5991
 4274SOL    HW113721   3.259   6.491   2.932 -0.3483 -0.6043 -1.9000
 4274SOL    HW213722   3.205   6.442   3.079  1.8121  0.3759 -0.7395
 4275SOL     OW13723   1.403   4.583   3.493 -0.7193 -0.2412  0.2759
 4275SOL    HW113724   1.398   4.682   3.479 -1.2597 -0.2845  0.1286
 4275SOL    HW213725   1.497   4.557   3.515 -0.9895  0.6625  2.8634
 4276SOL     OW13726   6.725   1.582   6.384  0.5361 -0.0003  0.1818
 4276SOL    HW113727   6.770   1.570   6.296  0.8320  0.5766  0.2498
 4276SOL    HW213728   6.677   1.498   6.409  1.7304 -0.6825  0.2092
 4277SOL     OW13729   0.599   6.858   6.302 -0.1134 -0.2656  0.4018
 4277SOL    HW113730   0.574   6.954   6.316 -0.3137 -0.1689 -0.5554
 4277SOL    HW213731   0.698   6.850   6.291 -0.0926 -0.1752  0.5201
 4278SOL     OW13732   3.963   5.020   0.030 -0.1548  0.1580 -0.2441
 4278SOL    HW113733   4.029   5.054   0.097 -0.2068 -1.5236  0.7167
 4278SOL    HW213734   4.007   4.951  -0.027 -0.3582  0.9652 -1.4174
 4279SOL     OW13735   0.537   6.757   0.222  0.2519 -0.7639  0.1813
 4279SOL    HW113736   0.592   6.841   0.220 -0.3837 -0.2876  1.5150
 4279SOL    HW213737   0.598   6.678   0.223  0.9629 -0.2499  1.8242
 4280SOL     OW13738   5.946   4.624   0.785 -0.5545  0.0880  0.7028
 4280SOL    HW113739   5.978   4.609   0.692  1.3370  0.6903  1.1963
 4280SOL    HW213740   6.020   4.666   0.839 -1.4678 -0.5776  2.5672
 4281SOL     OW13741   0.339   3.881   4.805 -0.1731  0.5234  0.7667
 4281SOL    HW113742   0.419   3.909   4.753  0.3637 -0.2207  1.1700
 4281SOL    HW213743   0.258   3.928   4.770  0.0963 -0.2390 -0.9850
 4282SOL     OW13744   1.741   0.140   6.573  0.2287  0.0973  0.1272
 4282SOL    HW113745   1.781   0.077   6.639  1.1339 -1.2665 -1.6328
 4282SOL    HW213746   1.795   0.224   6.570 -0.3832  0.5830  1.7555
 4283SOL     OW13747   5.725   2.857   1.623 -0.0469  0.2298 -0.7166
 4283SOL    HW113748   5.673   2.897   1.699  1.0085  0.1689  0.0668
 4283SOL    HW213749   5.674   2.781   1.584 -0.0826 -0.5458  0.7633
 4284SOL     OW13750   1.257   6.573   1.227 -0.1711  0.4073  0.1100
 4284SOL    HW113751   1.160   6.590   1.216 -0.7608 -2.2912  0.2912
 4284SOL    HW213752   1.294   6.534   1.143  0.4432  0.2746  0.4330
 4285SOL     OW13753   0.969   5.388   4.105 -0.8999  0.1358  0.2063
 4285SOL    HW113754   0.943   5.455   4.036 -1.4138  0.9788  1.1783
 4285SOL    HW213755   1.056   5.346   4.081  0.3509  2.4613  0.4673
 4286SOL     OW13756   2.732   5.328   4.188  0.3065 -0.2006  0.0027
 4286SOL    HW113757   2.672   5.250   4.210  0.0693 -0.0486 -0.0972
 4286SOL    HW213758   2.743   5.386   4.268 -0.4005  0.2492 -0.2146
 4287SOL     OW13759   2.827   4.485   0.648  0.0842  0.1461 -0.1105
 4287SOL    HW113760   2.907   4.444   0.689 -0.0794 -0.5226 -0.4498
 4287SOL    HW213761   2.788   4.423   0.580  1.0782  1.7050 -2.2195
 4288SOL     OW13762   5.784   0.750   6.329 -0.7508 -0.0917 -0.0904
 4288SOL    HW113763   5.719   0.694   6.380 -1.4865  0.0122 -0.8834
 4288SOL    HW213764   5.862   0.694   6.302 -2.3092 -1.2988 -2.4556
 4289SOL     OW13765   3.347   4.095   2.225  0.1725  0.0941 -0.3509
 4289SOL    HW113766   3.315   4.030   2.156  1.2525 -0.3839 -0.4245
 4289SOL    HW213767   3.433   4.137   2.195  1.9363 -1.8344  1.6114
 4290SOL     OW13768   0.648   4.041   2.777  0.1725  0.2352 -0.0613
 4290SOL    HW113769   0.559   4.073   2.807  1.0747  1.7194  1.2107
 4290SOL    HW213770   0.678   3.965   2.835  0.9095  1.5849  1.4056
 4291SOL     OW13771   3.035   0.861   6.402 -0.5000 -0.8680 -0.2160
 4291SOL    HW113772   3.064   0.956   6.413  0.5166 -1.2546  0.6440
 4291SOL    HW213773   2.982   0.833   6.483 -0.1525 -1.2495 -0.1199
 4292SOL     OW13774   5.861   2.647   4.058  0.0182  0.0227 -0.2227
 4292SOL    HW113775   5.830   2.591   3.981  0.1170 -0.0090 -0.2399
 4292SOL    HW213776   5.783   2.669   4.117  0.1322 -0.9625  0.3200
 4293SOL     OW13777   5.575   4.028   1.655  0.3364 -0.7955  0.3214
 4293SOL    HW113778   5.668   3.992   1.645  0.7733  0.2689  0.3425
 4293SOL    HW213779   5.579   4.128   1.658 -1.0620 -0.5519 -2.6205
 4294SOL     OW13780   0.799   2.862   6.894 -0.1442 -0.3474  0.1753
 4294SOL    HW113781   0.699   2.861   6.885 -0.2097 -1.4273  0.8052
 4294SOL    HW213782   0.825   2.803   6.970  1.1129 -2.2352 -1.5978
 4295SOL     OW13783   1.027   2.278   5.833  0.5328  0.0673  0.1821
 4295SOL    HW113784   1.077   2.323   5.759  0.1253  0.7252  0.2925
 4295SOL    HW213785   0.938   2.247   5.799  0.5519 -0.0878  0.2720
 4296SOL     OW13786   6.406   2.008   6.871  0.6076  0.0592  0.2437
 4296SOL    HW113787   6.505   2.008   6.857  0.5358 -0.0179 -0.2815
 4296SOL    HW213788   6.367   2.095   6.839  0.7340  0.8766  2.1885
 4297SOL     OW13789   1.662   5.608   4.717 -0.0596  0.3057 -0.5274
 4297SOL    HW113790   1.567   5.637   4.718 -0.3165 -0.4660 -1.2542
 4297SOL    HW213791   1.681   5.551   4.798 -0.2528  0.3396 -0.4593
 4298SOL     OW13792   5.218   2.906   1.057  0.7859 -0.2410 -0.5368
 4298SOL    HW113793   5.174   2.927   1.145 -2.4959 -1.3275 -1.7555
 4298SOL    HW213794   5.315   2.890   1.072  0.7668  1.5797  2.5505
 4299SOL     OW13795   4.154   4.462   0.780 -0.2093 -0.0643  0.7035
 4299SOL    HW113796   4.119   4.483   0.871 -1.4688 -0.9116  0.4493
 4299SOL    HW213797   4.195   4.544   0.740 -1.5271  0.8777  1.2072
 4300SOL     OW13798   1.427   2.911   5.552  0.1635 -0.4173  0.1798
 4300SOL    HW113799   1.409   2.917   5.454 -0.0982 -0.3225  0.2321
 4300SOL    HW213800   1.428   2.815   5.580  2.7963 -0.6214 -0.3762
 4301SOL     OW13801   0.686   1.737   6.522 -0.7863  0.2764 -0.1315
 4301SOL    HW113802   0.613   1.732   6.454 -0.8381  1.3154 -0.1734
 4301SOL    HW213803   0.737   1.823   6.510  0.1495 -0.2214  0.1889
 4302SOL     OW13804   3.198   6.399   6.888  0.0980  0.5781 -0.1238
 4302SOL    HW113805   3.166   6.484   6.847 -1.2407 -0.4376 -1.2888
 4302SOL    HW213806   3.290   6.379   6.855 -0.9115 -0.1847 -2.7271
 4303SOL     OW13807   0.839   3.544   6.099 -0.0082 -0.2923 -0.1181
 4303SOL    HW113808   0.785   3.500   6.171  0.1087 -0.2253  0.0105
 4303SOL    HW213809   0.881   3.627   6.135  0.5498 -0.5866 -0.0850
 4304SOL     OW13810   0.951   5.192   5.991 -0.4891 -0.6422 -0.4284
 4304SOL    HW113811   0.905   5.246   5.922 -0.9501  1.2895  1.2998
 4304SOL    HW213812   0.884   5.151   6.053 -0.0341  0.3171  0.7505
 4305SOL     OW13813   0.217   3.809   0.380 -0.1806  0.8139 -0.3507
 4305SOL    HW113814   0.172   3.874   0.318  0.2093  1.1169 -0.3198
 4305SOL    HW213815   0.150   3.773   0.444 -0.6219  0.4053 -1.0200
 4306SOL     OW13816   5.086   5.406   2.785 -0.1871  0.3674  0.0776
 4306SOL    HW113817   5.050   5.442   2.871  1.7136 -1.6468  1.8431
 4306SOL    HW213818   5.143   5.475   2.741 -1.2498  1.4539  0.3701
 4307SOL     OW13819   0.668   1.395   5.913  0.2434  0.3738  0.0472
 4307SOL    HW113820   0.573   1.383   5.943  0.7781 -0.9225  1.3648
 4307SOL    HW213821   0.727   1.405   5.993  1.5257 -1.3977 -0.6198
 4308SOL     OW13822   0.858   4.476   1.439  0.3459 -0.7748  0.4571
 4308SOL    HW113823   0.784   4.500   1.502 -1.3656 -0.8606 -1.4075
 4308SOL    HW213824   0.863   4.376   1.431  0.8122 -0.7747  0.7471
 4309SOL     OW13825   2.020   0.249   5.530  0.5140  0.0456  0.1164
 4309SOL    HW113826   2.117   0.261   5.510 -0.0349  1.4400 -2.0723
 4309SOL    HW213827   1.978   0.194   5.457 -0.5669  0.5321  0.3558
 4310SOL     OW13828   6.712   3.926   0.109  0.5243 -0.1262 -0.3932
 4310SOL    HW113829   6.738   3.836   0.075 -0.9589 -0.6254 -0.2623
 4310SOL    HW213830   6.614   3.940   0.097  0.8333  1.8174 -1.1871
 4311SOL     OW13831   0.757   2.832   3.818  0.0437 -0.4727 -0.6364
 4311SOL    HW113832   0.771   2.801   3.723  0.2845  0.4138 -0.8956
 4311SOL    HW213833   0.720   2.757   3.872  1.3683 -1.4875 -1.0656
 4312SOL     OW13834   2.245   1.142   5.879  0.1117 -0.6368 -0.6490
 4312SOL    HW113835   2.237   1.184   5.969  2.6809 -0.4771 -0.4116
 4312SOL    HW213836   2.155   1.134   5.837 -1.1463 -0.6434  1.8818
 4313SOL     OW13837   1.351   5.556   1.712 -0.4178  0.2417  0.1242
 4313SOL    HW113838   1.377   5.608   1.794 -0.4086 -1.3422  1.1606
 4313SOL    HW213839   1.252   5.562   1.699 -0.7072 -1.1268  1.4505
 4314SOL     OW13840   5.384   6.379   3.770  0.0957 -0.1844  0.3321
 4314SOL    HW113841   5.367   6.390   3.672 -1.1569 -2.3863  0.2517
 4314SOL    HW213842   5.458   6.314   3.784 -1.0772 -1.4527  0.8352
 4315SOL     OW13843   1.228   1.024   6.741 -0.0085  0.9548 -0.2994
 4315SOL    HW113844   1.324   1.012   6.715 -0.3577 -1.5420 -0.7473
 4315SOL    HW213845   1.217   1.108   6.793  2.1503  2.0301 -1.4716
 4316SOL     OW13846   5.646   3.010   5.015  0.0226  0.2890  0.4228
 4316SOL    HW113847   5.555   3.025   4.977 -0.0147 -0.1704  0.3197
 4316SOL    HW213848   5.685   2.926   4.976  0.1209 -0.0027  1.1409
 4317SOL     OW13849   5.576   5.581   1.612  0.0238  0.3627  0.5312
 4317SOL    HW113850   5.623   5.622   1.533 -0.4538  1.9205  1.0253
 4317SOL    HW213851   5.641   5.571   1.687  0.2269 -0.1361  0.2943
 4318SOL     OW13852   1.297   3.879   4.560  0.5588  0.3089  0.1386
 4318SOL    HW113853   1.322   3.966   4.519  0.2900  0.2452 -0.1656
 4318SOL    HW213854   1.237   3.828   4.498 -1.0444  0.8329  1.1947
 4319SOL     OW13855   6.552   1.964   4.752  0.1724 -0.1972 -0.0597
 4319SOL    HW113856   6.456   1.937   4.762 -0.3622  1.6659  0.2744
 4319SOL    HW213857   6.574   1.975   4.655 -0.6050  1.4147 -0.0850
 4320SOL     OW13858   0.040   6.929   3.132  1.0258  0.7824 -0.2900
 4320SOL    HW113859  -0.011   6.850   3.167 -0.3095  1.3685 -0.8123
 4320SOL    HW213860   0.137   6.919   3.154  0.7598 -0.5844  0.3887
 4321SOL     OW13861   3.772   4.581   6.368 -0.2616 -0.2047 -0.7105
 4321SOL    HW113862   3.684   4.607   6.410 -0.2118  0.1331 -0.8104
 4321SOL    HW213863   3.755   4.519   6.292 -0.3647 -0.6969 -0.2930
 4322SOL     OW13864   1.601   4.928   0.702 -0.5676  0.7511 -0.4111
 4322SOL    HW113865   1.640   4.856   0.759 -1.0967  1.4762  0.8933
 4322SOL    HW213866   1.670   4.960   0.637  0.7225  1.3761  1.2280
 4323SOL     OW13867   6.570   5.297   1.914  0.7034  0.3720 -0.0776
 4323SOL    HW113868   6.583   5.388   1.876  0.7685  0.7930  0.9327
 4323SOL    HW213869   6.612   5.229   1.853  0.6015  1.0049 -0.8620
 4324SOL     OW13870   5.239   0.100   3.445  0.1322  0.0797  0.1568
 4324SOL    HW113871   5.328   0.141   3.463  0.1078 -0.2442  1.0582
 4324SOL    HW213872   5.241   0.054   3.357  1.0312 -0.4187  0.4260
 4325SOL     OW13873   5.412   4.279   6.297  0.0751 -0.3139  0.1438
 4325SOL    HW113874   5.452   4.201   6.248  0.7093  0.6631 -0.9533
 4325SOL    HW213875   5.485   4.338   6.331 -0.3726  1.0035 -1.0695
 4326SOL     OW13876   5.744   5.779   4.207  0.2892  0.0957 -0.0397
 4326SOL    HW113877   5.713   5.873   4.192 -0.7221 -0.3220 -0.7292
 4326SOL    HW213878   5.817   5.778   4.274  0.0288  1.3330  0.2870
 4327SOL     OW13879   0.777   3.128   6.416  0.0986 -0.9437 -0.3109
 4327SOL    HW113880   0.688   3.098   6.448  0.4477 -0.4064  1.2284
 4327SOL    HW213881   0.784   3.113   6.317 -2.4112  0.7735 -0.8376
 4328SOL     OW13882   0.503   1.629   4.673 -0.4115  0.7647 -0.5123
 4328SOL    HW113883   0.454   1.550   4.636  2.1341  0.0060 -2.5767
 4328SOL    HW213884   0.532   1.688   4.597  0.7295  1.8516  0.7216
 4329SOL     OW13885   0.479   5.276   5.103  0.2392  0.1862 -0.1111
 4329SOL    HW113886   0.388   5.263   5.063  0.3433 -1.1855  0.0516
 4329SOL    HW213887   0.470   5.328   5.188 -0.3203  0.5384 -0.3740
 4330SOL     OW13888   2.974   4.863   4.605  0.4681  0.7842  0.5592
 4330SOL    HW113889   3.068   4.873   4.571  1.0034  2.5908  2.3755
 4330SOL    HW213890   2.931   4.953   4.612 -0.4907  0.2505  2.1626
 4331SOL     OW13891   2.959   1.481   0.501 -0.3290 -0.2051 -0.4271
 4331SOL    HW113892   2.931   1.456   0.594  1.5503  2.6816  1.0643
 4331SOL    HW213893   3.036   1.423   0.474  2.2911  1.8949  1.9147
 4332SOL     OW13894   2.081   4.569   6.942 -0.4738 -0.3644  0.0517
 4332SOL    HW113895   2.070   4.561   7.041 -0.5461 -0.3157  0.0479
 4332SOL    HW213896   2.095   4.479   6.902  1.1434 -0.2539  0.2881
 4333SOL     OW13897   3.700   6.665   3.998 -0.0417 -0.1236 -0.0253
 4333SOL    HW113898   3.684   6.695   3.904  1.8642 -1.8883 -0.9872
 4333SOL    HW213899   3.774   6.720   4.038 -0.5486  0.3269  0.3113
 4334SOL     OW13900   2.534   6.159   0.810 -0.5589 -0.1699 -0.4890
 4334SOL    HW113901   2.494   6.250   0.818  0.4950  0.2555  0.1507
 4334SOL    HW213902   2.500   6.101   0.884 -0.3766  0.0444 -0.2343
 4335SOL     OW13903   3.096   4.331   1.386 -0.7053  0.0425  0.2142
 4335SOL    HW113904   3.006   4.287   1.378 -0.1304 -1.1391  0.0337
 4335SOL    HW213905   3.157   4.295   1.315 -0.0229  0.6925  0.4595
 4336SOL     OW13906   6.814   4.387   0.203  0.3522  0.4161 -0.4536
 4336SOL    HW113907   6.884   4.326   0.241  0.1426  1.6905  2.2165
 4336SOL    HW213908   6.859   4.457   0.147  0.9553 -0.1541 -0.6976
 4337SOL     OW13909   1.013   4.475   1.901  0.2329  0.4190  0.1467
 4337SOL    HW113910   1.065   4.442   1.823 -2.1644  0.9658 -1.8007
 4337SOL    HW213911   1.047   4.564   1.929  1.1533  0.1910 -0.2033
 4338SOL     OW13912   2.822   5.600   2.969 -0.0309 -0.0170 -0.6195
 4338SOL    HW113913   2.765   5.559   3.040 -1.2060  0.2031 -1.4039
 4338SOL    HW213914   2.783   5.688   2.941  1.0413  0.4282 -0.7485
 4339SOL     OW13915   2.590   0.296   0.086 -0.2957 -0.4442  0.0925
 4339SOL    HW113916   2.670   0.330   0.036 -1.0914 -1.1007 -1.7103
 4339SOL    HW213917   2.526   0.372   0.101  0.5816  0.0631  1.4567
 4340SOL     OW13918   3.574   1.088   3.711 -0.1395  0.8524 -0.2967
 4340SOL    HW113919   3.531   0.998   3.713 -0.5449  1.0433  1.5589
 4340SOL    HW213920   3.507   1.157   3.739  0.6715  1.4835  0.1349
 4341SOL     OW13921   3.933   6.455   2.909  0.1483  0.4206 -0.8610
 4341SOL    HW113922   3.886   6.412   2.831  0.8942  0.4055 -1.3077
 4341SOL    HW213923   3.996   6.389   2.950 -0.6724  0.2316  0.1415
 4342SOL     OW13924   2.395   6.409   6.627  0.4644 -0.2141  0.2307
 4342SOL    HW113925   2.486   6.440   6.601  0.4838 -0.9093 -0.5605
 4342SOL    HW213926   2.367   6.455   6.712  1.4740  0.1292  0.3889
 4343SOL     OW13927   4.120   0.331   2.724  0.1058 -0.9265  0.3561
 4343SOL    HW113928   4.034   0.355   2.769  0.1718 -1.1765  0.6136
 4343SOL    HW213929   4.197   0.352   2.784  0.5045  2.6042 -1.1372
 4344SOL     OW13930   0.885   0.784   0.194 -0.2243 -0.6609  0.2888
 4344SOL    HW113931   0.934   0.729   0.262  0.9060  0.0684  0.0779
 4344SOL    HW213932   0.931   0.777   0.105 -1.5721 -1.4426 -0.3804
 4345SOL     OW13933   4.927   5.371   2.550  0.3578 -0.0042  0.4839
 4345SOL    HW113934   4.986   5.388   2.629  1.5291 -1.6992  0.0272
 4345SOL    HW213935   4.972   5.307   2.488 -1.4447 -0.3728 -0.5102
 4346SOL     OW13936   4.361   2.114   4.056  0.2211  0.7055  0.4883
 4346SOL    HW113937   4.289   2.049   4.030  2.2793 -2.2097  1.6225
 4346SOL    HW213938   4.384   2.101   4.152  4.1504 -0.4975 -0.4673
 4347SOL     OW13939   0.689   6.940   5.281  0.1705  0.0940  0.2019
 4347SOL    HW113940   0.686   6.963   5.378  1.0580  0.0410  0.2538
 4347SOL    HW213941   0.607   6.974   5.235 -0.5105 -0.3518  1.0681
 4348SOL     OW13942   1.051   1.763   3.012 -0.3593  0.0297  0.3747
 4348SOL    HW113943   1.064   1.674   2.967 -1.3693  0.0197  0.0925
 4348SOL    HW213944   0.954   1.786   3.014 -0.0165  1.7293 -0.7009
 4349SOL     OW13945   3.396   4.404   6.331 -0.2712  0.3547 -0.6608
 4349SOL    HW113946   3.482   4.364   6.300  0.3506 -0.4162  1.7736
 4349SOL    HW213947   3.363   4.469   6.263  1.7596  0.0228 -2.0731
 4350SOL     OW13948   2.825   5.606   3.346  0.4739 -0.3936  0.5880
 4350SOL    HW113949   2.922   5.616   3.324  0.5919 -0.2271  1.1665
 4350SOL    HW213950   2.811   5.623   3.443 -0.1974 -0.0108  0.4311
 4351SOL     OW13951   1.120   6.759   4.940 -0.0032  0.0750 -0.3918
 4351SOL    HW113952   1.054   6.834   4.947  1.5250  1.4190  0.2291
 4351SOL    HW213953   1.155   6.737   5.031  1.3857  0.3257 -0.8343
 4352SOL     OW13954   2.839   5.597   4.409 -0.1551 -0.4894  0.0095
 4352SOL    HW113955   2.862   5.620   4.504 -0.1134  3.6830 -0.8181
 4352SOL    HW213956   2.780   5.669   4.371  3.2711  0.4508 -4.3420
 4353SOL     OW13957   1.473   6.602   3.115  0.8214  0.1438  0.7966
 4353SOL    HW113958   1.378   6.622   3.139  0.8561 -0.4397  1.4238
 4353SOL    HW213959   1.513   6.683   3.071  0.0447  0.3993  0.5230
 4354SOL     OW13960   2.320   4.270   4.307 -0.3224 -0.0234  0.0165
 4354SOL    HW113961   2.382   4.288   4.384 -0.1729  0.4506 -0.2147
 4354SOL    HW213962   2.347   4.326   4.229 -2.7042  2.3825  0.7661
 4355SOL     OW13963   2.049   6.409   2.076 -0.2573 -0.6611  0.4187
 4355SOL    HW113964   2.118   6.350   2.034 -0.3637 -0.2031 -0.4299
 4355SOL    HW213965   2.093   6.478   2.133  0.1113  0.4611 -1.1593
 4356SOL     OW13966   6.552   2.840   4.827  0.2794  0.1672  0.1286
 4356SOL    HW113967   6.538   2.938   4.814 -1.3318 -0.0341  0.1809
 4356SOL    HW213968   6.465   2.792   4.817  1.0556 -1.2788  0.0247
 4357SOL     OW13969   6.375   5.670   5.120 -0.1629 -0.1979 -0.4391
 4357SOL    HW113970   6.437   5.692   5.195 -1.3492 -0.6385  0.7081
 4357SOL    HW213971   6.330   5.754   5.088  0.6695  0.0558 -0.9872
 4358SOL     OW13972   0.992   4.582   6.939 -0.0843 -0.6818 -0.1568
 4358SOL    HW113973   1.066   4.640   6.904 -0.6621 -0.6843 -1.4320
 4358SOL    HW213974   0.966   4.613   7.030  0.6807  0.0632 -0.1724
 4359SOL     OW13975   0.592   0.107   6.317 -0.4336  0.7645  0.6474
 4359SOL    HW113976   0.585   0.199   6.354  2.4333  0.7156  1.5844
 4359SOL    HW213977   0.556   0.106   6.224 -2.0344  2.3948  1.1983
 4360SOL     OW13978   3.388   5.856   4.408 -0.0673 -0.0756  0.0701
 4360SOL    HW113979   3.305   5.906   4.434  2.1209  3.5734  0.8135
 4360SOL    HW213980   3.420   5.888   4.319  0.9425 -0.8631  0.1278
 4361SOL     OW13981   0.095   0.021   3.443  0.1551 -0.2613 -0.7878
 4361SOL    HW113982   0.065  -0.068   3.408  0.0194 -0.4792 -0.1428
 4361SOL    HW213983   0.052   0.037   3.532  1.8467 -0.5241  0.1195
 4362SOL     OW13984   4.248   6.373   6.847  0.2922  0.0487 -0.7536
 4362SOL    HW113985   4.213   6.280   6.857 -2.2548  0.9722 -0.5235
 4362SOL    HW213986   4.213   6.430   6.922  1.6168  1.2765 -1.0250
 4363SOL     OW13987   1.584   1.247   5.882 -0.1895 -0.0406  0.9977
 4363SOL    HW113988   1.614   1.258   5.787 -1.7506  0.2038  0.5065
 4363SOL    HW213989   1.664   1.232   5.940  0.7109 -1.3590 -0.4966
 4364SOL     OW13990   3.509   3.208   2.609 -0.1429 -0.3244 -0.1016
 4364SOL    HW113991   3.547   3.193   2.518 -1.9733 -2.0145 -0.6679
 4364SOL    HW213992   3.438   3.279   2.604  0.2561  0.0989  0.1704
 4365SOL     OW13993   0.751   1.477   3.100  0.3779  0.3924 -0.9510
 4365SOL    HW113994   0.841   1.434   3.091  0.4205 -0.1352  1.3204
 4365SOL    HW213995   0.726   1.481   3.197 -3.1340 -1.8008 -1.5845
 4366SOL     OW13996   3.088   3.426   3.536 -0.2633 -0.7172 -0.1461
 4366SOL    HW113997   3.063   3.456   3.444  1.2913  1.1163 -0.0488
 4366SOL    HW213998   3.178   3.382   3.534 -0.8395 -1.9724  0.3200
 4367SOL     OW13999   3.912   5.094   0.607  0.2310  0.0949 -0.0543
 4367SOL    HW114000   3.940   5.181   0.648  0.0162 -0.3886  1.1929
 4367SOL    HW214001   3.866   5.110   0.520 -0.8167  1.3116  0.6925
 4368SOL     OW14002   0.094   5.282   0.475  0.6253  0.0143  0.0370
 4368SOL    HW114003   0.180   5.244   0.441  0.0836  0.0247 -1.4221
 4368SOL    HW214004   0.021   5.215   0.465  0.7899 -0.8108  3.2634
 4369SOL     OW14005   2.647   5.759   6.833  0.1497 -0.1722  0.5128
 4369SOL    HW114006   2.666   5.837   6.772 -0.3621 -0.2664  0.2264
 4369SOL    HW214007   2.666   5.674   6.784 -0.0064 -0.2422  0.5745
 4370SOL     OW14008   6.852   1.068   6.968  0.2132 -0.0972 -0.2208
 4370SOL    HW114009   6.814   1.010   6.896  1.0046 -2.0233  0.8383
 4370SOL    HW214010   6.892   1.010   7.039 -1.2815  1.6600  2.2201
 4371SOL     OW14011   3.513   2.927   5.312 -0.4309  0.2715  0.0471
 4371SOL    HW114012   3.542   2.914   5.217  0.7331 -0.2571  0.4543
 4371SOL    HW214013   3.415   2.945   5.315 -0.3846  0.8427 -1.2938
 4372SOL     OW14014   1.434   0.660   0.385 -0.0541 -0.6061  0.4492
 4372SOL    HW114015   1.529   0.675   0.359  0.3690 -3.1365  0.2770
 4372SOL    HW214016   1.430   0.635   0.482 -0.4886 -0.8512  0.3719
 4373SOL     OW14017   5.989   5.330   5.820  0.3233 -0.1400 -0.5333
 4373SOL    HW114018   6.008   5.243   5.775  1.1299 -0.8636  1.1252
 4373SOL    HW214019   5.966   5.399   5.751  3.3823 -0.6808 -2.2729
 4374SOL     OW14020   3.669   0.952   2.027  0.2579 -0.1413  0.2515
 4374SOL    HW114021   3.635   0.861   2.004  2.2960 -2.1197  4.0727
 4374SOL    HW214022   3.601   1.001   2.081  0.3601 -0.7495  0.9403
 4375SOL     OW14023   3.334   5.778   1.898 -0.1188 -0.4339  0.7244
 4375SOL    HW114024   3.399   5.765   1.823 -1.2414  0.6803 -0.5224
 4375SOL    HW214025   3.250   5.727   1.878 -1.3257  1.6851 -0.0228
 4376SOL     OW14026   0.059   6.903   0.400  0.4849  0.0772 -0.1738
 4376SOL    HW114027   0.040   6.979   0.338  1.1869 -0.1749 -0.7175
 4376SOL    HW214028   0.137   6.850   0.364 -0.2961 -1.1777 -0.0635
 4377SOL     OW14029   4.107   2.235   3.381 -0.5949  0.0313 -0.5937
 4377SOL    HW114030   4.152   2.150   3.409 -0.1224  0.1990 -0.8221
 4377SOL    HW214031   4.176   2.299   3.346 -0.4669  1.6535  2.2709
 4378SOL     OW14032   0.643   2.271   0.272 -0.2033 -0.2555  0.3621
 4378SOL    HW114033   0.696   2.188   0.254  1.8169  1.2888 -1.4404
 4378SOL    HW214034   0.605   2.305   0.186 -0.4575  0.9963  0.9543
 4379SOL     OW14035   4.727   2.258   4.969 -0.6545 -0.7732  0.4008
 4379SOL    HW114036   4.732   2.234   4.872  1.4148 -2.2765  0.7986
 4379SOL    HW214037   4.632   2.272   4.995 -1.1816  0.8195 -2.0731
 4380SOL     OW14038   4.366   3.224   0.646 -0.5288 -0.0891 -0.2866
 4380SOL    HW114039   4.442   3.165   0.673 -0.9817 -0.4623  0.1980
 4380SOL    HW214040   4.378   3.254   0.551  0.9134  0.9546  0.1902
 4381SOL     OW14041   5.705   5.395   2.264 -0.0786  0.0116  0.6007
 4381SOL    HW114042   5.641   5.371   2.337  0.0455 -0.7581  0.4611
 4381SOL    HW214043   5.723   5.493   2.266 -1.3942  0.2725  0.5478
 4382SOL     OW14044   1.503   0.140   0.930 -0.3252  0.1006  0.3327
 4382SOL    HW114045   1.434   0.206   0.959 -0.0580  0.4183  0.2421
 4382SOL    HW214046   1.585   0.151   0.986 -0.5361 -0.6340  0.8026
 4383SOL     OW14047   4.250   4.309   6.027  0.4225  0.2836  0.0940
 4383SOL    HW114048   4.257   4.404   6.057  0.7896  0.8066 -1.5407
 4383SOL    HW214049   4.332   4.284   5.976  0.0874 -0.7373  0.0393
 4384SOL     OW14050   6.569   0.051   6.367 -0.0133 -0.1832  0.1473
 4384SOL    HW114051   6.512   0.010   6.296  1.8486 -2.0995 -0.3509
 4384SOL    HW214052   6.593  -0.019   6.435  0.8892  0.8182  0.8890
 4385SOL     OW14053   2.704   6.093   5.452  0.6984  0.1361  0.4605
 4385SOL    HW114054   2.739   6.143   5.531 -0.7311 -0.7345  1.7052
 4385SOL    HW214055   2.604   6.094   5.453  0.6484 -0.7862 -0.7571
 4386SOL     OW14056   2.600   2.013   5.855  0.3604  0.0482  0.3433
 4386SOL    HW114057   2.546   2.093   5.881 -1.4232 -0.6758 -0.9724
 4386SOL    HW214058   2.685   2.043   5.811 -0.4110  1.2432 -0.3797
 4387SOL     OW14059   2.945   0.890   4.754  0.3615  0.2614  0.5572
 4387SOL    HW114060   2.995   0.830   4.692  1.9154  1.2124  0.8279
 4387SOL    HW214061   2.901   0.964   4.702  0.0255 -0.0403  0.4106
 4388SOL     OW14062   2.871   2.035   5.213  0.3046  0.1715  0.6676
 4388SOL    HW114063   2.839   2.055   5.306  0.6030 -0.9023  1.0243
 4388SOL    HW214064   2.888   2.121   5.164 -1.3880  0.7627  1.0512
 4389SOL     OW14065   0.112   3.823   1.647 -0.2702 -0.7198 -0.5186
 4389SOL    HW114066   0.123   3.832   1.548  2.1438  2.2062 -0.1377
 4389SOL    HW214067   0.179   3.758   1.682  1.0395  0.5542 -0.5557
 4390SOL     OW14068   6.949   5.563   5.321  0.1877  0.3240  0.0475
 4390SOL    HW114069   6.850   5.555   5.337  0.3066  0.0113  0.6836
 4390SOL    HW214070   6.985   5.639   5.375  0.0930  1.2729 -1.1845
 4391SOL     OW14071   5.505   4.822   6.281  0.9977  0.1536 -0.0231
 4391SOL    HW114072   5.562   4.845   6.203  0.1831  0.4054 -0.5636
 4391SOL    HW214073   5.425   4.882   6.283 -0.2777 -1.4445 -0.4385
 4392SOL     OW14074   2.673   1.227   5.344  0.5700 -0.6401  0.0677
 4392SOL    HW114075   2.698   1.214   5.440  1.4053 -0.1253 -0.0779
 4392SOL    HW214076   2.754   1.220   5.286  0.6639  2.3472 -0.2824
 4393SOL     OW14077   2.116   1.146   4.994 -0.0706 -0.3622  0.3213
 4393SOL    HW114078   2.120   1.047   5.009  0.0279 -0.3691  0.2453
 4393SOL    HW214079   2.072   1.165   4.907 -1.1686 -0.3052  0.8733
 4394SOL     OW14080   5.666   6.921   5.193  0.2448  0.3212 -0.1767
 4394SOL    HW114081   5.736   6.855   5.221  0.3977  1.2842  1.8486
 4394SOL    HW214082   5.702   7.013   5.201 -1.3883  0.8820  1.5404
 4395SOL     OW14083   5.482   3.097   4.579  0.1300  0.0081  0.1336
 4395SOL    HW114084   5.491   3.163   4.653  1.6302  0.7375 -0.6472
 4395SOL    HW214085   5.402   3.119   4.524 -0.0773  0.4267  0.5997
 4396SOL     OW14086   4.365   1.773   3.916  0.2211 -0.0553  0.7560
 4396SOL    HW114087   4.289   1.831   3.944  0.0909 -0.7781  1.9658
 4396SOL    HW214088   4.431   1.765   3.990  0.7995 -0.5362  0.2061
 4397SOL     OW14089   2.701   5.953   6.626  0.4151  0.4050 -0.3633
 4397SOL    HW114090   2.641   6.032   6.642  0.2991  0.1891  0.2810
 4397SOL    HW214091   2.665   5.899   6.550 -0.1735  0.3226 -0.0342
 4398SOL     OW14092   2.579   2.965   6.135  0.2131  0.1250 -0.1182
 4398SOL    HW114093   2.548   2.914   6.216  1.4359  0.1980  0.4160
 4398SOL    HW214094   2.546   3.060   6.142  0.2221  0.1058  0.2433
 4399SOL     OW14095   0.806   2.488   1.379  0.3586 -0.1618  0.5733
 4399SOL    HW114096   0.719   2.489   1.427  0.3480  0.7008  0.5446
 4399SOL    HW214097   0.795   2.443   1.290  0.5533 -2.5143  1.6537
 4400SOL     OW14098   1.374   3.187   0.575  0.0430 -0.2857  0.0295
 4400SOL    HW114099   1.418   3.157   0.659 -0.4682 -1.1114  0.0080
 4400SOL    HW214100   1.415   3.274   0.545 -1.0212  0.9976  2.1171
 4401SOL     OW14101   6.513   4.627   2.758 -0.1151  0.1024 -0.0896
 4401SOL    HW114102   6.609   4.606   2.741  0.2700  0.4395  1.5798
 4401SOL    HW214103   6.505   4.698   2.828 -1.5730  0.7325 -0.8308
 4402SOL     OW14104   5.505   1.115   6.140  0.1364 -0.4889  0.5425
 4402SOL    HW114105   5.409   1.138   6.132  0.2355  0.2428  1.2903
 4402SOL    HW214106   5.559   1.198   6.157  0.5382 -1.1592  2.9779
 4403SOL     OW14107   2.454   5.838   1.974  0.0877 -0.2983 -0.1565
 4403SOL    HW114108   2.399   5.756   1.985  2.8866 -2.2110  0.6223
 4403SOL    HW214109   2.463   5.884   2.062 -0.5388  0.2430 -0.3650
 4404SOL     OW14110   1.985   2.762   5.812  0.7524  0.2610  0.2874
 4404SOL    HW114111   2.071   2.811   5.805  1.9867 -1.7381  0.6168
 4404SOL    HW214112   1.990   2.695   5.886 -1.3622  0.5706  0.7889
 4405SOL     OW14113   4.587   4.379   6.094 -0.3398 -0.0474 -0.3892
 4405SOL    HW114114   4.591   4.436   6.013 -0.4714 -2.6995 -2.4032
 4405SOL    HW214115   4.522   4.418   6.159 -2.0036  1.0044 -2.5504
 4406SOL     OW14116   1.558   6.689   3.834 -0.1204 -0.3205 -0.1233
 4406SOL    HW114117   1.556   6.684   3.934  0.0897  0.3321 -0.0813
 4406SOL    HW214118   1.650   6.714   3.804 -0.2058 -0.4252 -0.4745
 4407SOL     OW14119   3.683   0.637   0.353  0.2945 -0.3466 -0.3486
 4407SOL    HW114120   3.759   0.572   0.357  1.9265  1.5294  0.6130
 4407SOL    HW214121   3.718   0.730   0.351 -1.9748  0.5672 -1.7940
 4408SOL     OW14122   2.411   4.204   5.338 -0.1580 -0.3622  0.0434
 4408SOL    HW114123   2.317   4.234   5.351 -0.4604 -1.3292  0.1638
 4408SOL    HW214124   2.413   4.129   5.272  0.4013 -1.0530  0.8315
 4409SOL     OW14125   0.357   5.861   5.459 -0.7142 -0.4246 -0.1048
 4409SOL    HW114126   0.317   5.900   5.542 -1.7424  1.0274 -1.2234
 4409SOL    HW214127   0.287   5.853   5.389  0.0943 -1.8235 -0.7985
 4410SOL     OW14128   6.199   2.207   4.252 -0.4854 -0.1181 -0.6998
 4410SOL    HW114129   6.122   2.266   4.227 -1.1376  0.2032  1.7589
 4410SOL    HW214130   6.257   2.255   4.318  0.5581 -1.2263 -0.7813
 4411SOL     OW14131   4.297   5.319   5.959 -0.1105  0.4420  0.5485
 4411SOL    HW114132   4.387   5.288   5.930  0.0037  0.9865  0.3201
 4411SOL    HW214133   4.255   5.372   5.886 -0.9185 -0.4145  0.3672
 4412SOL     OW14134   2.340   1.222   5.144  0.3467 -0.2886  0.4456
 4412SOL    HW114135   2.392   1.139   5.162  1.3404  0.2831  0.3102
 4412SOL    HW214136   2.263   1.201   5.084  0.7331 -1.0654  0.2126
 4413SOL     OW14137   6.269   6.563   3.212 -0.0745  0.6150 -0.0280
 4413SOL    HW114138   6.367   6.575   3.196  0.3955 -0.5355  1.7242
 4413SOL    HW214139   6.248   6.465   3.217 -1.8564  0.6972 -3.1890
 4414SOL     OW14140   5.047   5.925   4.316  0.2518 -0.2551 -0.0053
 4414SOL    HW114141   5.042   5.966   4.225 -1.3187  0.8587  0.5489
 4414SOL    HW214142   4.982   5.849   4.322 -0.3358  0.2780  0.4695
 4415SOL     OW14143   4.700   0.245   3.158  0.2074  0.4365 -0.1419
 4415SOL    HW114144   4.660   0.171   3.213 -1.1875 -0.0196 -1.6935
 4415SOL    HW214145   4.643   0.327   3.166  0.7393  0.7853  0.1291
 4416SOL     OW14146   0.601   3.938   3.203 -0.0377  0.1704 -0.1371
 4416SOL    HW114147   0.553   3.853   3.227  0.4214 -0.6205 -1.8113
 4416SOL    HW214148   0.536   4.014   3.201 -0.6855 -0.3602  0.3085
 4417SOL     OW14149   2.375   4.665   5.899 -0.4970 -0.3834 -0.0006
 4417SOL    HW114150   2.316   4.612   5.838  0.5983 -0.9158 -0.6192
 4417SOL    HW214151   2.451   4.608   5.931 -0.0401  0.4250  0.3912
 4418SOL     OW14152   1.026   3.870   1.909  0.0539 -0.1455 -0.2708
 4418SOL    HW114153   1.000   3.814   1.830  1.2508  1.0027 -1.5411
 4418SOL    HW214154   1.019   3.967   1.885  0.2742  0.2305  1.1036
 4419SOL     OW14155   0.859   3.513   5.654 -0.1307 -0.3933  0.0854
 4419SOL    HW114156   0.826   3.472   5.568 -0.7283  2.8103 -1.3616
 4419SOL    HW214157   0.957   3.500   5.662  0.0116 -0.3235 -1.3405
 4420SOL     OW14158   6.112   6.589   2.994  0.1631  0.2176 -0.2932
 4420SOL    HW114159   6.168   6.594   3.077 -2.0723  0.9041  1.2563
 4420SOL    HW214160   6.172   6.573   2.915  2.2860 -1.5964  1.5202
 4421SOL     OW14161   2.188   6.738   4.958 -0.0350 -0.0647  0.1827
 4421SOL    HW114162   2.286   6.733   4.940  0.1663 -1.7537  1.4863
 4421SOL    HW214163   2.139   6.759   4.873  1.3331 -0.7408 -0.7995
 4422SOL     OW14164   0.558   2.409   4.709  0.6679 -1.2712 -0.4859
 4422SOL    HW114165   0.474   2.359   4.732  0.1457  0.7108  2.3823
 4422SOL    HW214166   0.624   2.400   4.783  1.1106  1.0122 -0.5378
 4423SOL     OW14167   0.370   5.903   1.297 -0.2166 -0.3531 -0.6476
 4423SOL    HW114168   0.459   5.932   1.262  0.2773  1.3849  1.8064
 4423SOL    HW214169   0.383   5.833   1.367 -0.5262  1.2319  1.0911
 4424SOL     OW14170   3.429   0.838   5.101  0.2246  0.7181  0.2465
 4424SOL    HW114171   3.355   0.809   5.162 -0.2048 -0.8535 -0.9427
 4424SOL    HW214172   3.390   0.888   5.024  0.3678 -0.2491 -0.4622
 4425SOL     OW14173   3.416   2.960   3.839  0.7415  0.8769  0.3918
 4425SOL    HW114174   3.323   2.987   3.865  0.4991  0.8880 -0.4458
 4425SOL    HW214175   3.447   2.884   3.895 -0.5465 -0.4482 -0.6219
 4426SOL     OW14176   0.854   0.982   6.418  0.4145  0.0120  0.2980
 4426SOL    HW114177   0.787   0.946   6.483 -2.4026  1.4644 -1.6107
 4426SOL    HW214178   0.896   1.065   6.456 -1.8324  1.3446  0.0500
 4427SOL     OW14179   4.832   1.379   6.856 -0.0400  0.3534 -0.0018
 4427SOL    HW114180   4.783   1.455   6.814 -0.9646 -0.4878 -0.5100
 4427SOL    HW214181   4.895   1.339   6.790  0.0301  0.3338  0.0775
 4428SOL     OW14182   2.006   1.712   5.722  0.4254 -0.2880  0.3112
 4428SOL    HW114183   2.089   1.684   5.769  1.7560  3.0192  0.1730
 4428SOL    HW214184   1.976   1.801   5.757 -2.6298 -0.9777 -0.2476
 4429SOL     OW14185   6.104   0.520   1.827  0.1431 -0.1450 -0.0410
 4429SOL    HW114186   6.147   0.512   1.917  1.7259  1.8203 -0.5465
 4429SOL    HW214187   6.145   0.454   1.764 -0.2002 -0.7798  0.3949
 4430SOL     OW14188   4.011   1.118   6.927  0.0811 -0.0632 -0.5536
 4430SOL    HW114189   3.914   1.138   6.914  0.6037  1.7938 -2.1291
 4430SOL    HW214190   4.063   1.204   6.925  1.6545 -0.8813  1.5668
 4431SOL     OW14191   4.964   5.962   0.080 -0.0404  0.4206 -0.3073
 4431SOL    HW114192   4.919   5.922   0.000  0.2848  1.1421 -0.8664
 4431SOL    HW214193   4.962   5.897   0.156  1.3005 -1.0552 -1.4598
 4432SOL     OW14194   0.511   6.000   5.813  0.3272 -0.1710 -0.2445
 4432SOL    HW114195   0.477   6.074   5.870  1.0184  0.7544 -0.9948
 4432SOL    HW214196   0.610   5.990   5.827  0.0895 -1.6288  0.5881
 4433SOL     OW14197   6.640   0.846   5.138  1.0948  0.6062  0.3864
 4433SOL    HW114198   6.577   0.922   5.128 -0.9769 -1.1825 -0.9162
 4433SOL    HW214199   6.705   0.845   5.062  1.2206  1.1426  0.4868
 4434SOL     OW14200   6.958   4.728   3.437  0.1659 -0.0053 -0.6124
 4434SOL    HW114201   7.021   4.709   3.361  1.6397 -0.3023  0.6423
 4434SOL    HW214202   6.955   4.650   3.498  0.3032  0.8485  0.5175
 4435SOL     OW14203   5.190   1.765   4.709  0.3363 -0.1985  0.5977
 4435SOL    HW114204   5.224   1.858   4.722  0.7061 -0.1173 -0.7912
 4435SOL    HW214205   5.128   1.762   4.631 -1.5727 -0.6888  2.0548
 4436SOL     OW14206   5.070   1.421   1.097 -0.5061  0.0567  0.0029
 4436SOL    HW114207   5.019   1.394   1.179 -0.8706  0.4159 -0.1016
 4436SOL    HW214208   5.038   1.511   1.066  0.6135  0.5734  0.2878
 4437SOL     OW14209   5.703   1.016   5.327 -0.0622 -0.4444 -0.4651
 4437SOL    HW114210   5.723   1.042   5.421  0.3940 -2.5701  0.0804
 4437SOL    HW214211   5.610   0.978   5.322 -0.3451  0.2906 -1.0316
 4438SOL     OW14212   6.147   5.386   1.850 -0.5346  0.1638 -0.4519
 4438SOL    HW114213   6.112   5.295   1.870 -0.9162  0.4272  0.0891
 4438SOL    HW214214   6.164   5.435   1.935 -0.9415  0.8360 -0.7508
 4439SOL     OW14215   0.079   5.081   0.954 -0.1529 -0.2461 -0.0857
 4439SOL    HW114216   0.038   5.005   0.903 -0.6215  0.7900 -1.3174
 4439SOL    HW214217   0.154   5.120   0.901  1.3712 -1.0326  1.3949
 4440SOL     OW14218   6.236   6.638   1.061  0.1229  0.1645 -0.7543
 4440SOL    HW114219   6.211   6.726   1.100 -0.4923 -0.8109  1.1485
 4440SOL    HW214220   6.309   6.651   0.993  1.2902  1.9283  0.7491
 4441SOL     OW14221   2.859   1.852   4.737  0.4068 -0.7969  0.6065
 4441SOL    HW114222   2.884   1.919   4.807  1.1939 -1.0276  0.5588
 4441SOL    HW214223   2.759   1.845   4.732  0.3314 -0.9550  1.8735
 4442SOL     OW14224   3.382   0.087   5.022 -0.2537  0.2583 -0.5122
 4442SOL    HW114225   3.344   0.066   4.932  0.1116 -1.2637 -0.3415
 4442SOL    HW214226   3.422   0.179   5.021  1.5724 -0.4685 -2.5604
 4443SOL     OW14227   6.793   0.746   3.002 -0.5507  0.0404  0.3745
 4443SOL    HW114228   6.860   0.757   3.075  0.3178  1.0047 -0.5329
 4443SOL    HW214229   6.707   0.790   3.028 -0.6033 -0.5349  1.2275
 4444SOL     OW14230   6.226   1.312   1.564  0.6948  0.2497 -0.2688
 4444SOL    HW114231   6.241   1.402   1.606  2.2462 -0.6490  1.2393
 4444SOL    HW214232   6.133   1.307   1.529  0.6127  2.4867 -0.5242
 4445SOL     OW14233   0.158   0.723   2.055  0.4746 -0.2355  0.2241
 4445SOL    HW114234   0.108   0.801   2.094  3.0007  0.5342  2.1758
 4445SOL    HW214235   0.135   0.640   2.106  0.0128 -0.2102  0.0659
 4446SOL     OW14236   5.683   5.607   0.202  0.5385  0.2585 -0.2386
 4446SOL    HW114237   5.755   5.673   0.223 -0.1042  0.6563  0.7675
 4446SOL    HW214238   5.723   5.529   0.154  1.3986  1.1107 -0.9484
 4447SOL     OW14239   0.692   0.331   2.431 -0.4055  0.1097  0.1126
 4447SOL    HW114240   0.668   0.404   2.495  2.0381 -0.4235  1.7527
 4447SOL    HW214241   0.657   0.244   2.464 -4.5594  0.4495 -2.5327
 4448SOL     OW14242   5.045   5.974   0.921 -0.4256 -0.3322  0.1425
 4448SOL    HW114243   5.080   6.009   1.007 -0.0154 -0.4971  0.0469
 4448SOL    HW214244   5.010   6.049   0.865  0.2469 -0.0955  0.0302
 4449SOL     OW14245   3.202   0.500   4.509  0.2857  0.0603 -0.5899
 4449SOL    HW114246   3.215   0.403   4.530 -0.5687 -0.6137 -2.8371
 4449SOL    HW214247   3.284   0.535   4.464  0.4267  0.2608 -0.1773
 4450SOL     OW14248   3.608   3.018   3.625 -0.1928 -0.4156 -0.3760
 4450SOL    HW114249   3.548   3.003   3.703 -0.7284 -0.6322 -0.8254
 4450SOL    HW214250   3.686   3.075   3.653 -0.1273 -0.8848  0.4286
 4451SOL     OW14251   4.640   5.443   0.517 -0.0481 -1.0653 -0.4883
 4451SOL    HW114252   4.595   5.461   0.605 -0.0201  0.2821 -0.7262
 4451SOL    HW214253   4.625   5.348   0.491 -2.0683 -0.8851 -0.1641
 4452SOL     OW14254   5.883   1.139   5.133  0.6006 -0.2240 -0.3422
 4452SOL    HW114255   5.911   1.217   5.189  1.8848  0.4668 -1.8435
 4452SOL    HW214256   5.807   1.091   5.177  0.4257  1.2830  1.0983
 4453SOL     OW14257   2.122   5.551   4.270  0.2379  0.6168 -0.1391
 4453SOL    HW114258   2.104   5.458   4.302 -0.7050  1.0466  0.6648
 4453SOL    HW214259   2.153   5.607   4.347 -0.9327  1.3961 -0.2143
 4454SOL     OW14260   1.408   4.533   5.876 -0.2905 -0.3518 -0.3709
 4454SOL    HW114261   1.370   4.499   5.790 -2.0360 -1.6833  0.8515
 4454SOL    HW214262   1.440   4.457   5.931  3.0660  0.6255 -0.7303
 4455SOL     OW14263   2.247   0.902   1.109  0.1094  0.6040  0.0828
 4455SOL    HW114264   2.212   0.994   1.089 -0.6441 -0.0323 -1.7126
 4455SOL    HW214265   2.253   0.890   1.208 -3.1544  1.3850  0.4922
 4456SOL     OW14266   1.059   5.542   1.309  0.4957 -0.3460 -0.6018
 4456SOL    HW114267   1.098   5.541   1.217 -1.7432 -1.5477 -1.6182
 4456SOL    HW214268   1.083   5.458   1.357 -1.3538 -1.4510 -1.5170
 4457SOL     OW14269   1.143   4.897   3.315  0.4263 -0.2752 -0.0482
 4457SOL    HW114270   1.185   4.988   3.316  1.8140 -0.8133  2.7870
 4457SOL    HW214271   1.203   4.833   3.267  1.3019 -0.3500  1.0784
 4458SOL     OW14272   4.716   6.496   0.387  0.1911  0.0633 -0.2860
 4458SOL    HW114273   4.760   6.411   0.414 -1.5327 -0.6000  0.6102
 4458SOL    HW214274   4.781   6.572   0.396  1.8947 -1.1717 -1.5420
 4459SOL     OW14275   6.068   0.774   3.328  0.6270 -0.1548  0.1509
 4459SOL    HW114276   6.086   0.690   3.277 -0.2513  1.1626 -2.5226
 4459SOL    HW214277   5.985   0.817   3.293  0.8861  1.6795  1.6424
 4460SOL     OW14278   5.694   1.604   4.260  0.3541 -0.7373  0.3099
 4460SOL    HW114279   5.773   1.548   4.235  0.7178 -1.1979  2.3139
 4460SOL    HW214280   5.664   1.580   4.352  0.0790  1.8697  0.9837
 4461SOL     OW14281   4.537   4.148   1.087  0.1373  0.1621  0.2690
 4461SOL    HW114282   4.461   4.212   1.101  0.8223  0.8165  1.0561
 4461SOL    HW214283   4.543   4.087   1.166 -2.4474 -3.0088 -1.7163
 4462SOL     OW14284   6.062   5.717   3.983  0.0549 -0.5728  0.2630
 4462SOL    HW114285   5.980   5.676   4.023  1.1625 -1.9795  1.1926
 4462SOL    HW214286   6.072   5.811   4.016 -1.6545 -0.0377 -0.6080
 4463SOL     OW14287   1.891   0.181   0.387 -0.4260  0.0628 -0.5204
 4463SOL    HW114288   1.941   0.112   0.439 -1.5982  0.1409  0.7607
 4463SOL    HW214289   1.800   0.146   0.363 -0.0692  0.1900 -2.1833
 4464SOL     OW14290   0.394   0.123   5.602 -0.7417 -0.2857  0.1317
 4464SOL    HW114291   0.452   0.185   5.655 -1.5567  0.3899  0.2461
 4464SOL    HW214292   0.381   0.038   5.654  1.6988 -1.2634 -0.7163
 4465SOL     OW14293   4.679   6.131   1.900  0.2985 -0.3053 -0.1623
 4465SOL    HW114294   4.756   6.134   1.964  0.1190 -0.2106  0.0514
 4465SOL    HW214295   4.713   6.111   1.808  0.7866  1.4733 -0.4045
 4466SOL     OW14296   5.950   5.689   6.341 -0.4368  1.0418  0.1481
 4466SOL    HW114297   6.043   5.722   6.322  0.0361  0.9559  2.0840
 4466SOL    HW214298   5.934   5.604   6.291  0.8860  0.5838  0.4498
 4467SOL     OW14299   4.665   4.194   5.810 -0.1718  0.4485 -0.1189
 4467SOL    HW114300   4.748   4.179   5.863 -2.0719 -0.5452  2.8710
 4467SOL    HW214301   4.644   4.112   5.757 -0.5872 -0.4120  1.2909
 4468SOL     OW14302   6.650   1.861   2.531 -0.9923 -0.1679 -0.0834
 4468SOL    HW114303   6.706   1.852   2.613 -3.9588 -2.5463  1.8973
 4468SOL    HW214304   6.705   1.837   2.450  1.7120  1.1712  1.2318
 4469SOL     OW14305   1.899   0.274   1.599 -0.2669 -0.0913  0.1529
 4469SOL    HW114306   1.881   0.359   1.548  1.0877 -0.2328 -0.5914
 4469SOL    HW214307   1.822   0.211   1.587 -0.3360  0.2041 -1.0481
 4470SOL     OW14308   2.017   4.228   1.369  0.4189  0.1762 -0.3022
 4470SOL    HW114309   2.016   4.178   1.282  0.9338 -0.4903  0.0656
 4470SOL    HW214310   2.068   4.175   1.437  0.4294  0.9166  0.2751
 4471SOL     OW14311   4.690   6.190   0.573  0.0442 -0.5354 -0.1111
 4471SOL    HW114312   4.639   6.269   0.608  0.0485 -1.3917  1.9794
 4471SOL    HW214313   4.638   6.149   0.498 -1.9472 -0.8112  1.3173
 4472SOL     OW14314   5.436   1.524   0.563 -0.1799  0.0714  0.2169
 4472SOL    HW114315   5.395   1.433   0.556 -0.8243  0.3029  0.8603
 4472SOL    HW214316   5.456   1.559   0.471  0.9520 -1.1007 -0.0095
 4473SOL     OW14317   3.294   3.380   0.068  0.3429  0.3871 -0.1878
 4473SOL    HW114318   3.237   3.338   0.138 -0.7667  0.6903 -0.8939
 4473SOL    HW214319   3.390   3.365   0.090  0.0134  0.4072  1.3533
 4474SOL     OW14320   6.825   4.318   2.493 -0.4876 -0.3614  0.2280
 4474SOL    HW114321   6.852   4.253   2.565 -1.0610  2.1075  2.8710
 4474SOL    HW214322   6.726   4.318   2.484 -0.3711 -3.4402 -3.5565
 4475SOL     OW14323   4.617   5.741   6.702 -0.3286 -0.2105  0.2944
 4475SOL    HW114324   4.628   5.794   6.618  0.0776 -0.7697 -0.0144
 4475SOL    HW214325   4.611   5.802   6.780  1.7704  0.2526  0.1348
 4476SOL     OW14326   0.665   2.391   0.790  0.2774  0.4266  1.3135
 4476SOL    HW114327   0.693   2.341   0.708  0.7173  0.1215  1.6454
 4476SOL    HW214328   0.698   2.485   0.785 -0.9905  0.8556  0.4490
 4477SOL     OW14329   0.616   1.020   0.139 -0.0925 -0.9700  0.3114
 4477SOL    HW114330   0.631   0.924   0.161  1.2084 -0.8015  0.2160
 4477SOL    HW214331   0.698   1.073   0.160 -0.2738 -0.1217 -0.9837
 4478SOL     OW14332   6.170   2.129   2.294 -0.0533  0.2903 -0.6980
 4478SOL    HW114333   6.262   2.094   2.308 -0.6152 -1.3635 -1.0097
 4478SOL    HW214334   6.118   2.067   2.236 -1.5458  0.9056 -0.0815
 4479SOL     OW14335   6.413   4.181   6.111 -0.4760 -0.3797  0.0927
 4479SOL    HW114336   6.446   4.120   6.183  0.3049 -0.9806 -0.7520
 4479SOL    HW214337   6.413   4.275   6.144  1.4384 -0.4442  0.3643
 4480SOL     OW14338   2.086   2.843   6.921  0.3077  0.0748  0.4030
 4480SOL    HW114339   2.048   2.861   6.830  0.4550  0.3635  0.3966
 4480SOL    HW214340   2.013   2.812   6.982 -0.3261  2.2455  0.8531
 4481SOL     OW14341   3.044   3.238   4.640  0.4680 -0.2512 -0.2445
 4481SOL    HW114342   3.112   3.277   4.702 -0.4264 -0.3190  0.8098
 4481SOL    HW214343   3.082   3.156   4.597  1.1398 -0.1596  0.1540
 4482SOL     OW14344   0.586   5.383   1.744  0.2852  0.1138 -0.1861
 4482SOL    HW114345   0.534   5.317   1.800 -0.4006  0.2743 -0.6116
 4482SOL    HW214346   0.672   5.405   1.789  0.3479 -0.7747  0.1595
 4483SOL     OW14347   3.762   2.844   0.377  0.2962  0.0727  0.1565
 4483SOL    HW114348   3.788   2.749   0.389  2.2696  0.3571 -1.3187
 4483SOL    HW214349   3.795   2.898   0.455  0.5316 -0.2270  0.2654
 4484SOL     OW14350   6.515   0.290   2.285 -0.2864  0.9373 -0.6492
 4484SOL    HW114351   6.421   0.284   2.320  0.0043  0.9612  0.1562
 4484SOL    HW214352   6.541   0.202   2.245  0.1964  0.0753  1.3902
 4485SOL     OW14353   1.639   4.323   4.351  0.4031  0.0891 -0.0315
 4485SOL    HW114354   1.705   4.256   4.315  0.3177 -0.2895  0.5129
 4485SOL    HW214355   1.599   4.288   4.435 -0.8105  0.1214 -0.5747
 4486SOL     OW14356   3.212   3.580   6.718 -0.4007 -0.2720  0.9953
 4486SOL    HW114357   3.164   3.500   6.754 -2.4732  1.1801  1.6023
 4486SOL    HW214358   3.293   3.598   6.774 -0.5432 -1.2565  1.5442
 4487SOL     OW14359   6.954   0.220   1.088 -0.2891 -0.4168 -0.7060
 4487SOL    HW114360   6.888   0.166   1.036  0.5379 -0.8117 -1.3838
 4487SOL    HW214361   7.012   0.158   1.142  0.6430 -0.2290 -1.4611
 4488SOL     OW14362   0.778   1.762   2.969 -0.0817 -0.2533 -0.3242
 4488SOL    HW114363   0.777   1.666   2.943 -0.3047 -0.1093 -0.8856
 4488SOL    HW214364   0.765   1.771   3.067  2.5730 -0.9061  0.1653
 4489SOL     OW14365   6.799   5.353   3.217  0.3748 -0.4585 -0.2169
 4489SOL    HW114366   6.741   5.310   3.147  2.9094 -2.3648 -1.3111
 4489SOL    HW214367   6.842   5.435   3.179 -2.2643  1.5988  0.9472
 4490SOL     OW14368   6.005   3.907   1.335 -0.2462  0.3088 -0.2209
 4490SOL    HW114369   5.943   3.844   1.288 -1.1873  0.0011  1.3525
 4490SOL    HW214370   6.079   3.934   1.273 -0.7955 -0.9559 -1.4800
 4491SOL     OW14371   2.204   3.906   6.225 -0.0802 -0.0178  0.1923
 4491SOL    HW114372   2.111   3.921   6.192  0.3106 -1.2840 -1.6290
 4491SOL    HW214373   2.252   3.994   6.229 -0.3808  0.3019 -1.9959
 4492SOL     OW14374   4.160   2.299   3.706  0.1723  0.1027 -0.0993
 4492SOL    HW114375   4.243   2.349   3.681  1.6163 -2.3687 -0.5543
 4492SOL    HW214376   4.108   2.277   3.624  0.2714 -0.3487 -0.0412
 4493SOL     OW14377   6.113   3.900   5.075  0.3534 -0.1919  0.2339
 4493SOL    HW114378   6.087   3.941   5.163 -1.9005 -1.0722  0.0589
 4493SOL    HW214379   6.139   3.972   5.011 -2.5168  0.9869  0.2370
 4494SOL     OW14380   4.031   2.768   5.574 -0.1003 -0.0623  0.1615
 4494SOL    HW114381   4.022   2.673   5.605 -0.7353 -1.0242 -2.6626
 4494SOL    HW214382   3.948   2.819   5.599 -1.0603 -1.0884 -0.8082
 4495SOL     OW14383   6.539   4.037   5.565  0.4180 -0.2371  0.1643
 4495SOL    HW114384   6.471   4.030   5.492  0.6426  0.9310 -0.1818
 4495SOL    HW214385   6.557   3.946   5.603 -0.9459 -0.6341 -0.0798
 4496SOL     OW14386   2.113   1.274   4.666  0.1974  0.5040 -0.7165
 4496SOL    HW114387   2.109   1.177   4.690 -1.2088  0.0569 -2.5906
 4496SOL    HW214388   2.099   1.329   4.749 -0.6808 -0.9186  0.1210
 4497SOL     OW14389   3.757   4.519   5.398  0.3955  0.2300  0.1980
 4497SOL    HW114390   3.731   4.423   5.405  1.7221 -0.0691  1.6037
 4497SOL    HW214391   3.750   4.562   5.488  1.8719  0.8732  0.0292
 4498SOL     OW14392   2.812   1.672   0.369 -0.6958  0.1309 -0.5909
 4498SOL    HW114393   2.718   1.673   0.403 -0.7017 -0.5850 -0.5552
 4498SOL    HW214394   2.866   1.609   0.425  0.3382  2.0917  0.7351
 4499SOL     OW14395   2.809   3.784   5.999  0.2312 -0.1429  0.0623
 4499SOL    HW114396   2.873   3.725   6.049  0.1008  0.0037  0.4086
 4499SOL    HW214397   2.789   3.744   5.910 -0.1009 -0.7894  0.4156
 4500SOL     OW14398   5.202   3.800   5.559  0.5556 -0.1219  0.1156
 4500SOL    HW114399   5.225   3.895   5.578 -1.0758  0.0969  1.1853
 4500SOL    HW214400   5.159   3.793   5.469  1.4682 -0.0018 -0.3401
 4501SOL     OW14401   1.423   5.922   6.187  0.1174  0.0101 -0.2915
 4501SOL    HW114402   1.495   5.985   6.161 -2.4273  2.2417 -2.5594
 4501SOL    HW214403   1.389   5.874   6.105 -3.1625  1.6113 -0.0221
 4502SOL     OW14404   5.404   3.997   0.807  0.4334 -0.1398  0.4177
 4502SOL    HW114405   5.481   4.048   0.845  0.1239 -0.6747  1.8137
 4502SOL    HW214406   5.318   4.040   0.835  0.1444 -1.7086  2.1572
 4503SOL     OW14407   1.772   5.835   6.539 -0.3315  0.3779 -0.2019
 4503SOL    HW114408   1.773   5.741   6.505  1.2718  0.3487 -0.1368
 4503SOL    HW214409   1.682   5.875   6.523 -0.7250 -0.8290 -1.1487
 4504SOL     OW14410   4.997   4.535   0.243  0.1579  0.4983 -0.9039
 4504SOL    HW114411   4.992   4.448   0.195 -0.3703 -0.1456  0.2905
 4504SOL    HW214412   4.905   4.572   0.256  0.3227  0.8356 -0.6750
 4505SOL     OW14413   2.085   3.386   6.702  0.0395 -0.0670  0.0655
 4505SOL    HW114414   2.068   3.316   6.632  1.6277  1.2097 -1.7062
 4505SOL    HW214415   2.165   3.440   6.676  0.9278  0.2603  3.0985
 4506SOL     OW14416   4.413   0.865   3.883 -0.4148  0.1490  0.0566
 4506SOL    HW114417   4.482   0.910   3.826 -0.0826 -1.4271 -0.8247
 4506SOL    HW214418   4.322   0.890   3.851 -0.2319 -0.8067 -1.2798
 4507SOL     OW14419   0.307   3.464   2.019  0.2299 -0.0073 -0.1606
 4507SOL    HW114420   0.378   3.519   1.977  0.3608 -0.9265 -1.1815
 4507SOL    HW214421   0.343   3.374   2.043  0.0999  0.4088  1.7575
 4508SOL     OW14422   0.362   0.758   0.287  0.5142  0.2514  0.2296
 4508SOL    HW114423   0.379   0.693   0.362  1.5677 -1.7167 -1.5942
 4508SOL    HW214424   0.447   0.771   0.236 -0.5593  0.1556 -1.6489
 4509SOL     OW14425   4.517   1.660   0.114  0.2388  0.2087 -0.1393
 4509SOL    HW114426   4.427   1.669   0.157  0.8996 -0.8310  1.5913
 4509SOL    HW214427   4.575   1.736   0.142  0.3291  0.1123 -0.0592
 4510SOL     OW14428   1.804   2.618   2.145  0.4704  0.2817 -0.0467
 4510SOL    HW114429   1.722   2.593   2.196  1.3961 -0.5651  1.0651
 4510SOL    HW214430   1.832   2.710   2.169  1.8878 -0.6952  2.4085
 4511SOL     OW14431   0.702   6.785   4.601  0.1669  0.5915  0.7833
 4511SOL    HW114432   0.737   6.692   4.613 -0.7126  0.0416 -0.6828
 4511SOL    HW214433   0.771   6.840   4.554 -0.0558  0.1044 -0.1514
 4512SOL     OW14434   1.293   4.220   2.143 -0.4446 -0.1726  0.3077
 4512SOL    HW114435   1.198   4.237   2.118 -0.1273 -0.1689 -0.9515
 4512SOL    HW214436   1.353   4.251   2.069  0.4715 -1.2436  0.5844
 4513SOL     OW14437   0.069   5.929   3.291 -0.4336  0.2936 -0.1789
 4513SOL    HW114438   0.062   5.930   3.391  0.7387  1.3276 -0.0709
 4513SOL    HW214439   0.073   6.023   3.257 -0.7901 -0.0455 -1.2086
 4514SOL     OW14440   2.604   4.365   6.889 -0.2309  0.1153 -0.4666
 4514SOL    HW114441   2.582   4.441   6.949 -2.9893 -2.8001  2.6312
 4514SOL    HW214442   2.672   4.306   6.933 -1.0102 -1.2120 -0.9860
 4515SOL     OW14443   3.878   4.283   6.282 -0.1899 -0.1223 -0.0754
 4515SOL    HW114444   3.801   4.265   6.221 -1.4141 -1.4940  1.7645
 4515SOL    HW214445   3.846   4.330   6.364  0.8965 -0.7885  0.7614
 4516SOL     OW14446   6.956   1.306   4.516 -0.4179 -0.4402 -0.1714
 4516SOL    HW114447   6.987   1.249   4.441 -1.2597  0.3165 -1.1157
 4516SOL    HW214448   7.027   1.373   4.539 -0.8979  0.6194 -1.6453
 4517SOL     OW14449   3.544   1.595   0.865 -0.2849  0.1477  0.0422
 4517SOL    HW114450   3.629   1.556   0.902  0.1481  0.4857 -0.5835
 4517SOL    HW214451   3.565   1.674   0.809 -1.1419  1.1471  1.0757
 4518SOL     OW14452   1.028   2.086   5.450 -0.1561 -0.7668  0.3201
 4518SOL    HW114453   1.100   2.016   5.449 -0.3250 -0.9415  0.1767
 4518SOL    HW214454   1.070   2.176   5.455  0.1968 -0.7378 -2.0317
 4519SOL     OW14455   6.098   2.958   4.936  0.4707 -0.1659  0.7922
 4519SOL    HW114456   6.053   2.932   4.850 -0.2159  1.1794  0.7313
 4519SOL    HW214457   6.165   3.029   4.918  0.7083 -0.2590  1.2987
 4520SOL     OW14458   1.075   0.028   4.615 -0.1709  0.3228 -0.1781
 4520SOL    HW114459   1.037   0.033   4.707 -0.3542 -0.5375 -0.1986
 4520SOL    HW214460   1.115  -0.062   4.600 -2.5835 -0.6000 -1.8492
 4521SOL     OW14461   3.992   7.001   2.147 -0.1715  0.4459  0.1537
 4521SOL    HW114462   3.945   6.954   2.072  0.5458 -1.6466  0.9564
 4521SOL    HW214463   4.033   7.086   2.113 -1.0826  0.2731 -1.4655
 4522SOL     OW14464   5.675   2.719   6.443 -0.1311 -1.0286 -0.4777
 4522SOL    HW114465   5.668   2.798   6.382 -0.6045 -0.9582 -0.3356
 4522SOL    HW214466   5.653   2.747   6.537 -0.4467 -1.3641 -0.4523
 4523SOL     OW14467   2.190   1.195   4.065 -0.2464  0.3456 -0.1169
 4523SOL    HW114468   2.182   1.292   4.087 -1.2525 -0.0478  1.3526
 4523SOL    HW214469   2.278   1.160   4.098  0.2736  0.8040 -0.9618
 4524SOL     OW14470   2.111   6.548   5.486 -0.0952  0.1404  0.1291
 4524SOL    HW114471   2.193   6.598   5.459  0.1348  1.0692  2.3577
 4524SOL    HW214472   2.042   6.556   5.415  2.5966 -3.1685 -3.3361
 4525SOL     OW14473   6.684   2.168   5.205  0.0238  0.1525 -0.5743
 4525SOL    HW114474   6.721   2.192   5.295  0.3887 -2.0507 -0.0788
 4525SOL    HW214475   6.751   2.192   5.134  1.3238 -1.3829  0.0872
 4526SOL     OW14476   6.850   3.631   0.722 -0.2345  0.4174 -0.3332
 4526SOL    HW114477   6.750   3.632   0.721 -0.2744 -1.4008 -0.4964
 4526SOL    HW214478   6.883   3.540   0.744  1.4098  0.9129 -0.5737
 4527SOL     OW14479   1.250   2.561   0.396  0.1510 -0.1502  0.2698
 4527SOL    HW114480   1.283   2.649   0.361 -0.5762 -0.2243 -0.6330
 4527SOL    HW214481   1.188   2.520   0.329 -1.2899 -0.3022  1.6500
 4528SOL     OW14482   1.932   4.855   0.101  0.0371  0.6266  0.2909
 4528SOL    HW114483   1.892   4.823   0.015 -0.2061 -0.0198  0.6442
 4528SOL    HW214484   1.972   4.778   0.150 -0.1214  0.9423  0.9214
 4529SOL     OW14485   4.938   0.204   4.000  0.2502 -0.3925  0.6852
 4529SOL    HW114486   5.009   0.153   4.048  1.5802  0.3882 -0.3597
 4529SOL    HW214487   4.954   0.199   3.901 -0.7280  0.4146  0.4635
 4530SOL     OW14488   2.068   6.482   5.735 -0.2520  0.1404 -0.0785
 4530SOL    HW114489   2.110   6.391   5.739 -0.3690  0.1394  2.1298
 4530SOL    HW214490   2.091   6.525   5.648  3.0642 -0.4744  0.3646
 4531SOL     OW14491   0.449   1.789   0.105 -0.4744  0.5497  0.0679
 4531SOL    HW114492   0.375   1.733   0.142 -1.8532  2.7811  0.9121
 4531SOL    HW214493   0.480   1.750   0.018 -0.5342 -2.0975  1.1261
 4532SOL     OW14494   0.565   5.368   5.956  0.2386  0.4921  0.4429
 4532SOL    HW114495   0.552   5.270   5.939 -0.1203  0.3690  1.4020
 4532SOL    HW214496   0.626   5.406   5.886  0.2011 -0.3664 -0.0659
 4533SOL     OW14497   0.121   2.048   0.916  0.2393 -0.2715  0.0875
 4533SOL    HW114498   0.187   2.026   0.844 -0.2425  1.6884 -1.0432
 4533SOL    HW214499   0.038   2.086   0.874  1.4050  4.8097  1.6477
 4534SOL     OW14500   2.551   4.595   1.083  0.4443  0.3246 -0.0302
 4534SOL    HW114501   2.486   4.637   1.147  1.3004 -0.7629  1.6334
 4534SOL    HW214502   2.582   4.508   1.120 -1.6151 -2.1721 -3.5407
 4535SOL     OW14503   3.310   3.245   3.521 -0.1694 -0.1859  0.5926
 4535SOL    HW114504   3.284   3.150   3.507 -1.1599  0.1784 -0.2238
 4535SOL    HW214505   3.356   3.279   3.439 -1.3568  0.4998  0.1706
 4536SOL     OW14506   5.817   6.461   3.860  0.0986  0.1111  0.2002
 4536SOL    HW114507   5.814   6.553   3.820  2.5628  0.3717  0.4574
 4536SOL    HW214508   5.812   6.393   3.786  1.1304  0.5293 -0.2731
 4537SOL     OW14509   2.182   4.482   2.446 -0.2909  0.1097 -0.6978
 4537SOL    HW114510   2.248   4.495   2.372  0.0235 -1.2695 -0.6800
 4537SOL    HW214511   2.228   4.443   2.526 -0.6752  1.3703  0.1705
 4538SOL     OW14512   6.344   4.415   5.301 -0.4457  0.1540 -0.3391
 4538SOL    HW114513   6.322   4.388   5.207 -1.4425  0.8038 -0.3157
 4538SOL    HW214514   6.280   4.487   5.330  1.8164  2.2511 -0.2619
 4539SOL     OW14515   3.593   0.208   4.226 -0.0052 -0.0458  0.2589
 4539SOL    HW114516   3.631   0.300   4.237  0.5911 -0.1568 -0.7499
 4539SOL    HW214517   3.602   0.158   4.312  0.1645  0.6564  0.6570
 4540SOL     OW14518   1.010   0.771   6.943  0.1747 -0.1004 -0.1709
 4540SOL    HW114519   1.091   0.764   6.885  2.1512  0.6744  2.3439
 4540SOL    HW214520   0.974   0.679   6.961  1.3698 -0.5771 -0.1454
 4541SOL     OW14521   4.425   0.088   2.754 -0.1714  0.4572 -0.0503
 4541SOL    HW114522   4.422   0.186   2.775 -0.7436 -0.1308  3.0292
 4541SOL    HW214523   4.520   0.058   2.751  0.1067  1.3240 -2.6517
 4542SOL     OW14524   0.488   0.042   5.152 -0.1842  0.4513  0.0233
 4542SOL    HW114525   0.440   0.091   5.225  0.1599  1.2385 -0.2796
 4542SOL    HW214526   0.477   0.091   5.066  2.3454  1.4562  0.1943
 4543SOL     OW14527   5.306   0.695   1.334 -0.4068  0.3535 -0.3719
 4543SOL    HW114528   5.269   0.721   1.423 -0.7556  0.1733 -0.4617
 4543SOL    HW214529   5.298   0.595   1.322  2.5711 -0.1084  0.7293
 4544SOL     OW14530   6.797   0.438   4.461 -0.3243 -0.2473 -0.1761
 4544SOL    HW114531   6.888   0.398   4.450 -0.5621 -2.1042  3.2720
 4544SOL    HW214532   6.755   0.403   4.545 -3.0855  2.8002 -0.0885
 4545SOL     OW14533   4.555   3.302   6.271  0.6093  0.4095  0.0042
 4545SOL    HW114534   4.603   3.228   6.318  1.5376  0.6787 -0.4807
 4545SOL    HW214535   4.573   3.389   6.317  0.2870  0.4657  0.0281
 4546SOL     OW14536   0.723   6.009   5.297  0.2130  0.0835 -0.0554
 4546SOL    HW114537   0.656   6.083   5.283 -0.6035 -0.4769  0.7411
 4546SOL    HW214538   0.674   5.922   5.304  1.0062 -0.2901  0.9377
 4547SOL     OW14539   0.469   5.927   0.626  0.2008  0.0844 -0.6187
 4547SOL    HW114540   0.508   6.017   0.643  0.3419  0.0737 -0.8848
 4547SOL    HW214541   0.495   5.896   0.534 -2.3354  1.0849 -1.7732
 4548SOL     OW14542   3.594   1.636   3.687  0.4713 -0.6651  0.0204
 4548SOL    HW114543   3.623   1.575   3.613  0.1070  2.4973 -2.9607
 4548SOL    HW214544   3.669   1.697   3.711 -0.1278 -0.1939  0.7308
 4549SOL     OW14545   2.842   6.140   4.288 -0.2172 -0.4923  0.1731
 4549SOL    HW114546   2.932   6.171   4.257 -0.6260 -1.4662 -2.2658
 4549SOL    HW214547   2.795   6.215   4.335  1.3954  0.4018  0.4362
 4550SOL     OW14548   6.932   6.910   1.843  0.0908  0.3656  0.2883
 4550SOL    HW114549   6.861   6.855   1.799  0.1504  0.5659 -0.0648
 4550SOL    HW214550   6.961   6.982   1.781 -0.8042  1.5197  1.1466
 4551SOL     OW14551   3.639   6.878   6.341  0.5612  0.4708  0.6558
 4551SOL    HW114552   3.660   6.797   6.396  0.0692  0.3400  0.6522
 4551SOL    HW214553   3.555   6.863   6.289  0.4575  0.9887  0.6646
 4552SOL     OW14554   0.130   3.026   4.260 -0.2118  0.3542 -0.1504
 4552SOL    HW114555   0.177   2.938   4.254 -0.0153  0.5652 -2.3821
 4552SOL    HW214556   0.033   3.013   4.241  0.0274  0.7432 -1.8214
 4553SOL     OW14557   6.048   4.502   4.124 -0.6522 -0.1029  1.1156
 4553SOL    HW114558   5.976   4.489   4.056 -1.4616 -2.8726  2.3421
 4553SOL    HW214559   6.131   4.455   4.095  0.3800  2.1326  0.2354
 4554SOL     OW14560   6.788   2.562   3.504  0.0025  0.1179 -0.0837
 4554SOL    HW114561   6.719   2.602   3.564 -1.9582  0.0199 -2.1360
 4554SOL    HW214562   6.845   2.499   3.556 -2.4994 -1.0535  1.4095
 4555SOL     OW14563   5.140   1.582   2.258  0.1651  0.2357  0.3125
 4555SOL    HW114564   5.115   1.657   2.198 -2.3986  2.7306  4.1013
 4555SOL    HW214565   5.231   1.599   2.296 -0.2238  1.2722  0.8216
 4556SOL     OW14566   5.584   6.584   1.978  0.3409 -0.1719 -0.3046
 4556SOL    HW114567   5.485   6.579   1.984  0.3787 -0.1037  0.4205
 4556SOL    HW214568   5.623   6.595   2.069  1.0957 -1.4327 -0.4562
 4557SOL     OW14569   4.878   5.015   2.595  0.1565 -0.2236 -0.0314
 4557SOL    HW114570   4.838   4.925   2.579  0.2052 -0.0135 -1.4102
 4557SOL    HW214571   4.938   5.010   2.675 -0.9196 -1.0583  0.7561
 4558SOL     OW14572   6.506   5.225   5.900  0.7354 -0.2592 -0.4140
 4558SOL    HW114573   6.455   5.145   5.930 -0.5824  0.0957 -1.5780
 4558SOL    HW214574   6.577   5.197   5.835 -1.6668 -0.3172 -3.2347
 4559SOL     OW14575   2.136   0.806   2.443 -0.0450 -0.0464 -0.2209
 4559SOL    HW114576   2.099   0.835   2.531  2.2559 -0.5632  1.0017
 4559SOL    HW214577   2.217   0.860   2.421 -1.0141  0.6134 -2.4531
 4560SOL     OW14578   1.471   1.722   2.966 -0.2711  0.3313 -0.1807
 4560SOL    HW114579   1.451   1.639   2.913 -0.0526 -0.4506  0.8994
 4560SOL    HW214580   1.401   1.733   3.037 -0.9427  1.7358 -1.0226
 4561SOL     OW14581   4.597   5.481   1.502 -0.3835 -0.8914 -0.4703
 4561SOL    HW114582   4.666   5.483   1.574  0.7947 -0.8291 -1.5679
 4561SOL    HW214583   4.610   5.398   1.447 -1.4453 -1.0763 -0.4643
 4562SOL     OW14584   6.634   6.843   6.536  0.2744 -0.2745 -0.1296
 4562SOL    HW114585   6.708   6.779   6.516 -1.5447 -2.2866 -0.7344
 4562SOL    HW214586   6.573   6.803   6.604  0.0520  1.6356  0.8696
 4563SOL     OW14587   4.346   1.512   4.392 -0.3683 -0.0040  0.5814
 4563SOL    HW114588   4.388   1.584   4.448  1.7707 -1.7625  1.3873
 4563SOL    HW214589   4.295   1.554   4.317 -0.5854  2.3616  1.9472
 4564SOL     OW14590   2.986   4.076   0.086  0.1498 -0.4228 -0.0336
 4564SOL    HW114591   2.964   3.992   0.038 -1.0020 -0.0664 -0.1717
 4564SOL    HW214592   3.085   4.087   0.093  0.3166 -2.1309  0.6119
 4565SOL     OW14593   3.197   6.332   3.308 -0.1206  0.5024 -0.0858
 4565SOL    HW114594   3.256   6.408   3.337 -0.9030  1.4727 -0.9796
 4565SOL    HW214595   3.218   6.252   3.364  2.3476  0.6641 -0.6275
 4566SOL     OW14596   3.040   1.533   6.816 -0.1888 -0.2655 -0.0634
 4566SOL    HW114597   3.116   1.590   6.847 -1.2328  0.8747  0.4888
 4566SOL    HW214598   2.953   1.577   6.841 -1.0429 -1.1060 -1.4382
 4567SOL     OW14599   2.431   4.519   3.036 -0.2111 -0.1211  0.2268
 4567SOL    HW114600   2.470   4.516   2.944 -2.0803  0.6123 -0.6299
 4567SOL    HW214601   2.465   4.599   3.084 -2.4302  1.9302 -1.4107
 4568SOL     OW14602   3.612   2.267   6.804 -0.3478  0.3285 -0.4776
 4568SOL    HW114603   3.644   2.351   6.850  1.0947  0.4297 -1.5615
 4568SOL    HW214604   3.636   2.188   6.859  0.2080  0.5218 -0.4307
 4569SOL     OW14605   3.182   2.963   3.509 -0.4472 -0.4279 -0.3561
 4569SOL    HW114606   3.110   3.019   3.468 -0.9153 -0.3878  0.4773
 4569SOL    HW214607   3.166   2.956   3.608  0.9860  0.0082 -0.0666
 4570SOL     OW14608   6.389   5.553   4.813  0.2750  0.0640 -0.3055
 4570SOL    HW114609   6.415   5.593   4.901 -0.9486  0.0004  0.1097
 4570SOL    HW214610   6.416   5.457   4.811  0.0000 -0.0247  0.1453
 4571SOL     OW14611   0.535   3.950   4.450  0.6558  0.1516 -0.0078
 4571SOL    HW114612   0.552   4.024   4.516  1.5328 -0.4462  0.4603
 4571SOL    HW214613   0.542   3.986   4.357 -0.0246  0.8860  0.2134
 4572SOL     OW14614   5.682   3.634   3.894  0.4725  0.3089  0.7317
 4572SOL    HW114615   5.667   3.665   3.800 -1.9698 -1.0913  0.5572
 4572SOL    HW214616   5.667   3.710   3.957 -0.6957  0.6418  0.0916
 4573SOL     OW14617   1.134   3.964   4.176 -0.1012 -0.0357  0.1711
 4573SOL    HW114618   1.061   4.022   4.211 -0.7653  0.9979 -2.6316
 4573SOL    HW214619   1.095   3.897   4.112  1.1314 -1.1919  0.5717
 4574SOL     OW14620   0.524   6.445   4.130  0.1021 -0.2787  0.7934
 4574SOL    HW114621   0.527   6.544   4.149  1.1450 -0.3136  0.8624
 4574SOL    HW214622   0.543   6.429   4.034 -1.2177 -0.3515  0.5312
 4575SOL     OW14623   3.159   5.894   5.257  0.0275 -0.1390  0.2468
 4575SOL    HW114624   3.210   5.950   5.191 -0.9367  0.8021  0.2723
 4575SOL    HW214625   3.223   5.840   5.311  0.9319  0.2341 -0.4227
 4576SOL     OW14626   4.659   1.683   2.367  0.8995 -0.3559  0.1476
 4576SOL    HW114627   4.738   1.625   2.388  1.1937 -0.2771 -0.6760
 4576SOL    HW214628   4.628   1.664   2.274  0.4938  0.2435  0.1545
 4577SOL     OW14629   2.991   5.835   0.101  0.1078 -0.0417  0.5863
 4577SOL    HW114630   2.974   5.740   0.126 -1.0405 -0.0195 -0.0273
 4577SOL    HW214631   3.047   5.839   0.018 -2.1831 -0.3079 -1.0963
 4578SOL     OW14632   1.004   2.794   1.625 -0.0778  0.4465  0.3830
 4578SOL    HW114633   0.946   2.848   1.686  0.7830  0.5520  1.1274
 4578SOL    HW214634   1.097   2.830   1.627 -0.4595  1.9947 -2.8354
 4579SOL     OW14635   3.765   6.220   3.584  0.2482 -0.0734  0.3188
 4579SOL    HW114636   3.786   6.264   3.671  0.7064 -0.2218  0.2833
 4579SOL    HW214637   3.841   6.161   3.557  0.4385  0.5621 -0.5637
 4580SOL     OW14638   6.018   1.149   1.822  0.8034 -0.3695 -0.3214
 4580SOL    HW114639   6.093   1.143   1.888  0.0320  0.3088  0.6208
 4580SOL    HW214640   5.999   1.245   1.802 -1.0567 -0.4623  0.8767
 4581SOL     OW14641   2.828   5.055   4.523  0.3059  0.2567 -0.4023
 4581SOL    HW114642   2.796   5.143   4.489  0.1502 -0.4027 -2.1043
 4581SOL    HW214643   2.832   4.990   4.447  1.6833 -0.8451  0.5553
 4582SOL     OW14644   4.133   1.613   6.513 -0.2545  0.2305  0.2906
 4582SOL    HW114645   4.057   1.599   6.450 -1.8778 -0.1615  2.2188
 4582SOL    HW214646   4.097   1.639   6.603  1.9899  1.4311  0.9128
 4583SOL     OW14647   4.992   3.304   3.478 -0.1597  0.1086 -0.3688
 4583SOL    HW114648   4.960   3.353   3.397  1.0079  1.2614 -0.1594
 4583SOL    HW214649   4.990   3.366   3.557 -1.1765 -0.9640  0.4810
 4584SOL     OW14650   5.206   6.361   1.031 -0.1895 -1.1011  0.0086
 4584SOL    HW114651   5.296   6.357   0.987  0.6701  0.7228  1.4358
 4584SOL    HW214652   5.212   6.418   1.113 -2.3560 -2.0675  0.9255
 4585SOL     OW14653   6.507   0.442   6.970  0.4583 -0.1754  0.1942
 4585SOL    HW114654   6.529   0.346   6.953 -0.4832 -0.2727 -0.5883
 4585SOL    HW214655   6.582   0.500   6.938  0.3054 -0.5681 -0.9141
 4586SOL     OW14656   3.959   6.918   5.750  0.0154  0.4017  0.0245
 4586SOL    HW114657   4.031   6.953   5.691  1.1740 -0.7032  0.7420
 4586SOL    HW214658   3.910   6.845   5.704  1.8710 -1.4784  0.8841
 4587SOL     OW14659   0.603   5.378   6.488 -0.1333 -0.0047  0.3478
 4587SOL    HW114660   0.591   5.294   6.435  0.9789  1.2729 -2.0913
 4587SOL    HW214661   0.695   5.378   6.529  0.6748  0.8297 -1.3518
 4588SOL     OW14662   1.798   3.881   4.168  0.2441 -0.7321 -0.0271
 4588SOL    HW114663   1.778   3.809   4.235  0.6578 -1.3921 -0.6066
 4588SOL    HW214664   1.878   3.856   4.115  1.5002  0.9946  0.9667
 4589SOL     OW14665   3.400   5.831   5.385 -0.5115 -0.1427  0.2983
 4589SOL    HW114666   3.479   5.849   5.327 -0.5296  0.5291  0.4727
 4589SOL    HW214667   3.410   5.881   5.471 -0.7306 -0.7158  0.6631
 4590SOL     OW14668   2.177   4.213   0.854 -0.5942  0.0308 -0.9802
 4590SOL    HW114669   2.135   4.303   0.849 -0.8069  0.1214  1.5493
 4590SOL    HW214670   2.274   4.222   0.875  0.0675 -0.3035 -3.5129
 4591SOL     OW14671   1.241   5.259   6.063  0.5971  0.3764 -0.1248
 4591SOL    HW114672   1.239   5.229   5.968 -0.1292  0.3858 -0.1220
 4591SOL    HW214673   1.153   5.238   6.106  1.2706 -0.5767  0.8454
 4592SOL     OW14674   2.589   3.410   1.648 -0.3051 -0.0670 -0.1399
 4592SOL    HW114675   2.659   3.480   1.659 -0.0623  0.2224 -2.9322
 4592SOL    HW214676   2.520   3.420   1.720  0.9894  1.4579  0.9473
 4593SOL     OW14677   1.743   0.157   0.737  0.1029  0.1136 -0.4539
 4593SOL    HW114678   1.821   0.108   0.698 -0.7523 -1.2532 -0.5421
 4593SOL    HW214679   1.748   0.253   0.713  0.9224 -0.2492 -1.8268
 4594SOL     OW14680   6.340   0.446   3.041  0.3518 -0.2795  0.0038
 4594SOL    HW114681   6.437   0.427   3.059 -0.1328 -1.4968  1.5483
 4594SOL    HW214682   6.294   0.362   3.012 -0.7929 -0.4206  2.0269
 4595SOL     OW14683   5.393   0.982   4.375  0.2849  0.1637 -0.1542
 4595SOL    HW114684   5.465   0.916   4.356  1.3448  1.4860 -0.8941
 4595SOL    HW214685   5.427   1.050   4.439 -0.2630  0.8576 -0.5922
 4596SOL     OW14686   1.640   4.370   3.390 -0.0514  0.0467  0.0191
 4596SOL    HW114687   1.575   4.372   3.466 -0.7930  2.5292 -0.5628
 4596SOL    HW214688   1.730   4.400   3.422 -0.6275  2.1861 -0.2151
 4597SOL     OW14689   0.684   5.491   4.597  0.4142 -0.6794 -0.2747
 4597SOL    HW114690   0.599   5.489   4.650 -0.0656  1.3560 -0.8777
 4597SOL    HW214691   0.664   5.482   4.500  0.8424  0.0200 -0.4402
 4598SOL     OW14692   1.954   6.725   6.746  0.1666  0.2800 -0.2027
 4598SOL    HW114693   1.988   6.632   6.765 -0.8022 -0.2301 -0.8504
 4598SOL    HW214694   1.921   6.730   6.652 -1.4670  0.7362  0.3520
 4599SOL     OW14695   4.355   5.336   0.664  0.2103  0.2885 -0.4733
 4599SOL    HW114696   4.387   5.426   0.694  1.3281 -0.2867  0.1092
 4599SOL    HW214697   4.314   5.287   0.741  1.4063 -0.4643 -0.2960
 4600SOL     OW14698   1.983   2.064   1.428 -0.0231  0.2522  0.1339
 4600SOL    HW114699   2.004   2.154   1.467 -1.0864  0.3286  0.5519
 4600SOL    HW214700   2.052   1.998   1.458  0.3647  0.7760  0.4095
 4601SOL     OW14701   5.830   0.948   1.381 -0.0082 -0.5450  0.4075
 4601SOL    HW114702   5.781   0.999   1.310 -2.1882 -2.1549  0.6554
 4601SOL    HW214703   5.928   0.953   1.364 -0.4236 -0.3109 -2.3139
 4602SOL     OW14704   5.729   6.090   6.633 -0.0672 -0.4970 -0.0352
 4602SOL    HW114705   5.727   6.126   6.540 -1.3719  0.5854  0.3765
 4602SOL    HW214706   5.653   6.027   6.646  0.3393 -0.9465  0.1948
 4603SOL     OW14707   2.932   1.359   1.273 -0.0799  0.4731  0.1786
 4603SOL    HW114708   2.864   1.330   1.206 -1.1501  0.6326  1.1600
 4603SOL    HW214709   2.998   1.420   1.230  0.5913 -1.1788 -1.2560
 4604SOL     OW14710   1.658   4.264   6.282  0.3098 -0.3006  0.3183
 4604SOL    HW114711   1.758   4.266   6.292  0.2824  1.7940  0.5850
 4604SOL    HW214712   1.616   4.270   6.372 -0.0261  1.2085  0.0824
 4605SOL     OW14713   5.839   1.525   5.987  0.3223 -0.1802 -0.3168
 4605SOL    HW114714   5.835   1.528   6.087 -0.5240 -1.8050 -0.2728
 4605SOL    HW214715   5.933   1.503   5.958  0.0736 -2.1215  0.2334
 4606SOL     OW14716   3.926   1.230   2.932  0.1858  0.1564 -0.3261
 4606SOL    HW114717   4.013   1.186   2.911 -0.1094  0.0040 -1.2845
 4606SOL    HW214718   3.920   1.317   2.883 -0.8441 -0.5604 -1.5213
 4607SOL     OW14719   5.106   4.394   6.462  0.8265 -0.5438 -0.0531
 4607SOL    HW114720   5.019   4.443   6.466  1.1039 -0.1033  0.9998
 4607SOL    HW214721   5.179   4.457   6.435  0.6196 -1.2384 -2.4431
 4608SOL     OW14722   1.347   5.114   3.272  0.2260  0.1479  0.6749
 4608SOL    HW114723   1.343   5.197   3.326  0.9966 -0.7577  2.1894
 4608SOL    HW214724   1.414   5.051   3.311  0.2017 -0.8961 -0.8558
 4609SOL     OW14725   0.162   2.650   5.251 -0.7217 -0.0423 -0.1771
 4609SOL    HW114726   0.116   2.562   5.255 -0.6329 -0.1980 -1.9393
 4609SOL    HW214727   0.100   2.722   5.281 -1.4051 -0.4949 -0.4880
 4610SOL     OW14728   2.500   4.735   3.196 -0.2463  0.7678 -0.2141
 4610SOL    HW114729   2.411   4.718   3.154  0.1343  1.5986 -1.4178
 4610SOL    HW214730   2.488   4.791   3.278 -0.6808  2.8460 -1.6245
 4611SOL     OW14731   4.591   5.064   5.165  0.2401 -1.0013 -0.6582
 4611SOL    HW114732   4.600   5.100   5.258  1.0759 -3.4796  0.3003
 4611SOL    HW214733   4.668   5.003   5.145  0.4396 -0.0258 -3.2747
 4612SOL     OW14734   1.471   6.838   1.883  0.2704  0.3053 -0.2969
 4612SOL    HW114735   1.431   6.854   1.974  0.8284 -0.9505  0.1924
 4612SOL    HW214736   1.424   6.894   1.816 -0.7358  0.6171  0.6360
 4613SOL     OW14737   2.071   4.974   4.216  0.2279  0.3169 -0.0481
 4613SOL    HW114738   2.056   4.904   4.286 -1.6622  1.0133  0.2998
 4613SOL    HW214739   2.106   5.057   4.260 -0.9320  0.7446  0.1046
 4614SOL     OW14740   3.678   3.983   1.728 -0.8328  0.0917  0.7522
 4614SOL    HW114741   3.603   4.041   1.696 -1.4430 -0.1269  1.7506
 4614SOL    HW214742   3.764   4.034   1.723 -1.1329  0.5513  0.1665
 4615SOL     OW14743   3.886   2.687   1.244  0.2171 -0.4393 -0.0275
 4615SOL    HW114744   3.915   2.718   1.335 -3.0492 -2.4518  1.9235
 4615SOL    HW214745   3.800   2.731   1.220  0.4765 -0.7670 -1.6988
 4616SOL     OW14746   3.052   6.237   1.494 -0.3872  0.1993 -0.1888
 4616SOL    HW114747   3.116   6.263   1.566 -0.6033  0.7920 -0.2069
 4616SOL    HW214748   2.958   6.248   1.526 -0.4887  0.9734 -0.7310
 4617SOL     OW14749   0.399   3.195   4.456 -0.3629 -0.6699 -0.0774
 4617SOL    HW114750   0.421   3.180   4.359 -0.9938 -0.1381 -0.3080
 4617SOL    HW214751   0.377   3.108   4.499 -0.1563 -0.8996 -0.4321
 4618SOL     OW14752   5.084   6.370   3.137 -0.7585 -0.1790 -0.0520
 4618SOL    HW114753   5.051   6.373   3.043  1.8258  0.4557 -0.9967
 4618SOL    HW214754   5.046   6.448   3.188  0.3354  1.3758 -1.5012
 4619SOL     OW14755   0.862   3.238   5.158 -0.0377 -0.3931  0.4169
 4619SOL    HW114756   0.908   3.311   5.207  0.8147  0.1723 -1.1387
 4619SOL    HW214757   0.806   3.277   5.085  1.1996 -1.2634 -1.0746
 4620SOL     OW14758   3.729   0.871   5.671  0.1099 -0.0305  0.0198
 4620SOL    HW114759   3.784   0.795   5.704 -0.3780  0.0716  1.0989
 4620SOL    HW214760   3.638   0.839   5.645  0.4383 -0.0862 -1.1451
 4621SOL     OW14761   2.637   6.356   5.777  0.6937 -0.0511  0.7402
 4621SOL    HW114762   2.636   6.321   5.870  2.1841 -0.1920  0.7373
 4621SOL    HW214763   2.544   6.357   5.739 -0.0324  0.6320  2.4449
 4622SOL     OW14764   6.379   4.020   2.682  0.2244 -0.1668  0.6369
 4622SOL    HW114765   6.367   3.950   2.612  0.1810 -0.6525  1.1273
 4622SOL    HW214766   6.462   4.000   2.734  1.4571  1.3602 -0.6293
 4623SOL     OW14767   0.516   3.685   0.715 -0.0462 -0.1563  0.2546
 4623SOL    HW114768   0.416   3.687   0.710 -0.0792 -1.7458 -0.1803
 4623SOL    HW214769   0.552   3.775   0.689 -1.2655 -0.3466 -2.3916
 4624SOL     OW14770   2.420   1.735   1.603  0.3763  0.1163 -0.4888
 4624SOL    HW114771   2.456   1.812   1.656 -0.8157  0.3622 -0.0135
 4624SOL    HW214772   2.402   1.765   1.509 -1.4703  0.8713  0.0571
 4625SOL     OW14773   0.958   5.409   4.377 -0.0100 -0.7070 -0.5867
 4625SOL    HW114774   0.886   5.473   4.404 -2.2017 -2.4783 -1.8254
 4625SOL    HW214775   0.960   5.401   4.278  2.9187  0.2998 -0.6934
 4626SOL     OW14776   0.284   6.692   5.175  0.5220  0.3660 -0.1637
 4626SOL    HW114777   0.380   6.707   5.151  0.5760  1.4844  0.6680
 4626SOL    HW214778   0.279   6.631   5.255  0.4134 -1.7912 -1.7429
 4627SOL     OW14779   3.753   4.542   0.534 -0.1975  0.0691 -0.0289
 4627SOL    HW114780   3.805   4.594   0.466  1.1602  1.2653  1.8322
 4627SOL    HW214781   3.685   4.486   0.488 -0.9287  2.5967 -2.2288
 4628SOL     OW14782   0.871   1.112   0.236  0.0454  0.1910  0.2763
 4628SOL    HW114783   0.842   1.191   0.290  0.4532  0.8497 -0.4435
 4628SOL    HW214784   0.909   1.042   0.296  2.2320  1.6691  0.7287
 4629SOL     OW14785   6.638   4.250   0.007  0.1725  0.0213  0.1059
 4629SOL    HW114786   6.700   4.277   0.080 -1.1139  0.2658  1.1519
 4629SOL    HW214787   6.564   4.318  -0.000 -0.5582 -0.8006 -0.3822
 4630SOL     OW14788   2.508   4.592   0.015  0.2790  0.1197 -0.4018
 4630SOL    HW114789   2.461   4.643  -0.057  0.5672  2.1722  0.7603
 4630SOL    HW214790   2.553   4.657   0.077  0.3366 -1.5706  1.4265
 4631SOL     OW14791   2.372   5.276   1.529  0.2571  0.0657 -0.4507
 4631SOL    HW114792   2.308   5.273   1.451  1.0328 -0.1487 -1.0889
 4631SOL    HW214793   2.466   5.267   1.496  0.7676  1.9652  0.3076
 4632SOL     OW14794   6.381   5.129   5.375  0.6870  0.3109  0.1675
 4632SOL    HW114795   6.297   5.112   5.427  0.7809  1.2388  0.6503
 4632SOL    HW214796   6.433   5.044   5.366 -0.1959 -0.2262  0.0509
 4633SOL     OW14797   0.086   3.665   1.114  0.1175 -0.6688 -0.2329
 4633SOL    HW114798  -0.001   3.623   1.142 -0.0203 -0.0582  0.2797
 4633SOL    HW214799   0.067   3.749   1.063  0.4082  0.0496  0.8191
 4634SOL     OW14800   0.157   6.664   0.938  0.0423 -0.1823  0.1237
 4634SOL    HW114801   0.251   6.695   0.950 -0.1873  0.4224  0.3482
 4634SOL    HW214802   0.097   6.710   1.003 -0.5214 -0.0502 -0.4732
 4635SOL     OW14803   6.815   1.216   6.529  0.0296 -0.0171 -0.1864
 4635SOL    HW114804   6.873   1.251   6.603  0.4323 -1.8721  0.4563
 4635SOL    HW214805   6.873   1.177   6.457 -0.3876 -0.1031 -0.4802
 4636SOL     OW14806   5.957   4.147   5.940 -0.2489  0.0423  0.4157
 4636SOL    HW114807   5.962   4.228   5.998  1.3920 -0.0186  0.3989
 4636SOL    HW214808   6.047   4.104   5.934 -0.9797 -1.5064  0.0132
 4637SOL     OW14809   5.739   3.617   2.575  0.0696  0.1072  0.4731
 4637SOL    HW114810   5.803   3.671   2.521  1.6232 -1.8610  0.2271
 4637SOL    HW214811   5.770   3.613   2.670  1.2557 -2.0803  0.0615
 4638SOL     OW14812   5.924   3.730   4.311  0.7125 -0.4024  0.0567
 4638SOL    HW114813   5.959   3.661   4.375  1.1543  0.1807  0.4516
 4638SOL    HW214814   6.000   3.784   4.276  0.2119  1.0720  1.1406
 4639SOL     OW14815   3.188   4.444   6.086 -0.7219  0.1424 -0.5294
 4639SOL    HW114816   3.122   4.458   6.161 -0.3178 -0.5424 -0.0335
 4639SOL    HW214817   3.157   4.494   6.005 -1.6520  0.1443 -0.1880
 4640SOL     OW14818   4.086   4.929   0.703  0.0255  1.0989  0.1329
 4640SOL    HW114819   4.035   4.987   0.639 -0.4063  2.5219  1.6747
 4640SOL    HW214820   4.055   4.834   0.695 -0.9732  1.4855 -0.8057
 4641SOL     OW14821   3.873   1.693   0.712  0.3716  0.0099 -0.0149
 4641SOL    HW114822   3.935   1.726   0.783 -0.2529 -0.3104  0.6998
 4641SOL    HW214823   3.780   1.725   0.731  0.0647 -0.7042 -0.2643
 4642SOL     OW14824   1.831   1.861   0.800  0.1770  0.1236 -0.1799
 4642SOL    HW114825   1.853   1.861   0.702 -0.4175 -0.4935 -0.3197
 4642SOL    HW214826   1.870   1.943   0.843  0.4428  0.4004 -0.9325
 4643SOL     OW14827   6.315   2.979   3.660 -0.3263  0.4640 -0.0895
 4643SOL    HW114828   6.352   2.913   3.595  0.2312  1.6396 -1.0062
 4643SOL    HW214829   6.230   3.017   3.624 -1.2475 -0.5323  0.9494
 4644SOL     OW14830   0.256   1.600   1.907 -0.6406 -0.0356  0.6008
 4644SOL    HW114831   0.348   1.621   1.938  0.0220 -1.6221 -0.1865
 4644SOL    HW214832   0.252   1.605   1.807 -1.2153 -0.6717  0.5868
 4645SOL     OW14833   2.368   0.850   4.453 -0.3778 -0.2341  0.4981
 4645SOL    HW114834   2.400   0.912   4.524  1.4948 -0.4231 -0.1284
 4645SOL    HW214835   2.302   0.897   4.395 -1.0015  0.3010  1.6192
 4646SOL     OW14836   5.591   3.055   0.628 -0.5648 -0.1633  0.0903
 4646SOL    HW114837   5.578   3.109   0.711 -0.1210  0.4496 -0.2338
 4646SOL    HW214838   5.599   2.958   0.652  0.7730  0.1213  0.8828
 4647SOL     OW14839   0.435   2.905   2.897 -0.0362  0.3151 -0.4162
 4647SOL    HW114840   0.438   2.848   2.980  1.0110 -0.2482 -0.8206
 4647SOL    HW214841   0.390   2.855   2.824 -0.8503  0.7666 -0.2345
 4648SOL     OW14842   4.641   1.782   4.637 -0.0503  0.3674 -1.2230
 4648SOL    HW114843   4.646   1.842   4.717 -1.1263  0.6498 -1.3583
 4648SOL    HW214844   4.555   1.732   4.638 -0.2963  0.7272 -2.4468
 4649SOL     OW14845   2.466   6.417   0.811 -0.0951 -0.0590  0.0512
 4649SOL    HW114846   2.409   6.395   0.732 -1.5974  0.2225  1.0148
 4649SOL    HW214847   2.442   6.508   0.845  0.4987 -0.1972  0.8724
 4650SOL     OW14848   2.764   4.169   5.606 -0.3165  0.1659  0.4322
 4650SOL    HW114849   2.685   4.201   5.554 -0.1489 -1.1940 -0.7217
 4650SOL    HW214850   2.828   4.245   5.620 -0.5921  0.6921 -0.9576
 4651SOL     OW14851   3.698   2.831   1.581  0.3354  0.5004  0.1659
 4651SOL    HW114852   3.693   2.929   1.599  0.7567  0.4170  0.7656
 4651SOL    HW214853   3.643   2.809   1.500 -1.1030  0.9943  0.9647
 4652SOL     OW14854   1.677   2.472   0.480 -0.1233 -0.0816 -0.0779
 4652SOL    HW114855   1.591   2.437   0.445 -0.0960 -0.4840  0.2489
 4652SOL    HW214856   1.741   2.397   0.495 -0.0886  0.0851  0.6914
 4653SOL     OW14857   6.278   0.358   0.482 -0.2153  0.1471 -0.2213
 4653SOL    HW114858   6.329   0.346   0.397  0.1407 -1.2724  0.1687
 4653SOL    HW214859   6.277   0.455   0.507  0.5746  0.4448 -1.2762
 4654SOL     OW14860   5.932   1.231   6.387  0.1599 -0.7421  0.0176
 4654SOL    HW114861   5.906   1.149   6.437  0.3430  0.2360  1.8198
 4654SOL    HW214862   6.026   1.222   6.353  0.1439 -1.3207  0.1277
 4655SOL     OW14863   0.056   4.646   6.910  0.2446 -0.0972 -0.4658
 4655SOL    HW114864   0.022   4.656   7.003 -0.4552 -1.8746 -0.4690
 4655SOL    HW214865   0.156   4.644   6.910  0.2492 -0.0474  0.2422
 4656SOL     OW14866   5.601   2.266   4.799 -0.2937 -0.4631  0.0249
 4656SOL    HW114867   5.605   2.190   4.864  0.3157 -0.2543  0.2369
 4656SOL    HW214868   5.569   2.232   4.710  1.3004 -1.2531 -0.2776
 4657SOL     OW14869   5.875   2.440   4.978  0.1412  0.2684  0.1321
 4657SOL    HW114870   5.783   2.409   4.952  0.1656  0.8584 -0.6656
 4657SOL    HW214871   5.869   2.531   5.019  0.4146  0.4694 -0.2728
 4658SOL     OW14872   6.248   4.909   4.860 -0.1666 -0.1541  0.1436
 4658SOL    HW114873   6.198   4.962   4.928 -1.7705  1.6235 -2.2776
 4658SOL    HW214874   6.215   4.815   4.860 -1.0515  0.1414  0.9477
 4659SOL     OW14875   5.458   4.503   2.801  0.1044  0.4936 -0.2181
 4659SOL    HW114876   5.539   4.448   2.781  0.1254  0.2465  0.5110
 4659SOL    HW214877   5.386   4.444   2.837  0.8882  1.2052  2.7534
 4660SOL     OW14878   3.112   3.040   3.850 -0.2885  0.6355 -0.6473
 4660SOL    HW114879   3.147   3.133   3.836 -0.1244  0.6036 -0.4470
 4660SOL    HW214880   3.012   3.042   3.849 -0.3151  1.0468  0.7920
 4661SOL     OW14881   5.783   2.502   3.846 -0.0638 -0.4213 -0.2398
 4661SOL    HW114882   5.736   2.414   3.845 -1.6045  0.3779 -0.9064
 4661SOL    HW214883   5.876   2.491   3.810  0.1839 -1.9711  0.8030
 4662SOL     OW14884   2.975   2.464   5.381  0.0525  0.2641  0.0725
 4662SOL    HW114885   3.010   2.476   5.473 -0.3408  5.1597 -0.1951
 4662SOL    HW214886   3.051   2.457   5.316  0.5906  3.5807  0.2169
 4663SOL     OW14887   3.595   6.123   1.146 -0.1236  0.2032 -0.5840
 4663SOL    HW114888   3.593   6.041   1.204 -0.3169 -1.2537 -2.5436
 4663SOL    HW214889   3.684   6.167   1.153 -0.7619  1.2545  2.2973
 4664SOL     OW14890   5.893   1.403   4.907  0.0405 -0.6083 -0.0649
 4664SOL    HW114891   5.992   1.396   4.919  0.6037  1.5654 -2.5355
 4664SOL    HW214892   5.856   1.315   4.878  1.4533 -1.1374 -0.3435
 4665SOL     OW14893   1.607   6.834   4.244 -0.2941 -0.3755 -0.1884
 4665SOL    HW114894   1.644   6.787   4.164 -1.2545 -0.3943 -0.6303
 4665SOL    HW214895   1.508   6.841   4.236 -0.5460 -1.3842  1.5235
 4666SOL     OW14896   2.271   0.059   4.938 -0.5279 -0.1190  0.1531
 4666SOL    HW114897   2.268   0.142   4.881  0.9061 -0.1307  0.0310
 4666SOL    HW214898   2.196   0.062   5.004  0.1416  1.8469  0.9065
 4667SOL     OW14899   4.869   5.576   1.920  0.5728 -0.2933 -0.2055
 4667SOL    HW114900   4.804   5.648   1.897  1.6156  0.7698  0.0515
 4667SOL    HW214901   4.826   5.487   1.909 -0.8737  0.3750 -0.1339
 4668SOL     OW14902   0.176   6.674   6.951 -0.2748 -0.4948  0.1836
 4668SOL    HW114903   0.116   6.692   6.873 -0.6641  0.7859  0.7497
 4668SOL    HW214904   0.254   6.737   6.948 -0.4238 -0.2731  0.9667
 4669SOL     OW14905   1.394   2.583   2.116 -0.0693  0.0673  0.1386
 4669SOL    HW114906   1.345   2.509   2.068 -0.1235  0.7519 -0.8835
 4669SOL    HW214907   1.454   2.543   2.185 -1.5850 -0.8351  1.0006
 4670SOL     OW14908   0.520   2.640   1.449  0.1571  0.2675 -0.2962
 4670SOL    HW114909   0.535   2.541   1.447  1.4028  0.4241  0.3849
 4670SOL    HW214910   0.571   2.683   1.375 -0.4515  0.4052 -0.6442
 4671SOL     OW14911   6.329   1.369   0.193  0.0178  0.3012  0.0572
 4671SOL    HW114912   6.329   1.273   0.165  1.9334  0.3075 -0.0881
 4671SOL    HW214913   6.280   1.424   0.125  0.5880 -0.3272 -0.8894
 4672SOL     OW14914   1.576   6.220   0.802  0.3921  0.1212 -0.0006
 4672SOL    HW114915   1.623   6.276   0.870 -2.0944  1.3382  0.8435
 4672SOL    HW214916   1.537   6.280   0.732  0.1892 -0.8453 -0.7384
 4673SOL     OW14917   0.212   1.555   3.767 -0.6778 -0.3069 -0.3372
 4673SOL    HW114918   0.161   1.470   3.781 -0.7439 -0.3561 -0.8659
 4673SOL    HW214919   0.175   1.603   3.687 -0.2266 -0.0922 -0.4161
 4674SOL     OW14920   0.037   2.172   0.337 -0.0844 -0.4103  0.1621
 4674SOL    HW114921   0.112   2.180   0.272 -1.3796  1.7222 -1.1932
 4674SOL    HW214922   0.038   2.250   0.400 -0.0503 -1.3829  1.4119
 4675SOL     OW14923   2.096   1.135   6.873  0.1676  0.2552  0.3224
 4675SOL    HW114924   2.078   1.169   6.781 -1.0272  1.8422  1.0870
 4675SOL    HW214925   2.098   1.035   6.872  0.4424  0.2485 -1.4529
 4676SOL     OW14926   3.362   6.491   5.585 -0.0504 -0.4894 -0.3567
 4676SOL    HW114927   3.387   6.427   5.658 -0.0603 -0.1877 -0.0857
 4676SOL    HW214928   3.444   6.518   5.534  0.0090 -0.4176 -0.2235
 4677SOL     OW14929   3.573   5.705   0.983  0.0649  0.1244 -0.0728
 4677SOL    HW114930   3.601   5.784   0.928  0.3490 -0.4782 -0.8143
 4677SOL    HW214931   3.473   5.699   0.983  0.0555  0.2717 -0.3180
 4678SOL     OW14932   6.563   3.107   4.777 -0.4905 -0.3106  0.0810
 4678SOL    HW114933   6.609   3.121   4.865 -0.2830  1.4458 -0.2857
 4678SOL    HW214934   6.604   3.165   4.708  0.0228 -2.3925 -1.4735
 4679SOL     OW14935   3.269   2.845   6.638  0.4984  0.0514 -0.5923
 4679SOL    HW114936   3.362   2.850   6.603 -0.3428 -0.5989 -3.2289
 4679SOL    HW214937   3.246   2.750   6.659  1.9641  0.5964  5.2530
 4680SOL     OW14938   5.421   6.343   4.925 -0.5231  0.5483 -0.2731
 4680SOL    HW114939   5.437   6.360   5.022  2.1382  1.9135 -0.8742
 4680SOL    HW214940   5.332   6.299   4.913 -0.3715 -0.8218  2.8627
 4681SOL     OW14941   0.063   1.334   2.763 -0.8083  0.0918  0.5138
 4681SOL    HW114942   0.130   1.408   2.768 -1.0369  0.3976 -0.6382
 4681SOL    HW214943   0.101   1.252   2.805  0.7898 -0.0812 -1.1396
 4682SOL     OW14944   4.118   1.367   5.559  0.2975 -0.6283 -0.2065
 4682SOL    HW114945   4.042   1.424   5.591  0.3354 -0.5608 -0.2354
 4682SOL    HW214946   4.100   1.271   5.582  1.6066 -0.3141  2.5457
 4683SOL     OW14947   2.262   1.813   6.065  0.0466 -0.9233  0.8269
 4683SOL    HW114948   2.252   1.903   6.022  0.5694 -0.3149  1.9008
 4683SOL    HW214949   2.235   1.741   6.001  1.1632 -0.0986 -0.6319
 4684SOL     OW14950   4.808   3.102   0.505 -0.4937 -0.0261 -0.3491
 4684SOL    HW114951   4.857   3.104   0.592 -2.8899  0.9499  1.0756
 4684SOL    HW214952   4.817   3.011   0.464  2.9594  0.2736 -0.5443
 4685SOL     OW14953   4.449   6.696   6.529 -0.1711 -0.0684 -0.3898
 4685SOL    HW114954   4.532   6.725   6.578 -0.0270 -0.1419 -0.5903
 4685SOL    HW214955   4.370   6.739   6.571 -0.0513 -0.1501 -0.0700
 4686SOL     OW14956   4.011   0.618   0.886 -0.9696  0.2951 -0.0392
 4686SOL    HW114957   4.031   0.521   0.874 -0.2262  0.2732  1.2369
 4686SOL    HW214958   4.096   0.671   0.880 -1.0046  0.6016  1.6425
 4687SOL     OW14959   4.432   3.087   6.759 -0.4260 -0.4789 -0.1041
 4687SOL    HW114960   4.360   3.080   6.690 -1.5679 -1.3521  1.1103
 4687SOL    HW214961   4.503   3.019   6.741 -0.9700 -1.0506 -0.1466
 4688SOL     OW14962   2.665   3.154   0.700 -0.1888 -0.5267  0.3956
 4688SOL    HW114963   2.589   3.185   0.756 -0.1839 -0.3117  0.2826
 4688SOL    HW214964   2.739   3.121   0.759 -0.6945 -1.5210  0.4991
 4689SOL     OW14965   4.882   3.416   3.218  0.1051 -0.2199  0.5185
 4689SOL    HW114966   4.803   3.433   3.159  0.3055 -0.6994  0.0980
 4689SOL    HW214967   4.920   3.503   3.250  0.0492  0.0563 -0.1420
 4690SOL     OW14968   3.167   5.342   1.900 -0.2944  0.7851 -0.1344
 4690SOL    HW114969   3.215   5.262   1.862 -0.2599  0.8474 -0.2228
 4690SOL    HW214970   3.075   5.315   1.927  0.9359 -0.2716  3.5462
 4691SOL     OW14971   1.902   4.351   3.497 -0.2060  0.0391 -0.0916
 4691SOL    HW114972   1.924   4.385   3.589  0.7225  2.9247 -1.2624
 4691SOL    HW214973   1.970   4.284   3.469  0.1851  0.0024  0.8882
 4692SOL     OW14974   4.834   4.881   1.479 -0.6410  0.1129  0.5223
 4692SOL    HW114975   4.825   4.972   1.521  1.0494  1.1266 -1.1715
 4692SOL    HW214976   4.760   4.868   1.413  1.5414  2.3020 -2.6281
 4693SOL     OW14977   4.126   2.877   6.624 -0.2218 -0.3689  0.2452
 4693SOL    HW114978   4.195   2.834   6.565  0.8063  0.0508  1.1102
 4693SOL    HW214979   4.164   2.888   6.717 -1.3467  0.1542  0.6552
 4694SOL     OW14980   4.116   4.043   5.554  0.2394 -0.2570  0.4279
 4694SOL    HW114981   4.111   4.119   5.619  1.4993 -0.2422  0.5312
 4694SOL    HW214982   4.060   4.063   5.474 -0.2946  0.2918  0.9311
 4695SOL     OW14983   2.590   6.957   5.931 -0.2220  0.1076 -0.0112
 4695SOL    HW114984   2.641   6.907   5.861  0.8303  0.7061  0.2877
 4695SOL    HW214985   2.530   6.895   5.981  0.8310 -0.7961  0.1632
 4696SOL     OW14986   3.390   3.967   0.437 -0.0288  0.3406 -0.1294
 4696SOL    HW114987   3.455   4.041   0.452 -1.8197  2.1548 -0.7995
 4696SOL    HW214988   3.347   3.942   0.523  1.0519 -0.4194  0.2081
 4697SOL     OW14989   5.603   6.304   1.038 -0.7218 -0.4465  0.0273
 4697SOL    HW114990   5.532   6.236   1.019 -0.8623 -0.0716 -0.8378
 4697SOL    HW214991   5.605   6.372   0.964 -0.4014  0.3410  0.7458
 4698SOL     OW14992   5.901   5.921   6.060  0.1879  0.0642  0.2791
 4698SOL    HW114993   5.805   5.940   6.079  0.2023  4.2813 -2.3855
 4698SOL    HW214994   5.957   5.954   6.136 -0.3746  1.0255  0.2983
 4699SOL     OW14995   3.371   2.881   4.453 -0.1284 -0.2568 -0.8986
 4699SOL    HW114996   3.416   2.887   4.364  0.6406 -0.2825 -0.5179
 4699SOL    HW214997   3.439   2.887   4.526 -0.1451 -4.5168 -0.2842
 4700SOL     OW14998   3.753   6.155   6.643  0.0735  0.6023 -0.4347
 4700SOL    HW114999   3.829   6.210   6.678  0.2597  0.3272 -0.4074
 4700SOL    HW215000   3.748   6.165   6.544  0.6109  0.0275 -0.5182
 4701SOL     OW15001   3.469   5.302   4.925  0.1187  0.1774  0.1188
 4701SOL    HW115002   3.470   5.229   4.994  0.0949 -0.2878 -0.3690
 4701SOL    HW215003   3.541   5.369   4.947  2.5589 -1.7921 -1.3219
 4702SOL     OW15004   1.818   3.525   3.972  0.5803 -0.9795 -0.1528
 4702SOL    HW115005   1.897   3.582   3.996 -0.4944  0.5391 -0.1108
 4702SOL    HW215006   1.821   3.502   3.875 -0.3587  1.4563 -0.8108
 4703SOL     OW15007   1.155   5.261   1.831  0.0210 -0.1682  0.3162
 4703SOL    HW115008   1.098   5.227   1.905 -0.4078 -1.6140 -0.6261
 4703SOL    HW215009   1.128   5.217   1.745  0.9977  0.8888 -0.5738
 4704SOL     OW15010   6.338   4.350   6.410  0.2922 -0.0281 -0.2838
 4704SOL    HW115011   6.336   4.413   6.488 -2.8500 -0.7162  0.3186
 4704SOL    HW215012   6.380   4.264   6.437  1.0850  0.4329  0.0007
 4705SOL     OW15013   4.498   5.715   4.274  0.0992  0.4655  0.3005
 4705SOL    HW115014   4.453   5.755   4.354 -0.2782  2.0468 -0.6683
 4705SOL    HW215015   4.564   5.780   4.238 -0.6651  0.3083 -1.4456
 4706SOL     OW15016   3.226   2.417   0.569  0.2073 -0.2422 -0.3840
 4706SOL    HW115017   3.263   2.509   0.559  0.3232 -0.0424  1.5273
 4706SOL    HW215018   3.296   2.350   0.543  2.7105  0.0679  4.3768
 4707SOL     OW15019   0.502   5.795   1.788 -0.3344  0.1106 -0.0344
 4707SOL    HW115020   0.437   5.719   1.779 -0.3946  0.0888  0.5786
 4707SOL    HW215021   0.470   5.859   1.858 -0.3451  0.7713 -0.6300
 4708SOL     OW15022   1.734   5.669   0.535  0.1292  0.4429 -0.6488
 4708SOL    HW115023   1.664   5.715   0.481 -0.7029  1.0464  0.8709
 4708SOL    HW215024   1.777   5.734   0.597  2.6856  0.2751 -2.1064
 4709SOL     OW15025   3.253   6.253   0.617 -0.5000 -0.0993 -0.4854
 4709SOL    HW115026   3.313   6.307   0.556 -2.6864  2.0267 -0.9145
 4709SOL    HW215027   3.288   6.160   0.624  0.9297  0.0894 -3.4703
 4710SOL     OW15028   4.964   4.045   4.470 -0.2281  0.1756 -0.1858
 4710SOL    HW115029   4.887   4.076   4.527 -0.7923 -1.2367 -0.1412
 4710SOL    HW215030   4.995   4.121   4.412 -0.7212  1.1688  0.8038
 4711SOL     OW15031   3.534   2.619   0.766 -0.7034  0.5813  0.5544
 4711SOL    HW115032   3.489   2.620   0.676 -0.0050  1.3477  0.2022
 4711SOL    HW215033   3.575   2.708   0.784  0.6374 -0.0689  0.8871
 4712SOL     OW15034   3.381   3.725   4.621 -0.4279  0.2606 -0.0738
 4712SOL    HW115035   3.281   3.736   4.625 -0.6231 -1.5672  0.7211
 4712SOL    HW215036   3.414   3.689   4.707  0.5543 -1.8668 -1.2684
 4713SOL     OW15037   5.254   3.553   1.170 -0.0552  0.2904 -0.3176
 4713SOL    HW115038   5.304   3.568   1.255  0.4294 -0.1652 -0.5133
 4713SOL    HW215039   5.174   3.612   1.167  0.2795  0.7775  0.1635
 4714SOL     OW15040   5.763   2.763   2.321  0.1522 -0.2804  0.1196
 4714SOL    HW115041   5.844   2.811   2.354  0.0362  0.0589 -0.0787
 4714SOL    HW215042   5.681   2.816   2.343  0.1776  0.9696 -2.3738
 4715SOL     OW15043   5.981   5.135   1.249  0.1833  0.5286  0.5416
 4715SOL    HW115044   6.056   5.104   1.308 -1.5260  0.1345  2.6345
 4715SOL    HW215045   5.896   5.134   1.301 -1.9008 -2.1383 -2.5663
 4716SOL     OW15046   1.573   2.466   1.033  0.0460 -0.4435 -0.0310
 4716SOL    HW115047   1.476   2.489   1.042  0.1726 -0.1718  0.7528
 4716SOL    HW215048   1.584   2.368   1.019 -0.3372 -0.5030  0.0905
 4717SOL     OW15049   5.010   4.034   3.596  0.2509 -0.6274  0.5273
 4717SOL    HW115050   5.079   4.091   3.641  0.0051 -0.1189  0.2641
 4717SOL    HW215051   4.982   3.961   3.658 -0.3423  0.2686  1.3352
 4718SOL     OW15052   3.742   4.127   1.404 -0.5493  0.0246 -0.5605
 4718SOL    HW115053   3.757   4.178   1.319 -1.2123  0.4539 -0.4267
 4718SOL    HW215054   3.690   4.183   1.468 -0.7597 -0.6017 -0.1718
 4719SOL     OW15055   2.604   0.776   5.393  0.4848 -0.4134 -0.0903
 4719SOL    HW115056   2.638   0.772   5.487 -0.1912  0.3852  0.2007
 4719SOL    HW215057   2.624   0.690   5.346  2.3323 -0.2307  0.2597
 4720SOL     OW15058   6.939   0.587   2.207  0.1148  0.6332 -0.2837
 4720SOL    HW115059   6.883   0.654   2.159  1.0062  0.1774 -2.0174
 4720SOL    HW215060   6.957   0.509   2.147  0.6438 -0.3102  1.0566
 4721SOL     OW15061   2.332   5.936   6.066 -0.0942  0.0683  0.9237
 4721SOL    HW115062   2.247   5.983   6.043  0.4477  0.0121 -1.4739
 4721SOL    HW215063   2.312   5.846   6.103 -1.0632  0.5074  1.5000
 4722SOL     OW15064   5.977   6.969   1.441 -0.1576 -0.0489 -0.7626
 4722SOL    HW115065   6.018   7.055   1.472 -0.1892 -0.1193 -0.5246
 4722SOL    HW215066   5.941   6.981   1.349 -1.5422  0.6484 -0.1583
 4723SOL     OW15067   3.020   3.530   2.551 -0.0019 -0.8373  0.0329
 4723SOL    HW115068   3.001   3.433   2.565 -1.6669 -0.4647  0.5282
 4723SOL    HW215069   3.110   3.540   2.508 -0.0463 -2.6124 -0.5583
 4724SOL     OW15070   4.853   1.873   6.570  0.7931  0.7776  0.1806
 4724SOL    HW115071   4.817   1.847   6.659 -0.0903  1.3995  0.0229
 4724SOL    HW215072   4.838   1.971   6.555  1.8894  0.8957 -0.2148
 4725SOL     OW15073   5.889   3.417   1.144 -0.3652 -0.5770  0.0913
 4725SOL    HW115074   5.863   3.339   1.201  0.8700 -0.4096  0.9299
 4725SOL    HW215075   5.807   3.464   1.112 -1.0992 -0.7302  1.6569
 4726SOL     OW15076   3.412   6.796   6.217  0.6760  0.1120 -0.5486
 4726SOL    HW115077   3.333   6.814   6.159  1.6237 -0.3898 -2.0292
 4726SOL    HW215078   3.423   6.697   6.229  1.5272  0.1510 -0.9820
 4727SOL     OW15079   1.449   5.371   3.963 -0.1166  0.5599  0.2962
 4727SOL    HW115080   1.487   5.318   3.887  1.5540  0.0054  1.4504
 4727SOL    HW215081   1.523   5.423   4.007 -1.4881  2.9680 -0.0503
 4728SOL     OW15082   0.493   3.804   5.751  0.0461 -0.0004 -0.0243
 4728SOL    HW115083   0.477   3.902   5.743 -0.3068 -0.0356  0.2154
 4728SOL    HW215084   0.576   3.779   5.700 -0.4296  0.2522 -0.9311
 4729SOL     OW15085   5.168   5.711   0.199  0.0781  0.0197 -0.5586
 4729SOL    HW115086   5.264   5.724   0.225 -0.4230  1.6492  0.6490
 4729SOL    HW215087   5.154   5.617   0.167  1.9449 -0.4058 -0.2179
 4730SOL     OW15088   1.629   3.462   1.426 -0.4190  0.4465 -0.0590
 4730SOL    HW115089   1.634   3.561   1.444  0.0538  0.7672 -1.7963
 4730SOL    HW215090   1.621   3.447   1.327 -0.5518 -1.2644  0.1958
 4731SOL     OW15091   2.292   2.666   1.947  0.1079 -0.3919 -0.0383
 4731SOL    HW115092   2.253   2.708   2.029  1.4145 -1.1407  1.0213
 4731SOL    HW215093   2.304   2.735   1.876  0.3674  0.6015  0.9491
 4732SOL     OW15094   6.589   4.651   2.389 -0.2121 -0.1362  1.1427
 4732SOL    HW115095   6.584   4.588   2.312  0.6372  0.0663  0.9123
 4732SOL    HW215096   6.560   4.604   2.472 -0.7452 -0.4724  0.7772
 4733SOL     OW15097   4.261   6.254   1.339 -0.3635  0.2640  0.1759
 4733SOL    HW115098   4.356   6.286   1.344  0.2755 -1.5544  0.5046
 4733SOL    HW215099   4.236   6.208   1.424 -1.0382 -0.5567 -0.4417
 4734SOL     OW15100   3.430   2.400   1.295  0.3784  0.1046 -0.1740
 4734SOL    HW115101   3.331   2.398   1.309  0.5667 -0.4274  1.2009
 4734SOL    HW215102   3.449   2.419   1.198 -1.0552  0.2831 -0.4473
 4735SOL     OW15103   0.849   6.496   5.844 -0.0913 -0.2461  0.1474
 4735SOL    HW115104   0.935   6.534   5.810  2.3543 -2.9089  2.7417
 4735SOL    HW215105   0.822   6.544   5.927 -1.2742  0.6856 -0.7465
 4736SOL     OW15106   1.996   6.757   4.722 -0.1523  0.0441  0.1980
 4736SOL    HW115107   2.037   6.709   4.644  0.4189  0.6900  0.0926
 4736SOL    HW215108   1.955   6.843   4.691 -0.4697  0.0099  0.5148
 4737SOL     OW15109   1.214   1.289   6.855 -0.0461  0.5809  0.2925
 4737SOL    HW115110   1.115   1.296   6.848  0.0199  0.0096 -1.8621
 4737SOL    HW215111   1.239   1.261   6.948 -1.9163  0.2469  0.7342
 4738SOL     OW15112   0.750   3.784   6.872 -0.3033 -0.2045 -0.0610
 4738SOL    HW115113   0.693   3.767   6.952 -0.9305  0.6978 -0.2918
 4738SOL    HW215114   0.845   3.761   6.892 -0.2008  1.3262  1.4088
 4739SOL     OW15115   3.461   4.740   0.239 -0.1913  0.2728 -0.0751
 4739SOL    HW115116   3.485   4.665   0.177  0.4204  0.6223 -0.2647
 4739SOL    HW215117   3.522   4.817   0.223 -3.1869  2.3774 -2.7197
 4740SOL     OW15118   4.291   2.040   6.529  0.0491  0.3847 -0.0334
 4740SOL    HW115119   4.311   1.996   6.616 -1.1099  1.9395  1.0656
 4740SOL    HW215120   4.198   2.015   6.500  0.0241  0.7464 -0.2667
 4741SOL     OW15121   5.614   6.014   0.294  0.0009  0.4931  0.9153
 4741SOL    HW115122   5.550   6.087   0.318  0.1453  0.8597  0.1938
 4741SOL    HW215123   5.676   5.999   0.371 -0.8217  0.2609  1.5481
 4742SOL     OW15124   6.166   4.607   5.358 -0.6848  0.5787 -0.3009
 4742SOL    HW115125   6.195   4.640   5.448 -0.8634 -0.6203  0.2158
 4742SOL    HW215126   6.072   4.572   5.364 -0.7010  0.4980 -0.9550
 4743SOL     OW15127   0.016   5.877   3.563 -0.0688  0.7492  0.7152
 4743SOL    HW115128   0.105   5.834   3.572 -0.2623  0.4713  1.3378
 4743SOL    HW215129   0.022   5.972   3.594  0.4223  1.2834 -0.9155
 4744SOL     OW15130   6.224   4.251   1.691  0.6873  0.3023 -0.0582
 4744SOL    HW115131   6.141   4.244   1.746  0.7263  1.5925  0.2116
 4744SOL    HW215132   6.201   4.285   1.599  0.5094 -2.6810 -1.2138
 4745SOL     OW15133   2.622   5.249   1.404  0.6679 -0.4187  0.2135
 4745SOL    HW115134   2.653   5.220   1.495  1.1356 -0.6518 -0.0131
 4745SOL    HW215135   2.678   5.203   1.335 -0.9700 -1.8017 -0.2619
 4746SOL     OW15136   3.462   0.982   0.010  0.4241 -0.0611 -0.1717
 4746SOL    HW115137   3.445   0.953   0.104  2.1500  0.4788  0.3476
 4746SOL    HW215138   3.421   1.072  -0.005  0.3427 -0.0461  0.1345
 4747SOL     OW15139   6.418   2.870   5.314 -0.1492  0.0410 -0.1496
 4747SOL    HW115140   6.491   2.822   5.265  1.4588  0.3014  1.8692
 4747SOL    HW215141   6.375   2.808   5.379  0.5726  0.7095  1.0231
 4748SOL     OW15142   3.611   5.673   6.779  0.1716  0.6997  0.1192
 4748SOL    HW115143   3.529   5.629   6.744  0.2525 -0.1624  0.9563
 4748SOL    HW215144   3.687   5.657   6.716  0.3982 -1.1264  0.8063
 4749SOL     OW15145   3.200   6.544   4.991 -0.2593  0.7649  0.1771
 4749SOL    HW115146   3.249   6.494   4.919  0.0450  0.9762  0.2314
 4749SOL    HW215147   3.257   6.620   5.023  0.5607 -0.5785  2.1576
 4750SOL     OW15148   6.110   6.695   1.966 -0.2696 -0.1416 -0.0926
 4750SOL    HW115149   6.127   6.709   2.063 -0.3214 -2.3630  0.2987
 4750SOL    HW215150   6.050   6.616   1.953  0.6885 -0.6372 -1.9506
 4751SOL     OW15151   2.398   1.788   5.465  0.4257 -0.5641 -0.5601
 4751SOL    HW115152   2.431   1.695   5.483 -1.1580 -0.7292  2.0964
 4751SOL    HW215153   2.391   1.838   5.551 -1.9653  0.8735 -1.4890
 4752SOL     OW15154   1.685   6.370   1.305 -0.6368  0.2216  0.2011
 4752SOL    HW115155   1.677   6.373   1.405  0.4397  1.0110  0.2766
 4752SOL    HW215156   1.766   6.318   1.280 -0.3010  0.9391 -0.2263
 4753SOL     OW15157   5.977   6.567   1.444 -0.1730  0.5256 -0.3282
 4753SOL    HW115158   6.017   6.545   1.355 -1.0972  0.2535 -0.6852
 4753SOL    HW215159   5.990   6.490   1.506  1.4143  1.1203  0.1226
 4754SOL     OW15160   4.348   0.066   4.374 -0.0047 -0.8900  0.6434
 4754SOL    HW115161   4.281   0.009   4.327 -0.2434  1.0079 -1.4876
 4754SOL    HW215162   4.374   0.023   4.461 -3.4964 -1.9939  1.2980
 4755SOL     OW15163   6.803   4.755   4.042 -0.0107 -0.8454  0.4357
 4755SOL    HW115164   6.881   4.804   4.003  0.2165 -0.9700  0.7294
 4755SOL    HW215165   6.830   4.661   4.064 -0.7986 -1.5547 -1.3892
 4756SOL     OW15166   4.495   2.499   2.615 -0.1497  0.9926  0.1546
 4756SOL    HW115167   4.404   2.515   2.651 -1.1639  1.2011 -2.3098
 4756SOL    HW215168   4.506   2.402   2.593 -0.3754  1.2020 -0.9556
 4757SOL     OW15169   4.848   3.045   4.077  0.2973 -0.9028 -0.0377
 4757SOL    HW115170   4.829   3.002   4.165  0.5955 -0.6806  0.1395
 4757SOL    HW215171   4.829   2.981   4.003 -1.6245 -0.5364  0.0872
 4758SOL     OW15172   6.409   1.928   3.493  0.1284 -0.1402 -0.2048
 4758SOL    HW115173   6.347   1.854   3.466 -2.2392 -0.0053  4.0659
 4758SOL    HW215174   6.387   2.010   3.441 -0.6207 -1.1161 -1.4950
 4759SOL     OW15175   2.076   0.199   1.805  0.3309 -0.0646 -0.3668
 4759SOL    HW115176   2.165   0.185   1.762 -0.3542 -1.4435 -1.4230
 4759SOL    HW215177   2.008   0.222   1.735 -0.3635 -0.1159  0.2745
 4760SOL     OW15178   5.799   2.186   2.047  0.2337 -0.1111  0.3388
 4760SOL    HW115179   5.814   2.090   2.023  0.4853 -0.0482  0.2460
 4760SOL    HW215180   5.702   2.200   2.069  0.3534 -0.5587  1.1612
 4761SOL     OW15181   2.457   0.788   2.699 -0.2914 -0.2964 -0.2512
 4761SOL    HW115182   2.462   0.874   2.648 -1.3507  0.3529  0.6976
 4761SOL    HW215183   2.520   0.722   2.658 -1.8178 -0.1853 -3.0673
 4762SOL     OW15184   1.777   1.841   0.143  0.7555 -0.2755  0.0723
 4762SOL    HW115185   1.732   1.799   0.064  1.0613 -0.7038  0.1184
 4762SOL    HW215186   1.712   1.898   0.193  0.6281  0.2089 -0.6353
 4763SOL     OW15187   5.084   0.881   2.512  0.5042 -0.1423 -0.2546
 4763SOL    HW115188   5.010   0.884   2.580  1.0638  1.5439  0.3334
 4763SOL    HW215189   5.155   0.817   2.543  0.6382  0.4235  0.6334
 4764SOL     OW15190   2.547   1.901   6.486 -0.2707 -0.2353 -0.3777
 4764SOL    HW115191   2.456   1.899   6.529 -0.8160  1.4689 -1.3231
 4764SOL    HW215192   2.606   1.833   6.529 -1.9813 -1.3838  0.2776
 4765SOL     OW15193   0.017   6.149   6.457 -0.1024  0.1338 -0.1823
 4765SOL    HW115194   0.073   6.068   6.475 -1.6991 -1.2247 -1.0623
 4765SOL    HW215195  -0.028   6.177   6.541  1.1772  0.7046  0.3368
 4766SOL     OW15196   6.419   2.001   5.246 -0.2626  0.0444  0.0675
 4766SOL    HW115197   6.391   2.084   5.294 -0.8296  0.0402 -0.2517
 4766SOL    HW215198   6.506   2.018   5.199 -0.6222  0.6291 -0.4118
 4767SOL     OW15199   6.750   5.951   0.144 -0.1104 -0.2907 -0.8357
 4767SOL    HW115200   6.773   5.869   0.198 -0.1033 -0.0076 -0.4045
 4767SOL    HW215201   6.651   5.953   0.128 -0.1742 -0.1289 -0.4265
 4768SOL     OW15202   3.930   1.161   2.130 -0.7106 -0.5129  0.0857
 4768SOL    HW115203   3.839   1.197   2.149 -1.2253 -1.3638 -0.6883
 4768SOL    HW215204   3.930   1.113   2.042  0.1900 -1.5148  0.5986
 4769SOL     OW15205   0.661   2.242   3.312  0.1111 -0.6167 -0.0860
 4769SOL    HW115206   0.731   2.280   3.372 -1.3237  0.7158  0.8337
 4769SOL    HW215207   0.679   2.267   3.218  0.7978 -0.1817  0.1613
 4770SOL     OW15208   0.903   2.475   4.158  0.1713 -0.0007  0.4777
 4770SOL    HW115209   0.937   2.564   4.130 -1.5604  0.7839  0.7130
 4770SOL    HW215210   0.939   2.452   4.249  0.7740  0.3512  0.3317
 4771SOL     OW15211   4.971   0.083   3.108  0.0180 -0.7102  1.0248
 4771SOL    HW115212   4.884   0.132   3.113 -0.3738 -1.4434  1.7870
 4771SOL    HW215213   5.047   0.148   3.111 -0.4920 -0.1271  1.6939
 4772SOL     OW15214   2.028   3.252   3.619  0.0123  0.2543  0.0969
 4772SOL    HW115215   2.087   3.304   3.680  1.9195 -0.8215 -0.7585
 4772SOL    HW215216   2.044   3.280   3.524 -1.2274  0.2870 -0.1212
 4773SOL     OW15217   4.986   5.721   1.532 -0.3004 -0.2279 -0.1050
 4773SOL    HW115218   5.067   5.739   1.587 -0.6701 -1.0073  0.7183
 4773SOL    HW215219   4.913   5.784   1.557 -0.9379 -1.4762  1.3588
 4774SOL     OW15220   2.181   4.402   5.858  0.1467 -0.5143  0.0971
 4774SOL    HW115221   2.244   4.461   5.807 -0.5551  0.1119 -0.0571
 4774SOL    HW215222   2.170   4.315   5.808  0.7728 -0.5746  0.0563
 4775SOL     OW15223   6.335   4.219   1.291 -0.2566 -0.5155 -0.0929
 4775SOL    HW115224   6.258   4.273   1.324  0.0147 -0.8958  1.2258
 4775SOL    HW215225   6.319   4.122   1.309  0.0926 -0.6988 -0.7198
 4776SOL     OW15226   5.371   4.362   1.925  0.2299  0.0770 -0.2041
 4776SOL    HW115227   5.405   4.456   1.928 -0.3508  0.3137 -0.6932
 4776SOL    HW215228   5.339   4.335   2.015  0.4386  0.3364 -0.0506
 4777SOL     OW15229   4.005   4.775   5.999 -0.0025  0.3628  0.0063
 4777SOL    HW115230   3.982   4.679   6.017 -0.5670  0.1860 -1.5548
 4777SOL    HW215231   3.935   4.834   6.040 -0.9767 -0.0034 -1.0944
 4778SOL     OW15232   0.363   5.421   0.448 -0.2659  0.0167 -0.3931
 4778SOL    HW115233   0.433   5.349   0.456 -0.8041 -0.4813 -0.0924
 4778SOL    HW215234   0.308   5.423   0.532  1.7219  2.9116  1.0536
 4779SOL     OW15235   4.331   2.222   6.166  0.1013 -0.2753 -0.5522
 4779SOL    HW115236   4.357   2.129   6.190 -1.6562 -0.5195  0.6309
 4779SOL    HW215237   4.285   2.265   6.244  0.6343  1.5067 -1.1586
 4780SOL     OW15238   6.236   2.704   4.966  0.3273 -0.5444 -0.3863
 4780SOL    HW115239   6.217   2.800   4.985  0.5590 -0.5831  0.0536
 4780SOL    HW215240   6.259   2.692   4.870 -0.1330 -0.2267 -0.5364
 4781SOL     OW15241   3.694   2.008   0.562  0.0528 -0.2877 -0.1120
 4781SOL    HW115242   3.779   2.039   0.518 -0.1725  1.2085  0.4620
 4781SOL    HW215243   3.618   2.064   0.529 -0.5129 -0.7813  0.3458
 4782SOL     OW15244   7.005   6.219   1.746  0.8953  0.4776 -0.3526
 4782SOL    HW115245   7.087   6.241   1.694  2.0072  0.0806  1.1640
 4782SOL    HW215246   6.973   6.128   1.721  0.7849  0.7146 -1.0931
 4783SOL     OW15247   0.787   2.296   3.075  0.0760 -0.3512  0.0319
 4783SOL    HW115248   0.815   2.251   2.991  2.0213 -2.1383  1.5461
 4783SOL    HW215249   0.866   2.342   3.117 -0.7582  0.1923  1.0679
 4784SOL     OW15250   6.944   2.194   0.773  0.3490  0.2479  0.1064
 4784SOL    HW115251   7.010   2.222   0.703 -0.5479  1.7366 -0.1873
 4784SOL    HW215252   6.877   2.131   0.733  0.1130  0.7307 -0.2727
 4785SOL     OW15253   0.342   3.103   0.963  0.3181 -0.1563  0.1078
 4785SOL    HW115254   0.393   3.131   0.882  0.0840 -0.0171  0.0083
 4785SOL    HW215255   0.264   3.048   0.935  1.2056 -1.5936  0.3358
 4786SOL     OW15256   3.564   6.622   2.423  0.1075  0.1465 -0.2045
 4786SOL    HW115257   3.471   6.585   2.424 -0.0789  0.6264  0.2558
 4786SOL    HW215258   3.566   6.704   2.365  0.3474 -0.1354 -0.5947
 4787SOL     OW15259   5.974   2.327   4.151  0.2322  0.1347  0.1824
 4787SOL    HW115260   5.967   2.426   4.168 -0.3717 -0.2570  2.6169
 4787SOL    HW215261   5.883   2.286   4.157  0.3477 -0.4863 -1.7428
 4788SOL     OW15262   4.417   0.383   3.813  0.0670  0.2703 -0.0395
 4788SOL    HW115263   4.454   0.438   3.888 -0.7882 -1.2460  1.5883
 4788SOL    HW215264   4.344   0.433   3.767 -0.9588  0.3985  1.6494
 4789SOL     OW15265   5.818   3.788   1.671 -0.5209  0.6199  0.3644
 4789SOL    HW115266   5.884   3.861   1.653 -0.8221  0.8025 -0.0132
 4789SOL    HW215267   5.866   3.707   1.705 -0.0170  0.5163 -0.5569
 4790SOL     OW15268   4.379   2.390   5.551 -0.1504 -0.2922 -0.1067
 4790SOL    HW115269   4.384   2.425   5.457 -2.6410 -1.4654 -0.7723
 4790SOL    HW215270   4.433   2.306   5.558 -0.7865 -0.7732 -0.8084
 4791SOL     OW15271   6.105   5.037   5.428  0.5070  0.1352 -0.2868
 4791SOL    HW115272   6.074   5.092   5.350  1.5365  0.7866 -0.2591
 4791SOL    HW215273   6.026   5.013   5.485 -0.0614  1.0073 -0.6798
 4792SOL     OW15274   0.617   4.914   1.928  0.3873 -0.1983  0.2501
 4792SOL    HW115275   0.559   4.979   1.976  0.1254 -1.9018  2.4413
 4792SOL    HW215276   0.635   4.946   1.835 -2.4395  1.3225  0.1370
 4793SOL     OW15277   1.228   3.341   4.519  0.3013 -0.5260  0.2032
 4793SOL    HW115278   1.186   3.264   4.471  1.8862 -0.4708 -1.3582
 4793SOL    HW215279   1.162   3.416   4.526  0.0140 -0.5248 -1.9458
 4794SOL     OW15280   7.017   5.517   3.165  0.0896  0.1763 -0.1231
 4794SOL    HW115281   7.063   5.430   3.147  1.0049  0.6521 -0.1629
 4794SOL    HW215282   7.077   5.593   3.138 -0.7115  0.8253 -0.1407
 4795SOL     OW15283   5.584   3.529   3.277  0.2661 -0.3616  0.5777
 4795SOL    HW115284   5.507   3.526   3.213  0.6860  1.5384 -0.1044
 4795SOL    HW215285   5.550   3.551   3.369  0.0103  1.3667  0.1155
 4796SOL     OW15286   6.784   4.752   6.134 -0.0369  0.1755  0.6053
 4796SOL    HW115287   6.696   4.778   6.173 -0.9642 -2.6477  0.6087
 4796SOL    HW215288   6.769   4.710   6.044  1.3023 -0.3868  0.6241
 4797SOL     OW15289   2.964   0.156   5.209 -0.0877  0.4119 -0.2620
 4797SOL    HW115290   3.021   0.090   5.162  1.2252  0.9633  0.5213
 4797SOL    HW215291   3.015   0.241   5.223 -1.2485  1.0858  0.0506
 4798SOL     OW15292   2.408   5.113   0.890  0.0251  0.3578  0.0211
 4798SOL    HW115293   2.473   5.118   0.814 -0.3400  0.5776 -0.2776
 4798SOL    HW215294   2.348   5.033   0.877  0.8654 -0.4223  0.8055
 4799SOL     OW15295   0.665   3.505   2.818 -0.7507 -0.1945  0.1379
 4799SOL    HW115296   0.761   3.512   2.841 -1.0373  0.4159  1.1951
 4799SOL    HW215297   0.646   3.561   2.737 -0.1599 -0.5996 -0.2880
 4800SOL     OW15298   1.325   1.878   6.772  0.3134  0.3672 -0.2129
 4800SOL    HW115299   1.373   1.962   6.748  1.0523  0.1846  0.5768
 4800SOL    HW215300   1.236   1.900   6.813  0.3028  0.7408 -0.4340
 4801SOL     OW15301   6.255   1.934   1.171 -0.2132  0.1367  0.3575
 4801SOL    HW115302   6.251   1.912   1.269 -0.9487 -1.8113 -0.0588
 4801SOL    HW215303   6.309   1.865   1.123 -0.6295  0.5370 -0.7287
 4802SOL     OW15304   5.350   5.066   0.485 -0.2503 -0.3981 -0.7542
 4802SOL    HW115305   5.319   4.991   0.426 -0.5639 -1.1026  0.2901
 4802SOL    HW215306   5.271   5.112   0.525 -0.0457  0.2879 -1.1159
 4803SOL     OW15307   5.574   2.276   3.580 -0.2290  0.6088 -0.0200
 4803SOL    HW115308   5.664   2.238   3.557 -1.1849 -2.0253  0.2315
 4803SOL    HW215309   5.560   2.361   3.530  2.1191  0.7362 -0.5771
 4804SOL     OW15310   5.643   3.143   6.485 -0.3977  0.3171  0.0244
 4804SOL    HW115311   5.630   3.236   6.519  0.4812  0.5372 -0.2171
 4804SOL    HW215312   5.715   3.098   6.539 -0.5488 -0.0940 -0.1115
 4805SOL     OW15313   6.803   5.744   0.296  0.1334 -0.4846  0.6751
 4805SOL    HW115314   6.801   5.742   0.396  1.4765 -1.0585  0.7128
 4805SOL    HW215315   6.840   5.658   0.262 -1.4936 -0.8154 -0.3877
 4806SOL     OW15316   0.798   3.488   1.090 -0.5504 -0.6753 -0.5243
 4806SOL    HW115317   0.846   3.408   1.054  1.0191 -0.4705  1.0109
 4806SOL    HW215318   0.837   3.571   1.049  1.0669 -0.4580  1.3029
 4807SOL     OW15319   5.661   2.601   1.245 -0.6024  0.1658  0.6203
 4807SOL    HW115320   5.758   2.583   1.224 -0.2718  1.6185  0.8213
 4807SOL    HW215321   5.621   2.654   1.171 -0.3939  2.2256  1.9171
 4808SOL     OW15322   3.178   3.869   2.331 -0.0769 -0.0860  0.2060
 4808SOL    HW115323   3.218   3.961   2.337 -0.7380  0.3848 -1.7798
 4808SOL    HW215324   3.137   3.857   2.240 -0.4500 -2.1773  0.6128
 4809SOL     OW15325   0.599   1.180   3.387 -0.0378  0.1962 -0.5261
 4809SOL    HW115326   0.667   1.111   3.408 -0.3639 -0.1799 -0.6828
 4809SOL    HW215327   0.587   1.240   3.466  0.4177  0.2212 -0.4730
 4810SOL     OW15328   2.136   4.083   4.268  0.0437 -0.1691  0.2412
 4810SOL    HW115329   2.109   4.049   4.359 -0.3463 -1.7744 -0.4408
 4810SOL    HW215330   2.204   4.155   4.279 -1.4463  1.0875  1.8667
 4811SOL     OW15331   6.585   0.423   2.732  0.0400 -0.6316  0.1740
 4811SOL    HW115332   6.649   0.352   2.702  1.8322 -0.1811  2.5864
 4811SOL    HW215333   6.574   0.491   2.659  2.3111 -0.7687 -0.3766
 4812SOL     OW15334   5.589   1.994   2.783  0.0576  0.0559  0.5674
 4812SOL    HW115335   5.616   1.946   2.866 -0.2566 -0.2923  0.4736
 4812SOL    HW215336   5.646   2.075   2.770  1.2663 -0.8335  0.1925
 4813SOL     OW15337   6.003   2.227   0.213  0.5308  0.4719 -0.1697
 4813SOL    HW115338   6.045   2.147   0.256 -0.9781 -0.1090  0.2938
 4813SOL    HW215339   5.904   2.224   0.227  0.3676  2.0342 -0.8147
 4814SOL     OW15340   0.761   1.098   4.474 -0.4408 -0.3099 -0.1478
 4814SOL    HW115341   0.763   0.999   4.461  1.9775 -0.3675  0.1803
 4814SOL    HW215342   0.762   1.143   4.385 -0.4453 -0.6073 -0.3012
 4815SOL     OW15343   4.277   5.681   6.278  0.2570  0.1116 -0.1215
 4815SOL    HW115344   4.300   5.778   6.282 -0.2536  0.2793 -0.9577
 4815SOL    HW215345   4.307   5.636   6.362  1.9193  0.6759 -0.3785
 4816SOL     OW15346   4.852   6.160   4.616  0.3455 -0.0627 -0.3756
 4816SOL    HW115347   4.927   6.178   4.552  1.2618  0.0717  0.7020
 4816SOL    HW215348   4.807   6.075   4.591  0.2695  0.2980 -1.5650
 4817SOL     OW15349   4.965   0.351   0.425 -0.0300 -0.2333  0.4110
 4817SOL    HW115350   4.910   0.280   0.469 -1.5295 -0.2705 -1.3699
 4817SOL    HW215351   5.017   0.401   0.494 -1.9134 -0.5382  2.1474
 4818SOL     OW15352   3.685   6.111   5.865 -0.5139  0.1567 -0.2015
 4818SOL    HW115353   3.659   6.119   5.769  1.1257 -1.0959 -0.8107
 4818SOL    HW215354   3.656   6.021   5.900 -1.6122  0.8271  0.6715
 4819SOL     OW15355   4.064   4.763   2.165  0.2678  0.2250 -0.1141
 4819SOL    HW115356   4.156   4.743   2.199  0.0343 -3.3103 -1.1859
 4819SOL    HW215357   4.012   4.813   2.235  2.2330  0.1915  1.4423
 4820SOL     OW15358   1.076   1.182   2.574  0.9716  1.0066  0.3031
 4820SOL    HW115359   1.044   1.088   2.562  2.3757  0.5651 -0.1888
 4820SOL    HW215360   1.125   1.211   2.492 -0.4907  2.6368 -0.0615
 4821SOL     OW15361   5.128   1.376   2.633  0.3854 -0.3742  0.2006
 4821SOL    HW115362   5.100   1.327   2.550  0.9407 -1.7565  0.8152
 4821SOL    HW215363   5.061   1.360   2.706  0.3381  0.1682  0.2858
 4822SOL     OW15364   2.073   1.853   1.901 -0.5519  0.6267 -0.3238
 4822SOL    HW115365   1.975   1.856   1.881 -0.6371 -0.3697 -0.1113
 4822SOL    HW215366   2.120   1.803   1.828 -0.8813 -3.1985  1.8052
 4823SOL     OW15367   3.112   1.930   0.987  0.0766 -0.0279 -0.3207
 4823SOL    HW115368   3.139   1.856   1.049 -0.8296  0.6597  0.9343
 4823SOL    HW215369   3.126   1.900   0.892  0.2126 -1.6094  0.1662
 4824SOL     OW15370   5.171   6.949   3.222 -0.2640  0.3230 -0.3284
 4824SOL    HW115371   5.224   6.890   3.160  1.3944  2.0565 -0.6469
 4824SOL    HW215372   5.091   6.985   3.174  1.3191  2.1349 -1.7779
 4825SOL     OW15373   3.203   2.319   0.207  0.0486  0.0819  0.4702
 4825SOL    HW115374   3.135   2.392   0.205  0.5677  0.5845  0.7927
 4825SOL    HW215375   3.157   2.230   0.214 -0.5816  0.3850  0.2543
 4826SOL     OW15376   4.726   0.639   5.603 -0.2575  0.1531 -0.2380
 4826SOL    HW115377   4.689   0.690   5.681  0.0312 -1.0571  0.7167
 4826SOL    HW215378   4.752   0.703   5.531 -1.4299  1.2343  0.2570
 4827SOL     OW15379   6.133   4.226   3.302  1.1272  0.7264 -0.5146
 4827SOL    HW115380   6.144   4.132   3.270 -0.3978  0.6048 -0.7351
 4827SOL    HW215381   6.167   4.233   3.396  0.0218 -0.3833 -0.0052
 4828SOL     OW15382   4.562   4.441   5.160 -0.3248  0.2998 -0.4051
 4828SOL    HW115383   4.475   4.457   5.113 -0.9445 -2.2875 -0.3036
 4828SOL    HW215384   4.545   4.432   5.258  0.0886  0.1125 -0.3504
 4829SOL     OW15385   5.447   5.543   4.744  0.7347  0.0095 -0.1638
 4829SOL    HW115386   5.378   5.523   4.815  0.5141  2.7545  0.4844
 4829SOL    HW215387   5.521   5.476   4.751 -0.7781 -1.6940  0.5659
 4830SOL     OW15388   3.014   1.712   2.324  0.7023 -0.2732  0.1594
 4830SOL    HW115389   3.036   1.639   2.260 -0.3830  0.5462 -1.2174
 4830SOL    HW215390   3.092   1.728   2.385  0.8373 -2.7663  0.7319
 4831SOL     OW15391   6.912   6.769   2.617 -0.3034 -0.8221 -0.5928
 4831SOL    HW115392   6.915   6.669   2.620 -1.8832 -0.9009 -0.8042
 4831SOL    HW215393   6.898   6.799   2.522  0.5044 -0.3636 -0.5832
 4832SOL     OW15394   2.614   4.698   0.593  0.1778  0.4001  0.0258
 4832SOL    HW115395   2.679   4.639   0.641 -0.0787  0.1704  0.0935
 4832SOL    HW215396   2.652   4.791   0.587  1.3284 -0.1255 -1.5401
 4833SOL     OW15397   3.553   1.275   4.940  0.0583 -0.1060  0.2631
 4833SOL    HW115398   3.474   1.241   4.889 -0.3653  0.6126  0.4211
 4833SOL    HW215399   3.525   1.299   5.033  0.4025  0.3864  0.2454
 4834SOL     OW15400   0.116   6.832   6.186  0.0563 -0.3600  0.1083
 4834SOL    HW115401   0.039   6.773   6.209  0.2075 -0.0926  1.4287
 4834SOL    HW215402   0.082   6.920   6.152 -0.1795 -0.8770 -1.0216
 4835SOL     OW15403   0.468   5.692   5.651 -0.2391 -0.2841  0.9893
 4835SOL    HW115404   0.465   5.755   5.573 -2.0275 -2.4085 -0.8091
 4835SOL    HW215405   0.449   5.742   5.735  0.0758  1.8252 -0.1139
 4836SOL     OW15406   0.198   1.759   2.153  0.3175  0.3217 -0.4760
 4836SOL    HW115407   0.172   1.747   2.249  1.0692 -1.3021 -0.4426
 4836SOL    HW215408   0.168   1.680   2.100  0.0647  1.1200 -1.5690
 4837SOL     OW15409   5.361   4.047   1.117  0.1137 -0.1882  0.0504
 4837SOL    HW115410   5.450   4.083   1.090 -0.4458  1.4653  0.3435
 4837SOL    HW215411   5.374   3.969   1.179  1.3492  0.0515  0.1157
 4838SOL     OW15412   1.536   1.429   6.662 -0.4419  0.6657 -0.6044
 4838SOL    HW115413   1.443   1.427   6.626  0.3115 -0.4333 -2.6704
 4838SOL    HW215414   1.601   1.426   6.587  1.2947  1.6001  0.7854
 4839SOL     OW15415   5.495   5.852   0.893  0.1045 -0.0525 -0.4887
 4839SOL    HW115416   5.450   5.815   0.811  1.1017 -0.6683 -0.7783
 4839SOL    HW215417   5.436   5.838   0.972 -0.6461  0.0689 -1.0153
 4840SOL     OW15418   1.405   4.847   2.992  0.3319 -0.7723 -0.2546
 4840SOL    HW115419   1.429   4.942   3.007  0.9972 -0.9363 -0.2458
 4840SOL    HW215420   1.480   4.801   2.944 -0.3110 -1.0956 -0.9639
 4841SOL     OW15421   3.989   0.354   0.817  0.4992  0.6596 -0.1801
 4841SOL    HW115422   3.991   0.352   0.718 -3.0702  0.9249 -0.3777
 4841SOL    HW215423   4.041   0.277   0.854  1.1452  0.0574 -2.2421
 4842SOL     OW15424   4.854   1.847   0.611 -0.2188 -0.1838 -0.0469
 4842SOL    HW115425   4.798   1.776   0.653  1.7290 -0.9697  1.3545
 4842SOL    HW215426   4.876   1.820   0.517  1.4276 -2.0564  0.8164
 4843SOL     OW15427   4.372   6.091   3.432  0.2405  0.7129  0.2640
 4843SOL    HW115428   4.317   6.167   3.398  0.3368  0.5846 -0.1877
 4843SOL    HW215429   4.409   6.039   3.355  0.5625  0.4870  0.5648
 4844SOL     OW15430   1.281   5.414   5.432 -0.1539 -0.1857 -0.3466
 4844SOL    HW115431   1.197   5.394   5.382 -0.6762 -0.9080  0.7759
 4844SOL    HW215432   1.265   5.403   5.530  1.6563 -1.9489 -0.1860
 4845SOL     OW15433   0.228   0.550   2.530  0.2070 -0.6381  0.4739
 4845SOL    HW115434   0.236   0.644   2.497 -2.2378 -0.2567  0.7623
 4845SOL    HW215435   0.269   0.488   2.464 -1.0107  0.4222 -1.3703
 4846SOL     OW15436   5.333   6.735   0.450 -0.4220 -0.3228 -0.0338
 4846SOL    HW115437   5.262   6.714   0.518  0.0891  0.4936  0.7732
 4846SOL    HW215438   5.341   6.659   0.386 -0.2666 -1.5563  1.3883
 4847SOL     OW15439   4.056   6.610   6.421 -0.1413 -0.0101  0.5459
 4847SOL    HW115440   4.051   6.707   6.398 -1.6225 -0.4000 -0.9950
 4847SOL    HW215441   4.062   6.599   6.520 -0.8452  1.6415  0.8006
 4848SOL     OW15442   0.443   0.160   1.898 -0.4396  0.3178 -0.8305
 4848SOL    HW115443   0.392   0.232   1.851  1.0829  2.5000  0.6321
 4848SOL    HW215444   0.445   0.180   1.997  0.0448 -1.7644 -0.3762
 4849SOL     OW15445   0.925   5.509   6.848  0.8222 -0.1319  0.2701
 4849SOL    HW115446   0.922   5.609   6.841 -2.0798 -0.1712 -0.2777
 4849SOL    HW215447   1.019   5.480   6.869  2.0956  2.5547 -1.1851
 4850SOL     OW15448   5.334   2.692   2.255 -0.4313 -0.0363 -0.4262
 4850SOL    HW115449   5.355   2.655   2.164  1.6705 -0.3148  0.1080
 4850SOL    HW215450   5.260   2.758   2.248 -0.3311 -0.0723 -2.3320
 4851SOL     OW15451   4.423   0.646   5.664 -0.9918 -0.0716 -1.0975
 4851SOL    HW115452   4.466   0.562   5.632 -1.0678 -1.0708  1.2155
 4851SOL    HW215453   4.338   0.625   5.711 -0.3174  1.0744  0.7843
 4852SOL     OW15454   0.737   4.018   0.048  0.7873  0.3617  0.1097
 4852SOL    HW115455   0.726   3.939  -0.013  4.0774  1.4028 -2.1117
 4852SOL    HW215456   0.731   4.102  -0.005 -0.7161  1.5958  2.1116
 4853SOL     OW15457   0.952   1.159   5.672 -0.3841 -0.1106  0.2975
 4853SOL    HW115458   0.993   1.143   5.762 -2.2600 -4.3099  0.6656
 4853SOL    HW215459   0.859   1.193   5.684 -0.7929 -1.1022 -0.0091
 4854SOL     OW15460   3.896   1.542   2.397 -0.2031 -0.2899  0.2937
 4854SOL    HW115461   3.855   1.546   2.489  0.4316 -0.2313  0.5792
 4854SOL    HW215462   3.877   1.627   2.348 -0.6746 -0.3806  0.3056
 4855SOL     OW15463   1.660   6.821   4.513  0.2335  0.6045 -0.3877
 4855SOL    HW115464   1.642   6.817   4.415 -0.4521 -0.0684 -0.2370
 4855SOL    HW215465   1.643   6.732   4.554 -0.7368  1.1981  0.5615
 4856SOL     OW15466   1.766   4.215   5.212 -0.2663 -0.4591 -0.0783
 4856SOL    HW115467   1.840   4.149   5.193  1.1946  0.8938  0.6894
 4856SOL    HW215468   1.762   4.282   5.139 -0.3014 -0.1493  0.2069
 4857SOL     OW15469   1.435   5.107   3.011  0.2891  0.1675  0.1219
 4857SOL    HW115470   1.406   5.131   3.104  1.3801  0.7920  0.3217
 4857SOL    HW215471   1.517   5.160   2.987  1.1654 -1.3844 -0.4607
 4858SOL     OW15472   5.655   0.559   6.458 -0.0863 -0.1029  0.0243
 4858SOL    HW115473   5.591   0.542   6.382 -0.1406 -0.4287  0.1428
 4858SOL    HW215474   5.692   0.472   6.490  1.2940  0.1580 -0.7973
 4859SOL     OW15475   4.346   1.985   5.893 -0.7411  0.2624 -0.7808
 4859SOL    HW115476   4.250   2.014   5.886 -0.8337 -0.0075 -0.6450
 4859SOL    HW215477   4.356   1.893   5.855 -0.5152  0.3286 -0.8863
 4860SOL     OW15478   6.494   4.301   1.636  0.1015 -0.2489 -0.4477
 4860SOL    HW115479   6.523   4.382   1.585  0.6661 -0.4296 -0.4224
 4860SOL    HW215480   6.395   4.289   1.627  0.0599  0.2694 -0.7003
 4861SOL     OW15481   2.258   1.972   2.104 -0.2885 -0.6298  0.0829
 4861SOL    HW115482   2.245   1.914   2.185 -1.1121 -0.3084  0.1902
 4861SOL    HW215483   2.195   1.943   2.032  0.8254 -1.2751 -0.6614
 4862SOL     OW15484   1.883   4.299   6.773  0.7176 -1.0023  0.2511
 4862SOL    HW115485   1.983   4.301   6.782  0.5750 -0.9616  2.3373
 4862SOL    HW215486   1.843   4.251   6.851 -0.9735  0.4522  0.3504
 4863SOL     OW15487   6.350   4.211   2.387 -0.0857 -0.2481  0.5972
 4863SOL    HW115488   6.368   4.114   2.398  0.8536 -0.0983  0.4950
 4863SOL    HW215489   6.291   4.225   2.308 -0.7344 -0.7769  0.9840
 4864SOL     OW15490   6.226   1.457   2.711 -0.3633  0.2321  0.9903
 4864SOL    HW115491   6.261   1.364   2.723 -2.4246 -0.5793  1.0309
 4864SOL    HW215492   6.209   1.475   2.614 -0.4214  0.4042  1.0308
 4865SOL     OW15493   1.768   0.160   2.628 -0.1288  0.3779  0.0693
 4865SOL    HW115494   1.737   0.228   2.695  2.2804  2.3626 -0.6600
 4865SOL    HW215495   1.736   0.186   2.537  0.7078  0.5214 -0.1976
 4866SOL     OW15496   3.267   6.051   0.294 -0.3383  0.4005 -0.6836
 4866SOL    HW115497   3.310   6.136   0.326  0.5273  0.3206 -1.5899
 4866SOL    HW215498   3.335   5.979   0.287 -0.5567  0.3079 -2.2957
 4867SOL     OW15499   1.135   2.387   0.191  0.8509  0.2208  0.2402
 4867SOL    HW115500   1.059   2.344   0.141  1.0635  1.5150 -1.2810
 4867SOL    HW215501   1.190   2.316   0.235 -1.7124 -0.7208  2.1685
 4868SOL     OW15502   6.927   3.685   5.869 -0.0917 -0.4804  0.2841
 4868SOL    HW115503   6.953   3.774   5.831  1.3131 -2.0668 -2.8580
 4868SOL    HW215504   7.008   3.640   5.905 -0.3391 -1.3632 -0.2361
 4869SOL     OW15505   5.634   2.340   2.666 -0.6029 -0.0676  0.7387
 4869SOL    HW115506   5.627   2.440   2.668 -1.4748 -0.0915 -0.2250
 4869SOL    HW215507   5.585   2.305   2.586  0.9754 -1.1663  0.1984
 4870SOL     OW15508   0.089   6.964   2.661  0.4850  0.2159 -0.4173
 4870SOL    HW115509   0.023   6.889   2.659  1.0813 -0.3445  0.3390
 4870SOL    HW215510   0.043   7.050   2.683  0.1581 -0.3540  1.2175
 4871SOL     OW15511   0.914   2.245   6.171 -0.0080  0.0485  0.6151
 4871SOL    HW115512   0.999   2.293   6.151 -0.7090  0.2805 -2.4294
 4871SOL    HW215513   0.933   2.151   6.197  1.2162  0.5673  1.6434
 4872SOL     OW15514   5.271   3.384   2.857  0.4924  0.2971  0.5789
 4872SOL    HW115515   5.204   3.310   2.861  0.7192  0.0466 -0.1457
 4872SOL    HW215516   5.332   3.370   2.779 -0.5579  2.1467 -0.6558
 4873SOL     OW15517   3.880   1.876   6.118 -0.1205 -0.4256  0.4694
 4873SOL    HW115518   3.830   1.797   6.152  0.9698 -0.3062  2.5018
 4873SOL    HW215519   3.827   1.959   6.135 -0.4397 -0.5394  0.0481
 4874SOL     OW15520   0.048   2.647   1.958  0.3718  0.3194 -0.2692
 4874SOL    HW115521   0.034   2.703   1.877 -1.2389 -0.0499 -0.2663
 4874SOL    HW215522  -0.030   2.658   2.020  0.7498 -0.7665  0.4174
 4875SOL     OW15523   6.605   6.992   5.645 -0.1209  0.8283  0.4232
 4875SOL    HW115524   6.523   6.938   5.621  0.0225  1.5653 -2.0634
 4875SOL    HW215525   6.684   6.931   5.652 -0.3930  0.4180  0.0237
 4876SOL     OW15526   3.768   4.713   1.321  0.0608 -0.4203  0.3193
 4876SOL    HW115527   3.793   4.809   1.332 -0.5163 -0.5054  3.1937
 4876SOL    HW215528   3.846   4.655   1.346  0.7666 -0.7787 -2.4450
 4877SOL     OW15529   2.678   6.527   3.427 -0.0668 -0.3061  0.2633
 4877SOL    HW115530   2.672   6.594   3.352 -0.9985  0.4657  0.9884
 4877SOL    HW215531   2.661   6.435   3.392  2.0809 -0.2968 -0.9043
 4878SOL     OW15532   6.478   1.175   3.665  0.8780  0.0865 -0.4583
 4878SOL    HW115533   6.572   1.162   3.635  1.2454 -1.0885  1.0675
 4878SOL    HW215534   6.464   1.127   3.752 -0.8764  1.0057 -0.1901
 4879SOL     OW15535   6.817   3.012   0.369  0.4667  0.2390  0.3668
 4879SOL    HW115536   6.811   2.966   0.457  0.5822  0.8260  0.6889
 4879SOL    HW215537   6.804   3.111   0.382 -0.6104  0.2204 -0.4077
 4880SOL     OW15538   1.068   3.883   0.131 -0.3429  0.1552 -0.3994
 4880SOL    HW115539   1.004   3.875   0.208 -2.4464 -0.1894 -2.1078
 4880SOL    HW215540   1.049   3.812   0.063  1.8292  0.1090 -1.0507
 4881SOL     OW15541   0.868   6.641   3.678  0.1609  1.0046 -0.7261
 4881SOL    HW115542   0.896   6.563   3.622 -1.1420 -0.8687  1.0539
 4881SOL    HW215543   0.941   6.663   3.743 -0.4870 -0.7461  0.7118
 4882SOL     OW15544   5.879   0.234   5.789  0.4882  0.4229  0.4492
 4882SOL    HW115545   5.950   0.167   5.809 -0.1838 -0.5276 -0.3019
 4882SOL    HW215546   5.919   0.326   5.790  1.7145 -0.0931  0.1158
 4883SOL     OW15547   0.639   5.751   0.820 -0.3944 -0.0010  0.8507
 4883SOL    HW115548   0.620   5.682   0.750 -1.3413 -2.4008  3.2730
 4883SOL    HW215549   0.552   5.791   0.851  0.1065  1.9149 -0.1182
 4884SOL     OW15550   5.711   1.137   3.179 -0.1254 -0.0145 -0.0848
 4884SOL    HW115551   5.719   1.189   3.095  2.0632  0.0118  0.0681
 4884SOL    HW215552   5.718   1.198   3.258  0.6545 -0.3071  0.0905
 4885SOL     OW15553   4.980   7.007   4.581 -0.5275 -0.1412 -0.2655
 4885SOL    HW115554   4.961   7.065   4.661 -0.6235  1.5325 -1.4585
 4885SOL    HW215555   4.899   7.002   4.524  0.1186  0.3170 -1.2477
 4886SOL     OW15556   0.895   2.186   2.836 -0.6416  0.2740 -0.1934
 4886SOL    HW115557   0.909   2.092   2.805  0.0706  0.8163 -1.5986
 4886SOL    HW215558   0.839   2.235   2.769 -1.9690  0.5671  1.0783
 4887SOL     OW15559   1.209   5.448   2.296 -0.2602 -0.7953  0.3630
 4887SOL    HW115560   1.162   5.418   2.378  0.0743 -1.4905  0.3107
 4887SOL    HW215561   1.296   5.399   2.287 -0.1580 -0.5189 -0.2505
 4888SOL     OW15562   3.198   6.814   3.586 -0.3290 -0.1532  0.2494
 4888SOL    HW115563   3.190   6.906   3.549 -0.7598 -0.2981 -0.0288
 4888SOL    HW215564   3.160   6.813   3.679 -3.2181 -0.6901 -0.8373
 4889SOL     OW15565   1.797   5.456   1.325 -0.2622 -0.5030  0.3680
 4889SOL    HW115566   1.822   5.437   1.230 -0.2136 -0.7547  0.4320
 4889SOL    HW215567   1.748   5.377   1.363 -1.3961  0.0691  0.1657
 4890SOL     OW15568   6.945   6.986   3.700  0.5368 -0.4029 -0.0866
 4890SOL    HW115569   6.882   7.041   3.755  0.2865 -0.0575 -0.7000
 4890SOL    HW215570   7.009   6.938   3.759  0.7258  0.5184  0.4725
 4891SOL     OW15571   0.887   4.296   0.252  0.2079  0.3757 -0.2683
 4891SOL    HW115572   0.798   4.311   0.210  0.0572 -1.9353 -0.8935
 4891SOL    HW215573   0.876   4.289   0.351 -0.6435 -1.6492 -0.4583
 4892SOL     OW15574   6.131   5.473   2.100  0.0214 -0.1439 -0.2781
 4892SOL    HW115575   6.174   5.553   2.142 -0.9185 -0.7780  2.0862
 4892SOL    HW215576   6.126   5.399   2.167 -1.1171 -1.4394 -1.7213
 4893SOL     OW15577   5.227   0.785   2.888 -0.0584 -0.2448 -0.0423
 4893SOL    HW115578   5.136   0.785   2.929  0.9660 -0.6562  2.4315
 4893SOL    HW215579   5.259   0.879   2.879 -0.5649 -0.1176 -0.5369
 4894SOL     OW15580   3.960   5.273   3.555  0.0431  0.6968  0.3443
 4894SOL    HW115581   3.970   5.260   3.654 -2.6783  0.4539  0.6515
 4894SOL    HW215582   3.954   5.183   3.511 -1.3110  0.7828  0.3120
 4895SOL     OW15583   4.711   3.572   0.929 -0.1649 -0.2853  0.1585
 4895SOL    HW115584   4.772   3.515   0.874  0.0850  0.1542 -0.0265
 4895SOL    HW215585   4.703   3.663   0.887  0.3665  0.2011  1.0773
 4896SOL     OW15586   3.056   1.005   3.454 -0.6667 -0.0601 -0.2769
 4896SOL    HW115587   3.006   1.014   3.540 -0.6117 -2.5877  0.1109
 4896SOL    HW215588   3.136   1.063   3.455 -0.4079 -0.3998  1.6107
 4897SOL     OW15589   2.047   4.624   6.558 -0.3756  0.0208  0.5605
 4897SOL    HW115590   2.136   4.627   6.604 -0.2560 -0.5185  0.3684
 4897SOL    HW215591   2.051   4.678   6.474  0.0525 -0.7395  0.0742
 4898SOL     OW15592   1.460   5.017   6.379 -0.2543  0.0246  0.5108
 4898SOL    HW115593   1.481   5.095   6.439 -0.1704  1.2917 -1.1175
 4898SOL    HW215594   1.545   4.981   6.341 -0.4419  0.3277 -0.1969
 4899SOL     OW15595   3.447   5.098   2.270 -0.5668 -0.1765 -0.0967
 4899SOL    HW115596   3.490   5.184   2.244  0.4499 -0.8914 -0.8868
 4899SOL    HW215597   3.501   5.053   2.342 -0.4848 -0.6502 -0.4457
 4900SOL     OW15598   0.676   5.721   5.854 -0.3303 -0.6366  0.2816
 4900SOL    HW115599   0.716   5.636   5.820 -0.3018 -0.2241 -0.7717
 4900SOL    HW215600   0.707   5.798   5.797  2.0135  0.5619  2.9215
 4901SOL     OW15601   4.307   5.125   3.448  0.5182 -0.3756 -0.0462
 4901SOL    HW115602   4.389   5.074   3.420  0.2451 -0.7697 -0.1325
 4901SOL    HW215603   4.259   5.075   3.519  0.6255  0.1072  0.3690
 4902SOL     OW15604   7.000   5.692   6.196 -0.3074 -0.1131  0.0638
 4902SOL    HW115605   7.095   5.701   6.224 -0.0712 -0.1747 -0.6808
 4902SOL    HW215606   6.979   5.595   6.181 -0.4283 -0.0815  0.0282
 4903SOL     OW15607   6.706   2.412   3.077 -0.0681  0.1638  0.2165
 4903SOL    HW115608   6.727   2.481   3.146  1.0112  2.0533 -1.8721
 4903SOL    HW215609   6.779   2.408   3.009  0.5627 -4.0335  0.8753
 4904SOL     OW15610   1.167   3.464   0.842 -0.4287  0.1442 -0.4772
 4904SOL    HW115611   1.182   3.433   0.936  0.6368  0.7831 -0.4081
 4904SOL    HW215612   1.241   3.527   0.816 -0.1081 -0.8643 -2.1257
 4905SOL     OW15613   2.476   5.580   5.658  0.6491  0.1238  0.1879
 4905SOL    HW115614   2.470   5.646   5.732  0.8176  2.5806 -1.8603
 4905SOL    HW215615   2.539   5.613   5.588  0.2880 -1.9478 -1.2112
 4906SOL     OW15616   2.899   5.956   0.597 -0.3610  0.0020 -0.2107
 4906SOL    HW115617   2.859   5.877   0.551  0.3512 -0.2382 -0.4447
 4906SOL    HW215618   2.951   6.010   0.531  0.5614 -0.2723  0.2727
 4907SOL     OW15619   0.801   4.273   0.895  0.5502  0.1704 -0.0816
 4907SOL    HW115620   0.729   4.301   0.831  0.0584 -0.0481  0.3619
 4907SOL    HW215621   0.799   4.332   0.975  1.3843  0.6519 -0.4102
 4908SOL     OW15622   0.479   6.173   1.879 -0.0391 -0.0625  0.5068
 4908SOL    HW115623   0.505   6.172   1.782 -0.0284  1.9062  0.4490
 4908SOL    HW215624   0.558   6.202   1.934  0.4692 -2.7106  1.3488
 4909SOL     OW15625   2.705   5.599   5.439  0.6428  0.2929  0.3441
 4909SOL    HW115626   2.743   5.634   5.353  1.1343 -0.4116  0.2615
 4909SOL    HW215627   2.724   5.664   5.513  1.9771 -0.0156  0.2932
 4910SOL     OW15628   0.894   0.958   5.928 -0.3075  0.1485 -0.0963
 4910SOL    HW115629   0.955   1.023   5.975  0.9756 -0.6200 -0.6327
 4910SOL    HW215630   0.800   0.991   5.933  0.0040  0.8970  1.5979
 4911SOL     OW15631   0.726   6.326   2.704 -0.2864 -0.2353 -0.9103
 4911SOL    HW115632   0.692   6.241   2.665  0.1592 -0.0946 -1.6164
 4911SOL    HW215633   0.745   6.312   2.802 -1.8956 -0.4420 -0.6051
 4912SOL     OW15634   6.222   6.340   6.304  0.2301 -1.1568  0.5208
 4912SOL    HW115635   6.124   6.345   6.324  0.2464 -1.6225  0.7460
 4912SOL    HW215636   6.240   6.380   6.215  0.0497  0.3216  1.1259
 4913SOL     OW15637   3.506   3.463   3.051 -0.2002  0.0098  0.1509
 4913SOL    HW115638   3.450   3.418   2.981  0.2079 -0.5213  0.1695
 4913SOL    HW215639   3.591   3.495   3.010 -1.0061  1.9353 -0.1797
 4914SOL     OW15640   5.817   1.576   4.729 -0.1326  0.0196  0.2805
 4914SOL    HW115641   5.849   1.509   4.797 -3.0952 -0.4199  1.4180
 4914SOL    HW215642   5.790   1.660   4.776 -1.4589  0.0176 -0.4452
 4915SOL     OW15643   2.824   5.875   3.303  0.1641  0.4776 -0.2075
 4915SOL    HW115644   2.887   5.871   3.225  1.2209  1.6196  0.5561
 4915SOL    HW215645   2.842   5.800   3.365  3.0254  2.4853  1.6126
 4916SOL     OW15646   3.197   1.482   1.465 -0.2884 -0.0197 -0.5597
 4916SOL    HW115647   3.156   1.392   1.475  0.7335 -0.5322 -0.8650
 4916SOL    HW215648   3.219   1.498   1.369  0.2383  0.2382 -0.3985
 4917SOL     OW15649   4.563   0.089   1.549 -0.5517  0.5345  0.4187
 4917SOL    HW115650   4.515   0.002   1.532 -0.4140  0.2283  1.5083
 4917SOL    HW215651   4.529   0.158   1.486 -0.1255 -0.4996 -0.9906
 4918SOL     OW15652   1.246   5.142   5.819  0.5507 -0.8495  0.4791
 4918SOL    HW115653   1.326   5.109   5.769  0.6700 -0.1780  0.2233
 4918SOL    HW215654   1.168   5.083   5.798  0.3892 -0.0745 -1.1910
 4919SOL     OW15655   5.601   4.376   6.484 -0.0449 -0.0035 -0.1144
 4919SOL    HW115656   5.677   4.415   6.432  0.0885  0.3674  0.3505
 4919SOL    HW215657   5.576   4.438   6.558 -0.2675 -0.5002  0.2334
 4920SOL     OW15658   4.864   2.833   6.789  0.2529  0.2619 -0.3044
 4920SOL    HW115659   4.955   2.793   6.777  0.2660  0.4909 -1.0374
 4920SOL    HW215660   4.871   2.933   6.783 -0.2495  0.2281 -1.9581
 4921SOL     OW15661   2.924   0.115   4.706  0.2608  0.5011  0.4823
 4921SOL    HW115662   2.889   0.185   4.644  0.6344  0.4820  0.2470
 4921SOL    HW215663   2.881   0.027   4.685  0.0111  0.5944  0.5870
 4922SOL     OW15664   0.568   0.330   3.572  0.0332 -0.0074  0.2200
 4922SOL    HW115665   0.480   0.284   3.588  0.0485 -0.8924 -1.9483
 4922SOL    HW215666   0.616   0.340   3.659 -0.5166 -3.0279  1.0096
 4923SOL     OW15667   4.495   5.236   5.569  0.0448  0.3431  0.6665
 4923SOL    HW115668   4.461   5.329   5.582 -1.0741  0.2491 -1.2095
 4923SOL    HW215669   4.428   5.171   5.603 -0.6224  0.2011 -0.8421
 4924SOL     OW15670   0.054   1.701   5.390 -0.3596  0.2331  0.0234
 4924SOL    HW115671  -0.010   1.679   5.317  1.3546  0.8446 -1.7515
 4924SOL    HW215672   0.122   1.766   5.356  1.0062 -0.1134  1.9202
 4925SOL     OW15673   1.331   2.444   5.942  0.1253 -0.2452 -0.8105
 4925SOL    HW115674   1.310   2.352   5.909  1.8970  0.2746 -3.7147
 4925SOL    HW215675   1.423   2.446   5.980 -0.4163  0.0812  0.5470
 4926SOL     OW15676   6.645   5.573   5.350  0.3037  0.4568 -0.0289
 4926SOL    HW115677   6.656   5.597   5.446 -1.1859 -0.9302  0.5462
 4926SOL    HW215678   6.576   5.500   5.341  1.2220 -0.2665 -2.0349
 4927SOL     OW15679   2.916   0.933   5.509 -0.2261  0.1666 -0.2560
 4927SOL    HW115680   2.866   0.851   5.539  1.2537 -0.9421 -0.6859
 4927SOL    HW215681   2.932   0.928   5.411 -1.9845  2.0759 -0.7171
 4928SOL     OW15682   6.509   3.480   2.591 -0.4384  0.0125  0.5637
 4928SOL    HW115683   6.533   3.384   2.586 -0.7725 -0.0960  1.0540
 4928SOL    HW215684   6.544   3.520   2.676  3.2162  1.3174 -1.3236
 4929SOL     OW15685   1.698   2.416   5.421  0.0555  0.0045 -0.0611
 4929SOL    HW115686   1.660   2.331   5.457 -1.8587  1.1665  0.8867
 4929SOL    HW215687   1.773   2.447   5.479 -0.1418 -0.3541  0.3922
 4930SOL     OW15688   0.194   5.196   6.592  0.2115 -0.0628 -0.0060
 4930SOL    HW115689   0.194   5.138   6.673 -1.3406  1.2634  1.0193
 4930SOL    HW215690   0.212   5.291   6.619  1.9293  0.0909 -1.5266
 4931SOL     OW15691   0.353   5.209   0.200 -0.0294 -0.1406 -0.0616
 4931SOL    HW115692   0.414   5.172   0.129  0.3583 -0.7053  0.5519
 4931SOL    HW215693   0.406   5.232   0.281 -0.4356  0.7430 -0.0384
 4932SOL     OW15694   6.381   0.623   6.750  0.3307 -0.0941  0.3501
 4932SOL    HW115695   6.454   0.672   6.703 -0.5417  2.0278  1.1124
 4932SOL    HW215696   6.416   0.584   6.835  0.8127  0.0570  0.2196
 4933SOL     OW15697   3.856   0.885   3.730 -0.2572  0.0389 -0.3661
 4933SOL    HW115698   3.850   0.963   3.791  0.2739  0.1823 -0.4924
 4933SOL    HW215699   3.844   0.915   3.636 -0.2990 -0.0658 -0.3941
 4934SOL     OW15700   1.254   6.792   6.710 -0.0066 -0.2395  0.6003
 4934SOL    HW115701   1.353   6.782   6.703  0.2223  2.1098 -1.0283
 4934SOL    HW215702   1.233   6.872   6.767 -0.8409  0.3677 -0.5072
 4935SOL     OW15703   0.103   3.536   6.224  0.0276  0.0645  0.2672
 4935SOL    HW115704   0.119   3.552   6.127 -0.1804  1.3779  0.4238
 4935SOL    HW215705   0.190   3.523   6.271  0.1667 -0.0132 -0.0128
 4936SOL     OW15706   2.230   6.608   0.625  0.1903 -0.0938  0.7297
 4936SOL    HW115707   2.200   6.552   0.548  1.5061 -0.9610  0.8237
 4936SOL    HW215708   2.200   6.567   0.711 -2.1314  1.3843  0.7127
 4937SOL     OW15709   2.386   6.830   0.826 -0.2593  0.5658  0.3653
 4937SOL    HW115710   2.387   6.928   0.849 -0.0707  0.8403 -0.7709
 4937SOL    HW215711   2.479   6.800   0.804 -0.5593  0.5572 -0.9713
 4938SOL     OW15712   4.824   3.744   1.421 -0.2041  0.2293 -0.0147
 4938SOL    HW115713   4.759   3.758   1.496  1.1834 -0.3927  1.3558
 4938SOL    HW215714   4.777   3.705   1.343 -1.8308  1.5333  0.2509
 4939SOL     OW15715   4.603   2.405   4.667 -0.5534  0.1222 -0.4810
 4939SOL    HW115716   4.523   2.403   4.607 -0.8757 -1.7045 -0.0300
 4939SOL    HW215717   4.587   2.470   4.741 -1.1791  0.5332 -0.9627
 4940SOL     OW15718   5.615   5.573   0.485  0.0311 -0.2305  0.8210
 4940SOL    HW115719   5.623   5.583   0.385  0.5768 -0.6774  0.8167
 4940SOL    HW215720   5.610   5.476   0.509 -1.1983 -0.0944  1.1564
 4941SOL     OW15721   0.236   1.042   6.822  0.3317  0.0354  0.5739
 4941SOL    HW115722   0.312   1.079   6.875  0.1093  0.1721  0.8047
 4941SOL    HW215723   0.265   1.023   6.729  0.5035  0.5950  0.5122
 4942SOL     OW15724   5.983   3.995   1.601 -0.2138 -0.3952 -0.0674
 4942SOL    HW115725   5.966   4.087   1.635 -0.2981 -0.3535 -0.2224
 4942SOL    HW215726   5.991   3.997   1.502  0.2872 -0.4770 -0.0302
 4943SOL     OW15727   1.077   4.418   0.910  0.1031  0.7179  0.8263
 4943SOL    HW115728   1.023   4.500   0.931  1.0552  1.3821  0.7387
 4943SOL    HW215729   1.028   4.362   0.843 -0.2573  1.5571  0.3762
 4944SOL     OW15730   0.804   6.199   5.803 -0.3052 -0.0765 -0.2786
 4944SOL    HW115731   0.803   6.165   5.897 -0.5725 -0.6006 -0.4689
 4944SOL    HW215732   0.782   6.297   5.803 -0.3016 -0.0741  0.2058
 4945SOL     OW15733   1.899   3.626   4.566  0.0012 -0.4773 -0.1412
 4945SOL    HW115734   1.992   3.661   4.574 -0.5835  0.8405  1.3629
 4945SOL    HW215735   1.834   3.698   4.589 -1.4232 -1.3439 -1.2715
 4946SOL     OW15736   0.431   0.588   4.322  0.0616  0.1823  0.0651
 4946SOL    HW115737   0.402   0.520   4.254  0.6060 -1.1751  1.1401
 4946SOL    HW215738   0.371   0.583   4.402 -0.5395  1.7306 -0.2643
 4947SOL     OW15739   0.439   1.097   0.319 -0.3049 -0.1397  0.6920
 4947SOL    HW115740   0.498   1.062   0.247 -0.0665 -0.8069  1.2028
 4947SOL    HW215741   0.477   1.074   0.408  0.2647  2.0711  1.0850
 4948SOL     OW15742   0.181   3.358   5.958 -0.2268  0.1551  0.0922
 4948SOL    HW115743   0.126   3.441   5.971 -1.7895 -1.0928  2.1521
 4948SOL    HW215744   0.225   3.360   5.868 -2.3934  1.9861 -1.0184
 4949SOL     OW15745   0.864   0.400   5.617  0.5580  0.5237  0.1588
 4949SOL    HW115746   0.870   0.304   5.646 -0.1777  0.2114 -0.6555
 4949SOL    HW215747   0.879   0.460   5.695 -1.2170 -0.2761  1.1671
 4950SOL     OW15748   2.506   6.952   4.047  0.0578 -0.5129 -0.1633
 4950SOL    HW115749   2.546   6.935   4.138  2.3307  0.0242 -0.9857
 4950SOL    HW215750   2.477   6.865   4.007 -0.1985 -0.8533  0.7188
 4951SOL     OW15751   5.728   6.650   1.458 -0.0876 -0.3474 -0.3152
 4951SOL    HW115752   5.698   6.591   1.384 -0.1855 -0.2182 -0.3792
 4951SOL    HW215753   5.823   6.631   1.480 -0.4090 -1.2504  0.3566
 4952SOL     OW15754   4.709   5.998   6.559  0.2154 -0.8663 -0.0772
 4952SOL    HW115755   4.807   5.984   6.564  0.4723  1.0749  3.0801
 4952SOL    HW215756   4.687   6.060   6.484  1.7997  0.8344  0.7888
 4953SOL     OW15757   0.981   1.669   4.755  0.4176 -0.0605 -0.0911
 4953SOL    HW115758   0.888   1.640   4.778  0.1524  0.0775 -0.9561
 4953SOL    HW215759   0.992   1.765   4.781  0.9121 -0.5487  1.6617
 4954SOL     OW15760   2.893   5.733   4.085  0.0754  0.4582  0.5701
 4954SOL    HW115761   2.812   5.784   4.056  0.4532  1.7960  1.7604
 4954SOL    HW215762   2.874   5.635   4.081 -2.3707  0.7382  2.8677
 4955SOL     OW15763   1.076   3.677   5.483  0.3931  0.1857 -0.3858
 4955SOL    HW115764   1.118   3.631   5.561 -1.9054  1.2695  1.6194
 4955SOL    HW215765   1.148   3.705   5.419  2.7894  1.7998  2.7152
 4956SOL     OW15766   3.273   5.631   0.685  0.0715  0.2019 -0.0554
 4956SOL    HW115767   3.200   5.636   0.616 -0.0907 -0.7613  0.0224
 4956SOL    HW215768   3.247   5.687   0.764 -0.0495  0.7805 -0.4958
 4957SOL     OW15769   5.995   6.837   1.031  0.0840  0.0388 -0.8043
 4957SOL    HW115770   6.035   6.896   0.962 -1.6668  1.7821 -0.4323
 4957SOL    HW215771   6.037   6.856   1.120 -0.4761  0.7855 -0.6845
 4958SOL     OW15772   5.223   3.290   1.987  0.1051 -0.2724  0.6958
 4958SOL    HW115773   5.296   3.354   2.014  1.3660 -1.7881  1.0269
 4958SOL    HW215774   5.134   3.336   1.994  1.0480  1.8932 -0.4907
 4959SOL     OW15775   4.946   3.127   1.467 -0.2986 -0.7265  0.0436
 4959SOL    HW115776   5.013   3.200   1.453 -0.9850  0.0615  0.7604
 4959SOL    HW215777   4.958   3.057   1.397  1.5555 -0.8243  0.4140
 4960SOL     OW15778   0.105   6.719   1.735 -0.1170 -1.5184  0.2398
 4960SOL    HW115779   0.095   6.707   1.636  2.3912  1.3581 -0.5269
 4960SOL    HW215780   0.040   6.789   1.766  0.2938 -1.1190  0.2227
 4961SOL     OW15781   5.819   0.244   6.207  0.1436  0.9902 -0.0674
 4961SOL    HW115782   5.753   0.277   6.139  0.1990 -0.2361 -0.7471
 4961SOL    HW215783   5.770   0.208   6.286 -0.1055 -1.1043 -1.1157
 4962SOL     OW15784   4.967   0.994   1.711  0.0215 -0.2881  0.0315
 4962SOL    HW115785   4.945   1.010   1.807 -1.9945 -0.3477 -0.3886
 4962SOL    HW215786   4.885   1.006   1.655  1.3179  0.5058 -1.7932
 4963SOL     OW15787   1.880   2.850   4.245 -0.3220 -0.0624 -0.3863
 4963SOL    HW115788   1.871   2.932   4.301  0.6129 -0.4644  0.3749
 4963SOL    HW215789   1.975   2.841   4.214 -0.5879 -0.4404 -1.1108
 4964SOL     OW15790   2.670   2.086   0.637  0.3073 -0.4412 -0.2615
 4964SOL    HW115791   2.699   2.084   0.733 -2.5207  1.7022  0.7644
 4964SOL    HW215792   2.665   2.181   0.606 -1.8122 -0.9062 -1.4940
 4965SOL     OW15793   4.427   5.006   1.162 -0.5369 -0.2438  0.2382
 4965SOL    HW115794   4.401   4.941   1.090  0.5209 -1.4075  0.8416
 4965SOL    HW215795   4.427   5.099   1.126 -0.8796 -0.7154 -1.0152
 4966SOL     OW15796   1.172   4.707   6.375 -0.5589 -0.5530 -0.2522
 4966SOL    HW115797   1.134   4.710   6.282  2.3549  1.8534 -1.5336
 4966SOL    HW215798   1.170   4.799   6.414  1.6216 -0.8106  0.5571
 4967SOL     OW15799   5.580   1.966   0.260 -0.3488  0.2466  0.6491
 4967SOL    HW115800   5.527   1.906   0.200  0.1086  1.8148 -1.4508
 4967SOL    HW215801   5.677   1.947   0.250 -0.2980  0.1181  1.3603
 4968SOL     OW15802   2.479   0.307   1.256  0.5016  0.0909 -0.2610
 4968SOL    HW115803   2.433   0.307   1.167 -0.5847  0.6300  0.2832
 4968SOL    HW215804   2.515   0.398   1.275  2.3160 -0.4527 -0.9190
 4969SOL     OW15805   6.134   3.115   4.046 -0.4424 -0.5201 -0.1340
 4969SOL    HW115806   6.121   3.093   4.143  0.0107 -0.2721 -0.0167
 4969SOL    HW215807   6.096   3.041   3.990 -0.8174 -0.6073  0.2288
 4970SOL     OW15808   0.879   6.339   2.270  0.4654  0.3832  0.0841
 4970SOL    HW115809   0.787   6.377   2.279  0.4850  0.1973  1.1396
 4970SOL    HW215810   0.925   6.383   2.192 -0.7376 -0.0088 -0.8737
 4971SOL     OW15811   2.712   1.753   5.365 -0.4787  0.1475 -0.0596
 4971SOL    HW115812   2.685   1.683   5.430 -2.0227 -0.3685 -1.1896
 4971SOL    HW215813   2.797   1.725   5.319 -1.0314 -0.9657 -0.4365
 4972SOL     OW15814   3.273   6.979   0.336 -0.1396 -0.1164  0.2452
 4972SOL    HW115815   3.252   6.955   0.431 -1.4460 -0.5219 -0.1194
 4972SOL    HW215816   3.273   7.079   0.326  1.3693 -0.0239  0.9410
 4973SOL     OW15817   3.490   7.017   0.912 -0.3093 -0.5638  0.0812
 4973SOL    HW115818   3.460   7.039   0.819 -1.8420  0.2882  0.7494
 4973SOL    HW215819   3.415   6.975   0.963 -0.4635  1.6573  1.8243
 4974SOL     OW15820   0.658   5.410   0.216  0.3166  0.0815  0.5393
 4974SOL    HW115821   0.614   5.482   0.163 -1.1413  0.7251  2.5058
 4974SOL    HW215822   0.682   5.334   0.156 -1.9883  0.4219 -0.9362
 4975SOL     OW15823   6.728   2.250   2.046 -0.0377  0.6985  0.2991
 4975SOL    HW115824   6.808   2.239   1.987 -1.3196 -0.1214 -1.3654
 4975SOL    HW215825   6.646   2.224   1.995 -1.1776 -0.4102  2.5824
 4976SOL     OW15826   2.391   5.907   6.463  0.0942 -0.1773  0.0700
 4976SOL    HW115827   2.479   5.872   6.432  2.9705  3.2489  3.4195
 4976SOL    HW215828   2.385   5.900   6.562 -2.4682  1.6503  0.1521
 4977SOL     OW15829   5.364   3.890   6.058 -0.3128  0.2408  0.3856
 4977SOL    HW115830   5.405   3.948   5.988 -1.8487  0.6854 -0.1909
 4977SOL    HW215831   5.345   3.799   6.020 -1.9044  0.7313 -0.0807
 4978SOL     OW15832   6.566   6.297   4.745  0.3189 -0.0159  0.2725
 4978SOL    HW115833   6.574   6.396   4.755 -0.8609 -0.0790  2.5469
 4978SOL    HW215834   6.497   6.263   4.809  1.4230 -2.4344  0.2645
 4979SOL     OW15835   0.113   2.735   0.652  0.3772 -0.1426  0.2817
 4979SOL    HW115836   0.174   2.662   0.683  0.4167 -0.3554 -0.2841
 4979SOL    HW215837   0.107   2.733   0.552 -0.8221 -0.3435  0.3394
 4980SOL     OW15838   2.392   0.231   5.161  0.3997 -0.4170 -0.4273
 4980SOL    HW115839   2.341   0.213   5.077 -2.2674 -2.0153  1.3899
 4980SOL    HW215840   2.368   0.320   5.197 -1.7250 -1.3887  0.7192
 4981SOL     OW15841   6.741   0.953   4.624  0.0143 -0.5561  0.0157
 4981SOL    HW115842   6.830   0.998   4.632 -0.5268  0.4151  0.8057
 4981SOL    HW215843   6.669   1.022   4.617 -0.6166 -1.3178 -1.7307
 4982SOL     OW15844   2.904   2.292   3.147 -0.0816  0.4826 -0.0441
 4982SOL    HW115845   2.876   2.262   3.056 -0.6278  0.6405  0.0666
 4982SOL    HW215846   3.000   2.270   3.161  0.0229  0.5078 -0.6799
 4983SOL     OW15847   6.796   0.335   1.312 -0.1810 -0.2311 -0.4008
 4983SOL    HW115848   6.868   0.316   1.246 -0.2495  2.0830 -1.2151
 4983SOL    HW215849   6.791   0.433   1.330 -1.7448 -0.5506  1.2476
 4984SOL     OW15850   0.618   5.137   3.322 -0.2419 -0.0890  0.3355
 4984SOL    HW115851   0.650   5.218   3.272  0.5949 -0.3146  0.4887
 4984SOL    HW215852   0.549   5.164   3.389 -1.5530  0.1958 -1.0681
 4985SOL     OW15853   2.826   1.114   4.575  0.1099  0.2366  0.4625
 4985SOL    HW115854   2.851   1.047   4.505 -0.9118 -1.0242  1.2875
 4985SOL    HW215855   2.727   1.126   4.576 -0.0018 -0.5507  2.3866
 4986SOL     OW15856   0.317   6.864   3.162  0.4286  0.0545 -0.3948
 4986SOL    HW115857   0.286   6.789   3.221  0.5770 -0.2535 -0.7057
 4986SOL    HW215858   0.398   6.835   3.111  0.7512  0.5742 -0.1947
 4987SOL     OW15859   1.119   6.748   2.939 -0.1586 -0.0448  0.1969
 4987SOL    HW115860   1.137   6.709   3.030  0.5803 -1.1287 -0.3879
 4987SOL    HW215861   1.050   6.692   2.892  0.0297  0.0605 -0.2074
 4988SOL     OW15862   6.126   5.243   1.487  0.1766  0.1706  0.5951
 4988SOL    HW115863   6.031   5.216   1.502  0.0707  0.9645  1.4368
 4988SOL    HW215864   6.130   5.342   1.469  0.7495 -0.0306 -0.4695
 4989SOL     OW15865   5.119   6.105   3.166 -0.0384  0.1371 -0.2107
 4989SOL    HW115866   5.079   6.058   3.244  0.4310 -1.2413 -0.7720
 4989SOL    HW215867   5.087   6.200   3.164 -0.8705 -0.0968  1.0470
 4990SOL     OW15868   3.882   3.836   0.141  0.2850  0.2678  0.1556
 4990SOL    HW115869   3.861   3.834   0.043 -0.2311 -0.1142  0.2672
 4990SOL    HW215870   3.969   3.789   0.158  0.5306  0.6122 -0.1562
 4991SOL     OW15871   4.143   0.859   0.954 -0.4084  0.1206  0.3762
 4991SOL    HW115872   4.051   0.862   0.992  0.2418  0.6935  2.0207
 4991SOL    HW215873   4.157   0.938   0.893 -1.2067 -0.3561 -0.4412
 4992SOL     OW15874   5.387   2.678   6.908  0.2589 -0.1313  0.3354
 4992SOL    HW115875   5.297   2.679   6.866  0.3483  2.3630  0.0636
 4992SOL    HW215876   5.379   2.698   7.006  0.4911 -0.1740  0.3639
 4993SOL     OW15877   3.736   1.628   6.889  0.0718 -0.1640  0.3155
 4993SOL    HW115878   3.735   1.679   6.803  2.2242  0.0046  0.3327
 4993SOL    HW215879   3.772   1.536   6.873 -0.2020 -0.3858  0.9229
 4994SOL     OW15880   4.123   6.191   2.283  0.0105 -0.1862 -0.3937
 4994SOL    HW115881   4.121   6.105   2.335 -0.7000 -0.5062 -0.9377
 4994SOL    HW215882   4.212   6.201   2.239  0.9830  0.5365  1.5819
 4995SOL     OW15883   4.913   4.511   5.878 -0.8272 -0.1962 -0.2075
 4995SOL    HW115884   4.821   4.547   5.890 -0.3112  1.3680 -0.7851
 4995SOL    HW215885   4.977   4.561   5.937 -0.2488 -0.8886 -0.2316
 4996SOL     OW15886   2.167   3.427   7.012  0.5250  0.2566  0.6659
 4996SOL    HW115887   2.231   3.355   7.040  1.9523  1.3625  0.3703
 4996SOL    HW215888   2.134   3.408   6.919  0.2867 -0.4164  0.8874
 4997SOL     OW15889   1.934   1.236   2.564 -0.4051 -0.2559  0.3212
 4997SOL    HW115890   1.902   1.290   2.485  1.0230 -0.5755 -0.5061
 4997SOL    HW215891   1.952   1.142   2.535  0.2863 -0.3370  1.0020
 4998SOL     OW15892   3.079   0.961   4.134 -0.3025 -0.2313 -0.5305
 4998SOL    HW115893   3.127   0.985   4.219  2.5181 -0.8580 -1.8439
 4998SOL    HW215894   3.040   1.044   4.094 -0.8998  0.2070  0.8863
 4999SOL     OW15895   0.648   0.528   2.243 -0.1251  0.1486  0.2082
 4999SOL    HW115896   0.645   0.441   2.292  1.9244  0.2468  0.5995
 4999SOL    HW215897   0.664   0.511   2.146 -0.5358  0.0793  0.1493
 5000SOL     OW15898   5.564   2.281   4.119  0.4282  0.3511  0.1369
 5000SOL    HW115899   5.469   2.307   4.103  0.2932 -0.2214 -0.0268
 5000SOL    HW215900   5.611   2.271   4.031 -0.2322 -2.5028  0.0003
 5001SOL     OW15901   0.394   5.483   4.838 -0.8555  0.0846  0.0772
 5001SOL    HW115902   0.313   5.499   4.895 -0.1173 -1.4972  1.6860
 5001SOL    HW215903   0.409   5.384   4.829  1.0299  0.3362  0.0265
 5002SOL     OW15904   3.112   2.211   1.120  0.4346 -0.0449  0.5055
 5002SOL    HW115905   3.025   2.254   1.100  1.3744  1.4162 -0.6857
 5002SOL    HW215906   3.119   2.124   1.070 -0.0855  0.1580  0.0715
 5003SOL     OW15907   5.312   4.909   1.495  0.4906  0.2597  0.2741
 5003SOL    HW115908   5.250   4.913   1.417  0.6719  0.8225  0.1564
 5003SOL    HW215909   5.280   4.839   1.560  1.1970 -1.3236 -1.0206
 5004SOL     OW15910   3.035   6.437   6.443  0.1986 -0.1759  0.0276
 5004SOL    HW115911   3.121   6.386   6.451  0.4048  0.3628  1.6426
 5004SOL    HW215912   3.031   6.483   6.355  2.8088  1.9187  0.8907
 5005SOL     OW15913   3.415   6.761   4.993  0.0835  0.1295 -0.4298
 5005SOL    HW115914   3.389   6.754   5.090 -0.9387 -0.4334 -0.7281
 5005SOL    HW215915   3.410   6.857   4.965 -2.0651  0.0565 -0.5254
 5006SOL     OW15916   3.545   4.903   1.634  0.1160 -0.0436 -0.7239
 5006SOL    HW115917   3.538   4.978   1.569 -1.0589  0.4200 -0.0903
 5006SOL    HW215918   3.474   4.835   1.615 -1.1085  0.7294  0.8231
 5007SOL     OW15919   4.965   6.760   3.433  0.4898 -0.3910  0.3951
 5007SOL    HW115920   5.014   6.840   3.397  0.7787 -0.3242  0.9172
 5007SOL    HW215921   4.907   6.722   3.362  1.7937 -0.8591 -0.4698
 5008SOL     OW15922   5.802   3.118   2.628 -0.2374  0.4003  0.1897
 5008SOL    HW115923   5.752   3.035   2.655  0.6043  0.1663  1.0703
 5008SOL    HW215924   5.900   3.103   2.640  0.0031  1.1189 -0.7956
 5009SOL     OW15925   1.461   6.749   1.171  0.1158 -0.0569 -0.5006
 5009SOL    HW115926   1.429   6.814   1.102 -1.9231 -1.7925 -1.3039
 5009SOL    HW215927   1.384   6.694   1.203  1.8066 -2.3588 -0.1519
 5010SOL     OW15928   0.839   6.998   2.371 -0.3868 -0.0159 -0.2963
 5010SOL    HW115929   0.937   7.018   2.362 -0.2784 -0.0413  0.7358
 5010SOL    HW215930   0.826   6.903   2.398 -0.7387 -0.2255 -1.1661
 5011SOL     OW15931   5.143   1.308   1.395  0.1757 -0.2667  0.4960
 5011SOL    HW115932   5.047   1.312   1.425  0.2842 -2.9645  1.5147
 5011SOL    HW215933   5.200   1.355   1.462 -0.4572  2.5866 -0.8093
 5012SOL     OW15934   6.316   6.558   4.477  0.8252  0.3377  0.3584
 5012SOL    HW115935   6.241   6.622   4.465  1.3055  0.8726  0.1894
 5012SOL    HW215936   6.304   6.507   4.562 -0.2847 -0.3393 -0.1853
 5013SOL     OW15937   1.280   5.064   1.667 -0.9575  0.1076  0.3670
 5013SOL    HW115938   1.273   5.162   1.646 -0.1872  0.3913  1.3614
 5013SOL    HW215939   1.376   5.038   1.672 -1.1485 -0.5061  0.9804
 5014SOL     OW15940   5.226   4.793   0.441  0.4688 -0.5577  0.6220
 5014SOL    HW115941   5.254   4.698   0.426 -0.9666 -1.0243  0.6937
 5014SOL    HW215942   5.155   4.818   0.375 -1.2336 -0.5070  2.3811
 5015SOL     OW15943   5.255   2.451   3.158 -0.3218 -0.4400 -0.5447
 5015SOL    HW115944   5.185   2.520   3.180 -2.2493 -1.9030 -1.6699
 5015SOL    HW215945   5.278   2.399   3.239 -2.3951 -1.4860 -0.5607
 5016SOL     OW15946   2.403   2.309   6.348 -0.4801 -0.0558 -0.2668
 5016SOL    HW115947   2.396   2.408   6.365 -0.0782  0.0316 -0.5962
 5016SOL    HW215948   2.494   2.277   6.375 -0.6803 -0.3779  0.0339
 5017SOL     OW15949   6.241   4.889   1.115  0.0303 -0.0992  0.1018
 5017SOL    HW115950   6.172   4.937   1.061 -0.6505  0.3086  1.2878
 5017SOL    HW215951   6.267   4.945   1.194 -1.1152 -1.8053  1.7833
 5018SOL     OW15952   3.807   6.432   4.174  0.4337 -0.0858 -0.4497
 5018SOL    HW115953   3.847   6.516   4.210 -0.0738  0.6072 -1.4656
 5018SOL    HW215954   3.773   6.448   4.082 -1.6434 -0.8105  0.1405
 5019SOL     OW15955   0.918   3.068   1.004  0.4929 -0.7415  0.5149
 5019SOL    HW115956   0.821   3.092   1.005  0.6814  0.1131 -0.4070
 5019SOL    HW215957   0.972   3.145   1.038  1.0306 -0.1202 -1.5786
 5020SOL     OW15958   3.378   1.971   6.872 -0.6824  0.3667  0.0026
 5020SOL    HW115959   3.422   1.978   6.783 -0.4297  0.3466  0.1269
 5020SOL    HW215960   3.302   1.905   6.867  1.5698 -2.4844  0.6964
 5021SOL     OW15961   0.561   5.433   0.969  0.2285  0.1605  0.3194
 5021SOL    HW115962   0.583   5.451   0.874 -1.7929 -0.9047 -0.4198
 5021SOL    HW215963   0.512   5.511   1.008 -0.8867 -0.2626 -0.2099
 5022SOL     OW15964   5.043   2.471   6.331  0.2554 -0.2605 -0.1045
 5022SOL    HW115965   5.013   2.459   6.426  0.7285 -2.0281 -0.1479
 5022SOL    HW215966   4.973   2.432   6.270 -0.0360  0.8489 -0.4982
 5023SOL     OW15967   2.895   0.416   4.917 -0.1076  0.3203  0.1003
 5023SOL    HW115968   2.817   0.372   4.871  1.2658 -0.6951 -1.3830
 5023SOL    HW215969   2.975   0.356   4.909  0.5488  0.7552  2.6913
 5024SOL     OW15970   6.788   2.341   6.518 -0.2772  0.3580 -0.7999
 5024SOL    HW115971   6.725   2.277   6.561 -0.1674  0.5978 -0.2744
 5024SOL    HW215972   6.868   2.291   6.483 -1.1588 -0.0754 -2.2939
 5025SOL     OW15973   2.580   0.425   2.886 -0.0685  0.6851 -0.7027
 5025SOL    HW115974   2.495   0.465   2.918 -0.1615 -1.0324  1.4326
 5025SOL    HW215975   2.622   0.372   2.960  2.4546  0.8094 -1.9332
 5026SOL     OW15976   5.327   6.510   1.625  0.3468 -0.0105 -0.5143
 5026SOL    HW115977   5.390   6.572   1.579  2.6254 -2.2387 -0.6215
 5026SOL    HW215978   5.318   6.426   1.571 -0.3241 -0.9513  0.9877
 5027SOL     OW15979   6.405   0.728   1.098  0.0081  0.3390 -0.4850
 5027SOL    HW115980   6.453   0.646   1.068  0.4928 -0.0058  1.1294
 5027SOL    HW215981   6.307   0.711   1.102  0.1555 -0.3769  0.4177
 5028SOL     OW15982   1.416   4.238   2.838 -0.1276  0.4790 -0.2133
 5028SOL    HW115983   1.452   4.320   2.882 -2.0916  0.7212  1.0942
 5028SOL    HW215984   1.320   4.253   2.814 -0.6337 -1.5091  0.3550
 5029SOL     OW15985   4.383   5.413   2.512 -0.3530  0.6441  0.4696
 5029SOL    HW115986   4.470   5.370   2.537 -0.6854 -0.2416  0.1538
 5029SOL    HW215987   4.377   5.503   2.556  0.8110  0.8226  0.3176
 5030SOL     OW15988   1.011   3.524   0.194  0.3873  0.1840 -0.1320
 5030SOL    HW115989   0.916   3.523   0.226  0.2655 -2.3228 -0.3769
 5030SOL    HW215990   1.072   3.507   0.272  0.7438  2.2804  0.1191
 5031SOL     OW15991   4.329   1.230   2.934  0.5142 -0.3834 -0.3416
 5031SOL    HW115992   4.389   1.193   3.005  2.8722 -0.4581 -2.2288
 5031SOL    HW215993   4.285   1.314   2.966 -0.1964 -1.5324  1.8908
 5032SOL     OW15994   4.779   0.651   5.189 -0.4128 -0.6832  0.1703
 5032SOL    HW115995   4.794   0.573   5.129  0.4211 -0.7875  0.5025
 5032SOL    HW215996   4.681   0.660   5.209 -0.5186 -1.6271  0.1158
 5033SOL     OW15997   0.230   1.752   2.433  0.3671  0.2697  0.0482
 5033SOL    HW115998   0.260   1.682   2.497 -0.3160 -0.6367 -0.5946
 5033SOL    HW215999   0.208   1.836   2.484  1.9513  0.2989  0.7361
 5034SOL     OW16000   3.827   2.471   6.443  0.3127  0.0000  0.0858
 5034SOL    HW116001   3.771   2.392   6.468 -1.3017  0.2573 -2.3581
 5034SOL    HW216002   3.913   2.439   6.401  0.5057 -0.4199  0.7849
 5035SOL     OW16003   6.665   3.996   4.556  0.4567 -0.1761 -0.2727
 5035SOL    HW116004   6.667   3.918   4.494 -1.8899  0.1834 -0.9013
 5035SOL    HW216005   6.577   3.999   4.604 -0.2292  2.9545 -1.4790
 5036SOL     OW16006   3.087   0.193   2.410 -0.3434  0.4415 -0.0779
 5036SOL    HW116007   3.093   0.250   2.329  0.2634 -0.3813 -0.6277
 5036SOL    HW216008   3.173   0.199   2.461 -0.8328  1.2100  0.7039
 5037SOL     OW16009   5.523   5.401   4.312 -0.3481 -0.2961 -0.2501
 5037SOL    HW116010   5.467   5.384   4.393 -1.3721  0.2139 -0.8266
 5037SOL    HW216011   5.491   5.484   4.266 -0.0280 -0.7717 -1.3736
 5038SOL     OW16012   3.962   3.859   4.905  0.3249 -0.0425 -0.4973
 5038SOL    HW116013   3.980   3.843   5.002  0.9417 -0.1427 -0.6249
 5038SOL    HW216014   3.940   3.956   4.892 -0.0198 -0.0795 -0.2242
 5039SOL     OW16015   2.260   3.478   6.262 -0.0279  0.2464  0.1547
 5039SOL    HW116016   2.296   3.479   6.169  1.1498  0.6295  0.5957
 5039SOL    HW216017   2.163   3.451   6.261  0.0195  0.0986 -1.1511
 5040SOL     OW16018   6.440   0.374   4.291  0.2196  0.0717  0.0554
 5040SOL    HW116019   6.351   0.405   4.325  0.7482 -0.9494  2.5980
 5040SOL    HW216020   6.506   0.449   4.297 -0.1462  0.4528 -0.5946
 5041SOL     OW16021   0.880   0.705   2.354  0.5129 -0.6251 -0.3127
 5041SOL    HW116022   0.830   0.639   2.298 -0.9817 -0.3264  0.6039
 5041SOL    HW216023   0.815   0.769   2.395  1.8473  0.9040 -0.5041
 5042SOL     OW16024   5.691   5.174   6.183  0.5576 -0.4090  0.0722
 5042SOL    HW116025   5.624   5.201   6.252  1.9696 -1.1457  1.8050
 5042SOL    HW216026   5.686   5.237   6.105 -0.5793  0.9072  1.1534
 5043SOL     OW16027   6.793   3.230   3.314 -0.0480 -0.3548 -0.0547
 5043SOL    HW116028   6.842   3.151   3.277 -0.2812 -0.4669 -0.1289
 5043SOL    HW216029   6.697   3.205   3.331  0.0713 -0.3167  0.6776
 5044SOL     OW16030   5.048   1.485   6.988  0.3724  0.4174 -0.3045
 5044SOL    HW116031   4.963   1.441   6.960  0.0844  0.6005  0.2661
 5044SOL    HW216032   5.119   1.467   6.920  0.0936 -0.3993 -0.3902
 5045SOL     OW16033   5.645   0.721   5.973 -0.3369 -0.2246  0.0936
 5045SOL    HW116034   5.673   0.684   6.061 -1.7107  1.2187  1.1784
 5045SOL    HW216035   5.584   0.655   5.927  0.0149 -0.7756  0.4013
 5046SOL     OW16036   2.199   4.696   3.528 -0.6147  0.4826 -0.0675
 5046SOL    HW116037   2.110   4.731   3.555 -0.2990  0.7030  0.6930
 5046SOL    HW216038   2.188   4.633   3.451 -1.4602  0.2447  0.2409
 5047SOL     OW16039   3.821   3.572   5.067 -0.0417  0.1152  0.5663
 5047SOL    HW116040   3.750   3.514   5.107 -0.8171  0.2273 -0.6072
 5047SOL    HW216041   3.825   3.659   5.117 -0.9710  0.2457  0.4244
 5048SOL     OW16042   6.250   1.550   1.307  0.3043 -0.2183  0.1318
 5048SOL    HW116043   6.170   1.596   1.346 -0.0385 -1.9219  1.5903
 5048SOL    HW216044   6.331   1.574   1.361  0.8403  1.5213 -1.3553
 5049SOL     OW16045   6.424   4.446   0.794 -0.0730 -0.6565  0.0536
 5049SOL    HW116046   6.402   4.505   0.716 -0.2124  0.5811  0.9998
 5049SOL    HW216047   6.358   4.462   0.867  0.4450 -1.3329  0.6797
 5050SOL     OW16048   3.843   6.887   5.034  0.3689  0.0636 -0.1458
 5050SOL    HW116049   3.922   6.846   5.079  0.4134 -1.1966 -1.2969
 5050SOL    HW216050   3.791   6.941   5.100  2.2479  1.0564  0.6146
 5051SOL     OW16051   4.672   0.907   0.841  0.4587  0.2361 -0.0508
 5051SOL    HW116052   4.705   0.940   0.930 -0.0865  0.5658  0.0334
 5051SOL    HW216053   4.730   0.942   0.768 -0.4449  1.9142 -0.0209
 5052SOL     OW16054   6.492   6.472   3.079  0.1394 -0.6677  0.7087
 5052SOL    HW116055   6.408   6.422   3.099 -0.3618 -0.4116 -0.6212
 5052SOL    HW216056   6.556   6.412   3.031 -1.3047  0.4022 -2.8593
 5053SOL     OW16057   5.331   3.663   1.456  0.4795 -0.1672  0.1728
 5053SOL    HW116058   5.312   3.753   1.495  0.1048 -0.6961  1.2355
 5053SOL    HW216059   5.430   3.647   1.457  0.6702  0.7096 -1.1562
 5054SOL     OW16060   6.007   4.350   1.089  0.2059  0.1746 -0.0830
 5054SOL    HW116061   5.949   4.370   1.010  0.9870 -0.1443 -0.7551
 5054SOL    HW216062   5.974   4.267   1.134 -1.2951  1.3161  0.9873
 5055SOL     OW16063   4.581   1.300   2.415  0.2712 -0.4694 -0.1954
 5055SOL    HW116064   4.569   1.339   2.506 -0.6317 -0.0575 -0.4797
 5055SOL    HW216065   4.608   1.204   2.423  1.6587 -0.0582  0.5066
 5056SOL     OW16066   0.619   4.758   6.484  0.2208  0.2523 -0.3167
 5056SOL    HW116067   0.551   4.825   6.513 -0.2912  0.4216 -1.8191
 5056SOL    HW216068   0.683   4.801   6.419  1.0063 -0.2339  0.1209
 5057SOL     OW16069   0.261   1.586   3.052  0.4044  0.7382  0.5227
 5057SOL    HW116070   0.334   1.522   3.031 -0.5681 -0.7000  1.4231
 5057SOL    HW216071   0.270   1.618   3.146 -1.4042 -1.2727  1.4406
 5058SOL     OW16072   4.588   3.449   5.752  0.0351 -0.1320 -0.3499
 5058SOL    HW116073   4.666   3.388   5.734  0.2390  0.0744 -0.1764
 5058SOL    HW216074   4.595   3.530   5.695  0.9329  0.7413  0.9342
 5059SOL     OW16075   2.571   5.443   6.231  0.0084  0.3944  0.0958
 5059SOL    HW116076   2.530   5.415   6.144  2.2440 -0.4650 -0.7498
 5059SOL    HW216077   2.587   5.362   6.288  0.6878  0.6747  0.3201
 5060SOL     OW16078   4.988   6.176   3.660  0.1123  0.0042  0.0313
 5060SOL    HW116079   5.068   6.171   3.719 -1.3005 -1.7619  1.9181
 5060SOL    HW216080   4.907   6.201   3.714 -0.9690 -0.1971 -1.4232
 5061SOL     OW16081   2.522   0.965   0.482  0.1536 -0.4490  0.3273
 5061SOL    HW116082   2.483   0.950   0.391 -1.5067 -3.1429  1.3408
 5061SOL    HW216083   2.580   0.887   0.506  0.8928  0.4135  1.4638
 5062SOL     OW16084   0.327   5.318   6.237  0.0962 -0.6546 -0.3054
 5062SOL    HW116085   0.285   5.377   6.305 -0.5591 -1.9791  0.4934
 5062SOL    HW216086   0.347   5.370   6.154  1.7642  1.2005  1.1935
 5063SOL     OW16087   0.199   2.977   3.502 -0.9560 -0.4567  0.5626
 5063SOL    HW116088   0.142   3.053   3.469  0.7673  0.4455 -0.4269
 5063SOL    HW216089   0.287   3.012   3.533  0.0817 -2.0880 -0.3896
 5064SOL     OW16090   4.384   2.397   3.591 -0.1037  0.1628 -0.2538
 5064SOL    HW116091   4.391   2.297   3.598 -2.8064 -0.1347 -0.7050
 5064SOL    HW216092   4.361   2.422   3.497  0.5765  1.2296 -0.1469
 5065SOL     OW16093   1.844   4.934   2.592 -0.9066  0.0764  0.3473
 5065SOL    HW116094   1.813   4.852   2.544 -0.0630  0.6596 -1.2628
 5065SOL    HW216095   1.944   4.939   2.590 -0.9655  1.5520 -0.3378
 5066SOL     OW16096   0.517   3.330   6.547  0.7347  0.1407 -0.2369
 5066SOL    HW116097   0.541   3.234   6.561 -0.3395  0.1590  2.2181
 5066SOL    HW216098   0.581   3.387   6.599 -0.0662  0.6094  0.2386
 5067SOL     OW16099   0.069   0.911   6.381 -0.2976  0.2741 -0.2300
 5067SOL    HW116100   0.121   0.996   6.377 -2.6726  1.8180 -0.5228
 5067SOL    HW216101   0.125   0.836   6.346  2.1197  1.5308  0.6776
 5068SOL     OW16102   4.434   3.987   0.627  0.0583  0.3031  0.3514
 5068SOL    HW116103   4.352   3.968   0.573  0.7212 -0.3751 -0.4415
 5068SOL    HW216104   4.429   4.080   0.663 -0.9332  0.3656  0.0890
 5069SOL     OW16105   4.664   1.160   3.556 -0.0172 -0.8054  0.1691
 5069SOL    HW116106   4.590   1.093   3.546 -1.9598  1.5127 -3.4028
 5069SOL    HW216107   4.624   1.252   3.561  2.5802  0.4603 -0.5665
 5070SOL     OW16108   1.544   1.971   3.247 -0.4331  0.4069 -1.0093
 5070SOL    HW116109   1.571   1.878   3.272  2.2720  1.3373 -0.0771
 5070SOL    HW216110   1.535   1.977   3.147  0.3443 -0.6357 -1.1670
 5071SOL     OW16111   1.149   2.333   4.125 -0.0572 -0.4443 -0.2248
 5071SOL    HW116112   1.077   2.387   4.081  0.1321  1.0092  1.1611
 5071SOL    HW216113   1.238   2.373   4.104  0.0805 -0.1282  0.8743
 5072SOL     OW16114   0.557   2.445   2.236 -0.3425 -0.0044  0.4014
 5072SOL    HW116115   0.549   2.508   2.158 -0.0701 -1.4920 -0.8758
 5072SOL    HW216116   0.590   2.495   2.316 -3.5397  2.2451  0.4931
 5073SOL     OW16117   3.840   1.345   0.516  0.2068 -0.0692 -0.1188
 5073SOL    HW116118   3.787   1.353   0.431  1.0007 -2.3833 -0.9271
 5073SOL    HW216119   3.915   1.280   0.502  0.2097 -0.7253  2.4429
 5074SOL     OW16120   2.888   4.965   1.764  0.0133 -0.4789  0.0188
 5074SOL    HW116121   2.937   4.975   1.851  2.7136  0.1465 -1.4837
 5074SOL    HW216122   2.878   4.868   1.743 -0.5113 -0.6330  0.9185
 5075SOL     OW16123   3.227   1.952   0.399 -0.1742 -0.0131  0.5951
 5075SOL    HW116124   3.275   1.918   0.480 -0.0547 -0.1581  0.4643
 5075SOL    HW216125   3.203   1.874   0.340 -0.1617  0.1035  0.4372
 5076SOL     OW16126   4.538   2.376   0.206 -0.0108  0.1624  0.0979
 5076SOL    HW116127   4.484   2.457   0.230 -1.1850 -0.5196 -0.1686
 5076SOL    HW216128   4.629   2.385   0.246 -1.0339  0.3082  2.5836
 5077SOL     OW16129   6.559   5.655   3.270 -0.0977  0.8300 -0.2092
 5077SOL    HW116130   6.640   5.662   3.327 -1.4873  0.9371  1.8775
 5077SOL    HW216131   6.581   5.682   3.176  1.6834  3.3829  0.8376
 5078SOL     OW16132   5.506   5.639   6.460 -0.3508  0.5733 -0.0577
 5078SOL    HW116133   5.455   5.661   6.377 -4.8009 -0.3886  2.1054
 5078SOL    HW216134   5.541   5.723   6.502  0.1450  1.2589 -1.7838
 5079SOL     OW16135   4.584   5.011   3.385 -0.2369  0.5587 -0.0147
 5079SOL    HW116136   4.661   4.954   3.417  0.2423  1.5038  0.5679
 5079SOL    HW216137   4.613   5.106   3.381 -1.0756  0.7924 -0.8406
 5080SOL     OW16138   4.652   6.021   4.943 -0.6601  0.5744  0.1993
 5080SOL    HW116139   4.664   6.111   4.902 -1.1168  0.2780 -0.5949
 5080SOL    HW216140   4.557   5.992   4.934 -0.7433  0.4301  1.3375
 5081SOL     OW16141   1.640   6.314   6.535 -0.3676  0.2246 -0.2103
 5081SOL    HW116142   1.565   6.265   6.491  0.6803 -1.0572 -0.6415
 5081SOL    HW216143   1.678   6.382   6.472  0.1523 -0.5611 -0.7591
 5082SOL     OW16144   0.699   4.566   5.917 -0.5656 -0.2615  0.0840
 5082SOL    HW116145   0.784   4.535   5.959 -0.2634 -0.8682 -0.9322
 5082SOL    HW216146   0.664   4.494   5.857 -0.1092  1.1451 -1.9980
 5083SOL     OW16147   6.671   3.670   4.933  0.1529 -0.1993 -0.5562
 5083SOL    HW116148   6.597   3.677   5.001 -0.0975 -0.3167 -0.8116
 5083SOL    HW216149   6.631   3.673   4.841  0.0339 -3.6693 -0.7832
 5084SOL     OW16150   7.003   4.853   6.267  0.3412  0.0393  0.1453
 5084SOL    HW116151   7.003   4.762   6.310  0.2049  0.5299  1.2013
 5084SOL    HW216152   6.939   4.853   6.190 -1.2045 -0.2128  1.3689
 5085SOL     OW16153   0.259   5.800   5.164  0.5796 -0.0230  0.2342
 5085SOL    HW116154   0.187   5.855   5.206 -0.8048  0.4948 -2.5508
 5085SOL    HW216155   0.233   5.704   5.168  0.5992 -0.0113  0.7741
 5086SOL     OW16156   6.338   3.510   2.018  0.4657 -0.1889 -0.0382
 5086SOL    HW116157   6.329   3.588   2.081  2.7668 -1.2632  1.7937
 5086SOL    HW216158   6.433   3.501   1.990 -0.4877  0.2874 -3.9164
 5087SOL     OW16159   1.915   2.257   4.025 -0.4688  0.1441  1.0935
 5087SOL    HW116160   1.976   2.306   3.963  1.6199 -1.3114  1.8577
 5087SOL    HW216161   1.824   2.251   3.985  0.3750  0.6928 -1.0365
 5088SOL     OW16162   4.053   6.947   4.564  0.4599 -0.3096 -0.6067
 5088SOL    HW116163   4.051   7.029   4.507 -1.5239 -0.8730 -1.4667
 5088SOL    HW216164   4.017   6.969   4.655  0.5827 -0.0806 -0.6126
 5089SOL     OW16165   3.766   0.175   2.961 -0.2110 -0.4361 -0.3205
 5089SOL    HW116166   3.666   0.174   2.965 -0.2754  0.1891 -1.3218
 5089SOL    HW216167   3.796   0.163   2.866  0.6503  0.0727 -0.1281
 5090SOL     OW16168   6.018   4.065   5.301  0.1567 -0.2397  0.4164
 5090SOL    HW116169   5.950   3.999   5.334  0.4128 -0.2874  0.8638
 5090SOL    HW216170   6.077   4.092   5.377  0.4506  0.0285  0.0948
 5091SOL     OW16171   1.726   6.063   2.719 -0.0190  0.1753  0.4335
 5091SOL    HW116172   1.808   6.027   2.763 -0.8370  0.5523  2.3693
 5091SOL    HW216173   1.725   6.034   2.623  1.8431 -0.6843  0.6167
 5092SOL     OW16174   4.076   2.653   6.916  0.1527  0.5500 -0.3475
 5092SOL    HW116175   4.171   2.622   6.917  0.0075 -0.0218 -1.6425
 5092SOL    HW216176   4.015   2.574   6.907 -0.4525  0.9250  0.2929
 5093SOL     OW16177   3.665   5.205   1.353  0.2950 -0.0273  0.6275
 5093SOL    HW116178   3.692   5.226   1.447 -0.1521  1.8245  0.3920
 5093SOL    HW216179   3.583   5.148   1.354 -1.3213  2.1247  1.4698
 5094SOL     OW16180   4.648   4.413   1.780  0.6055  0.2532  0.1569
 5094SOL    HW116181   4.723   4.375   1.727  1.6173  0.6244  1.2570
 5094SOL    HW216182   4.600   4.340   1.829  2.4269  0.2605  2.1253
 5095SOL     OW16183   6.656   0.891   5.585 -0.1625  0.1621 -0.5163
 5095SOL    HW116184   6.560   0.910   5.564 -0.4042 -1.7473 -1.2940
 5095SOL    HW216185   6.711   0.906   5.503 -0.0877 -0.6058 -0.6108
 5096SOL     OW16186   0.265   1.622   0.217 -0.1038 -0.3774  0.0006
 5096SOL    HW116187   0.261   1.524   0.234  0.2574 -0.4262 -0.1820
 5096SOL    HW216188   0.197   1.648   0.149 -2.8131  0.0891  2.6809
 5097SOL     OW16189   3.687   2.470   6.063 -0.0209 -0.1223 -0.4317
 5097SOL    HW116190   3.691   2.569   6.071  0.3677 -0.1880  0.3198
 5097SOL    HW216191   3.768   2.430   6.106 -1.1514 -0.8471  1.1331
 5098SOL     OW16192   1.509   6.174   6.123  0.2752 -0.5306  0.0969
 5098SOL    HW116193   1.430   6.226   6.089 -0.1537 -0.7189  0.8033
 5098SOL    HW216194   1.593   6.211   6.081  0.3716  2.8017  2.8034
 5099SOL     OW16195   4.799   3.125   4.831  0.5307  0.3689 -0.6607
 5099SOL    HW116196   4.775   3.032   4.859  2.8325  0.1540  0.8761
 5099SOL    HW216197   4.792   3.186   4.910  1.6159  0.9366 -0.9833
 5100SOL     OW16198   6.786   4.926   1.137 -0.1065 -0.6093 -0.2879
 5100SOL    HW116199   6.779   4.863   1.214  0.9869 -0.2056  0.1526
 5100SOL    HW216200   6.696   4.935   1.094 -0.6696 -1.0813  0.7427
 5101SOL     OW16201   3.066   4.620   5.923  0.2726  0.4378 -0.1787
 5101SOL    HW116202   3.085   4.629   5.825 -0.5932  1.3390 -0.2855
 5101SOL    HW216203   3.107   4.697   5.972  1.7609 -0.6450  0.3626
 5102SOL     OW16204   2.927   1.166   5.896 -0.1179  0.1080  0.0941
 5102SOL    HW116205   2.924   1.134   5.990 -0.4859 -0.8323 -0.2304
 5102SOL    HW216206   2.988   1.108   5.842 -1.8204 -0.9279 -0.7987
 5103SOL     OW16207   5.871   1.926   1.692 -0.5308  0.3194 -0.6924
 5103SOL    HW116208   5.792   1.869   1.665  1.5603 -3.5198  0.5064
 5103SOL    HW216209   5.934   1.933   1.614 -0.7753  1.0465 -0.8309
 5104SOL     OW16210   0.118   6.742   4.682 -0.6747  0.2822 -0.0972
 5104SOL    HW116211   0.202   6.701   4.716 -1.2886 -0.0297  1.0675
 5104SOL    HW216212   0.103   6.715   4.587 -0.5339 -1.3544  0.3326
 5105SOL     OW16213   1.177   0.219   5.407  0.6018 -0.0827 -0.2145
 5105SOL    HW116214   1.233   0.175   5.477  1.4675 -1.9035 -1.9741
 5105SOL    HW216215   1.095   0.165   5.390  0.1748  0.5799 -0.3221
 5106SOL     OW16216   0.606   4.864   4.499  0.4120 -0.2424  0.4201
 5106SOL    HW116217   0.674   4.931   4.531  0.4459 -0.7956  1.5346
 5106SOL    HW216218   0.649   4.804   4.431  0.7785 -0.0133  0.4449
 5107SOL     OW16219   5.365   4.024   5.608 -0.2063 -0.1136  0.2340
 5107SOL    HW116220   5.364   4.046   5.706 -0.9039 -2.2480  0.7664
 5107SOL    HW216221   5.447   3.971   5.587  0.4846  1.2428 -0.5965
 5108SOL     OW16222   3.070   3.389   4.920  0.0386  0.3275  0.3265
 5108SOL    HW116223   3.028   3.298   4.917 -0.8829  0.7567 -0.0324
 5108SOL    HW216224   3.170   3.379   4.928  0.0722 -0.7407 -1.0090
 5109SOL     OW16225   2.872   0.252   5.726  0.5294  0.0734 -0.0349
 5109SOL    HW116226   2.917   0.165   5.745  1.2960  0.2887 -0.8184
 5109SOL    HW216227   2.854   0.261   5.628 -0.3400  0.4200  0.1455
 5110SOL     OW16228   4.157   5.173   4.614 -1.0096 -0.0153  0.3048
 5110SOL    HW116229   4.124   5.199   4.705  0.1079 -0.1931  0.7704
 5110SOL    HW216230   4.100   5.217   4.545 -0.5531  1.8963  1.0834
 5111SOL     OW16231   3.414   2.658   0.502  0.3705  0.1457  0.2724
 5111SOL    HW116232   3.377   2.750   0.488  1.2570  0.6271  0.9614
 5111SOL    HW216233   3.474   2.634   0.425 -1.5447 -0.7580 -0.9948
 5112SOL     OW16234   2.309   1.919   4.950 -0.2656  0.2621 -0.2586
 5112SOL    HW116235   2.350   1.856   5.017  0.6451 -1.1427 -2.0645
 5112SOL    HW216236   2.371   1.996   4.935  0.3130 -0.2819 -0.7092
 5113SOL     OW16237   5.208   5.754   5.378 -0.4662  0.2229 -0.0201
 5113SOL    HW116238   5.147   5.675   5.373  0.0630 -0.2926  1.4198
 5113SOL    HW216239   5.155   5.838   5.362 -1.6389 -0.1875  1.5494
 5114SOL     OW16240   3.761   6.737   2.931  0.4654  0.5854 -0.2450
 5114SOL    HW116241   3.809   6.662   2.975  1.6739  1.8803  0.7398
 5114SOL    HW216242   3.753   6.814   2.996 -2.1732  0.7540 -0.6557
 5115SOL     OW16243   0.126   3.637   3.206 -0.1773 -0.1693  0.4765
 5115SOL    HW116244   0.052   3.574   3.232 -0.1439 -0.3961  0.0286
 5115SOL    HW216245   0.096   3.693   3.129 -0.0069 -0.0167  0.5221
 5116SOL     OW16246   5.494   4.490   6.708 -0.2298  0.1606  0.0978
 5116SOL    HW116247   5.547   4.495   6.793  0.1468  0.2742 -0.1445
 5116SOL    HW216248   5.435   4.570   6.701 -0.1132  0.2529  0.1573
 5117SOL     OW16249   4.490   6.438   5.726  0.8538 -0.2347  0.4045
 5117SOL    HW116250   4.563   6.370   5.715  1.4726  0.6285 -1.1116
 5117SOL    HW216251   4.522   6.510   5.788  1.0366 -0.2231  0.2999
 5118SOL     OW16252   6.806   6.848   5.492  0.1930 -0.1117 -0.3964
 5118SOL    HW116253   6.861   6.769   5.519  0.8442  0.7298  0.8567
 5118SOL    HW216254   6.839   6.883   5.404  2.0993  0.7121  0.5815
 5119SOL     OW16255   0.534   0.463   1.459 -0.0583 -0.7772  0.2115
 5119SOL    HW116256   0.588   0.419   1.532 -1.3869  1.0899  2.4683
 5119SOL    HW216257   0.568   0.556   1.445 -1.5476 -0.1747  0.4386
 5120SOL     OW16258   5.302   2.569   1.546 -0.0780  0.3716 -0.3367
 5120SOL    HW116259   5.271   2.497   1.484 -0.9716  1.2873 -0.9903
 5120SOL    HW216260   5.284   2.658   1.505 -0.4491  0.9996  1.1302
 5121SOL     OW16261   3.273   0.864   1.702  0.2444 -0.4107  0.6066
 5121SOL    HW116262   3.350   0.818   1.658  0.5382  1.1687 -0.5776
 5121SOL    HW216263   3.297   0.886   1.796  1.0481 -0.3730  0.3997
 5122SOL     OW16264   0.346   2.541   4.521  0.1318 -0.3396 -0.3553
 5122SOL    HW116265   0.421   2.553   4.585 -0.0959 -0.6135 -0.0328
 5122SOL    HW216266   0.276   2.611   4.538  0.2151 -0.2158 -0.5159
 5123SOL     OW16267   3.527   3.124   0.809 -0.1435 -0.2026 -0.1743
 5123SOL    HW116268   3.514   3.134   0.907  2.0939  1.1465  0.0479
 5123SOL    HW216269   3.446   3.159   0.761 -1.1761 -0.7030  1.1502
 5124SOL     OW16270   2.632   4.665   4.758  0.3403  0.4143 -0.2534
 5124SOL    HW116271   2.552   4.620   4.797 -0.1038  0.9492 -0.5220
 5124SOL    HW216272   2.714   4.638   4.808  0.1200 -0.8346 -0.5388
 5125SOL     OW16273   5.421   1.988   4.237  0.0527  0.2805 -0.3064
 5125SOL    HW116274   5.506   2.018   4.193 -0.3194  1.1500 -0.4528
 5125SOL    HW216275   5.431   1.893   4.266  0.5239 -0.1253 -1.7132
 5126SOL     OW16276   6.977   1.539   1.528 -0.0946  0.2361 -0.5245
 5126SOL    HW116277   7.004   1.605   1.457  0.5537 -0.7138 -1.2038
 5126SOL    HW216278   6.957   1.451   1.484 -0.6709 -0.0936  0.3879
 5127SOL     OW16279   4.383   4.552   2.641 -0.1602  0.4012  0.3617
 5127SOL    HW116280   4.442   4.527   2.565 -1.1943 -0.1374 -0.2863
 5127SOL    HW216281   4.333   4.471   2.673 -1.0367  0.9597  0.4523
 5128SOL     OW16282   6.563   0.800   2.732  0.1448  0.1817  0.4391
 5128SOL    HW116283   6.655   0.762   2.742 -0.5991 -1.5254  1.1993
 5128SOL    HW216284   6.497   0.739   2.775 -1.5943  0.3818 -1.8031
 5129SOL     OW16285   2.258   3.134   6.604 -0.1437 -0.2055  0.2504
 5129SOL    HW116286   2.328   3.205   6.596 -1.0604  0.7984  0.9215
 5129SOL    HW216287   2.173   3.166   6.561 -1.0274 -0.2590  1.8950
 5130SOL     OW16288   5.516   1.991   3.958  0.5866  0.4602  0.0278
 5130SOL    HW116289   5.427   2.001   3.912  0.7291  0.3983 -0.2664
 5130SOL    HW216290   5.573   2.071   3.938  1.2785 -0.3376 -1.3233
 5131SOL     OW16291   0.930   4.575   0.371  0.5671 -0.1039 -0.2079
 5131SOL    HW116292   0.832   4.572   0.389  0.3895  0.0793 -1.1036
 5131SOL    HW216293   0.955   4.501   0.308  1.4711 -1.8387  2.0201
 5132SOL     OW16294   2.764   1.068   2.660  0.3040 -0.4046  0.3429
 5132SOL    HW116295   2.774   1.117   2.747  0.9374  0.6458 -0.3008
 5132SOL    HW216296   2.701   0.991   2.673  0.2850 -0.1965  1.6940
 5133SOL     OW16297   1.181   2.958   0.062  0.2117 -0.2251  0.3386
 5133SOL    HW116298   1.117   2.913   0.124 -1.1510  1.0374 -0.1129
 5133SOL    HW216299   1.192   3.054   0.089 -0.0953  0.2411 -1.1340
 5134SOL     OW16300   3.490   4.877   0.641 -0.2440  0.0238  0.0094
 5134SOL    HW116301   3.556   4.895   0.568 -1.6006  0.4550 -1.1618
 5134SOL    HW216302   3.437   4.796   0.618  1.3621 -1.7374  2.0605
 5135SOL     OW16303   3.745   2.756   6.382 -0.4282 -0.3219 -0.2643
 5135SOL    HW116304   3.774   2.662   6.399  0.3658 -0.2712 -1.2659
 5135SOL    HW216305   3.823   2.811   6.352 -0.9927  0.5240 -0.2235
 5136SOL     OW16306   4.292   5.819   0.941  0.0303 -0.1852 -0.2076
 5136SOL    HW116307   4.199   5.797   0.912 -1.0921  2.5511  0.9472
 5136SOL    HW216308   4.292   5.841   1.039  1.9762 -0.4808 -0.0984
 5137SOL     OW16309   0.984   3.527   3.718 -0.2585  0.0015  0.6968
 5137SOL    HW116310   1.021   3.476   3.641 -1.0889 -1.2272  1.0902
 5137SOL    HW216311   1.024   3.493   3.803  0.0210  0.7793  0.8876
 5138SOL     OW16312   3.722   3.202   2.806 -0.4037 -0.1558  0.9519
 5138SOL    HW116313   3.763   3.113   2.824 -1.5572 -0.5926  1.5420
 5138SOL    HW216314   3.654   3.193   2.732 -0.2565  0.3180  0.7497
 5139SOL     OW16315   3.820   1.432   6.067 -0.0995  0.2570  0.5614
 5139SOL    HW116316   3.856   1.459   5.978 -0.6621 -0.0482  0.2375
 5139SOL    HW216317   3.833   1.334   6.080 -0.0051  0.3035  0.8216
 5140SOL     OW16318   3.205   5.014   4.768  0.1882  0.5372  0.1324
 5140SOL    HW116319   3.139   4.949   4.805 -1.6637  1.3495 -1.5286
 5140SOL    HW216320   3.211   5.002   4.669  3.8742 -0.6046  0.3481
 5141SOL     OW16321   0.709   2.313   6.356  0.1716  0.1074 -0.3319
 5141SOL    HW116322   0.807   2.318   6.334  0.1837  0.5042 -0.2006
 5141SOL    HW216323   0.655   2.329   6.274  0.2168  1.4738 -0.1167
 5142SOL     OW16324   1.307   0.589   1.151 -0.1577  0.4738 -0.2045
 5142SOL    HW116325   1.248   0.663   1.185 -0.9753  0.4832 -1.5921
 5142SOL    HW216326   1.378   0.627   1.092  1.4632  0.4930  1.6484
 5143SOL     OW16327   1.463   2.365   0.356  0.3772  0.8252 -0.2089
 5143SOL    HW116328   1.480   2.341   0.261  0.4642 -1.0756  0.2571
 5143SOL    HW216329   1.385   2.427   0.361 -1.2517 -1.0113 -1.3742
 5144SOL     OW16330   1.026   6.912   3.546  0.1835  0.4331 -0.0487
 5144SOL    HW116331   1.081   6.989   3.579  0.1374 -0.8813  3.5336
 5144SOL    HW216332   0.933   6.922   3.580  0.0109 -0.8091 -0.1499
 5145SOL     OW16333   5.297   4.787   3.011  0.0734  0.2451 -0.3615
 5145SOL    HW116334   5.244   4.854   3.064  0.8342 -0.1000  0.8659
 5145SOL    HW216335   5.234   4.731   2.956 -0.8206  0.0230  0.8470
 5146SOL     OW16336   3.017   5.864   5.693  0.2034  0.5564 -0.5115
 5146SOL    HW116337   3.038   5.773   5.657 -2.1742  0.3557 -1.6102
 5146SOL    HW216338   3.001   5.858   5.791 -0.0153 -0.2398 -0.5868
 5147SOL     OW16339   6.207   2.261   3.526 -0.5297  0.3052 -0.1329
 5147SOL    HW116340   6.243   2.195   3.460  1.1889 -0.1729  1.1911
 5147SOL    HW216341   6.162   2.213   3.601  0.3713  0.6220  0.6348
 5148SOL     OW16342   1.039   1.777   1.595 -0.2849 -1.2255  0.5267
 5148SOL    HW116343   1.068   1.723   1.516 -1.4895 -1.4679  0.2314
 5148SOL    HW216344   1.032   1.716   1.675  2.5853 -0.6905  1.3030
 5149SOL     OW16345   4.390   0.292   5.807 -0.3545  0.0907 -0.2415
 5149SOL    HW116346   4.374   0.200   5.842  3.3351  0.0298  1.8005
 5149SOL    HW216347   4.343   0.359   5.865  1.5539 -0.2963  1.8537
 5150SOL     OW16348   6.385   0.991   1.117 -0.1909  0.3223 -0.3046
 5150SOL    HW116349   6.346   1.012   1.027 -0.8683 -0.2427 -0.1482
 5150SOL    HW216350   6.415   0.896   1.120  1.1306  0.7147 -0.3845
 5151SOL     OW16351   4.208   2.610   1.695 -0.5145  0.0195 -0.1142
 5151SOL    HW116352   4.283   2.632   1.633 -0.8356 -1.5584 -1.1262
 5151SOL    HW216353   4.164   2.525   1.665 -1.8133  0.1624  1.2708
 5152SOL     OW16354   5.534   2.359   1.323 -0.1967  0.0633 -0.2275
 5152SOL    HW116355   5.590   2.321   1.397  0.1735 -0.2277 -0.6506
 5152SOL    HW216356   5.550   2.458   1.317 -1.3249  0.3520  1.0170
 5153SOL     OW16357   4.888   3.425   3.710 -0.4053  0.5808 -0.7369
 5153SOL    HW116358   4.848   3.336   3.729 -3.2417  1.6815 -0.9591
 5153SOL    HW216359   4.902   3.475   3.795 -1.9850  1.0953 -0.7303
 5154SOL     OW16360   3.721   3.259   0.696 -0.2153  0.5074  0.3380
 5154SOL    HW116361   3.709   3.357   0.715 -0.9749  0.3385  0.7683
 5154SOL    HW216362   3.647   3.208   0.739  0.0094 -0.2344 -0.1486
 5155SOL     OW16363   0.859   6.669   2.835 -0.4718  0.0513  0.6148
 5155SOL    HW116364   0.805   6.665   2.919  0.6329 -1.3912  1.3044
 5155SOL    HW216365   0.849   6.582   2.785 -0.4498  0.5779 -0.3365
 5156SOL     OW16366   1.605   1.566   1.854 -0.3803 -0.1350  0.4803
 5156SOL    HW116367   1.534   1.635   1.841 -0.8888 -0.8356 -0.6907
 5156SOL    HW216368   1.581   1.484   1.803  1.2544 -0.4201  0.1054
 5157SOL     OW16369   2.635   0.995   4.901 -0.4875  0.0416  0.0484
 5157SOL    HW116370   2.671   1.084   4.874  4.3824 -1.3973  0.8014
 5157SOL    HW216371   2.649   0.982   4.999  1.9694 -2.6175 -0.5295
 5158SOL     OW16372   5.865   2.917   6.820  0.4965 -0.1565 -0.2565
 5158SOL    HW116373   5.820   2.986   6.878  1.0583  0.7574 -0.8798
 5158SOL    HW216374   5.799   2.847   6.794  0.4461 -1.1581  2.2865
 5159SOL     OW16375   3.318   5.703   2.993  0.3992 -0.1707 -0.3403
 5159SOL    HW116376   3.305   5.683   3.090 -1.2290 -0.7461 -0.6541
 5159SOL    HW216377   3.333   5.801   2.980  1.8172 -0.2404  0.5847
 5160SOL     OW16378   1.029   3.117   3.820  0.0915 -0.2026 -0.3901
 5160SOL    HW116379   0.956   3.126   3.752 -0.7603 -1.3584  0.3465
 5160SOL    HW216380   1.083   3.035   3.800  1.0607  0.5085 -0.7821
 5161SOL     OW16381   2.651   6.599   5.582  0.9462 -0.2927  0.4059
 5161SOL    HW116382   2.688   6.525   5.527  0.7567  1.0864 -1.6765
 5161SOL    HW216383   2.567   6.568   5.627  1.1145 -1.4630 -0.0509
 5162SOL     OW16384   2.368   2.101   2.928 -0.5746  0.3923 -0.6826
 5162SOL    HW116385   2.375   2.011   2.971  1.0954  1.0289  0.4760
 5162SOL    HW216386   2.407   2.097   2.836 -0.9877 -0.1759 -0.8388
 5163SOL     OW16387   7.017   4.727   5.232 -0.4019  0.0283  0.1209
 5163SOL    HW116388   6.933   4.676   5.216  0.1786 -0.4374 -1.7550
 5163SOL    HW216389   6.995   4.822   5.256 -1.4885  0.2801 -1.6609
 5164SOL     OW16390   5.598   2.313   4.376 -0.4587  0.7106  0.5524
 5164SOL    HW116391   5.544   2.390   4.411  0.9758  1.6977  0.6847
 5164SOL    HW216392   5.594   2.312   4.276  2.6553  3.5025  0.2124
 5165SOL     OW16393   4.392   2.794   5.266  0.2893 -0.2667 -0.0926
 5165SOL    HW116394   4.298   2.763   5.266  0.8877 -2.2115  0.3704
 5165SOL    HW216395   4.420   2.816   5.360  0.7686 -1.2965  0.0185
 5166SOL     OW16396   1.361   0.122   2.022  0.0118  0.0969  0.2782
 5166SOL    HW116397   1.457   0.149   2.011  0.0091  0.0386  0.1053
 5166SOL    HW216398   1.314   0.132   1.935 -0.1873  0.3078  0.4105
 5167SOL     OW16399   4.248   1.383   6.623 -0.4715 -0.3742 -0.2564
 5167SOL    HW116400   4.216   1.473   6.593  0.4272 -0.7049 -2.4285
 5167SOL    HW216401   4.333   1.361   6.575  0.8276 -1.2407  2.2852
 5168SOL     OW16402   3.858   5.608   6.219  0.2429 -0.2625 -0.5334
 5168SOL    HW116403   3.883   5.679   6.154 -0.8575  1.1334  0.5066
 5168SOL    HW216404   3.760   5.615   6.239  0.6053 -0.4974  1.4506
 5169SOL     OW16405   2.128   2.431   0.020 -0.1790 -0.2202 -0.0609
 5169SOL    HW116406   2.029   2.443   0.006 -0.0368 -1.0813 -2.1377
 5169SOL    HW216407   2.178   2.496  -0.037  0.4781  0.1628  0.9296
 5170SOL     OW16408   3.369   1.904   1.577 -0.1519 -0.1698  0.5390
 5170SOL    HW116409   3.453   1.919   1.628  0.8067 -0.2613 -0.9413
 5170SOL    HW216410   3.362   1.973   1.504 -1.6568  0.1910  0.9928
 5171SOL     OW16411   3.172   1.079   5.012  0.1712  0.2259 -0.6812
 5171SOL    HW116412   3.122   0.996   4.987  1.0165 -0.8123  0.8985
 5171SOL    HW216413   3.127   1.122   5.091  0.3083  0.7262 -0.8714
 5172SOL     OW16414   5.760   0.610   0.402  0.5827 -0.2285  0.2468
 5172SOL    HW116415   5.810   0.590   0.487  1.2949  1.0668  0.1570
 5172SOL    HW216416   5.785   0.543   0.332  1.1908 -0.3747  0.5984
 5173SOL     OW16417   5.306   1.417   1.746 -0.2507  0.0826  0.9935
 5173SOL    HW116418   5.257   1.449   1.827 -0.3369 -0.0581  0.9970
 5173SOL    HW216419   5.273   1.326   1.721 -0.7991  0.4592  0.3206
 5174SOL     OW16420   4.959   2.380   6.586 -0.1619 -0.4697  0.1018
 5174SOL    HW116421   4.864   2.406   6.571 -0.4681  0.4129  3.0727
 5174SOL    HW216422   4.963   2.304   6.652  1.1701 -1.6720 -1.2663
 5175SOL     OW16423   1.429   6.922   5.349  0.2460  0.4317  0.1036
 5175SOL    HW116424   1.348   6.903   5.405 -0.1210  0.6059 -0.3596
 5175SOL    HW216425   1.501   6.961   5.406  0.0349  0.1892  0.5376
 5176SOL     OW16426   5.374   6.054   6.015  1.0457  0.3343  0.1535
 5176SOL    HW116427   5.393   6.047   6.113  0.9017  2.9622  0.4262
 5176SOL    HW216428   5.278   6.030   5.998  0.6724  1.2616  0.8822
 5177SOL     OW16429   2.509   0.156   6.112  0.1782 -0.1159 -0.2841
 5177SOL    HW116430   2.575   0.166   6.037  0.1771  0.8522 -0.1632
 5177SOL    HW216431   2.452   0.238   6.117 -0.2982 -0.4791  0.3242
 5178SOL     OW16432   5.604   1.560   3.968  0.4501 -0.1998 -0.2136
 5178SOL    HW116433   5.610   1.553   4.067 -0.1669  0.6709 -0.1113
 5178SOL    HW216434   5.514   1.595   3.942  1.1885  1.1961 -0.9888
 5179SOL     OW16435   6.839   3.307   1.799 -0.5289 -0.0882  0.6850
 5179SOL    HW116436   6.925   3.347   1.766 -1.1524  0.2720 -0.5381
 5179SOL    HW216437   6.782   3.280   1.722 -2.0939  0.8983  1.4449
 5180SOL     OW16438   3.450   2.381   6.344  0.2052 -0.2725 -0.4283
 5180SOL    HW116439   3.508   2.408   6.267 -0.8047 -0.8684 -1.4272
 5180SOL    HW216440   3.430   2.283   6.338 -0.4472 -0.1873  0.2097
 5181SOL     OW16441   6.661   0.639   5.302 -0.0298 -0.1149  0.6629
 5181SOL    HW116442   6.575   0.634   5.353 -0.6171 -0.2760 -0.3069
 5181SOL    HW216443   6.665   0.727   5.254  0.8749  0.3669  1.5753
 5182SOL     OW16444   3.050   0.930   1.578 -0.1226 -0.2014  0.5783
 5182SOL    HW116445   3.135   0.934   1.630  0.2494  0.8464 -0.0779
 5182SOL    HW216446   3.027   0.834   1.560 -0.1284 -0.5741  2.4128
 5183SOL     OW16447   1.213   1.996   3.075  0.3394  0.4383 -0.3141
 5183SOL    HW116448   1.293   1.971   3.128 -0.7871 -1.5013  0.5739
 5183SOL    HW216449   1.146   1.921   3.077 -1.6393  2.0923 -0.7574
 5184SOL     OW16450   3.716   2.894   0.115 -0.2505  0.1260 -0.5336
 5184SOL    HW116451   3.799   2.867   0.066 -1.2283 -0.4672 -1.9234
 5184SOL    HW216452   3.727   2.873   0.213  1.5648  0.9124 -0.5119
 5185SOL     OW16453   1.501   5.884   6.449  0.4082  0.4705  0.2443
 5185SOL    HW116454   1.458   5.873   6.359 -0.3888  2.0885  0.4006
 5185SOL    HW216455   1.438   5.851   6.520  0.1093  1.2409  0.3485
 5186SOL     OW16456   6.517   4.327   1.073 -0.2820  0.1044  0.1086
 5186SOL    HW116457   6.464   4.409   1.050 -2.6914 -1.7061 -1.3421
 5186SOL    HW216458   6.478   4.284   1.155 -1.3016 -1.3214 -1.0554
 5187SOL     OW16459   0.551   3.878   2.424  0.5918 -0.5675  0.2911
 5187SOL    HW116460   0.519   3.796   2.471  1.2168 -0.0736  1.6179
 5187SOL    HW216461   0.644   3.899   2.454  0.7904  0.0978 -0.7479
 5188SOL     OW16462   4.942   0.135   0.775 -0.6791  1.0610  0.0006
 5188SOL    HW116463   4.953   0.036   0.770 -1.5233  0.9696 -0.2228
 5188SOL    HW216464   4.892   0.167   0.694  3.9160  2.3404 -2.7402
 5189SOL     OW16465   2.965   3.868   6.922 -0.3592 -0.0088 -0.3151
 5189SOL    HW116466   2.961   3.778   6.877 -0.5685 -0.7542  1.1287
 5189SOL    HW216467   2.993   3.937   6.856  1.8445 -1.4604 -1.0291
 5190SOL     OW16468   6.306   6.328   0.116  0.1140  0.2201  0.1116
 5190SOL    HW116469   6.244   6.391   0.068  2.1001  1.9628 -0.3099
 5190SOL    HW216470   6.257   6.284   0.191 -2.2365 -0.2616 -1.5909
 5191SOL     OW16471   0.243   4.375   2.745  0.3895  0.3592 -0.9602
 5191SOL    HW116472   0.311   4.308   2.776  0.5437 -0.6132 -3.1698
 5191SOL    HW216473   0.176   4.390   2.817  0.7362 -1.7077 -0.1286
 5192SOL     OW16474   6.423   6.667   6.677 -0.3108 -0.1264 -0.1253
 5192SOL    HW116475   6.345   6.721   6.707  0.4071  0.4573  0.7535
 5192SOL    HW216476   6.403   6.626   6.588 -1.7438 -0.2922  0.2459
 5193SOL     OW16477   4.804   4.043   1.953  0.2640  0.0397  0.2827
 5193SOL    HW116478   4.746   4.063   1.874  2.3814  0.0346 -1.3683
 5193SOL    HW216479   4.810   4.123   2.012 -1.3017  0.0638  0.4477
 5194SOL     OW16480   4.307   1.860   0.420 -0.0756  0.2425  0.4077
 5194SOL    HW116481   4.381   1.920   0.452  0.4764  0.1904 -0.7186
 5194SOL    HW216482   4.221   1.887   0.463  0.2257  1.6359  0.1758
 5195SOL     OW16483   1.678   1.790   1.027 -0.3636 -0.2783 -0.1065
 5195SOL    HW116484   1.732   1.822   0.950  0.5304 -1.3794  0.0369
 5195SOL    HW216485   1.739   1.758   1.100 -1.1986 -0.2155  0.6389
 5196SOL     OW16486   1.112   0.012   3.889 -1.0313 -0.9708 -0.5694
 5196SOL    HW116487   1.114   0.104   3.928 -2.2710 -1.4428  0.7086
 5196SOL    HW216488   1.201  -0.011   3.850 -0.1829  0.1073  0.6788
 5197SOL     OW16489   0.330   4.956   5.317 -0.1222 -0.2626 -0.2971
 5197SOL    HW116490   0.330   4.885   5.388 -0.9683 -0.2352 -0.2604
 5197SOL    HW216491   0.267   5.029   5.343 -0.4685 -0.2690 -1.0989
 5198SOL     OW16492   5.279   1.951   3.772  0.6396  0.3760  0.2554
 5198SOL    HW116493   5.224   2.002   3.837  1.7155  0.0500  1.4751
 5198SOL    HW216494   5.226   1.875   3.735 -0.0367  0.6643  0.6236
 5199SOL     OW16495   2.154   5.147   6.227 -0.0524  0.2977  0.1135
 5199SOL    HW116496   2.099   5.158   6.144  0.8874  0.6752 -0.4783
 5199SOL    HW216497   2.094   5.126   6.304 -1.1230  1.6406 -0.3158
 5200SOL     OW16498   2.135   4.991   3.958 -0.0334  0.5122  0.0721
 5200SOL    HW116499   2.188   4.925   3.904  2.3690  2.2643  0.0957
 5200SOL    HW216500   2.133   4.961   4.054  1.5057  0.6562  0.1869
 5201SOL     OW16501   5.868   6.271   5.292 -0.0994  0.6540 -0.7598
 5201SOL    HW116502   5.867   6.228   5.202  0.7524  0.0799 -0.5096
 5201SOL    HW216503   5.962   6.274   5.327 -0.4770  0.3405  0.3466
 5202SOL     OW16504   1.514   1.440   3.621 -0.2196  0.7318  0.2906
 5202SOL    HW116505   1.435   1.496   3.598 -0.0201  0.0604 -2.4173
 5202SOL    HW216506   1.594   1.498   3.636 -0.2945  1.2584 -1.2354
 5203SOL     OW16507   2.641   2.327   5.697  0.2593 -0.1990 -0.3204
 5203SOL    HW116508   2.641   2.406   5.635 -1.7300  0.7950  0.8210
 5203SOL    HW216509   2.710   2.261   5.668  1.0850  1.3565 -2.0934
 5204SOL     OW16510   2.492   4.520   2.749 -0.0562 -0.4655 -0.3615
 5204SOL    HW116511   2.512   4.502   2.653 -0.5364 -0.0287 -0.5492
 5204SOL    HW216512   2.528   4.610   2.774  2.1753 -1.5181  0.5187
 5205SOL     OW16513   3.343   4.133   4.219 -0.9597 -0.2826  0.4079
 5205SOL    HW116514   3.250   4.121   4.184 -1.3753  2.7728  0.1762
 5205SOL    HW216515   3.403   4.163   4.144 -0.3488  0.1079  1.0389
 5206SOL     OW16516   0.082   4.840   1.967  0.3339 -0.4826 -0.2412
 5206SOL    HW116517   0.175   4.826   1.934  0.5799 -0.0364  0.2448
 5206SOL    HW216518   0.042   4.752   1.993  0.1738 -0.8276 -1.5952
 5207SOL     OW16519   1.348   2.051   3.490  0.3179 -0.0890 -0.1479
 5207SOL    HW116520   1.399   2.041   3.405  1.4847  0.1486  0.4928
 5207SOL    HW216521   1.408   2.090   3.560  0.3132 -3.0400  1.6518
 5208SOL     OW16522   5.530   5.172   0.852  0.2222  0.3171  0.0922
 5208SOL    HW116523   5.539   5.153   0.950  0.4283 -0.5986 -0.1003
 5208SOL    HW216524   5.490   5.264   0.840  1.8871  1.2112  1.0205
 5209SOL     OW16525   6.210   4.142   6.806 -0.3357  0.1466 -0.2673
 5209SOL    HW116526   6.310   4.149   6.806 -0.3289  0.3849 -1.8435
 5209SOL    HW216527   6.175   4.168   6.717 -1.6325 -2.5993 -0.6699
 5210SOL     OW16528   1.711   0.156   4.209 -0.1731  0.8567  0.4772
 5210SOL    HW116529   1.666   0.068   4.201 -1.0208  1.3909 -1.0999
 5210SOL    HW216530   1.794   0.157   4.154 -1.3879  1.7356 -1.4517
 5211SOL     OW16531   0.310   1.746   1.313  0.0221 -0.2803  0.3225
 5211SOL    HW116532   0.400   1.703   1.300 -0.0020 -0.1980 -0.1172
 5211SOL    HW216533   0.293   1.810   1.239  0.8752  1.9305  1.9395
 5212SOL     OW16534   6.908   1.185   5.820  0.0042 -0.5781  0.6321
 5212SOL    HW116535   6.960   1.132   5.887 -0.9818 -1.6694  0.5758
 5212SOL    HW216536   6.944   1.168   5.728  0.4213 -0.2387  0.7310
 5213SOL     OW16537   1.275   4.778   0.269 -0.2733 -1.1165  0.4591
 5213SOL    HW116538   1.216   4.859   0.270  0.9321 -0.2053  1.5145
 5213SOL    HW216539   1.365   4.803   0.233 -0.1131 -2.1761  0.1089
 5214SOL     OW16540   6.050   6.672   4.476 -0.8744 -0.0253  0.2414
 5214SOL    HW116541   6.008   6.675   4.567 -0.4796  0.6208  0.4104
 5214SOL    HW216542   5.982   6.697   4.407 -1.6404 -2.1624  0.1659
 5215SOL     OW16543   0.614   5.231   5.661 -0.2112 -0.2791  0.2849
 5215SOL    HW116544   0.704   5.188   5.672  0.5068  1.0223 -0.2459
 5215SOL    HW216545   0.549   5.163   5.628  0.3796 -1.4325  1.4129
 5216SOL     OW16546   1.828   4.777   1.050 -0.1156 -0.3099 -0.1320
 5216SOL    HW116547   1.903   4.809   0.993 -0.9060 -1.9449 -2.2459
 5216SOL    HW216548   1.778   4.705   1.002 -1.8574 -0.6527  2.0076
 5217SOL     OW16549   4.678   2.062   4.266  0.0792 -0.3199  0.4375
 5217SOL    HW116550   4.581   2.042   4.273 -0.2260  0.8435 -0.2155
 5217SOL    HW216551   4.709   2.109   4.349 -0.1454  0.1636  0.2532
 5218SOL     OW16552   2.791   6.179   1.904  0.0174  0.0711  0.2433
 5218SOL    HW116553   2.818   6.103   1.845 -2.0106 -1.3883  1.1005
 5218SOL    HW216554   2.831   6.168   1.995  1.7428  1.4248 -0.2756
 5219SOL     OW16555   1.349   6.221   1.869 -0.7816 -0.0855  0.3044
 5219SOL    HW116556   1.395   6.231   1.957 -0.5194 -0.8470  0.2612
 5219SOL    HW216557   1.371   6.300   1.811  1.1394 -0.8054 -0.0128
 5220SOL     OW16558   6.671   0.710   4.452  0.1945  0.1325  0.2095
 5220SOL    HW116559   6.655   0.611   4.446 -2.6977  0.5533 -0.5692
 5220SOL    HW216560   6.680   0.737   4.547 -1.0509 -0.6549  0.5762
 5221SOL     OW16561   2.721   6.968   4.672  0.5051  0.3253  0.0989
 5221SOL    HW116562   2.681   7.038   4.731 -1.3665 -0.7515  0.1821
 5221SOL    HW216563   2.740   7.007   4.582  1.1969  1.3746  0.6735
 5222SOL     OW16564   4.613   5.792   5.347 -0.1746 -0.1017  0.8341
 5222SOL    HW116565   4.553   5.868   5.371 -0.5329 -0.2432  0.3963
 5222SOL    HW216566   4.634   5.739   5.429 -1.5374 -0.6862  0.8337
 5223SOL     OW16567   6.997   1.104   2.049 -0.3358  0.5101 -0.5662
 5223SOL    HW116568   6.937   1.143   2.120  2.5968  1.4372  1.5882
 5223SOL    HW216569   6.995   1.163   1.968  1.0051  3.1890  1.1728
 5224SOL     OW16570   6.992   2.074   4.889  0.1460  0.6940  0.5171
 5224SOL    HW116571   6.910   2.029   4.855 -0.1943  0.1973  1.9104
 5224SOL    HW216572   6.966   2.153   4.945  0.6091  0.6123  0.8551
 5225SOL     OW16573   2.916   6.738   2.443 -0.0490  0.0428  0.9221
 5225SOL    HW116574   2.899   6.837   2.442 -2.6121 -0.3192 -0.0263
 5225SOL    HW216575   2.897   6.702   2.534 -0.6913  0.2167  0.8630
 5226SOL     OW16576   2.174   3.721   5.528  0.5272  0.4155 -0.3433
 5226SOL    HW116577   2.099   3.664   5.493 -1.0230  1.3956  1.1573
 5226SOL    HW216578   2.237   3.743   5.455 -0.5659 -0.6021 -1.6424
 5227SOL     OW16579   5.063   1.729   1.101  0.2816  0.4400  0.0375
 5227SOL    HW116580   5.150   1.735   1.052 -0.6986 -1.1466 -2.0536
 5227SOL    HW216581   4.987   1.739   1.036 -1.0965 -1.4325  1.2302
 5228SOL     OW16582   4.000   2.096   4.369 -0.1511  0.1538 -0.1422
 5228SOL    HW116583   3.934   2.105   4.295  0.7852  0.6299 -0.9463
 5228SOL    HW216584   4.078   2.157   4.352  1.1144 -1.3207  0.0821
 5229SOL     OW16585   6.577   1.582   1.703 -0.1305  0.3614 -0.1910
 5229SOL    HW116586   6.666   1.539   1.713 -0.5215 -0.5138 -0.3128
 5229SOL    HW216587   6.587   1.675   1.668  0.7697  0.5425  0.5455
 5230SOL     OW16588   4.904   4.790   6.164 -0.2568 -0.2107  0.2385
 5230SOL    HW116589   4.819   4.737   6.174 -0.8429  0.3799 -1.3013
 5230SOL    HW216590   4.974   4.731   6.124 -0.5933 -0.1394 -0.4819
 5231SOL     OW16591   6.734   0.604   1.335 -0.3688  0.2511 -0.4322
 5231SOL    HW116592   6.790   0.642   1.261  0.2969  0.3186  0.1044
 5231SOL    HW216593   6.765   0.640   1.423 -0.5085 -0.5974 -0.0238
 5232SOL     OW16594   0.460   0.984   2.461 -0.3365  0.4179 -0.4930
 5232SOL    HW116595   0.369   0.978   2.503 -0.1281 -0.9344 -0.1790
 5232SOL    HW216596   0.455   1.040   2.379 -1.4268  0.4972 -0.3850
 5233SOL     OW16597   1.076   6.922   1.296  0.5013 -0.0452  0.7779
 5233SOL    HW116598   1.159   6.974   1.317  1.0606 -0.6083  0.0119
 5233SOL    HW216599   1.083   6.831   1.336  0.4723 -0.2666  0.2767
 5234SOL     OW16600   6.858   2.757   6.651 -0.7412  0.2803  0.3181
 5234SOL    HW116601   6.798   2.689   6.607  0.1766 -0.4793  0.1985
 5234SOL    HW216602   6.838   2.847   6.614 -0.3321 -0.2686 -1.3373
 5235SOL     OW16603   0.737   5.462   5.763  0.0097 -0.6069 -0.4366
 5235SOL    HW116604   0.834   5.486   5.765 -0.3261  1.1409 -2.0957
 5235SOL    HW216605   0.718   5.405   5.682 -0.7781  1.4456 -1.7679
 5236SOL     OW16606   3.075   4.260   0.438  0.1440 -0.4051 -0.3254
 5236SOL    HW116607   3.081   4.210   0.525 -1.0028 -2.4255 -1.3310
 5236SOL    HW216608   2.979   4.273   0.414  0.4410 -0.0760 -1.3885
 5237SOL     OW16609   5.547   1.861   1.069 -0.3724  0.0241  0.2349
 5237SOL    HW116610   5.638   1.840   1.105 -0.0899 -0.0178 -0.4867
 5237SOL    HW216611   5.554   1.937   1.004 -0.9031  0.2284  0.4111
 5238SOL     OW16612   6.141   2.344   1.380 -0.4619 -0.0684 -0.3506
 5238SOL    HW116613   6.083   2.361   1.460  0.7646  0.2314  0.5191
 5238SOL    HW216614   6.227   2.394   1.391 -0.1680 -0.2411 -1.7494
 5239SOL     OW16615   5.109   3.157   0.980 -0.2447 -0.4982  0.0553
 5239SOL    HW116616   5.166   3.083   1.014  0.1715  0.2313  0.9975
 5239SOL    HW216617   5.038   3.178   1.048 -1.2893 -1.0011 -0.8398
 5240SOL     OW16618   6.443   4.995   6.420  0.0435 -0.1595 -0.2083
 5240SOL    HW116619   6.367   5.058   6.407 -1.1145 -1.5137 -0.2791
 5240SOL    HW216620   6.520   5.042   6.463 -0.4338  1.5018 -1.1110
 5241SOL     OW16621   1.665   3.439   4.176 -0.0036 -0.1795  0.1645
 5241SOL    HW116622   1.717   3.468   4.096 -0.2022  2.9644  1.0078
 5241SOL    HW216623   1.588   3.502   4.189  1.7685  1.4261  4.4915
 5242SOL     OW16624   5.685   4.490   6.939  0.1510  0.4458 -0.0374
 5242SOL    HW116625   5.775   4.510   6.978  0.0917 -0.3061  0.5025
 5242SOL    HW216626   5.617   4.485   7.012 -0.3707  1.1543 -0.4573
 5243SOL     OW16627   5.877   5.609   1.543  0.3740 -0.1066  0.2494
 5243SOL    HW116628   5.967   5.568   1.532  0.8388  0.4709  1.6522
 5243SOL    HW216629   5.851   5.608   1.640 -0.6718  0.6591 -0.0021
 5244SOL     OW16630   0.072   1.471   0.582 -0.1213 -0.0557  0.2155
 5244SOL    HW116631   0.096   1.564   0.554  0.8475 -0.3944 -0.1120
 5244SOL    HW216632   0.138   1.440   0.651  1.3397 -1.5288 -1.7274
 5245SOL     OW16633   3.379   0.933   3.123  0.4697 -0.4505 -0.5130
 5245SOL    HW116634   3.283   0.960   3.116  0.3863 -1.0009 -1.8015
 5245SOL    HW216635   3.436   1.014   3.133  0.0386  0.0698 -2.0182
 5246SOL     OW16636   6.268   0.690   0.154  0.4750 -0.0731  0.1240
 5246SOL    HW116637   6.360   0.690   0.193  0.6147  0.5272 -0.1993
 5246SOL    HW216638   6.258   0.610   0.095  0.7186 -0.2488  0.3141
 5247SOL     OW16639   1.917   2.999   4.971  0.1095  0.0854  0.0407
 5247SOL    HW116640   1.966   2.914   4.951 -0.3435 -0.3724  0.7971
 5247SOL    HW216641   1.884   3.039   4.885 -3.7478 -3.0044 -0.2053
 5248SOL     OW16642   0.183   6.200   0.820  0.3762 -0.1473 -0.5656
 5248SOL    HW116643   0.154   6.106   0.833 -2.8326  1.1166  3.2587
 5248SOL    HW216644   0.112   6.251   0.771 -0.0647  1.1819  1.3569
 5249SOL     OW16645   4.379   6.577   2.456  0.7524 -0.4458 -0.4316
 5249SOL    HW116646   4.338   6.595   2.366 -2.2576 -0.8172  0.7640
 5249SOL    HW216647   4.436   6.654   2.482 -1.5813  1.5757 -0.9598
 5250SOL     OW16648   6.703   1.582   4.225  0.0573 -0.1107 -0.0303
 5250SOL    HW116649   6.758   1.500   4.237  0.0643  0.0135  0.8736
 5250SOL    HW216650   6.750   1.644   4.162 -0.4079 -1.1880 -1.4696
 5251SOL     OW16651   5.063   5.011   6.421 -0.0517  0.3154 -0.0428
 5251SOL    HW116652   5.009   4.951   6.480  1.1831  0.3264  1.1260
 5251SOL    HW216653   5.004   5.083   6.384 -0.9399  0.0450  0.8133
 5252SOL     OW16654   0.616   3.718   0.069 -0.0043 -0.1784  0.8475
 5252SOL    HW116655   0.525   3.746   0.098  0.0538 -0.3062  1.1591
 5252SOL    HW216656   0.615   3.620   0.047 -0.5701  0.3145 -1.6684
 5253SOL     OW16657   2.502   1.598   2.969  0.5836 -0.1430 -0.3342
 5253SOL    HW116658   2.457   1.615   3.057  0.4135  0.8412 -0.6050
 5253SOL    HW216659   2.456   1.522   2.922 -1.6537  1.6371 -1.1654
 5254SOL     OW16660   2.786   4.877   2.543  0.2333 -0.1091 -0.1206
 5254SOL    HW116661   2.838   4.960   2.563  0.1562  0.1442 -0.9413
 5254SOL    HW216662   2.849   4.801   2.525  0.3169 -0.5428  1.7706
 5255SOL     OW16663   0.710   5.174   0.049 -0.0267  0.2094  0.0876
 5255SOL    HW116664   0.680   5.079   0.045 -0.3232  0.1407  2.7272
 5255SOL    HW216665   0.716   5.210  -0.044 -0.1592 -2.2783 -0.9661
 5256SOL     OW16666   0.114   2.738   2.514  0.1955  0.3796 -0.0682
 5256SOL    HW116667   0.099   2.644   2.485 -0.2334  0.4753 -0.1595
 5256SOL    HW216668   0.030   2.775   2.552  0.8618  0.0632  1.8705
 5257SOL     OW16669   2.971   6.410   2.802  0.1527 -0.1171 -0.7321
 5257SOL    HW116670   3.023   6.425   2.886  0.5798  1.3783 -1.2270
 5257SOL    HW216671   2.888   6.359   2.822  0.8322 -0.8223  0.3934
 5258SOL     OW16672   6.290   6.795   0.041 -0.0023 -0.0529 -0.5981
 5258SOL    HW116673   6.212   6.744   0.080 -1.7814 -0.4730 -4.2573
 5258SOL    HW216674   6.299   6.883   0.088 -1.5944 -0.6832  1.0312
 5259SOL     OW16675   4.750   4.080   2.984 -0.7681  0.3887 -0.4215
 5259SOL    HW116676   4.836   4.118   2.950  0.3015 -1.9505 -0.5899
 5259SOL    HW216677   4.675   4.143   2.965  0.7664  2.0813 -1.1324
 5260SOL     OW16678   0.196   2.668   2.944 -0.4670  0.4191 -0.2025
 5260SOL    HW116679   0.209   2.751   2.891 -0.4089  0.9594  0.6420
 5260SOL    HW216680   0.164   2.691   3.036  1.3932 -0.3473  0.6842
 5261SOL     OW16681   1.945   1.880   2.183  0.2478 -0.0467  0.2715
 5261SOL    HW116682   1.961   1.960   2.125  1.9302 -1.2629 -1.0484
 5261SOL    HW216683   1.857   1.839   2.159  0.1474  0.4479 -0.2221
 5262SOL     OW16684   5.405   1.341   0.932 -0.2067 -0.0350 -0.2663
 5262SOL    HW116685   5.430   1.375   1.022 -1.1957  0.0327 -0.0053
 5262SOL    HW216686   5.332   1.398   0.894  0.2264 -0.0350 -1.1312
 5263SOL     OW16687   2.521   0.049   3.157  0.2200 -0.0612  0.0132
 5263SOL    HW116688   2.551   0.001   3.075 -1.5045  1.6297 -1.7060
 5263SOL    HW216689   2.445   0.000   3.199 -0.8510  0.5994 -1.1306
 5264SOL     OW16690   3.004   0.121   1.384 -0.0232  0.0370  0.3214
 5264SOL    HW116691   3.018   0.087   1.291 -0.5164  1.8334 -0.4350
 5264SOL    HW216692   2.907   0.133   1.401  0.1295  0.9417  0.6026
 5265SOL     OW16693   5.053   4.582   0.961  0.5296 -0.7830  0.0618
 5265SOL    HW116694   5.017   4.614   1.049 -0.0631 -1.7195  0.1754
 5265SOL    HW216695   4.993   4.612   0.887  1.4778  0.7255 -0.1321
 5266SOL     OW16696   2.291   1.845   2.357  0.5813 -0.0955 -0.1464
 5266SOL    HW116697   2.207   1.799   2.385  0.2298  0.5821 -0.0525
 5266SOL    HW216698   2.366   1.779   2.354  0.0204 -0.7354 -0.3636
 5267SOL     OW16699   2.581   5.358   5.818  0.1772 -0.0563 -0.4987
 5267SOL    HW116700   2.562   5.430   5.750  0.7880  0.9317  0.3466
 5267SOL    HW216701   2.532   5.379   5.902 -0.7876 -1.4169 -0.6892
 5268SOL     OW16702   0.565   2.628   2.010  0.1132 -0.1282 -0.1167
 5268SOL    HW116703   0.614   2.632   1.923  0.3733 -1.4108 -0.0422
 5268SOL    HW216704   0.505   2.709   2.018  1.1099  0.7135 -0.8490
 5269SOL     OW16705   2.057   6.065   6.138  0.4882 -0.3942 -0.2087
 5269SOL    HW116706   1.981   6.013   6.098  0.4611  0.3701 -1.1921
 5269SOL    HW216707   2.094   6.015   6.216 -1.0747 -0.7556  0.3524
 5270SOL     OW16708   4.443   0.177   0.479 -0.0695 -0.7303  0.0234
 5270SOL    HW116709   4.344   0.180   0.483 -0.0515  2.9109  0.5380
 5270SOL    HW216710   4.479   0.136   0.563 -1.1110 -1.0482  0.3223
 5271SOL     OW16711   6.100   6.900   3.105  0.1138  0.2597 -0.3922
 5271SOL    HW116712   6.187   6.868   3.068 -0.4740  0.1144 -1.7217
 5271SOL    HW216713   6.061   6.969   3.043 -0.6880  0.3529  0.2030
 5272SOL     OW16714   2.779   2.047   3.285  0.1568 -0.1965 -0.3731
 5272SOL    HW116715   2.807   2.120   3.223  1.1563 -0.3341 -0.0908
 5272SOL    HW216716   2.688   2.014   3.258 -0.0062  0.6602 -0.9323
 5273SOL     OW16717   5.670   5.631   5.544 -0.3676  0.2360 -0.6347
 5273SOL    HW116718   5.710   5.555   5.594  2.1429  2.0125  0.3008
 5273SOL    HW216719   5.652   5.604   5.449 -0.2555 -1.6765 -0.1435
 5274SOL     OW16720   1.234   6.887   3.261  0.0517  0.0220  0.3085
 5274SOL    HW116721   1.208   6.982   3.281  0.4892 -0.2701  2.4403
 5274SOL    HW216722   1.234   6.834   3.345  0.6773 -1.6873 -0.7259
 5275SOL     OW16723   4.878   4.766   6.667 -0.5235  0.2632 -0.6336
 5275SOL    HW116724   4.826   4.790   6.584  0.7278  1.3551 -1.1358
 5275SOL    HW216725   4.861   4.834   6.738 -0.2378  0.2970 -0.5957
 5276SOL     OW16726   0.747   1.343   7.007  0.3518 -0.4524  0.3275
 5276SOL    HW116727   0.774   1.280   7.080 -0.4029 -0.3816  0.6817
 5276SOL    HW216728   0.789   1.433   7.024  0.7160 -0.6187  0.3085
 5277SOL     OW16729   3.193   0.355   5.981 -0.4337 -0.4677 -0.7504
 5277SOL    HW116730   3.277   0.353   6.035 -1.7684 -1.7923  1.4685
 5277SOL    HW216731   3.186   0.272   5.926 -0.1158 -0.1833 -1.2187
 5278SOL     OW16732   5.660   2.941   2.796  0.0755  0.0928 -0.4214
 5278SOL    HW116733   5.704   2.891   2.871  0.5656 -0.7968 -1.2879
 5278SOL    HW216734   5.594   3.005   2.834 -1.4372 -2.0011  0.7202
 5279SOL     OW16735   3.573   4.548   1.252 -0.4007  0.3572  0.2251
 5279SOL    HW116736   3.514   4.517   1.327 -2.6044  2.9631 -0.2996
 5279SOL    HW216737   3.650   4.599   1.290  1.1839 -2.3198  0.8647
 5280SOL     OW16738   6.972   5.083   2.788 -0.1796  0.2307 -0.0582
 5280SOL    HW116739   6.885   5.120   2.754  0.0541  0.1489 -0.7712
 5280SOL    HW216740   6.964   4.983   2.797  0.0045  0.1548 -0.6608
 5281SOL     OW16741   6.416   4.501   1.301  0.4845 -0.2631 -0.1444
 5281SOL    HW116742   6.418   4.405   1.327 -0.0243 -0.4360 -0.7107
 5281SOL    HW216743   6.460   4.556   1.372  2.6373 -1.0988 -0.7391
 5282SOL     OW16744   6.388   1.065   2.468 -0.4497  0.0032  0.9429
 5282SOL    HW116745   6.384   1.049   2.567 -0.0210 -0.7192  0.8537
 5282SOL    HW216746   6.297   1.086   2.434 -0.2271  3.0491  1.9124
 5283SOL     OW16747   0.714   1.280   6.749  0.7021  0.0256 -0.0369
 5283SOL    HW116748   0.723   1.293   6.848  1.2305  0.6440 -0.1579
 5283SOL    HW216749   0.629   1.324   6.718  0.4078 -0.3857  0.1744
 5284SOL     OW16750   5.204   3.754   6.438  0.0944 -0.5950 -0.4606
 5284SOL    HW116751   5.165   3.671   6.477  0.4750 -0.3311  0.5045
 5284SOL    HW216752   5.200   3.829   6.505 -0.1554  0.1463 -1.2778
 5285SOL     OW16753   3.485   0.534   4.773 -0.2064  0.0939 -0.3711
 5285SOL    HW116754   3.503   0.463   4.705  2.3527 -0.3900  0.7121
 5285SOL    HW216755   3.529   0.620   4.745  1.5650 -0.3229  0.9764
 5286SOL     OW16756   1.147   3.422   1.820  0.8159 -0.1952  0.2114
 5286SOL    HW116757   1.155   3.512   1.863  0.2145 -1.1677  2.4966
 5286SOL    HW216758   1.210   3.417   1.743  3.0814  1.1748  1.8403
 5287SOL     OW16759   6.292   1.877   4.770 -0.4682  0.3138  0.1401
 5287SOL    HW116760   6.265   1.881   4.866  0.0400  1.5251  0.2410
 5287SOL    HW216761   6.212   1.893   4.712 -0.6179  0.4167  0.3754
 5288SOL     OW16762   3.151   2.952   4.807  0.4622  0.2785  0.5014
 5288SOL    HW116763   3.187   3.045   4.798  0.8503  0.2460  1.5753
 5288SOL    HW216764   3.218   2.895   4.854  0.0605 -0.4495  0.2118
 5289SOL     OW16765   0.107   2.849   3.143  0.0921 -0.1619  0.2549
 5289SOL    HW116766   0.016   2.845   3.184 -0.9560  0.3658 -1.8790
 5289SOL    HW216767   0.105   2.908   3.062  1.6177 -2.2538 -1.4566
 5290SOL     OW16768   6.736   4.993   6.846  0.4012 -0.1089  0.2695
 5290SOL    HW116769   6.650   5.018   6.801 -0.2112 -0.2387  1.3459
 5290SOL    HW216770   6.785   5.076   6.874  1.2668  0.0120 -1.4648
 5291SOL     OW16771   5.229   3.556   0.641 -0.1412  0.0479 -0.0133
 5291SOL    HW116772   5.202   3.651   0.660 -1.6256 -0.1445 -1.0219
 5291SOL    HW216773   5.191   3.496   0.712 -1.4392 -0.0777 -0.7822
 5292SOL     OW16774   3.834   5.362   2.438 -0.3003 -0.3930 -0.2013
 5292SOL    HW116775   3.859   5.268   2.418 -0.9136 -0.6459  0.2074
 5292SOL    HW216776   3.876   5.391   2.524  1.1103  0.2088 -1.0488
 5293SOL     OW16777   1.504   3.031   0.134 -0.0134 -0.3985  0.2991
 5293SOL    HW116778   1.512   3.027   0.233 -1.3943  0.2693  0.4633
 5293SOL    HW216779   1.419   3.077   0.109  0.1899 -0.7696 -1.1984
 5294SOL     OW16780   2.310   0.439   0.999 -0.2628  0.2768  0.2756
 5294SOL    HW116781   2.401   0.431   0.958 -1.1262  0.4063 -1.7555
 5294SOL    HW216782   2.286   0.536   1.007 -1.2327  0.2385 -1.6458
 5295SOL     OW16783   0.536   1.608   0.721 -0.3606  0.1289  0.0777
 5295SOL    HW116784   0.483   1.623   0.638  0.5293 -0.1421 -0.5533
 5295SOL    HW216785   0.616   1.668   0.720  1.1974 -1.8622 -0.6437
 5296SOL     OW16786   6.475   2.183   1.932 -0.1654 -0.6627 -0.0986
 5296SOL    HW116787   6.376   2.191   1.936 -0.2789 -1.9224  0.1474
 5296SOL    HW216788   6.501   2.133   1.850  0.2637 -0.4056 -0.1221
 5297SOL     OW16789   0.793   4.774   2.169 -0.4423  0.2185 -0.4299
 5297SOL    HW116790   0.885   4.733   2.174 -0.4911  0.1891  0.3436
 5297SOL    HW216791   0.738   4.723   2.102 -0.1395 -0.2563 -0.3269
 5298SOL     OW16792   2.660   6.304   3.294  0.6021  0.2209 -0.4534
 5298SOL    HW116793   2.629   6.209   3.283  1.1675  0.1222 -1.2735
 5298SOL    HW216794   2.757   6.310   3.272  1.0719  0.6312  1.5233
 5299SOL     OW16795   5.315   3.781   4.699 -0.3712 -0.2533  0.9523
 5299SOL    HW116796   5.266   3.772   4.786  2.0533  1.1823  2.5781
 5299SOL    HW216797   5.354   3.693   4.673 -1.3509 -0.7574  1.1372
 5300SOL     OW16798   0.218   5.231   2.237  0.1080 -0.7836 -0.1930
 5300SOL    HW116799   0.173   5.287   2.307  0.6889  1.4336 -1.4698
 5300SOL    HW216800   0.156   5.158   2.209 -1.2377 -0.0373  0.6814
 5301SOL     OW16801   6.735   0.929   3.987  0.0380  0.4180 -0.1962
 5301SOL    HW116802   6.712   0.969   3.898 -0.1200  1.3027  0.2389
 5301SOL    HW216803   6.738   0.829   3.978 -0.3990  0.4724 -1.0976
 5302SOL     OW16804   6.975   6.170   2.952  0.6497 -0.4763  0.0278
 5302SOL    HW116805   6.951   6.140   3.045  0.8101  2.0066  0.9544
 5302SOL    HW216806   7.071   6.198   2.950  0.2252  1.0565 -0.4012
 5303SOL     OW16807   1.420   5.809   5.910 -0.0278 -0.2102 -0.0950
 5303SOL    HW116808   1.358   5.812   5.831 -2.9441  2.9718  2.0084
 5303SOL    HW216809   1.497   5.870   5.894 -0.1843 -0.1828 -0.7886
 5304SOL     OW16810   2.323   2.380   1.956 -0.0416 -0.2410 -0.4459
 5304SOL    HW116811   2.293   2.471   1.927  1.4927  0.7547  0.8771
 5304SOL    HW216812   2.421   2.384   1.980 -0.5838 -1.5079  2.3783
 5305SOL     OW16813   6.466   3.697   0.023 -0.0327 -0.3565  0.3465
 5305SOL    HW116814   6.535   3.632   0.056  2.2149  2.0689  0.7769
 5305SOL    HW216815   6.460   3.773   0.087 -1.6982  0.4714 -0.7398
 5306SOL     OW16816   1.052   1.223   4.463  0.3144  0.6134 -0.0914
 5306SOL    HW116817   1.049   1.275   4.548  1.6953  1.8611 -0.7570
 5306SOL    HW216818   0.958   1.204   4.433 -0.2311 -1.1145  2.3814
 5307SOL     OW16819   3.376   2.106   6.387  0.0978 -0.4429  0.3776
 5307SOL    HW116820   3.382   2.045   6.308 -0.3338  0.1304 -0.1093
 5307SOL    HW216821   3.280   2.119   6.412 -0.1064  2.2181 -1.3071
 5308SOL     OW16822   1.703   1.729   2.063 -0.1148 -0.3688  0.0144
 5308SOL    HW116823   1.657   1.655   2.014  0.3447 -0.8773  0.3385
 5308SOL    HW216824   1.721   1.805   2.000 -0.3878 -0.6181 -0.3695
 5309SOL     OW16825   5.109   4.044   3.033  0.0226 -0.0680  0.6160
 5309SOL    HW116826   5.204   4.023   3.059  0.7155  1.3115 -0.6488
 5309SOL    HW216827   5.085   3.990   2.952 -0.1462 -0.1569  0.7268
 5310SOL     OW16828   3.108   0.373   5.550 -0.3799  0.0275  0.4110
 5310SOL    HW116829   3.145   0.445   5.609 -1.2725 -0.3847  1.5045
 5310SOL    HW216830   3.010   0.365   5.565 -0.3994 -0.9680 -0.1874
 5311SOL     OW16831   6.444   1.030   5.140 -0.0471  0.2052  0.4412
 5311SOL    HW116832   6.484   1.084   5.215 -0.2764  0.1981  0.5688
 5311SOL    HW216833   6.353   1.066   5.119 -0.4775 -0.5543  0.9771
 5312SOL     OW16834   3.816   6.827   4.198 -0.3849 -0.0113  0.1906
 5312SOL    HW116835   3.805   6.878   4.113 -0.9170 -1.5835 -0.7317
 5312SOL    HW216836   3.797   6.887   4.275  0.0757  1.4495 -0.7802
 5313SOL     OW16837   5.599   1.978   5.235 -0.8803 -0.5578  0.3245
 5313SOL    HW116838   5.535   1.913   5.194 -1.5495  0.3881 -0.1667
 5313SOL    HW216839   5.688   1.933   5.246 -1.5347 -1.7997  0.7615
 5314SOL     OW16840   0.298   4.352   3.647 -0.2579  0.8197  0.1367
 5314SOL    HW116841   0.267   4.436   3.693 -3.1769 -0.6224  1.0378
 5314SOL    HW216842   0.338   4.290   3.715 -1.6260 -0.0050  0.2377
 5315SOL     OW16843   1.228   5.696   6.944 -0.3740 -0.3447  0.2957
 5315SOL    HW116844   1.262   5.774   6.891  0.0881 -1.2712 -0.8203
 5315SOL    HW216845   1.243   5.713   7.042  0.4244  0.6385  0.0230
 5316SOL     OW16846   3.238   2.673   5.683  0.0639 -0.1658 -0.6224
 5316SOL    HW116847   3.311   2.705   5.744  1.5480 -0.7282 -2.0533
 5316SOL    HW216848   3.221   2.741   5.612  0.5636 -0.8522 -1.4208
 5317SOL     OW16849   1.572   2.234   6.520 -0.0884  0.6324  0.7047
 5317SOL    HW116850   1.589   2.164   6.451 -0.2665  0.0366  1.2540
 5317SOL    HW216851   1.482   2.221   6.561 -0.3210  1.4739  0.4863
 5318SOL     OW16852   6.686   6.546   5.496 -0.0990  0.1224  0.7293
 5318SOL    HW116853   6.688   6.645   5.481  0.0024  0.4223  2.4627
 5318SOL    HW216854   6.754   6.502   5.437 -0.2368  1.0666 -0.1602
 5319SOL     OW16855   3.198   5.024   2.350  0.1855 -0.7497  0.1492
 5319SOL    HW116856   3.117   5.079   2.330  1.4014  1.1736  0.2351
 5319SOL    HW216857   3.279   5.070   2.314  1.5766 -1.0961  2.6325
 5320SOL     OW16858   5.028   0.739   3.866 -0.4458 -0.3355 -0.0155
 5320SOL    HW116859   4.981   0.679   3.802  0.6427 -0.4869 -0.6897
 5320SOL    HW216860   5.037   0.830   3.826  2.2903 -1.0001 -1.1408
 5321SOL     OW16861   2.332   5.902   6.727 -0.0508  0.4462  0.4364
 5321SOL    HW116862   2.254   5.959   6.754 -0.7892 -0.7166  0.8362
 5321SOL    HW216863   2.400   5.903   6.800  0.3974  1.5700  0.0327
 5322SOL     OW16864   5.027   0.398   1.759 -0.5682  0.5680  0.4492
 5322SOL    HW116865   5.070   0.310   1.780 -0.8824  0.7593  2.0339
 5322SOL    HW216866   4.963   0.422   1.831 -1.4186  1.5233 -0.5849
 5323SOL     OW16867   6.270   2.696   3.142  0.3090 -0.0350  0.2909
 5323SOL    HW116868   6.257   2.608   3.095  0.5640  0.0895 -0.0156
 5323SOL    HW216869   6.368   2.715   3.148  0.2890 -0.1474  1.0559
 5324SOL     OW16870   6.271   4.488   1.078  0.2346 -0.1847  0.3127
 5324SOL    HW116871   6.180   4.449   1.085  0.6237 -1.6530 -1.8208
 5324SOL    HW216872   6.306   4.507   1.170 -1.7243 -0.7157  1.2242
 5325SOL     OW16873   5.336   5.165   4.286 -0.3006 -0.3723 -0.0946
 5325SOL    HW116874   5.244   5.196   4.260 -0.8365 -0.1791  1.9171
 5325SOL    HW216875   5.353   5.187   4.382  1.2358 -1.8939  0.0208
 5326SOL     OW16876   6.122   3.956   3.136  0.1646  0.1552 -0.0461
 5326SOL    HW116877   6.218   3.971   3.111  0.8561 -3.3231 -0.0039
 5326SOL    HW216878   6.077   3.905   3.063 -0.9152 -0.4732  1.0324
 5327SOL     OW16879   3.270   1.943   5.699  0.0033 -0.4803 -1.0003
 5327SOL    HW116880   3.319   1.865   5.659  1.8741 -0.6581  1.3441
 5327SOL    HW216881   3.337   2.010   5.731 -1.3824  0.1799  0.6376
 5328SOL     OW16882   2.665   2.275   6.416  0.2480  0.5173  0.3079
 5328SOL    HW116883   2.687   2.242   6.508 -1.5939 -0.6158  0.3871
 5328SOL    HW216884   2.707   2.215   6.348  0.1286  0.3006  0.4252
 5329SOL     OW16885   0.192   6.048   1.144  0.2398  0.0439  0.3933
 5329SOL    HW116886   0.208   6.147   1.137 -0.0433  0.1707  1.4082
 5329SOL    HW216887   0.270   6.005   1.190  0.3889 -0.2195 -0.1001
 5330SOL     OW16888   3.156   3.996   4.393  0.6366  0.5404  0.5140
 5330SOL    HW116889   3.096   4.012   4.314  1.1195 -0.5298 -0.0820
 5330SOL    HW216890   3.248   4.028   4.372  0.6071  0.9223  0.9318
 5331SOL     OW16891   0.393   5.949   1.989  0.8712 -0.1457 -0.0694
 5331SOL    HW116892   0.428   5.939   2.082  0.2245  1.2034  0.3356
 5331SOL    HW216893   0.424   6.036   1.950  1.1254 -0.6841 -1.1278
 5332SOL     OW16894   3.511   5.226   4.677  0.2926 -0.0338 -0.0172
 5332SOL    HW116895   3.500   5.243   4.775 -1.4908 -2.8501  0.4208
 5332SOL    HW216896   3.447   5.283   4.626 -0.3652 -0.1301  0.6755
 5333SOL     OW16897   5.614   1.096   4.181  0.4884  1.0183 -0.1183
 5333SOL    HW116898   5.527   1.139   4.159 -0.2562 -0.6720 -0.6518
 5333SOL    HW216899   5.629   1.097   4.280 -1.3608 -0.8498  0.2429
 5334SOL     OW16900   1.704   3.953   0.865 -0.2181 -0.3724 -0.2201
 5334SOL    HW116901   1.695   4.005   0.780  0.1351 -1.0875 -0.7077
 5334SOL    HW216902   1.733   4.014   0.938  0.6002  0.0471 -0.8753
 5335SOL     OW16903   3.932   3.030   6.461  0.2686  0.2363  0.8441
 5335SOL    HW116904   3.961   3.125   6.467  0.3172  0.4004 -1.3171
 5335SOL    HW216905   3.974   2.978   6.535  0.7415  1.7619  1.6885
 5336SOL     OW16906   5.604   3.255   1.883  0.6210 -0.2833 -0.2259
 5336SOL    HW116907   5.677   3.277   1.819  0.5471 -0.2153 -0.2873
 5336SOL    HW216908   5.549   3.336   1.901 -0.4781 -0.7079 -1.5062
 5337SOL     OW16909   2.464   6.692   4.810 -0.1091  0.1037  0.1265
 5337SOL    HW116910   2.490   6.784   4.839 -0.5716  0.0837  0.6277
 5337SOL    HW216911   2.421   6.696   4.720  0.8328  0.2375 -0.3318
 5338SOL     OW16912   4.469   2.080   5.517 -0.0562 -0.4005 -0.0693
 5338SOL    HW116913   4.370   2.083   5.507 -0.3832 -2.0868  1.8760
 5338SOL    HW216914   4.500   1.985   5.517  1.6472  0.1039 -1.0708
 5339SOL     OW16915   5.382   3.884   3.368 -0.4751 -0.0486  0.0908
 5339SOL    HW116916   5.396   3.922   3.277  1.4014 -2.4128 -0.6883
 5339SOL    HW216917   5.286   3.857   3.378 -0.5024 -0.6388 -1.5519
 5340SOL     OW16918   0.454   6.469   1.151  0.5659 -0.5051 -0.1457
 5340SOL    HW116919   0.525   6.419   1.200 -0.1766 -2.5832 -1.0772
 5340SOL    HW216920   0.378   6.407   1.131 -1.3365  1.5244  0.4104
 5341SOL     OW16921   0.332   0.165   1.250  0.3420  0.0317 -0.8011
 5341SOL    HW116922   0.420   0.134   1.288  0.1455 -0.0346 -0.3941
 5341SOL    HW216923   0.317   0.261   1.275  0.9472  0.4723 -2.0558
 5342SOL     OW16924   2.846   6.635   2.688  0.1169  0.3513  0.7332
 5342SOL    HW116925   2.750   6.623   2.714 -0.5972  3.1633 -0.2133
 5342SOL    HW216926   2.899   6.556   2.718 -2.4078 -1.1254  1.6101
 5343SOL     OW16927   3.518   4.670   6.975  0.1612 -0.2062  0.3147
 5343SOL    HW116928   3.513   4.741   6.904  0.9335  0.3265  0.7771
 5343SOL    HW216929   3.598   4.686   7.032 -0.8664 -0.1674  1.8050
 5344SOL     OW16930   2.575   0.188   5.474 -0.4389  0.6559 -0.9156
 5344SOL    HW116931   2.508   0.139   5.418  0.5708 -0.3415 -1.2849
 5344SOL    HW216932   2.557   0.169   5.571 -0.6901  0.3946 -1.0127
 5345SOL     OW16933   2.953   5.909   1.432  0.3598  0.0111  0.6276
 5345SOL    HW116934   3.003   5.992   1.454  0.6684  0.3251 -1.0685
 5345SOL    HW216935   2.854   5.925   1.443  0.3657  0.8592 -0.3814
 5346SOL     OW16936   6.269   4.779   3.361 -0.2643 -0.5509 -0.4352
 5346SOL    HW116937   6.246   4.751   3.454 -3.7238  0.3429 -0.8807
 5346SOL    HW216938   6.300   4.700   3.308 -1.0004 -1.6411  0.7210
 5347SOL     OW16939   6.342   0.323   2.783 -0.3901 -0.4765  0.4374
 5347SOL    HW116940   6.280   0.391   2.744 -1.6527 -1.9316 -0.1681
 5347SOL    HW216941   6.435   0.361   2.785 -1.0771  1.3250  0.3140
 5348SOL     OW16942   5.971   5.806   5.189  0.0223 -0.0171  0.0559
 5348SOL    HW116943   5.934   5.804   5.282 -0.8167 -0.2830 -0.2752
 5348SOL    HW216944   5.932   5.730   5.136 -0.0398  0.5400 -0.7111
 5349SOL     OW16945   2.630   6.672   6.942 -0.6403 -0.3720  0.4454
 5349SOL    HW116946   2.635   6.573   6.928 -1.1270 -0.0896 -2.2294
 5349SOL    HW216947   2.672   6.718   6.864 -0.7147  1.5594  1.4972
 5350SOL     OW16948   6.826   5.066   6.343  0.1139  0.4740  0.1055
 5350SOL    HW116949   6.870   5.145   6.388 -0.0518  0.1069  0.9264
 5350SOL    HW216950   6.897   5.004   6.309  0.2432  0.6631  0.0292
 5351SOL     OW16951   2.130   4.308   6.873  0.0778  0.1207 -0.0668
 5351SOL    HW116952   2.124   4.264   6.963 -0.0590 -0.4597 -0.3590
 5351SOL    HW216953   2.150   4.240   6.803 -2.1096  0.1597 -0.8157
 5352SOL     OW16954   1.037   6.534   4.805 -0.0016  0.7361 -0.1104
 5352SOL    HW116955   1.081   6.454   4.846  0.2365 -0.1138 -1.9270
 5352SOL    HW216956   1.074   6.618   4.846  1.8198 -0.0067 -0.1404
 5353SOL     OW16957   0.541   0.035   1.364 -0.2763 -0.0836 -0.3087
 5353SOL    HW116958   0.614   0.095   1.396 -0.7926  0.1440  0.4844
 5353SOL    HW216959   0.574  -0.021   1.288  0.1259  1.4181 -1.2889
 5354SOL     OW16960   6.253   0.253   2.441 -0.3356 -0.6839  0.3019
 5354SOL    HW116961   6.302   0.205   2.514  1.3032 -0.9536 -0.9014
 5354SOL    HW216962   6.177   0.196   2.408  0.2195 -1.4899  0.3913
 5355SOL     OW16963   0.833   6.422   1.019 -0.7540 -0.2286 -0.2745
 5355SOL    HW116964   0.821   6.330   0.982  2.1213 -1.1668  0.8405
 5355SOL    HW216965   0.798   6.425   1.113  0.2624 -0.5795  0.1259
 5356SOL     OW16966   0.815   0.095   3.674 -0.3968 -0.6266  0.4494
 5356SOL    HW116967   0.785   0.059   3.585  1.0836 -3.5170  0.9862
 5356SOL    HW216968   0.848   0.189   3.663 -4.1854  0.7200 -1.1483
 5357SOL     OW16969   6.371   3.373   0.176  0.0157  0.5211 -0.3069
 5357SOL    HW116970   6.462   3.331   0.178 -0.5139 -0.8760  3.2301
 5357SOL    HW216971   6.368   3.450   0.239 -1.6982 -0.8491  1.4494
 5358SOL     OW16972   1.331   1.379   5.983  0.4418  0.4438 -0.7159
 5358SOL    HW116973   1.421   1.348   5.954  0.6874  2.0415 -1.7813
 5358SOL    HW216974   1.290   1.435   5.911 -0.5475  1.3882  0.5296
 5359SOL     OW16975   5.636   3.234   3.225  0.3329  0.0876 -0.3032
 5359SOL    HW116976   5.632   3.326   3.263  1.3184  0.3610 -0.8414
 5359SOL    HW216977   5.643   3.239   3.125 -1.1747 -0.6108 -0.4816
 5360SOL     OW16978   4.345   5.846   5.688 -0.0306 -0.1305 -0.3226
 5360SOL    HW116979   4.325   5.940   5.659 -0.8718 -0.7464 -1.8740
 5360SOL    HW216980   4.269   5.786   5.662  0.6009 -1.2923  0.4286
 5361SOL     OW16981   0.161   4.902   2.623  0.3695  0.3360 -0.0691
 5361SOL    HW116982   0.249   4.930   2.661  0.2590  0.0290  0.4401
 5361SOL    HW216983   0.157   4.802   2.620 -0.0993  0.3374  0.2682
 5362SOL     OW16984   2.537   4.875   3.661  0.5020  0.4117  0.1489
 5362SOL    HW116985   2.591   4.948   3.703 -0.6134  0.5819  1.3719
 5362SOL    HW216986   2.585   4.788   3.671  0.8610  0.6570  0.6074
 5363SOL     OW16987   5.762   6.524   1.771  0.0711  0.0031  0.3603
 5363SOL    HW116988   5.711   6.530   1.685  0.5839  0.1351  0.0642
 5363SOL    HW216989   5.698   6.536   1.847 -0.4058 -0.2256  0.0069
 5364SOL     OW16990   5.186   1.829   6.018  0.6375 -0.1509  0.0230
 5364SOL    HW116991   5.130   1.750   6.041  0.5056 -0.3568 -0.9366
 5364SOL    HW216992   5.262   1.800   5.959  0.6199  0.4170 -0.2879
 5365SOL     OW16993   5.306   3.202   5.157  0.8277 -0.0476 -0.2617
 5365SOL    HW116994   5.233   3.195   5.090 -0.2207  0.3606  0.7938
 5365SOL    HW216995   5.338   3.297   5.163  1.4494 -0.2199 -0.7072
 5366SOL     OW16996   2.340   0.372   4.569  0.3006 -0.0083 -0.2970
 5366SOL    HW116997   2.278   0.300   4.538 -1.3992  1.2824 -0.0540
 5366SOL    HW216998   2.348   0.368   4.669 -0.0604  0.3263 -0.2519
 5367SOL     OW16999   5.939   5.423   6.196  0.0158 -0.3109 -0.4925
 5367SOL    HW117000   5.917   5.351   6.262 -0.5946 -2.1244 -2.5567
 5367SOL    HW217001   6.011   5.391   6.134 -0.3950  0.8002 -1.5813
 5368SOL     OW17002   5.045   2.066   5.621 -0.4154  0.7056 -0.3615
 5368SOL    HW117003   5.053   2.075   5.720  1.7932  2.6009 -0.6036
 5368SOL    HW217004   5.084   1.978   5.592 -1.3248  0.0194  0.4486
 5369SOL     OW17005   2.665   1.333   2.517  0.0878  0.1815 -0.3246
 5369SOL    HW117006   2.660   1.419   2.467  0.7171  0.2275 -0.3196
 5369SOL    HW217007   2.715   1.266   2.462 -1.2135 -0.4753 -0.7365
 5370SOL     OW17008   1.797   2.328   1.876  0.2130  0.2048  0.4228
 5370SOL    HW117009   1.789   2.401   1.943 -3.1446  0.1110  0.2781
 5370SOL    HW217010   1.793   2.367   1.784  1.6418  0.0582  0.2750
 5371SOL     OW17011   6.803   2.619   0.593 -0.2179 -0.1289  0.3552
 5371SOL    HW117012   6.799   2.717   0.613 -2.9158 -0.2352  0.5964
 5371SOL    HW217013   6.823   2.569   0.677  2.1410  0.2057  0.0614
 5372SOL     OW17014   4.271   6.138   5.171  0.2172 -0.3029  1.0030
 5372SOL    HW117015   4.294   6.212   5.233 -0.2755 -0.0315  0.8672
 5372SOL    HW217016   4.344   6.126   5.103 -0.0616  0.5952  0.5231
 5373SOL     OW17017   5.784   5.766   3.061 -0.0513  0.4035  0.3906
 5373SOL    HW117018   5.841   5.754   2.979  0.7146  1.8975  0.6812
 5373SOL    HW217019   5.687   5.757   3.035  0.1851  0.6671 -0.6380
 5374SOL     OW17020   3.015   3.472   6.410  1.1358  0.6100 -0.2948
 5374SOL    HW117021   3.039   3.388   6.459  2.4898  0.0398 -1.8470
 5374SOL    HW217022   3.079   3.545   6.436 -1.3345  1.9666  2.7636
 5375SOL     OW17023   4.482   1.364   1.501 -0.6453  0.2337 -0.2774
 5375SOL    HW117024   4.409   1.319   1.450 -2.2091  1.6960  0.5323
 5375SOL    HW217025   4.493   1.457   1.467  0.5921  0.1556 -0.1194
 5376SOL     OW17026   0.950   1.265   5.132  0.0317  0.8519 -0.2089
 5376SOL    HW117027   0.973   1.300   5.223 -0.4092 -1.1475  0.7316
 5376SOL    HW217028   0.968   1.167   5.129  1.7855  1.1562 -2.8950
 5377SOL     OW17029   5.707   1.303   2.962  0.2441 -0.2913  0.0444
 5377SOL    HW117030   5.620   1.301   2.913  0.5729 -0.6076 -0.5438
 5377SOL    HW217031   5.721   1.393   3.002 -0.2031 -0.1401 -0.1338
 5378SOL     OW17032   4.392   4.231   5.736 -0.2892  0.1865  0.1629
 5378SOL    HW117033   4.306   4.186   5.762  0.9789 -1.0611  2.5707
 5378SOL    HW217034   4.463   4.161   5.724  0.9009  1.3048  0.4693
 5379SOL     OW17035   3.658   4.959   2.455 -0.5966 -0.3113 -0.1560
 5379SOL    HW117036   3.720   4.909   2.394 -0.5910  0.0040 -0.4131
 5379SOL    HW217037   3.711   5.016   2.517 -0.6436  0.6571 -0.9813
 5380SOL     OW17038   2.204   3.385   5.270  0.0538 -0.3170 -0.4532
 5380SOL    HW117039   2.141   3.407   5.345 -0.1876  0.5591 -0.8996
 5380SOL    HW217040   2.158   3.404   5.182  1.3916  1.7263 -0.7838
 5381SOL     OW17041   1.242   6.265   5.243 -0.1318 -0.4363  0.0922
 5381SOL    HW117042   1.163   6.302   5.293 -0.0277 -0.7182  0.4699
 5381SOL    HW217043   1.213   6.233   5.153 -0.3486 -0.0548  0.0233
 5382SOL     OW17044   4.849   3.176   3.789 -0.3586  0.5759  0.0365
 5382SOL    HW117045   4.814   3.100   3.734 -0.1043  0.2028  0.3768
 5382SOL    HW217046   4.851   3.148   3.886 -0.3353  1.0428  0.1712
 5383SOL     OW17047   6.247   0.364   1.660  0.7201 -0.1025  0.2590
 5383SOL    HW117048   6.344   0.349   1.641  0.6479 -1.1608  0.6814
 5383SOL    HW217049   6.192   0.304   1.602  0.4300 -1.8089  2.1966
 5384SOL     OW17050   5.247   5.446   5.611 -0.2117 -0.6190  0.6548
 5384SOL    HW117051   5.283   5.530   5.569 -1.2035 -0.5727 -0.1495
 5384SOL    HW217052   5.164   5.468   5.661  0.6144 -0.7940  2.1397
 5385SOL     OW17053   4.592   6.639   5.847 -0.1967 -0.5591  0.1545
 5385SOL    HW117054   4.619   6.724   5.802 -1.4245  0.0423  0.5071
 5385SOL    HW217055   4.521   6.658   5.915  0.2341 -1.7276  0.9694
 5386SOL     OW17056   6.112   2.089   3.704 -0.3794 -0.8299 -0.0148
 5386SOL    HW117057   6.171   2.092   3.785 -1.5967 -0.0001  0.8705
 5386SOL    HW217058   6.096   1.994   3.678  0.7342 -1.0820  0.1772
 5387SOL     OW17059   1.452   6.745   3.583  0.0747  0.3337  0.7760
 5387SOL    HW117060   1.354   6.747   3.565 -0.1440  0.0910  1.9065
 5387SOL    HW217061   1.470   6.697   3.669  1.3305 -1.3576 -0.3621
 5388SOL     OW17062   3.789   5.060   2.659  0.7840  0.0972  0.6082
 5388SOL    HW117063   3.870   5.099   2.703  0.7389  0.5345  0.3143
 5388SOL    HW217064   3.708   5.111   2.688  0.5798 -0.4793  1.0752
 5389SOL     OW17065   1.876   1.591   2.234  0.1193  0.2652 -0.0760
 5389SOL    HW117066   1.936   1.671   2.232 -1.3980  1.4896  1.2506
 5389SOL    HW217067   1.809   1.598   2.160 -0.0266  0.2016  0.0517
 5390SOL     OW17068   2.867   0.389   3.519 -0.5304 -0.4404 -0.1514
 5390SOL    HW117069   2.812   0.328   3.576 -0.6353  0.1329  0.3739
 5390SOL    HW217070   2.861   0.482   3.555 -0.3072 -0.1331 -0.8932
 5391SOL     OW17071   5.702   0.148   1.131  0.1704  0.2455  0.2283
 5391SOL    HW117072   5.794   0.147   1.170  0.4375  2.9474 -0.1423
 5391SOL    HW217073   5.709   0.144   1.031 -0.2308 -1.3310  0.2524
 5392SOL     OW17074   6.930   2.356   4.670  0.3625  0.1689 -0.2116
 5392SOL    HW117075   6.872   2.283   4.704  1.1336  0.3157  1.5687
 5392SOL    HW217076   6.874   2.427   4.628 -1.2060  1.6387  3.8412
 5393SOL     OW17077   1.634   0.698   3.174  0.1055  0.1224 -0.2170
 5393SOL    HW117078   1.609   0.659   3.085 -1.2832 -0.1303  0.2565
 5393SOL    HW217079   1.553   0.701   3.233  0.8667  0.8728  0.8286
 5394SOL     OW17080   5.989   6.446   5.715 -0.4117  0.5972  0.0347
 5394SOL    HW117081   5.924   6.501   5.663 -1.2593  0.5835  1.0399
 5394SOL    HW217082   6.073   6.498   5.730 -0.8098  1.2338  0.0803
 5395SOL     OW17083   4.071   1.762   0.538  0.2146 -0.2650  0.3731
 5395SOL    HW117084   4.010   1.722   0.606 -0.1877  1.6339  1.1998
 5395SOL    HW217085   4.067   1.708   0.454 -1.7580 -0.8526  0.7817
 5396SOL     OW17086   1.464   2.939   4.658  0.0025 -0.1512 -0.1591
 5396SOL    HW117087   1.431   3.032   4.671 -0.3193 -0.3616  0.5740
 5396SOL    HW217088   1.546   2.924   4.712  1.6295  0.5091 -2.3304
 5397SOL     OW17089   5.241   5.489   1.697  0.4151 -0.1933 -0.1602
 5397SOL    HW117090   5.169   5.545   1.738 -0.3426 -0.4918 -1.0580
 5397SOL    HW217091   5.318   5.482   1.761 -0.4522 -0.0900  0.9210
 5398SOL     OW17092   0.106   1.436   2.073  0.3103 -0.3905 -0.7259
 5398SOL    HW117093   0.157   1.480   1.999 -2.6584 -0.6825 -3.1578
 5398SOL    HW217094   0.013   1.472   2.076 -0.6135 -2.6269  0.8070
 5399SOL     OW17095   5.308   0.696   4.415 -0.6010  0.1745  0.0181
 5399SOL    HW117096   5.281   0.748   4.334 -0.6793 -1.7498 -1.2662
 5399SOL    HW217097   5.408   0.694   4.422 -0.5366 -0.9447 -0.9635
 5400SOL     OW17098   1.858   4.635   2.488  0.1669  0.2560  0.3575
 5400SOL    HW117099   1.948   4.605   2.517 -0.6934 -1.4311  1.4714
 5400SOL    HW217100   1.858   4.653   2.389  1.7281  0.4175  0.3708
 5401SOL     OW17101   3.668   4.941   0.456  0.3414 -0.2924 -0.2184
 5401SOL    HW117102   3.693   5.019   0.399 -0.2464  0.3939  0.4476
 5401SOL    HW217103   3.742   4.873   0.454  1.9543  1.3328  1.1069
 5402SOL     OW17104   6.892   5.132   0.512 -0.2251 -0.8106 -0.0343
 5402SOL    HW117105   6.838   5.215   0.506  0.8644 -0.1702 -1.7965
 5402SOL    HW217106   6.863   5.079   0.592 -0.8949  1.2721  1.1901
 5403SOL     OW17107   1.510   1.206   1.004 -0.3767 -0.0145 -0.4412
 5403SOL    HW117108   1.599   1.252   1.006 -0.7380  0.7041 -0.4991
 5403SOL    HW217109   1.472   1.203   1.097 -0.9571  1.0204 -0.6359
 5404SOL     OW17110   3.816   6.979   2.358 -0.1218 -0.5443  1.0763
 5404SOL    HW117111   3.830   7.041   2.435 -0.7904  1.5225 -0.3837
 5404SOL    HW217112   3.892   6.987   2.294 -0.4755 -0.8740  0.6105
 5405SOL     OW17113   6.785   4.868   2.597  0.0137 -0.1828  0.1177
 5405SOL    HW117114   6.863   4.889   2.656 -0.3491 -0.3241  0.6534
 5405SOL    HW217115   6.764   4.947   2.540  0.8377 -0.3021 -0.3630
 5406SOL     OW17116   2.031   0.512   4.675  0.3268 -0.1696  0.2722
 5406SOL    HW117117   2.069   0.420   4.686  0.7648 -0.1997 -1.2225
 5406SOL    HW217118   2.103   0.574   4.643  0.0361  0.7113  1.2694
 5407SOL     OW17119   6.712   0.063   2.365  0.8034  0.0032  0.3684
 5407SOL    HW117120   6.777  -0.009   2.391 -0.4800 -0.8494  1.2929
 5407SOL    HW217121   6.641   0.025   2.306  0.2956  0.5952  0.5863
 5408SOL     OW17122   3.762   6.610   0.856 -0.2360 -0.1646 -0.1266
 5408SOL    HW117123   3.728   6.618   0.762 -1.6327 -1.1282  0.2675
 5408SOL    HW217124   3.702   6.661   0.918  0.3772  0.0353  0.3116
 5409SOL     OW17125   5.002   3.407   1.279  0.4244  0.2719  0.2663
 5409SOL    HW117126   5.010   3.502   1.249  0.6833  0.8194  1.9443
 5409SOL    HW217127   4.945   3.403   1.361  0.0427 -1.1023 -0.0389
 5410SOL     OW17128   4.519   1.394   3.203  0.0594  0.1516  0.4691
 5410SOL    HW117129   4.565   1.453   3.136 -1.6587  0.4709 -0.4883
 5410SOL    HW217130   4.532   1.299   3.177 -0.1893  0.2547 -0.0490
 5411SOL     OW17131   1.285   6.511   2.233 -0.0067 -0.6417 -0.4517
 5411SOL    HW117132   1.308   6.415   2.249  2.3310  0.1426  1.5975
 5411SOL    HW217133   1.367   6.567   2.244 -1.3474  1.6275 -1.4118
 5412SOL     OW17134   5.865   4.215   3.173 -0.1982  0.4583  0.1661
 5412SOL    HW117135   5.954   4.213   3.219  0.7144  0.3291 -1.5514
 5412SOL    HW217136   5.802   4.273   3.226  1.1128  1.1671  1.0141
 5413SOL     OW17137   1.704   5.272   2.381  0.1000  0.5486 -0.0909
 5413SOL    HW117138   1.752   5.279   2.294 -0.2808  1.6061 -0.2257
 5413SOL    HW217139   1.695   5.363   2.422 -1.1091  0.2738  0.2858
 5414SOL     OW17140   4.136   6.590   4.022  0.0172 -0.1304  0.3263
 5414SOL    HW117141   4.143   6.679   3.977  4.3415 -0.6388 -0.3824
 5414SOL    HW217142   4.120   6.519   3.954  0.9303 -0.3253  0.3109
 5415SOL     OW17143   5.161   2.702   6.486  0.3287  0.2086 -0.2728
 5415SOL    HW117144   5.113   2.620   6.455  0.1571 -0.8619  2.5368
 5415SOL    HW217145   5.254   2.701   6.450 -0.2745 -0.1437 -1.9075
 5416SOL     OW17146   1.660   4.045   1.321 -0.4954  0.5793  0.4194
 5416SOL    HW117147   1.698   3.960   1.358  0.3644 -0.0452 -1.7019
 5416SOL    HW217148   1.560   4.039   1.319 -0.5497  0.5331  2.2672
 5417SOL     OW17149   5.831   4.939   2.346 -0.2073 -0.1983  0.1017
 5417SOL    HW117150   5.847   5.036   2.363  0.2917 -0.3323  0.3972
 5417SOL    HW217151   5.812   4.892   2.432 -1.5427 -0.1737 -0.1538
 5418SOL     OW17152   3.619   5.000   3.045 -0.1665  0.7438 -0.3011
 5418SOL    HW117153   3.555   4.983   2.970  1.2037 -1.3728 -1.0877
 5418SOL    HW217154   3.587   4.951   3.127 -0.0655  0.4919 -0.4109
 5419SOL     OW17155   4.966   4.960   4.045 -0.1481 -0.1186  0.4137
 5419SOL    HW117156   4.954   5.059   4.036 -0.4338 -0.0813  1.1313
 5419SOL    HW217157   4.880   4.914   4.021 -0.8773 -0.0248  2.5690
 5420SOL     OW17158   5.934   4.721   1.804  0.5410 -0.3760  0.0426
 5420SOL    HW117159   5.992   4.802   1.793  1.2940 -0.6552  1.5648
 5420SOL    HW217160   5.922   4.702   1.902 -1.9000 -0.5254 -0.2303
 5421SOL     OW17161   1.731   1.174   1.281 -0.0007 -0.4009  0.3855
 5421SOL    HW117162   1.634   1.157   1.300 -0.1824 -1.6485 -1.4038
 5421SOL    HW217163   1.739   1.245   1.211  0.2906 -1.1196 -0.3347
 5422SOL     OW17164   0.351   1.708   0.503 -0.8007 -0.2748  0.3274
 5422SOL    HW117165   0.297   1.775   0.554 -0.0494  0.3925  0.2869
 5422SOL    HW217166   0.330   1.717   0.405  0.5457  1.1537  0.1194
 5423SOL     OW17167   5.364   2.630   4.174 -0.1722  1.1106 -0.2805
 5423SOL    HW117168   5.374   2.563   4.248  0.0026  1.0887 -0.3223
 5423SOL    HW217169   5.275   2.674   4.181 -2.2224 -2.1832 -2.8175
 5424SOL     OW17170   0.565   3.012   2.318 -0.8404  0.0483  0.3483
 5424SOL    HW117171   0.624   3.016   2.398  0.3017 -1.2620 -0.3959
 5424SOL    HW217172   0.620   2.992   2.237 -2.3141 -1.2979 -0.3584
 5425SOL     OW17173   6.003   5.949   1.960  0.0917 -0.0946 -0.4163
 5425SOL    HW117174   6.031   6.032   1.911  0.7090  0.1580  0.3282
 5425SOL    HW217175   5.904   5.946   1.967 -0.0391 -0.2744 -1.8881
 5426SOL     OW17176   2.793   0.574   0.967 -0.6999  0.5325  0.1846
 5426SOL    HW117177   2.868   0.508   0.977  0.9795  2.1127 -1.3085
 5426SOL    HW217178   2.802   0.646   1.035  0.4725  1.8742 -1.3151
 5427SOL     OW17179   5.079   5.264   5.851 -0.5437  0.2246  0.1466
 5427SOL    HW117180   4.981   5.253   5.835 -0.2175 -0.0354 -1.9955
 5427SOL    HW217181   5.107   5.356   5.823  0.1114 -0.3086 -1.0180
 5428SOL     OW17182   4.670   4.921   3.994  0.2946 -0.1500 -1.0517
 5428SOL    HW117183   4.615   4.905   3.912  0.6893 -0.4674 -1.2596
 5428SOL    HW217184   4.612   4.911   4.075 -0.4111  1.4682 -1.3174
 5429SOL     OW17185   0.619   5.153   4.277  0.1375 -1.0941 -0.5202
 5429SOL    HW117186   0.599   5.237   4.327  2.0920 -0.7381 -0.2395
 5429SOL    HW217187   0.664   5.088   4.338 -0.2234 -1.8663 -1.0569
 5430SOL     OW17188   5.193   0.449   0.503  0.3572  0.0147 -0.0434
 5430SOL    HW117189   5.263   0.497   0.451 -0.0371  0.5431 -0.0981
 5430SOL    HW217190   5.207   0.466   0.601  0.3854  0.0088 -0.0464
 5431SOL     OW17191   0.807   4.236   2.222  0.0008  0.1023 -0.6599
 5431SOL    HW117192   0.728   4.274   2.269 -2.1444 -2.0381 -2.3016
 5431SOL    HW217193   0.846   4.162   2.278  0.7029  0.9379 -0.0051
 5432SOL     OW17194   3.138   4.140   0.675  0.5236 -0.1583  0.4381
 5432SOL    HW117195   3.077   4.092   0.738  0.5602  0.1910  0.7379
 5432SOL    HW217196   3.202   4.197   0.727  1.0990 -0.5076  0.1291
 5433SOL     OW17197   1.938   1.942   3.901 -0.5080 -0.1316 -0.1618
 5433SOL    HW117198   1.849   1.938   3.947 -0.2791 -0.8431  0.2427
 5433SOL    HW217199   1.998   2.004   3.952 -1.4951  2.3677 -1.8028
 5434SOL     OW17200   4.977   1.811   4.891 -0.2432 -0.1008  0.0336
 5434SOL    HW117201   5.009   1.898   4.928 -0.4844  0.6796 -1.4824
 5434SOL    HW217202   5.038   1.783   4.817 -1.2164 -0.2344 -0.7434
 5435SOL     OW17203   1.896   2.953   1.602 -0.6208 -0.9743  0.0548
 5435SOL    HW117204   1.931   2.860   1.610 -1.3929 -1.2866 -0.0697
 5435SOL    HW217205   1.803   2.950   1.565 -0.2489 -0.0854 -1.0035
 5436SOL     OW17206   0.322   5.604   2.625 -0.3497  0.8301 -0.2256
 5436SOL    HW117207   0.228   5.581   2.599 -0.5084  2.0788 -0.8445
 5436SOL    HW217208   0.383   5.530   2.597 -1.4274 -1.3525  2.7146
 5437SOL     OW17209   0.869   4.455   1.118 -0.1037  0.1682 -0.5910
 5437SOL    HW117210   0.916   4.525   1.064  1.2676 -0.5772 -0.4075
 5437SOL    HW217211   0.909   4.452   1.210 -2.5459  1.5813  0.6426
 5438SOL     OW17212   4.073   6.576   1.791 -0.0609 -0.4852  0.4396
 5438SOL    HW117213   4.127   6.538   1.866  1.7272  0.7698 -0.1524
 5438SOL    HW217214   4.009   6.506   1.757  0.8639 -1.8746  1.4665
 5439SOL     OW17215   2.520   2.589   6.973 -0.0205  0.4535 -0.2309
 5439SOL    HW117216   2.423   2.571   6.956 -0.0798  0.9859 -0.4784
 5439SOL    HW217217   2.563   2.624   6.889  0.4084  0.1258 -0.1512
 5440SOL     OW17218   2.366   4.478   4.104  0.6253  0.0005  0.2597
 5440SOL    HW117219   2.401   4.572   4.096 -0.8898  0.4875 -1.3304
 5440SOL    HW217220   2.348   4.442   4.012 -0.8447 -1.0585  0.9362
 5441SOL     OW17221   6.820   2.164   1.074  0.2186 -0.2307  0.2085
 5441SOL    HW117222   6.873   2.194   0.995  0.0856  2.0100  0.9119
 5441SOL    HW217223   6.755   2.236   1.100 -1.7906 -2.0691  0.6173
 5442SOL     OW17224   1.078   4.535   0.607  0.0339  0.0336  0.5828
 5442SOL    HW117225   1.144   4.460   0.620  0.0119  0.0745  0.9484
 5442SOL    HW217226   1.033   4.525   0.519  1.0784  0.4290 -0.0189
 5443SOL     OW17227   5.793   5.284   1.828  0.7459 -0.0041 -0.1252
 5443SOL    HW117228   5.883   5.275   1.785  1.4824 -1.3246  1.6022
 5443SOL    HW217229   5.799   5.350   1.903  0.1326  0.2859 -0.3268
 5444SOL     OW17230   0.127   3.107   0.273 -0.3535 -0.1734  0.5473
 5444SOL    HW117231   0.030   3.086   0.280 -0.5623 -0.3139 -1.8318
 5444SOL    HW217232   0.139   3.196   0.228  0.5756 -1.0908 -1.1350
 5445SOL     OW17233   0.172   0.183   6.430 -0.6739  0.2178 -0.4258
 5445SOL    HW117234   0.086   0.223   6.459 -0.6181 -0.6204  1.0144
 5445SOL    HW217235   0.230   0.253   6.388 -2.8391  0.3778 -3.4726
 5446SOL     OW17236   5.001   2.727   3.788 -0.6472  0.0723 -0.1416
 5446SOL    HW117237   4.923   2.781   3.757 -0.6374  0.9523  1.3232
 5446SOL    HW217238   5.085   2.777   3.771 -0.7018  1.0412  2.1629
 5447SOL     OW17239   3.302   0.783   0.626 -0.3593 -0.8394  0.0197
 5447SOL    HW117240   3.396   0.810   0.608  0.1771 -1.7494  1.2647
 5447SOL    HW217241   3.271   0.827   0.711 -0.2464 -2.2653  0.8414
 5448SOL     OW17242   0.303   2.763   2.710  0.2002 -0.3507 -0.2453
 5448SOL    HW117243   0.359   2.682   2.726 -1.2170 -1.2095  0.5805
 5448SOL    HW217244   0.227   2.740   2.650 -0.5691  0.1902  0.4948
 5449SOL     OW17245   3.094   2.866   1.881 -0.7256  0.1444  0.7551
 5449SOL    HW117246   3.191   2.862   1.858 -0.9159  0.7326 -0.1584
 5449SOL    HW217247   3.070   2.784   1.933  0.1047 -0.3393  0.4021
 5450SOL     OW17248   1.000   4.032   6.932 -0.2516 -0.3548  0.6231
 5450SOL    HW117249   1.017   4.130   6.939  1.2411 -0.3925 -1.6215
 5450SOL    HW217250   1.011   3.990   7.022  2.2442  1.0968  1.0963
 5451SOL     OW17251   2.284   6.774   2.008  0.2405  0.6118  0.7626
 5451SOL    HW117252   2.331   6.862   2.017 -0.4608  1.2095 -0.8750
 5451SOL    HW217253   2.222   6.760   2.085  2.7490 -0.0375  2.7914
 5452SOL     OW17254   5.486   0.219   3.482 -0.0419 -0.2650 -0.6166
 5452SOL    HW117255   5.523   0.299   3.435 -0.1347 -0.1831 -0.5491
 5452SOL    HW217256   5.561   0.155   3.503 -0.0438 -0.4504 -1.1640
 5453SOL     OW17257   6.370   1.467   6.614 -0.3334  0.0787  0.3045
 5453SOL    HW117258   6.395   1.562   6.634  1.8634 -0.6921  1.4660
 5453SOL    HW217259   6.433   1.429   6.546 -2.0339 -0.2007 -1.2091
 5454SOL     OW17260   3.496   1.105   1.758  0.0923 -0.1854  0.0652
 5454SOL    HW117261   3.561   1.127   1.831 -2.6427 -0.8333  2.9048
 5454SOL    HW217262   3.537   1.041   1.694  2.7652  0.7663  0.7075
 5455SOL     OW17263   4.791   4.047   4.695 -0.3233 -0.1952 -0.5941
 5455SOL    HW117264   4.762   4.080   4.785  1.7111 -0.2427  0.1295
 5455SOL    HW217265   4.878   3.998   4.703 -0.1804 -0.3690 -2.5649
 5456SOL     OW17266   5.129   4.466   5.113  0.8223 -0.2834 -0.3603
 5456SOL    HW117267   5.197   4.393   5.121  0.0465 -1.0253 -0.3445
 5456SOL    HW217268   5.089   4.463   5.021  1.1710  0.4763 -0.5409
 5457SOL     OW17269   3.299   5.713   0.948 -0.0679 -0.3877  0.3114
 5457SOL    HW117270   3.221   5.661   0.983 -1.2132  0.2285 -1.2091
 5457SOL    HW217271   3.298   5.805   0.987 -1.1423  0.1829 -0.9574
 5458SOL     OW17272   0.940   6.556   5.163  0.5325  0.3358 -0.1414
 5458SOL    HW117273   0.899   6.497   5.094  0.8009 -0.1728  0.1281
 5458SOL    HW217274   0.909   6.650   5.150 -0.5210  0.0039 -0.0997
 5459SOL     OW17275   1.469   0.291   4.745  0.0821  0.1212 -0.5541
 5459SOL    HW117276   1.371   0.288   4.725  0.2903  1.3604 -1.9380
 5459SOL    HW217277   1.506   0.380   4.718  1.3365  0.2029  1.2505
 5460SOL     OW17278   5.210   3.972   6.622  0.4706  0.8309  0.5611
 5460SOL    HW117279   5.227   3.951   6.718  0.5847  0.1813  0.4008
 5460SOL    HW217280   5.241   4.066   6.603  1.8818  0.4464  0.8081
 5461SOL     OW17281   5.695   4.556   4.273  0.2058  0.1286  0.1314
 5461SOL    HW117282   5.660   4.476   4.321 -1.6851  0.0744 -1.2618
 5461SOL    HW217283   5.634   4.634   4.289 -0.7414 -0.0052 -2.4983
 5462SOL     OW17284   2.627   5.334   5.048 -0.2181 -0.1100 -0.2442
 5462SOL    HW117285   2.529   5.315   5.059 -0.0624  0.1475  2.2434
 5462SOL    HW217286   2.650   5.418   5.098  1.5128 -0.9601  0.4680
 5463SOL     OW17287   1.584   5.998   5.543  0.4631 -0.0211  0.2620
 5463SOL    HW117288   1.492   6.034   5.558 -0.2587 -0.9794 -1.6484
 5463SOL    HW217289   1.644   6.072   5.513  0.2964  0.5539  1.2709
 5464SOL     OW17290   5.645   5.428   6.413  0.3414  0.2744  0.3458
 5464SOL    HW117291   5.594   5.344   6.434  1.4022 -1.0240 -1.9258
 5464SOL    HW217292   5.586   5.507   6.429 -0.9794 -0.9180  1.7070
 5465SOL     OW17293   6.646   2.194   6.966  0.1627 -0.3918  0.1313
 5465SOL    HW117294   6.660   2.216   6.870  1.1073  0.7563  0.5077
 5465SOL    HW217295   6.559   2.233   6.997 -1.0382 -2.2940 -0.6727
 5466SOL     OW17296   4.906   2.651   4.776 -0.3126  0.0594  0.1397
 5466SOL    HW117297   4.992   2.656   4.828 -0.8129  0.2421  0.9635
 5466SOL    HW217298   4.847   2.582   4.817 -1.6870  1.8435  1.2993
 5467SOL     OW17299   0.774   4.867   5.702  0.6308  0.0429  0.3855
 5467SOL    HW117300   0.765   4.955   5.655  1.5232 -0.0139  0.0926
 5467SOL    HW217301   0.719   4.868   5.786  0.5396  0.8341  0.3214
 5468SOL     OW17302   3.020   6.282   0.477 -0.3440 -0.6121 -0.2783
 5468SOL    HW117303   3.090   6.276   0.548  0.4043  0.0976 -0.9384
 5468SOL    HW217304   3.033   6.208   0.411  0.1721 -0.1242 -0.7326
 5469SOL     OW17305   4.135   1.847   6.192 -0.0638 -0.0178  0.0319
 5469SOL    HW117306   4.167   1.754   6.173 -0.5640 -0.1840 -0.0158
 5469SOL    HW217307   4.039   1.856   6.164 -0.2935  0.2473  0.8676
 5470SOL     OW17308   6.150   5.601   3.704  0.0456  0.6009 -0.1383
 5470SOL    HW117309   6.125   5.640   3.793  0.6294 -0.6685  0.6085
 5470SOL    HW217310   6.221   5.657   3.662 -1.1762  1.9813 -0.4632
 5471SOL     OW17311   1.073   2.984   1.355  0.2506  0.6072 -0.3939
 5471SOL    HW117312   1.171   2.967   1.362 -0.0375 -1.9028 -1.5712
 5471SOL    HW217313   1.023   2.897   1.353 -1.8748  1.7569 -1.4539
 5472SOL     OW17314   2.025   4.538   6.042  0.1440  0.3272  0.0465
 5472SOL    HW117315   2.101   4.497   5.992  0.0479 -1.0660  0.9938
 5472SOL    HW217316   2.055   4.566   6.133  0.0009  1.6542 -0.2947
 5473SOL     OW17317   5.963   2.933   1.818  0.1157  0.0967 -0.1156
 5473SOL    HW117318   5.885   2.910   1.761  0.6867 -0.3659 -0.7349
 5473SOL    HW217319   5.932   2.955   1.911 -0.7771  0.3673 -0.4649
 5474SOL     OW17320   4.643   2.301   5.739  0.4455 -0.2244 -0.7855
 5474SOL    HW117321   4.612   2.318   5.833  0.3776  2.8044 -1.2714
 5474SOL    HW217322   4.587   2.228   5.698  0.2534 -1.3701  1.3655
 5475SOL     OW17323   1.329   0.263   3.834 -0.3737  0.4528 -0.5159
 5475SOL    HW117324   1.285   0.246   3.922 -0.6701 -0.1686 -0.7776
 5475SOL    HW217325   1.421   0.224   3.834 -0.1443  0.9914 -0.2697
 5476SOL     OW17326   2.302   2.790   2.436 -0.1777  0.6379 -0.1916
 5476SOL    HW117327   2.377   2.727   2.417 -0.0526  1.2156 -1.7438
 5476SOL    HW217328   2.297   2.806   2.535  1.0660 -0.2196  0.0382
 5477SOL     OW17329   6.559   5.883   0.442  0.3356 -0.4289  0.5852
 5477SOL    HW117330   6.607   5.966   0.470 -2.3678  1.7527 -0.6185
 5477SOL    HW217331   6.495   5.856   0.513 -0.9462  0.4269 -0.1894
 5478SOL     OW17332   3.599   6.766   1.014  0.4719 -0.1752  0.0139
 5478SOL    HW117333   3.505   6.732   1.017 -0.0141  1.1037  0.1627
 5478SOL    HW217334   3.598   6.865   0.999  1.7487  0.0720  1.3220
 5479SOL     OW17335   2.611   2.028   3.946 -0.2354 -0.2783 -0.1164
 5479SOL    HW117336   2.662   2.007   4.029  0.4467 -0.9668 -0.6941
 5479SOL    HW217337   2.531   1.969   3.941 -0.8395  0.4641  0.5464
 5480SOL     OW17338   1.440   0.866   4.509 -0.0652 -0.1369  0.9473
 5480SOL    HW117339   1.454   0.768   4.524  0.9072 -0.0049  1.0166
 5480SOL    HW217340   1.510   0.900   4.445 -2.1751 -0.0532 -1.4731
 5481SOL     OW17341   5.610   0.768   1.143 -0.6611 -0.0358 -0.0207
 5481SOL    HW117342   5.581   0.674   1.125  0.4136 -0.4094  0.1512
 5481SOL    HW217343   5.530   0.828   1.140 -1.2627 -0.8439 -0.8303
 5482SOL     OW17344   1.431   2.204   4.173 -0.9746 -0.2057  0.1605
 5482SOL    HW117345   1.433   2.118   4.224 -2.9765  0.2209  1.0625
 5482SOL    HW217346   1.352   2.204   4.111  0.8591 -0.3181 -2.3250
 5483SOL     OW17347   1.785   5.541   0.186 -0.8714  0.0628 -0.4979
 5483SOL    HW117348   1.814   5.615   0.125 -2.1429  0.2005 -0.9670
 5483SOL    HW217349   1.685   5.534   0.184 -0.8449 -0.7944  0.5772
 5484SOL     OW17350   0.996   3.674   6.981 -0.4706  0.6987 -0.0737
 5484SOL    HW117351   1.032   3.608   6.916  1.3986  1.4432  0.1431
 5484SOL    HW217352   0.990   3.632   7.072 -1.2691  0.2287 -0.3384
 5485SOL     OW17353   6.258   5.769   5.784 -0.3350 -0.5899 -0.3674
 5485SOL    HW117354   6.191   5.711   5.738 -0.7033  0.5856 -1.4058
 5485SOL    HW217355   6.323   5.804   5.716  1.8804 -2.3710  0.7498
 5486SOL     OW17356   3.277   3.123   1.936  0.1805 -0.3209  0.1957
 5486SOL    HW117357   3.262   3.108   2.033 -0.9291 -2.5154 -0.2311
 5486SOL    HW217358   3.330   3.046   1.899 -0.2159  0.0028 -1.0944
 5487SOL     OW17359   1.876   3.904   6.505  0.4949  0.0863  0.3381
 5487SOL    HW117360   1.791   3.852   6.498 -0.1158  0.5259  3.2175
 5487SOL    HW217361   1.855   4.000   6.522  1.6049  0.5105 -0.5502
 5488SOL     OW17362   7.008   4.592   1.940  0.3194 -0.2678  0.1225
 5488SOL    HW117363   7.012   4.496   1.967  1.8941 -0.1767  0.3089
 5488SOL    HW217364   7.071   4.608   1.864  1.5120  0.9684  1.3019
 5489SOL     OW17365   6.327   0.847   4.397  0.1085  0.6030  1.1920
 5489SOL    HW117366   6.362   0.814   4.309 -2.4135  0.3559  0.1842
 5489SOL    HW217367   6.386   0.814   4.471 -0.2110 -3.2199 -0.0242
 5490SOL     OW17368   5.428   6.806   2.006 -0.2141 -0.2662 -0.1656
 5490SOL    HW117369   5.392   6.894   1.977  1.3546  0.3519 -0.3291
 5490SOL    HW217370   5.499   6.777   1.943 -0.4349 -1.4730  0.1161
 5491SOL     OW17371   6.598   4.848   0.750  0.3461 -0.1807 -0.1621
 5491SOL    HW117372   6.650   4.932   0.734  0.8687 -0.2441  1.1194
 5491SOL    HW217373   6.589   4.832   0.848 -0.5282 -1.1485 -0.3831
 5492SOL     OW17374   0.614   3.257   2.606 -0.0055 -0.1994  0.1280
 5492SOL    HW117375   0.569   3.346   2.604 -0.0991 -0.2282  0.7051
 5492SOL    HW217376   0.692   3.260   2.668 -0.4001 -0.6901  0.6656
 5493SOL     OW17377   3.762   3.036   4.075  0.0480 -0.9077  0.0135
 5493SOL    HW117378   3.720   3.084   4.151  0.4090 -0.4819 -0.0547
 5493SOL    HW217379   3.862   3.044   4.080  0.1195 -1.6801  0.0229
 5494SOL     OW17380   1.559   0.024   3.202 -0.8531  0.0388  0.3369
 5494SOL    HW117381   1.534   0.033   3.299 -0.1926  0.8470  0.4440
 5494SOL    HW217382   1.495   0.076   3.146 -0.8828  0.0575  0.3881
 5495SOL     OW17383   3.278   5.224   5.747  0.2109  0.4579  0.6783
 5495SOL    HW117384   3.363   5.258   5.707  0.4840 -1.2047 -0.2405
 5495SOL    HW217385   3.219   5.302   5.772  0.1783  1.6258 -2.6207
 5496SOL     OW17386   5.184   2.872   4.782 -0.8673 -0.7165 -0.8741
 5496SOL    HW117387   5.157   2.881   4.877  1.0704  0.6735 -0.3935
 5496SOL    HW217388   5.162   2.957   4.733 -1.6675 -1.3475 -1.6318
 5497SOL     OW17389   4.505   3.287   0.375  1.0344 -0.0915 -0.3218
 5497SOL    HW117390   4.526   3.355   0.305 -0.6425  0.0856 -0.6882
 5497SOL    HW217391   4.448   3.215   0.336  0.0870 -0.0071  0.8394
 5498SOL     OW17392   4.274   4.719   6.333  0.3756 -0.3215 -0.1307
 5498SOL    HW117393   4.313   4.805   6.366  0.1616  0.4936 -1.9128
 5498SOL    HW217394   4.179   4.711   6.366  0.3682  0.1651 -0.0215
 5499SOL     OW17395   3.492   5.433   6.420 -0.4241  0.0411 -0.4169
 5499SOL    HW117396   3.408   5.404   6.375 -1.0969 -2.1237  2.0077
 5499SOL    HW217397   3.473   5.453   6.516  1.5588  1.1395 -0.2080
 5500SOL     OW17398   0.034   6.438   2.165  0.7240 -0.3383  0.2057
 5500SOL    HW117399   0.088   6.428   2.082  0.8076  0.3664  0.1617
 5500SOL    HW217400   0.056   6.526   2.209 -1.6537  0.8614 -0.7712
 5501SOL     OW17401   6.593   1.243   2.371 -0.1112  0.2215  0.0331
 5501SOL    HW117402   6.655   1.260   2.447 -0.8242  1.8551  0.2978
 5501SOL    HW217403   6.525   1.175   2.397  0.7709 -0.6373  0.1703
 5502SOL     OW17404   5.660   3.746   3.648  0.1632 -0.7377  0.7345
 5502SOL    HW117405   5.613   3.834   3.651  2.8364  0.8043  0.7480
 5502SOL    HW217406   5.726   3.746   3.572  2.3531 -1.5079  2.5216
 5503SOL     OW17407   3.409   0.574   4.362  0.3763 -0.0509 -0.1428
 5503SOL    HW117408   3.349   0.575   4.282  0.8376  0.8537 -0.4905
 5503SOL    HW217409   3.502   0.599   4.335  0.5629  0.1587  0.6539
 5504SOL     OW17410   0.932   4.600   5.450  0.0118  0.2480 -0.2667
 5504SOL    HW117411   0.974   4.535   5.386 -1.0207 -2.0976  1.3065
 5504SOL    HW217412   0.987   4.604   5.534 -1.4635 -0.9206  0.8092
 5505SOL     OW17413   1.144   0.497   4.136  0.2107  0.0124 -0.3304
 5505SOL    HW117414   1.072   0.561   4.163 -0.3886 -0.9434  0.3863
 5505SOL    HW217415   1.223   0.548   4.100 -0.9281  1.0557 -1.4258
 5506SOL     OW17416   3.516   1.119   2.760  0.1449  0.1130 -0.1879
 5506SOL    HW117417   3.544   1.185   2.691  2.4527  0.0586  0.6050
 5506SOL    HW217418   3.547   1.028   2.733  1.4669  0.1575  1.0725
 5507SOL     OW17419   7.009   0.041   2.380 -0.9711  0.1892  0.3381
 5507SOL    HW117420   7.039   0.102   2.454 -0.9700  0.3158  0.2336
 5507SOL    HW217421   7.034   0.081   2.292  0.0975 -0.5141  0.2953
 5508SOL     OW17422   6.119   4.303   3.802 -0.1035 -0.1315 -0.2704
 5508SOL    HW117423   6.022   4.278   3.812  0.2861 -1.4119  0.5984
 5508SOL    HW217424   6.150   4.348   3.886  0.3774 -0.8958 -0.0316
 5509SOL     OW17425   3.653   1.267   1.203  0.4894  0.0487 -0.1281
 5509SOL    HW117426   3.580   1.319   1.248 -0.9114 -1.1381 -0.9379
 5509SOL    HW217427   3.648   1.171   1.231  1.8569 -0.0278 -0.0927
 5510SOL     OW17428   0.450   5.671   1.074 -0.1722  0.6930  0.3181
 5510SOL    HW117429   0.356   5.651   1.103  0.5858 -1.5628  1.4639
 5510SOL    HW217430   0.448   5.720   0.987 -2.4047  1.1460  0.5578
 5511SOL     OW17431   5.945   5.168   2.481 -0.0785  0.4870  0.3731
 5511SOL    HW117432   6.000   5.098   2.527  0.3919  1.1861  0.8929
 5511SOL    HW217433   6.004   5.246   2.457 -0.2449  0.0446 -1.6432
 5512SOL     OW17434   6.801   0.579   5.685 -0.2275 -0.1833  0.3006
 5512SOL    HW117435   6.790   0.492   5.636 -0.8143 -0.6617  1.2489
 5512SOL    HW217436   6.720   0.636   5.672  0.1064  0.1779 -0.2210
 5513SOL     OW17437   4.050   1.259   6.442 -0.4392 -0.4386 -0.3744
 5513SOL    HW117438   4.097   1.261   6.530  3.1114 -0.7564 -2.0646
 5513SOL    HW217439   4.013   1.349   6.422  2.6140  0.9328 -0.3625
 5514SOL     OW17440   3.851   5.880   0.063 -0.0060 -0.3746 -0.3525
 5514SOL    HW117441   3.841   5.792   0.109  0.4432  0.5449  1.6304
 5514SOL    HW217442   3.886   5.948   0.128  1.8955  0.7396 -2.3939
 5515SOL     OW17443   0.020   1.054   6.022 -0.0084 -0.1100  0.1407
 5515SOL    HW117444  -0.017   0.962   6.016  2.5780 -1.2886  0.8389
 5515SOL    HW217445   0.117   1.053   5.997  0.0230  2.4922 -0.1418
 5516SOL     OW17446   3.912   0.989   1.147  0.4252  0.6320  0.0198
 5516SOL    HW117447   3.918   1.088   1.136 -0.1900  0.7570  0.7264
 5516SOL    HW217448   3.844   0.953   1.084  1.3854  0.5072 -0.9802
 5517SOL     OW17449   1.695   1.696   5.388  0.1968  0.3899 -0.2467
 5517SOL    HW117450   1.717   1.607   5.347  0.3414  0.4023 -0.1980
 5517SOL    HW217451   1.774   1.757   5.377  1.0897 -0.2735  1.9602
 5518SOL     OW17452   1.816   5.031   0.535  0.1381 -0.1761  0.1144
 5518SOL    HW117453   1.894   4.970   0.551 -0.0526 -0.4481  0.0273
 5518SOL    HW217454   1.784   5.018   0.441 -0.3988 -0.5205  0.3373
 5519SOL     OW17455   3.892   0.617   4.776 -0.5628 -0.2360 -0.1087
 5519SOL    HW117456   3.965   0.684   4.767  0.3759 -1.0229  1.2988
 5519SOL    HW217457   3.926   0.526   4.754 -1.4016 -0.4845 -0.4363
 5520SOL     OW17458   4.556   1.918   2.825 -0.0134 -0.3315  0.2686
 5520SOL    HW117459   4.603   1.853   2.764  0.7323  0.8687 -0.4622
 5520SOL    HW217460   4.624   1.972   2.874 -0.4680  2.6227 -2.0534
 5521SOL     OW17461   0.328   6.211   4.719 -0.0038 -0.1631  0.0052
 5521SOL    HW117462   0.280   6.298   4.708  1.1454  0.5694  0.5969
 5521SOL    HW217463   0.426   6.228   4.731  0.5753 -1.6779 -2.1106
 5522SOL     OW17464   5.931   4.531   4.750 -1.1291  0.2371 -0.0115
 5522SOL    HW117465   6.013   4.559   4.700 -0.3010 -1.4748  0.3432
 5522SOL    HW217466   5.936   4.565   4.844 -0.6026 -0.2565  0.1407
 5523SOL     OW17467   4.005   3.909   3.998 -0.1121 -0.0184 -0.4986
 5523SOL    HW117468   3.951   3.993   3.992 -1.6435 -0.9275  0.1851
 5523SOL    HW217469   4.001   3.861   3.911 -1.7990 -0.8799  0.0114
 5524SOL     OW17470   5.870   2.609   5.621  0.0247 -0.1422  0.5513
 5524SOL    HW117471   5.821   2.561   5.694 -1.9214  0.0442 -0.5829
 5524SOL    HW217472   5.872   2.707   5.641 -0.5216 -0.0895  0.3584
 5525SOL     OW17473   4.363   6.419   6.623 -0.5510  0.4599  0.2004
 5525SOL    HW117474   4.422   6.498   6.639 -0.9477  0.5760  1.1714
 5525SOL    HW217475   4.309   6.401   6.705  0.1270 -1.3439  0.2995
 5526SOL     OW17476   4.625   5.276   3.478 -0.1037  0.4261  0.2448
 5526SOL    HW117477   4.683   5.256   3.557 -0.1673  0.7522  0.3736
 5526SOL    HW217478   4.539   5.317   3.509 -0.0101  0.8176 -0.0162
 5527SOL     OW17479   6.071   1.737   1.453  0.7248 -0.0142 -0.1744
 5527SOL    HW117480   5.989   1.767   1.404  0.2372 -1.5947 -0.3666
 5527SOL    HW217481   6.142   1.807   1.444 -1.1608  2.3036  1.5617
 5528SOL     OW17482   5.121   4.641   3.427  0.1206 -0.7247 -0.0271
 5528SOL    HW117483   5.199   4.582   3.405  1.5010  1.5504 -1.5532
 5528SOL    HW217484   5.100   4.632   3.525  0.1189 -3.8105 -0.1952
 5529SOL     OW17485   4.844   1.023   5.746  0.2147 -0.1591  0.4672
 5529SOL    HW117486   4.748   1.035   5.720  0.4456  0.3778 -0.1575
 5529SOL    HW217487   4.902   1.084   5.692  0.7110  1.1255  2.3442
 5530SOL     OW17488   3.057   2.088   2.028  0.2353  0.2324  0.1995
 5530SOL    HW117489   2.998   2.023   1.980  0.1572 -0.1192  0.7712
 5530SOL    HW217490   3.012   2.178   2.030  0.5237  0.4267 -0.9532
 5531SOL     OW17491   0.826   2.207   4.362  0.8303 -0.0893 -0.5092
 5531SOL    HW117492   0.870   2.293   4.387  2.0676 -0.4048 -1.5466
 5531SOL    HW217493   0.879   2.161   4.291  0.2520 -1.7721  0.1043
 5532SOL     OW17494   0.537   0.958   2.933  0.8117  0.5975 -0.5112
 5532SOL    HW117495   0.448   0.914   2.946 -0.4737  2.8676 -1.2101
 5532SOL    HW217496   0.607   0.887   2.926 -0.6875 -1.2327  1.4665
 5533SOL     OW17497   1.461   3.929   4.259  0.4509 -0.1007 -0.0073
 5533SOL    HW117498   1.464   3.993   4.336 -1.0014  0.2137 -0.1776
 5533SOL    HW217499   1.536   3.863   4.268  1.5725  1.1992  0.5208
 5534SOL     OW17500   0.880   4.806   5.098  0.2469 -0.3029 -0.1517
 5534SOL    HW117501   0.873   4.901   5.068  0.0407 -0.2432  0.0811
 5534SOL    HW217502   0.835   4.796   5.187 -0.3459 -0.7684 -0.5008
 5535SOL     OW17503   1.484   1.209   6.226  0.1432 -0.6442 -0.3953
 5535SOL    HW117504   1.477   1.307   6.246 -0.8959 -1.0507  1.4503
 5535SOL    HW217505   1.407   1.182   6.167  0.7258 -0.2840 -1.3541
 5536SOL     OW17506   2.273   6.830   6.403 -0.3680 -0.0114  0.2870
 5536SOL    HW117507   2.213   6.797   6.330  1.4205 -2.9060 -0.0219
 5536SOL    HW217508   2.366   6.836   6.369  0.1335  0.8346  1.7345
 5537SOL     OW17509   0.861   1.514   6.728  0.5596 -0.1545  0.1012
 5537SOL    HW117510   0.818   1.427   6.752 -1.4163  0.4517 -1.0652
 5537SOL    HW217511   0.821   1.588   6.783  0.3510  0.3831 -0.7665
 5538SOL     OW17512   4.833   4.477   6.422 -0.6114  0.3401  0.4039
 5538SOL    HW117513   4.762   4.433   6.477 -0.2106  3.3851  3.7379
 5538SOL    HW217514   4.794   4.551   6.367 -0.3318  0.6145  0.5665
 5539SOL     OW17515   6.556   0.532   3.706 -0.7328  0.4300 -0.2651
 5539SOL    HW117516   6.481   0.496   3.762  0.7752  0.7280  2.0742
 5539SOL    HW217517   6.591   0.459   3.647 -0.6254 -0.7018  1.1432
 5540SOL     OW17518   4.320   1.002   3.362 -0.2029 -0.3270  1.1709
 5540SOL    HW117519   4.320   0.989   3.263 -0.0779  0.8528  1.0052
 5540SOL    HW217520   4.401   1.053   3.389 -0.4733 -0.2354  1.8244
 5541SOL     OW17521   5.495   0.347   0.245  0.2940  0.5657 -0.1310
 5541SOL    HW117522   5.444   0.262   0.258 -0.2155  0.7965 -0.6007
 5541SOL    HW217523   5.525   0.353   0.149 -0.5782  1.4076 -0.3652
 5542SOL     OW17524   5.357   5.838   3.426  0.4638  0.1589  0.5303
 5542SOL    HW117525   5.419   5.889   3.485  0.7521 -0.5372  0.8375
 5542SOL    HW217526   5.351   5.882   3.336  3.6466 -1.2663 -0.5189
 5543SOL     OW17527   3.873   2.565   0.334 -0.1148  0.3802  0.6361
 5543SOL    HW117528   3.944   2.567   0.263  2.0115 -1.1785  2.5726
 5543SOL    HW217529   3.819   2.482   0.325 -2.1026  1.7585 -1.0885
 5544SOL     OW17530   4.302   4.706   5.880  0.1812  0.5263  0.5785
 5544SOL    HW117531   4.217   4.758   5.889  0.2806  0.8358 -0.2142
 5544SOL    HW217532   4.329   4.702   5.784  0.6902 -0.1754  0.7443
 5545SOL     OW17533   3.561   6.575   1.330  0.3816  0.4391 -0.1642
 5545SOL    HW117534   3.634   6.578   1.261  0.9080  0.1476  0.3680
 5545SOL    HW217535   3.519   6.485   1.330 -0.6187  0.8756 -1.0981
 5546SOL     OW17536   5.157   0.311   6.136  0.2529  0.4686  0.0949
 5546SOL    HW117537   5.248   0.278   6.158  0.1944  0.8439  0.9370
 5546SOL    HW217538   5.154   0.410   6.146 -0.7808  0.2744  2.1300
 5547SOL     OW17539   4.017   3.097   6.009 -0.0158 -0.2360 -0.1131
 5547SOL    HW117540   4.099   3.070   6.059 -0.3904 -0.2720  0.5017
 5547SOL    HW217541   4.022   3.064   5.915  1.2618  0.8876 -0.4707
 5548SOL     OW17542   6.439   5.959   1.997  1.0033  0.0396 -0.1515
 5548SOL    HW117543   6.448   6.002   2.087 -0.5087  4.6699 -1.9088
 5548SOL    HW217544   6.370   5.887   2.001  1.9327 -0.7984  2.5970
 5549SOL     OW17545   3.247   1.066   2.718 -0.6148  1.2258 -0.2899
 5549SOL    HW117546   3.345   1.076   2.735 -0.5843  0.7401 -0.1893
 5549SOL    HW217547   3.196   1.114   2.790 -0.4812 -0.5035  1.0055
 5550SOL     OW17548   0.440   5.751   5.975  0.3650  0.4403 -0.1998
 5550SOL    HW117549   0.395   5.662   5.985  1.0270  0.0917 -0.2195
 5550SOL    HW217550   0.530   5.738   5.934  0.6249  1.0819  0.1483
 5551SOL     OW17551   6.379   1.360   3.290 -0.6011  0.5914 -0.1244
 5551SOL    HW117552   6.322   1.352   3.371 -3.1889  1.7581 -1.6989
 5551SOL    HW217553   6.343   1.301   3.217  1.4673 -0.2033 -0.5886
 5552SOL     OW17554   4.299   6.118   1.121 -0.6207 -0.3476  0.6681
 5552SOL    HW117555   4.368   6.155   1.058 -0.7316 -1.3939 -0.0930
 5552SOL    HW217556   4.277   6.187   1.190  0.7115  0.2272  0.5404
 5553SOL     OW17557   1.304   3.223   0.080 -0.3144  0.4932  0.2130
 5553SOL    HW117558   1.358   3.297   0.121  2.0482 -0.1792 -1.4392
 5553SOL    HW217559   1.234   3.261   0.020  1.2146  1.4780 -1.0374
 5554SOL     OW17560   3.399   5.499   6.715 -0.3596  0.3139  0.3249
 5554SOL    HW117561   3.331   5.512   6.787  0.7213  0.4944  1.3435
 5554SOL    HW217562   3.433   5.405   6.717 -2.3174 -0.5245 -1.7935
 5555SOL     OW17563   2.908   6.407   3.564 -0.4408  0.2121  0.0838
 5555SOL    HW117564   2.816   6.442   3.544 -0.6573 -0.2253  0.3105
 5555SOL    HW217565   2.902   6.330   3.627  0.2180  1.3771  1.6305
 5556SOL     OW17566   3.920   5.818   4.423 -0.5607  0.2111 -0.4850
 5556SOL    HW117567   3.875   5.738   4.385  1.5989 -0.8483 -0.9713
 5556SOL    HW217568   3.954   5.797   4.515 -0.2831  0.7006 -0.4689
 5557SOL     OW17569   5.879   3.329   4.235  0.2673  0.4955 -0.0292
 5557SOL    HW117570   5.901   3.393   4.310  1.9999  1.5962 -1.3952
 5557SOL    HW217571   5.921   3.240   4.255  0.9995  0.8731  0.1765
 5558SOL     OW17572   2.928   4.872   2.138 -0.2149  0.2341  0.0050
 5558SOL    HW117573   2.918   4.780   2.099 -1.1306  0.5766 -0.6087
 5558SOL    HW217574   2.907   4.869   2.236 -0.4354 -0.1828 -0.0518
 5559SOL     OW17575   4.965   3.152   3.180 -0.1816  0.6536  0.5825
 5559SOL    HW117576   5.015   3.124   3.262  1.8929  0.4731 -0.6705
 5559SOL    HW217577   4.899   3.224   3.204 -0.3110 -0.0464  2.5322
 5560SOL     OW17578   1.461   3.818   3.044 -0.1239  0.5067 -0.5306
 5560SOL    HW117579   1.478   3.914   3.064  2.0329  0.0360  0.2121
 5560SOL    HW217580   1.513   3.791   2.963  0.3741 -0.3308  0.0525
 5561SOL     OW17581   4.131   5.765   4.049 -0.4639 -0.0723  0.1960
 5561SOL    HW117582   4.179   5.709   3.982 -1.1151 -0.6996  0.2381
 5561SOL    HW217583   4.103   5.851   4.005 -0.3383 -0.2084 -0.1587
 5562SOL     OW17584   5.424   4.684   6.942  1.0455  0.4456  0.6540
 5562SOL    HW117585   5.448   4.624   7.018  1.6884  0.9884  0.8903
 5562SOL    HW217586   5.347   4.644   6.891  1.2100 -0.3789  1.0285
 5563SOL     OW17587   1.398   0.039   4.647  0.3933  0.0632 -0.0942
 5563SOL    HW117588   1.443   0.126   4.668  1.0964 -0.3014 -0.0551
 5563SOL    HW217589   1.388  -0.015   4.730  2.1105 -0.8778 -0.4346
 5564SOL     OW17590   6.198   6.036   0.146 -0.0571  0.0624 -0.8519
 5564SOL    HW117591   6.136   6.108   0.175 -0.9231 -0.3519 -1.6102
 5564SOL    HW217592   6.153   5.947   0.156  1.2774 -0.4668  0.8327
 5565SOL     OW17593   6.077   0.273   6.136  0.0514  0.1974  0.6414
 5565SOL    HW117594   6.133   0.240   6.212 -0.4490 -1.7491  0.2224
 5565SOL    HW217595   5.983   0.241   6.148 -0.1397  0.2788 -0.5421
 5566SOL     OW17596   6.606   3.538   5.614 -0.3497 -0.3956 -0.0830
 5566SOL    HW117597   6.630   3.580   5.526 -0.9989  1.9060  0.7758
 5566SOL    HW217598   6.688   3.499   5.656  1.0783  2.8778  0.4990
 5567SOL     OW17599   6.187   1.578   0.915  0.9423  0.0516  0.1516
 5567SOL    HW117600   6.121   1.650   0.892  2.0831  1.2497  0.5174
 5567SOL    HW217601   6.269   1.619   0.954  2.3681 -1.3100 -1.2682
 5568SOL     OW17602   3.591   6.140   1.568 -0.3402 -0.0685  0.0471
 5568SOL    HW117603   3.582   6.212   1.637  0.0623 -0.0336  0.0678
 5568SOL    HW217604   3.664   6.164   1.504  0.8201 -1.1331  0.9217
 5569SOL     OW17605   3.519   0.649   6.826 -0.4919 -0.5223 -0.4239
 5569SOL    HW117606   3.458   0.570   6.826 -1.2397  0.0494 -0.1512
 5569SOL    HW217607   3.507   0.701   6.742 -0.4366 -0.3617 -0.3323
 5570SOL     OW17608   5.136   1.070   0.732 -0.1079  0.3911 -0.1138
 5570SOL    HW117609   5.180   1.160   0.737 -1.5558  1.1860 -0.7374
 5570SOL    HW217610   5.137   1.038   0.637 -2.5972  1.4178 -0.5829
 5571SOL     OW17611   3.019   4.654   1.209  0.5896  0.3820 -0.0756
 5571SOL    HW117612   2.926   4.689   1.219 -0.7294 -2.3274 -1.6889
 5571SOL    HW217613   3.058   4.635   1.299 -1.1738 -0.1892  0.6089
 5572SOL     OW17614   1.194   5.031   0.288 -0.2108  0.4546  0.1725
 5572SOL    HW117615   1.147   5.104   0.237  0.5190  1.3000  0.6676
 5572SOL    HW217616   1.243   5.072   0.365 -2.0227 -0.8877  2.1339
 5573SOL     OW17617   1.108   6.259   2.920  0.1683  0.7063 -0.5194
 5573SOL    HW117618   1.105   6.328   2.848  0.9206  1.9497  0.6109
 5573SOL    HW217619   1.176   6.285   2.989  2.2052 -2.2596 -1.1886
 5574SOL     OW17620   5.872   1.663   3.935  0.3422 -0.0386 -0.8436
 5574SOL    HW117621   5.775   1.642   3.946  0.5166 -0.7664 -0.6480
 5574SOL    HW217622   5.883   1.761   3.917 -0.4636 -0.0423 -1.4217
 5575SOL     OW17623   5.512   4.674   5.446 -0.3093 -0.6044 -0.1181
 5575SOL    HW117624   5.545   4.609   5.515  0.2060  0.8354  1.0449
 5575SOL    HW217625   5.490   4.761   5.490 -4.5985 -1.0031 -0.9652
 5576SOL     OW17626   4.831   1.887   0.003 -0.1733 -0.3830 -0.0778
 5576SOL    HW117627   4.835   1.836  -0.083  3.4665 -0.2498 -0.1405
 5576SOL    HW217628   4.851   1.826   0.079  1.5203  0.3632  0.1189
 5577SOL     OW17629   5.337   2.348   1.128  0.3009 -0.2234 -0.0956
 5577SOL    HW117630   5.376   2.335   1.037  1.4159  0.1228  0.3191
 5577SOL    HW217631   5.409   2.341   1.197 -0.4729 -0.1531  0.7384
 5578SOL     OW17632   1.122   0.794   1.242  0.0035 -0.6902 -0.2792
 5578SOL    HW117633   1.068   0.852   1.303 -0.4258 -0.9193 -0.4323
 5578SOL    HW217634   1.070   0.711   1.221  0.7174 -1.2566  0.1475
 5579SOL     OW17635   0.400   2.852   1.083 -0.2447  0.3889  0.7086
 5579SOL    HW117636   0.488   2.828   1.125  0.6131  0.6488 -0.8503
 5579SOL    HW217637   0.413   2.932   1.024 -1.2623 -0.2890 -0.4579
 5580SOL     OW17638   6.789   2.091   0.137 -0.0791  0.0426  0.0631
 5580SOL    HW117639   6.886   2.115   0.128  0.3591 -0.9440  1.7379
 5580SOL    HW217640   6.736   2.143   0.070  1.3834  1.9478  0.2706
 5581SOL     OW17641   2.234   2.781   1.671 -0.6805 -0.2825 -0.3993
 5581SOL    HW117642   2.222   2.730   1.585  0.2713  0.2376 -0.8675
 5581SOL    HW217643   2.331   2.779   1.697 -0.9898 -0.5878  0.7760
 5582SOL     OW17644   5.595   5.688   5.112  0.4622 -0.1464  0.8342
 5582SOL    HW117645   5.616   5.632   5.192  0.1016 -1.7519 -0.1578
 5582SOL    HW217646   5.498   5.678   5.088  0.4427  0.7320  0.4896
 5583SOL     OW17647   2.143   4.240   5.349  0.7187 -0.0108 -0.0186
 5583SOL    HW117648   2.080   4.302   5.396  0.1058 -0.6239 -0.0080
 5583SOL    HW217649   2.092   4.161   5.314  1.3856 -0.2074 -0.5629
 5584SOL     OW17650   1.411   1.322   0.498  0.0465 -0.1494 -0.0302
 5584SOL    HW117651   1.393   1.390   0.426 -3.0341  0.5968  1.2780
 5584SOL    HW217652   1.447   1.368   0.579 -0.1685 -0.3586  0.1864
 5585SOL     OW17653   2.531   1.841   3.627 -0.4412  0.4686 -0.4080
 5585SOL    HW117654   2.565   1.934   3.612 -1.4042  0.7189 -1.1402
 5585SOL    HW217655   2.483   1.836   3.714 -0.5223  0.7004 -0.4401
 5586SOL     OW17656   2.197   3.958   3.578  0.1681 -0.5436  0.5580
 5586SOL    HW117657   2.165   3.904   3.500 -2.1332  0.4213  0.7581
 5586SOL    HW217658   2.177   3.908   3.663 -0.2240 -0.2375  0.6509
 5587SOL     OW17659   2.260   0.289   1.415 -0.0592 -0.2528  0.2965
 5587SOL    HW117660   2.347   0.286   1.368  0.4820 -2.3685  1.3035
 5587SOL    HW217661   2.209   0.205   1.397 -1.2233  0.2893  0.9280
 5588SOL     OW17662   3.098   5.754   3.629  0.0742  0.0590 -0.1943
 5588SOL    HW117663   3.037   5.682   3.662  1.2020 -0.8020  0.0779
 5588SOL    HW217664   3.155   5.787   3.705 -1.8503  2.7829  0.2212
 5589SOL     OW17665   4.764   0.477   4.970 -0.3661  0.6303 -0.4175
 5589SOL    HW117666   4.751   0.541   4.895 -1.4290  0.2683 -0.5565
 5589SOL    HW217667   4.682   0.421   4.981 -1.1230  2.1138  2.3959
 5590SOL     OW17668   2.466   5.012   1.909  0.5772  0.1521  0.1373
 5590SOL    HW117669   2.411   5.010   1.992 -0.3943  0.2535 -0.4933
 5590SOL    HW217670   2.504   4.921   1.892  1.1669  0.2318  0.9244
 5591SOL     OW17671   1.531   3.743   0.525 -0.0956  0.3450 -0.1321
 5591SOL    HW117672   1.535   3.837   0.490 -0.1808 -0.1265 -1.4631
 5591SOL    HW217673   1.623   3.712   0.548  0.1424  0.2409 -1.1586
 5592SOL     OW17674   5.792   0.334   6.576  0.0048 -0.0271  0.0571
 5592SOL    HW117675   5.881   0.378   6.587 -0.4084  0.7740  0.2703
 5592SOL    HW217676   5.744   0.335   6.663  0.1545 -1.2892  0.1661
 5593SOL     OW17677   5.455   5.995   5.771  0.0649  0.7888 -0.1419
 5593SOL    HW117678   5.430   6.021   5.864  0.2324  2.2661 -0.4967
 5593SOL    HW217679   5.548   5.958   5.771 -0.0559  0.4727  0.3222
 5594SOL     OW17680   1.321   6.532   5.391  0.1887 -0.7847  0.2633
 5594SOL    HW117681   1.373   6.568   5.468 -1.1590  1.6783  0.1380
 5594SOL    HW217682   1.229   6.507   5.422 -0.5670  0.8064 -0.5901
 5595SOL     OW17683   1.553   6.187   4.817 -0.2465  0.3428  0.1299
 5595SOL    HW117684   1.489   6.255   4.780  0.3258  0.1344 -1.3051
 5595SOL    HW217685   1.643   6.202   4.777  0.2748 -0.2509  1.0578
 5596SOL     OW17686   0.710   5.686   1.144  0.3092  0.3842  0.2210
 5596SOL    HW117687   0.610   5.686   1.137  0.2587  0.4430  0.8608
 5596SOL    HW217688   0.750   5.669   1.054 -0.2829  0.0360  0.0177
 5597SOL     OW17689   0.950   0.819   1.721  0.1979 -0.4805 -0.2576
 5597SOL    HW117690   1.046   0.827   1.694  0.1213 -0.1468 -0.4351
 5597SOL    HW217691   0.925   0.896   1.779 -0.2154 -0.0498 -0.9846
 5598SOL     OW17692   5.370   0.030   0.662 -0.3345  0.2541 -0.0810
 5598SOL    HW117693   5.292   0.081   0.626 -1.0295 -1.3830 -1.0009
 5598SOL    HW217694   5.384   0.055   0.758 -0.9027  1.8246 -0.3778
 5599SOL     OW17695   5.578   0.335   5.205 -0.2168  0.6556 -0.4279
 5599SOL    HW117696   5.522   0.324   5.123 -1.3785 -0.3072  0.4421
 5599SOL    HW217697   5.636   0.254   5.217 -1.7390 -0.3208  0.8727
 5600SOL     OW17698   5.615   3.155   5.834 -0.0667 -0.1079  0.2909
 5600SOL    HW117699   5.607   3.061   5.866 -0.8356 -0.5989 -1.2628
 5600SOL    HW217700   5.712   3.179   5.825  0.1415 -1.2651 -0.7249
 5601SOL     OW17701   6.764   5.491   6.338  0.1093  0.2427 -0.3631
 5601SOL    HW117702   6.690   5.552   6.365 -0.9732 -1.4682  0.7660
 5601SOL    HW217703   6.735   5.435   6.261 -0.0956 -0.9327  0.5342
 5602SOL     OW17704   3.425   5.981   5.653 -0.1346  0.1328  0.2681
 5602SOL    HW117705   3.419   5.936   5.742 -0.6670 -0.4024 -0.0284
 5602SOL    HW217706   3.339   6.028   5.634 -0.3024 -0.3880 -0.2890
 5603SOL     OW17707   2.338   6.218   2.539  1.0214 -0.2625 -0.2962
 5603SOL    HW117708   2.242   6.203   2.519  0.8933  1.6087 -1.2982
 5603SOL    HW217709   2.382   6.130   2.558 -1.1264 -1.0274  1.5238
 5604SOL     OW17710   4.432   5.588   6.547 -0.5089  0.2034 -0.2104
 5604SOL    HW117711   4.518   5.616   6.589  0.3064 -2.1470 -0.2002
 5604SOL    HW217712   4.356   5.619   6.604  0.5027 -1.5833  2.3059
 5605SOL     OW17713   6.177   1.497   6.796  0.0605  0.1637 -0.1294
 5605SOL    HW117714   6.252   1.462   6.740  0.4385  0.2895  0.2883
 5605SOL    HW217715   6.203   1.585   6.836 -0.2208  0.1002  0.2016
 5606SOL     OW17716   4.777   3.535   1.714 -0.4410 -0.5898 -0.0636
 5606SOL    HW117717   4.827   3.514   1.630 -0.8084  0.1584 -0.4804
 5606SOL    HW217718   4.702   3.469   1.725  0.0210 -1.1042  0.0405
 5607SOL     OW17719   1.739   1.990   3.558  0.4580 -0.2808  0.0085
 5607SOL    HW117720   1.812   2.051   3.590 -0.1136  0.8303 -0.7605
 5607SOL    HW217721   1.653   2.040   3.552 -0.6056 -1.7835  1.7022
 5608SOL     OW17722   1.221   0.919   2.063 -0.2778 -0.6350  0.4454
 5608SOL    HW117723   1.275   0.847   2.106 -1.4524 -1.6645  0.2416
 5608SOL    HW217724   1.163   0.963   2.133 -1.7870 -1.9469  0.0796
 5609SOL     OW17725   1.352   6.913   0.995 -0.2063 -0.1399  0.6531
 5609SOL    HW117726   1.414   6.987   0.966  0.6542 -2.2113 -3.6529
 5609SOL    HW217727   1.258   6.943   0.985  0.1251  0.5387 -0.6336
 5610SOL     OW17728   3.614   4.084   6.393  0.5057  0.4997 -0.0914
 5610SOL    HW117729   3.594   4.166   6.446  1.7567 -1.4609  3.8194
 5610SOL    HW217730   3.529   4.033   6.379  0.1433  1.0309  0.1331
 5611SOL     OW17731   3.700   3.770   1.225 -0.0156 -0.3259 -0.0728
 5611SOL    HW117732   3.764   3.807   1.157 -0.8930 -1.6662 -1.6946
 5611SOL    HW217733   3.742   3.773   1.315  1.8648 -0.0888 -0.9131
 5612SOL     OW17734   2.931   5.992   1.051  0.1996 -0.3983 -1.1483
 5612SOL    HW117735   2.888   6.073   1.012 -0.4444 -0.3861 -0.4341
 5612SOL    HW217736   2.986   6.018   1.130 -0.7458 -0.7602 -0.3556
 5613SOL     OW17737   4.843   5.014   6.007 -0.4135 -0.0244 -0.0810
 5613SOL    HW117738   4.749   4.986   5.987 -0.8219  0.5333  0.9860
 5613SOL    HW217739   4.884   4.948   6.069 -0.0839 -0.2689 -0.5500
 5614SOL     OW17740   2.753   2.829   5.474  0.1463  0.1279 -0.0766
 5614SOL    HW117741   2.847   2.797   5.481  0.2742  0.4366 -0.3273
 5614SOL    HW217742   2.730   2.884   5.555 -0.5343 -1.7199  1.0469
 5615SOL     OW17743   2.110   6.332   4.034  0.6144 -0.2081 -0.3063
 5615SOL    HW117744   2.185   6.292   3.981  1.0328 -0.2520  0.2980
 5615SOL    HW217745   2.029   6.340   3.977  0.5774 -1.7277 -0.5099
 5616SOL     OW17746   0.481   2.795   6.014 -0.0046 -0.3233 -0.2318
 5616SOL    HW117747   0.542   2.723   5.981  2.1624  1.5344 -0.5227
 5616SOL    HW217748   0.478   2.793   6.114 -1.6385 -2.0542 -0.2583
 5617SOL     OW17749   6.745   4.818   5.074 -0.5016  0.0052 -0.1076
 5617SOL    HW117750   6.740   4.718   5.075  1.5497 -0.1344  0.9077
 5617SOL    HW217751   6.814   4.848   5.008  0.8239  0.5879  1.4787
 5618SOL     OW17752   0.371   3.426   4.861  0.1378 -0.4318  0.0419
 5618SOL    HW117753   0.311   3.372   4.920  0.5715 -0.3618  0.5537
 5618SOL    HW217754   0.316   3.488   4.806 -0.3984 -1.6260 -0.8112
 5619SOL     OW17755   4.559   4.705   4.941  0.2208  0.1282 -0.3508
 5619SOL    HW117756   4.605   4.709   5.030 -1.8652  1.5478  0.7432
 5619SOL    HW217757   4.474   4.655   4.949  1.0280 -1.6516 -2.1291
 5620SOL     OW17758   5.629   4.218   1.328  0.1421 -0.1765  0.4090
 5620SOL    HW117759   5.612   4.218   1.229  0.4160  0.1103  0.3620
 5620SOL    HW217760   5.563   4.277   1.373  0.9588  0.8983  0.2309
 5621SOL     OW17761   1.222   2.933   3.865 -0.4451 -0.0814 -0.4445
 5621SOL    HW117762   1.307   2.912   3.817 -0.0542 -0.1451  0.2566
 5621SOL    HW217763   1.211   2.869   3.941 -0.6122  0.5512  0.0734
 5622SOL     OW17764   3.618   0.116   6.421  0.4296  0.0923 -0.6204
 5622SOL    HW117765   3.649   0.023   6.402  3.0749 -0.0013  3.1219
 5622SOL    HW217766   3.610   0.167   6.335  0.5749 -3.0357 -2.6285
 5623SOL     OW17767   6.380   2.693   0.125 -0.0766 -0.2338 -0.2489
 5623SOL    HW117768   6.335   2.604   0.132  0.0681 -0.2565  0.5515
 5623SOL    HW217769   6.311   2.765   0.121 -0.1964 -0.3152  0.2464
 5624SOL     OW17770   0.097   4.513   1.483  0.3094  0.4025  0.1241
 5624SOL    HW117771   0.071   4.577   1.411 -1.5555 -0.8786 -0.4325
 5624SOL    HW217772   0.182   4.467   1.458  1.6774  2.5792  0.5369
 5625SOL     OW17773   1.227   0.909   3.173  0.5105  0.0124 -0.1965
 5625SOL    HW117774   1.219   0.996   3.221 -1.1888 -0.0879 -0.2518
 5625SOL    HW217775   1.157   0.902   3.103 -1.0059 -2.3590  1.3927
 5626SOL     OW17776   2.158   3.697   4.434  0.1697  0.0594 -0.2624
 5626SOL    HW117777   2.142   3.629   4.362 -2.3577 -1.2335  1.3967
 5626SOL    HW217778   2.215   3.657   4.506  0.6942  0.5634 -0.3819
 5627SOL     OW17779   1.276   1.779   1.191 -0.0585  0.2957 -0.4782
 5627SOL    HW117780   1.254   1.874   1.168  0.7029  1.0009  1.5794
 5627SOL    HW217781   1.270   1.723   1.108 -0.2302  2.1705 -1.7888
 5628SOL     OW17782   6.568   4.756   3.562  0.4411 -0.0034  0.4107
 5628SOL    HW117783   6.547   4.678   3.503 -0.8740 -1.4892  2.6591
 5628SOL    HW217784   6.651   4.736   3.614  0.8098  0.6675  0.0875
 5629SOL     OW17785   1.884   6.668   1.425  0.2460  0.3713 -0.0129
 5629SOL    HW117786   1.790   6.697   1.446 -0.4161 -1.0150 -0.9363
 5629SOL    HW217787   1.912   6.597   1.489  0.1253 -0.2319 -0.6259
 5630SOL     OW17788   2.412   0.830   5.047 -0.2099  0.3837  0.2170
 5630SOL    HW117789   2.494   0.875   5.084  0.5290 -0.8425  0.1522
 5630SOL    HW217790   2.434   0.792   4.957 -0.3538 -1.2993  0.8583
 5631SOL     OW17791   6.215   2.221   1.859  0.2729 -0.0910 -0.2562
 5631SOL    HW117792   6.224   2.296   1.924  1.2055 -0.6774  0.3132
 5631SOL    HW217793   6.119   2.196   1.850 -0.1984  1.8538 -1.2701
 5632SOL     OW17794   1.579   0.107   0.380 -0.3064 -0.1144 -0.0514
 5632SOL    HW117795   1.571   0.189   0.324 -3.4192  1.3563  2.2204
 5632SOL    HW217796   1.564   0.026   0.323  2.3148  0.8030 -2.2496
 5633SOL     OW17797   4.700   1.533   3.583 -0.3985 -0.3608  0.1288
 5633SOL    HW117798   4.761   1.566   3.511 -0.6906  0.5099  0.2562
 5633SOL    HW217799   4.621   1.488   3.541  0.6189 -2.0900 -0.0214
 5634SOL     OW17800   1.302   1.374   0.962  0.1922 -0.2486  0.1494
 5634SOL    HW117801   1.386   1.324   0.985  1.2652  0.1507 -2.5107
 5634SOL    HW217802   1.238   1.312   0.916 -0.2130 -0.1028  0.5087
 5635SOL     OW17803   6.243   2.127   1.582  0.2960  0.1838 -0.1197
 5635SOL    HW117804   6.248   2.149   1.680  1.5738  1.0830 -0.3687
 5635SOL    HW217805   6.293   2.196   1.530  0.3779 -0.7742 -1.3432
 5636SOL     OW17806   2.889   3.143   6.625 -0.0704 -0.8056 -0.5439
 5636SOL    HW117807   2.895   3.180   6.532 -1.1320 -1.7663 -1.0313
 5636SOL    HW217808   2.923   3.049   6.626  2.0864 -0.0792  0.5553
 5637SOL     OW17809   6.613   1.756   2.086  0.5665  0.0336  0.1615
 5637SOL    HW117810   6.684   1.801   2.140  1.1967 -0.9958  0.2158
 5637SOL    HW217811   6.548   1.710   2.147 -0.6991  1.6964  0.1585
 5638SOL     OW17812   5.080   5.426   0.455  0.0375 -0.0247  0.2034
 5638SOL    HW117813   5.038   5.406   0.366 -1.8358  1.0423  0.7992
 5638SOL    HW217814   5.024   5.492   0.505  1.5469  0.1230  1.8125
 5639SOL     OW17815   2.298   6.876   1.715  0.3825 -0.4190  0.3543
 5639SOL    HW117816   2.280   6.970   1.742  0.6128 -0.0936 -0.5775
 5639SOL    HW217817   2.243   6.814   1.770 -1.6037  0.3933 -0.6137
 5640SOL     OW17818   1.030   6.405   5.370 -0.3929 -0.0658 -0.0194
 5640SOL    HW117819   0.949   6.379   5.422 -0.6423  0.4231 -0.1515
 5640SOL    HW217820   1.011   6.489   5.319  1.1764  1.9117  2.4060
 5641SOL     OW17821   5.775   1.951   3.887 -1.0111 -0.2163 -0.2744
 5641SOL    HW117822   5.817   2.020   3.827  1.5057 -1.7067 -0.3572
 5641SOL    HW217823   5.676   1.962   3.886 -0.7862  2.4579 -1.4056
 5642SOL     OW17824   4.702   5.878   2.730  0.1399  0.2929  0.7668
 5642SOL    HW117825   4.722   5.894   2.634  0.3191  2.6699  1.1478
 5642SOL    HW217826   4.659   5.959   2.769 -0.5038 -0.8585  2.5473
 5643SOL     OW17827   6.258   2.442   3.013 -0.4568 -0.0516 -0.4690
 5643SOL    HW117828   6.260   2.439   2.913  0.9950  0.6390 -0.4910
 5643SOL    HW217829   6.195   2.373   3.048  1.0894 -2.2199 -1.7696
 5644SOL     OW17830   1.870   5.201   3.530  0.2966 -0.5563  0.4032
 5644SOL    HW117831   1.828   5.136   3.466  1.7228 -1.8813  0.7602
 5644SOL    HW217832   1.811   5.282   3.538  0.0968 -0.2937 -2.5970
 5645SOL     OW17833   0.559   4.962   1.665  0.7269  0.0337  0.4657
 5645SOL    HW117834   0.555   5.036   1.598  4.3570 -0.8761 -0.9712
 5645SOL    HW217835   0.620   4.890   1.632  0.0471 -2.0631  3.3490
 5646SOL     OW17836   1.124   3.059   2.919  0.3829 -0.2855 -0.1171
 5646SOL    HW117837   1.159   3.147   2.951 -1.3190  0.8414 -1.1926
 5646SOL    HW217838   1.161   3.039   2.828  2.9034 -2.0697  1.1779
 5647SOL     OW17839   3.709   2.875   2.307  0.5379  0.1849 -0.3784
 5647SOL    HW117840   3.751   2.788   2.282 -0.0053  0.1011 -1.0382
 5647SOL    HW217841   3.726   2.943   2.236  0.2963  0.3929 -0.2439
 5648SOL     OW17842   6.427   0.014   6.755 -0.7263  0.3349  0.2464
 5648SOL    HW117843   6.378   0.057   6.679 -3.1152  0.0090  1.5346
 5648SOL    HW217844   6.525   0.012   6.733 -1.1562  1.5004 -2.1892
 5649SOL     OW17845   2.878   6.087   3.460  0.4829 -0.3681  0.0892
 5649SOL    HW117846   2.854   5.996   3.428  1.5989 -0.2349 -1.1988
 5649SOL    HW217847   2.968   6.113   3.424  0.8080  0.6988  1.5515
 5650SOL     OW17848   1.957   2.423   3.797 -0.4678 -0.3510 -0.6538
 5650SOL    HW117849   1.994   2.516   3.800 -1.1773 -0.0212 -1.5916
 5650SOL    HW217850   1.995   2.375   3.718  1.2485 -1.4814  0.7830
 5651SOL     OW17851   0.255   6.218   0.012 -0.6315 -0.0123  0.2407
 5651SOL    HW117852   0.341   6.172   0.033  0.0113  1.0414  0.0281
 5651SOL    HW217853   0.220   6.184  -0.075  0.6224  0.9093 -0.6776
 5652SOL     OW17854   2.182   0.947   4.282  0.1788 -0.1000  0.2755
 5652SOL    HW117855   2.121   0.927   4.205  0.5311 -1.4161  0.3160
 5652SOL    HW217856   2.237   1.028   4.261  0.8132 -0.8748 -1.1817
 5653SOL     OW17857   7.008   6.792   1.135  0.1373  0.6205 -0.1566
 5653SOL    HW117858   6.915   6.790   1.099  0.1313  0.8467 -0.1556
 5653SOL    HW217859   7.032   6.702   1.171  0.6081  0.0129 -1.8966
 5654SOL     OW17860   5.080   4.333   5.740 -0.1440  0.0948 -1.0245
 5654SOL    HW117861   5.077   4.256   5.803  2.1107  0.2371 -0.6739
 5654SOL    HW217862   5.045   4.415   5.785  0.4563 -0.0373 -0.2990
 5655SOL     OW17863   6.065   2.431   0.372 -0.4603 -0.5077 -0.2686
 5655SOL    HW117864   6.039   2.370   0.297  0.2268 -0.6315 -0.4177
 5655SOL    HW217865   6.015   2.406   0.454 -0.4635 -1.0395 -0.4242
 5656SOL     OW17866   1.742   1.197   0.453 -0.1944 -0.4895  0.2850
 5656SOL    HW117867   1.666   1.166   0.396 -1.0086 -0.7381  1.4792
 5656SOL    HW217868   1.828   1.161   0.416 -0.3820  1.2687 -2.1621
 5657SOL     OW17869   3.339   3.327   4.065  0.1739  0.5571 -0.4647
 5657SOL    HW117870   3.243   3.354   4.078 -0.1399  0.6070 -2.4969
 5657SOL    HW217871   3.378   3.381   3.990  0.5419 -2.2078 -2.3997
 5658SOL     OW17872   1.452   5.326   2.265  0.4087 -0.1849  0.0867
 5658SOL    HW117873   1.481   5.419   2.242 -1.0505 -0.0369 -1.2944
 5658SOL    HW217874   1.532   5.273   2.295  1.1956  1.5882  1.2413
 5659SOL     OW17875   3.863   3.795   5.203 -0.4945 -0.3305 -0.4136
 5659SOL    HW117876   3.830   3.883   5.236 -1.8811 -0.8179 -0.4204
 5659SOL    HW217877   3.961   3.787   5.222 -0.2737  1.3285 -0.7145
 5660SOL     OW17878   5.986   5.060   3.543 -0.1911 -0.4733  0.8000
 5660SOL    HW117879   5.909   5.070   3.479  2.4481  0.6783 -2.4699
 5660SOL    HW217880   5.997   5.145   3.594 -0.1497 -0.0382  0.0847
 5661SOL     OW17881   4.745   2.361   3.803 -0.0499 -0.5064  0.2633
 5661SOL    HW117882   4.800   2.281   3.776 -0.0648 -0.9534  1.4873
 5661SOL    HW217883   4.652   2.331   3.825 -0.8279  0.2399 -1.7589
 5662SOL     OW17884   1.844   4.605   0.826 -0.0665 -0.4693 -0.1425
 5662SOL    HW117885   1.769   4.661   0.790 -0.8118 -1.2359  0.1894
 5662SOL    HW217886   1.818   4.509   0.823 -0.0569 -0.6088  2.1449
 5663SOL     OW17887   2.898   6.819   1.770 -0.0111  0.1502  0.6602
 5663SOL    HW117888   2.972   6.789   1.832  1.4369  1.5990 -0.2758
 5663SOL    HW217889   2.938   6.849   1.684 -2.0361 -2.8091 -1.5092
 5664SOL     OW17890   4.659   1.680   0.737 -0.4518 -0.2771 -0.0010
 5664SOL    HW117891   4.593   1.753   0.716 -0.1749  0.0868  0.3869
 5664SOL    HW217892   4.609   1.597   0.762 -0.7720  0.2392  1.1287
 5665SOL     OW17893   4.181   6.176   4.606 -0.3264 -0.0571  0.3747
 5665SOL    HW117894   4.146   6.199   4.515  0.2132  1.2071  0.4523
 5665SOL    HW217895   4.148   6.244   4.671  0.2470 -0.2764  0.8981
 5666SOL     OW17896   5.215   1.498   5.750  0.0521 -0.4583  0.0741
 5666SOL    HW117897   5.269   1.416   5.731 -0.0895 -0.3528 -0.8544
 5666SOL    HW217898   5.124   1.471   5.781 -0.5011 -0.7126 -1.6381
 5667SOL     OW17899   5.580   1.764   3.700  0.0365  0.0791  0.0999
 5667SOL    HW117900   5.541   1.736   3.787  0.4213 -0.0700  0.2249
 5667SOL    HW217901   5.564   1.862   3.686  2.3900  0.7737  1.6480
 5668SOL     OW17902   0.213   4.356   6.790  0.3502 -0.5403 -0.2797
 5668SOL    HW117903   0.166   4.307   6.715  1.4137 -1.2072 -0.5342
 5668SOL    HW217904   0.174   4.327   6.877 -0.1752 -0.5685 -0.5166
 5669SOL     OW17905   2.853   6.877   1.334 -0.0421 -0.5338 -0.3271
 5669SOL    HW117906   2.824   6.809   1.266  1.0495 -0.7655 -0.5731
 5669SOL    HW217907   2.933   6.843   1.383  0.5825  0.6290 -0.5267
 5670SOL     OW17908   1.647   3.457   4.488  0.2548 -0.6006 -0.1990
 5670SOL    HW117909   1.552   3.484   4.472  0.9605  3.0268  0.7825
 5670SOL    HW217910   1.695   3.450   4.400 -0.4329 -0.4157 -0.5896
 5671SOL     OW17911   0.256   6.721   0.265 -0.2326  0.1599  0.1691
 5671SOL    HW117912   0.341   6.773   0.263  1.2490 -2.0884  0.4528
 5671SOL    HW217913   0.267   6.636   0.213 -0.1845 -3.0481  4.8015
 5672SOL     OW17914   4.902   1.731   0.879  0.0242  0.1405  0.4716
 5672SOL    HW117915   4.952   1.775   0.804  1.1912  0.8119  1.5986
 5672SOL    HW217916   4.830   1.672   0.842  1.8742 -1.1405 -1.2454
 5673SOL     OW17917   4.117   6.384   6.279  0.2646  0.0317  0.0090
 5673SOL    HW117918   4.084   6.468   6.320 -1.4014 -0.6704  0.1690
 5673SOL    HW217919   4.114   6.309   6.346  2.7330  0.0175  0.1967
 5674SOL     OW17920   2.237   6.173   2.218  0.0998  0.5602  0.1948
 5674SOL    HW117921   2.259   6.214   2.130  0.5117 -2.1836 -1.1009
 5674SOL    HW217922   2.321   6.163   2.272  0.9193 -2.5793 -1.4204
 5675SOL     OW17923   1.655   4.041   0.602  0.0281  0.1991  0.1659
 5675SOL    HW117924   1.749   4.061   0.577  0.5370 -0.2306  1.6652
 5675SOL    HW217925   1.597   4.045   0.520  1.2261  1.0779 -0.6653
 5676SOL     OW17926   3.631   2.273   6.522  0.1156 -0.3694 -0.1033
 5676SOL    HW117927   3.601   2.260   6.616 -1.5310 -1.2573 -0.7195
 5676SOL    HW217928   3.577   2.344   6.478  0.4837 -0.3541 -0.5511
 5677SOL     OW17929   2.884   2.226   4.857  0.1751 -0.5264  0.6753
 5677SOL    HW117930   2.813   2.286   4.895  0.7802 -0.4373  1.6725
 5677SOL    HW217931   2.969   2.237   4.908  0.9875 -0.4932 -0.6288
 5678SOL     OW17932   0.471   1.771   2.785  0.0079 -0.2652  0.2676
 5678SOL    HW117933   0.527   1.823   2.849  1.1369  1.5756 -2.0523
 5678SOL    HW217934   0.512   1.682   2.768  0.5864 -0.1099  0.8536
 5679SOL     OW17935   5.115   2.890   2.182 -0.5333  0.0739 -0.0483
 5679SOL    HW117936   5.037   2.923   2.235 -1.1185  0.2268 -0.9784
 5679SOL    HW217937   5.085   2.819   2.118  0.5783 -1.7979  1.3978
 5680SOL     OW17938   1.548   1.188   3.662  0.0593  0.1934  0.0625
 5680SOL    HW117939   1.468   1.137   3.694 -0.1947 -0.0832 -0.9794
 5680SOL    HW217940   1.526   1.285   3.659  0.2658  0.2903  1.2275
 5681SOL     OW17941   4.276   3.125   6.468 -0.2796 -0.1775 -0.1790
 5681SOL    HW117942   4.256   3.028   6.454  0.3446 -0.2470 -0.6218
 5681SOL    HW217943   4.312   3.164   6.384  1.3094 -0.0286  0.5358
 5682SOL     OW17944   4.906   5.557   6.041  0.2786  0.1127  0.8279
 5682SOL    HW117945   4.912   5.486   6.112  0.7185 -0.8892 -0.1743
 5682SOL    HW217946   4.897   5.513   5.952 -1.8200  1.3633  0.3685
 5683SOL     OW17947   4.285   5.189   6.473  0.1960 -0.6230 -0.0673
 5683SOL    HW117948   4.292   5.092   6.448 -1.3525 -0.4935 -1.1829
 5683SOL    HW217949   4.190   5.218   6.464  0.4575  0.7368  1.3429
 5684SOL     OW17950   1.848   0.136   4.470 -0.2102 -0.2670  0.6202
 5684SOL    HW117951   1.802   0.110   4.555 -1.0332 -1.6656 -0.2258
 5684SOL    HW217952   1.783   0.133   4.395  0.5112  0.9661 -0.0898
 5685SOL     OW17953   1.291   5.944   0.483  0.1676  0.5569 -0.5455
 5685SOL    HW117954   1.307   5.898   0.570  0.2735  0.6430 -0.5181
 5685SOL    HW217955   1.284   6.043   0.498  0.3829  0.5904 -0.6585
 5686SOL     OW17956   3.595   5.225   2.737 -0.1464 -0.1785  0.0681
 5686SOL    HW117957   3.542   5.292   2.684  1.4027  0.6416 -0.4924
 5686SOL    HW217958   3.624   5.266   2.823 -0.8592 -0.8109  0.6232
 5687SOL     OW17959   6.682   2.127   3.148  0.4252  0.0124 -0.6504
 5687SOL    HW117960   6.614   2.098   3.082  1.3204 -1.1427 -1.1014
 5687SOL    HW217961   6.693   2.227   3.143 -5.0725  1.2931  3.1808
 5688SOL     OW17962   6.227   5.278   2.387 -0.3723  0.1868 -0.2625
 5688SOL    HW117963   6.259   5.317   2.473 -1.0647 -0.2008  0.1858
 5688SOL    HW217964   6.301   5.227   2.343  0.2179  1.0733 -0.3110
 5689SOL     OW17965   2.220   4.727   1.137 -0.3729  0.0228 -0.0251
 5689SOL    HW117966   2.301   4.740   1.193 -0.4295 -1.0339  0.3170
 5689SOL    HW217967   2.159   4.662   1.181 -2.9933  3.1414  1.3757
 5690SOL     OW17968   1.037   4.643   1.654  0.3627  0.1595  0.1811
 5690SOL    HW117969   1.070   4.549   1.644 -0.5103 -0.0544 -0.7558
 5690SOL    HW217970   1.031   4.686   1.565  1.7542  1.4834  0.6826
 5691SOL     OW17971   3.321   3.768   1.690  0.1033  0.1304  0.6878
 5691SOL    HW117972   3.407   3.734   1.727 -0.5177 -0.2216  1.8533
 5691SOL    HW217973   3.296   3.853   1.736  0.3344  0.7920 -0.3784
 5692SOL     OW17974   0.473   2.713   5.273 -0.2730 -0.1752 -0.0134
 5692SOL    HW117975   0.378   2.708   5.305 -0.9797 -0.5341 -2.0081
 5692SOL    HW217976   0.485   2.797   5.219  1.0255  0.7043  1.5633
 5693SOL     OW17977   4.923   1.698   1.348  0.0450 -0.1002  0.1793
 5693SOL    HW117978   4.979   1.640   1.406 -1.2310  0.3326  1.9123
 5693SOL    HW217979   4.967   1.709   1.259  1.6366 -1.4628  0.7600
 5694SOL     OW17980   2.346   5.842   1.525 -0.3279 -0.3347  0.1358
 5694SOL    HW117981   2.282   5.816   1.598 -0.4043 -0.8175 -0.1046
 5694SOL    HW217982   2.378   5.761   1.478 -2.6748  0.0865 -2.4314
 5695SOL     OW17983   0.881   0.347   6.449 -0.7469 -0.1542 -0.1580
 5695SOL    HW117984   0.829   0.303   6.376 -1.4754  0.7604 -0.1997
 5695SOL    HW217985   0.896   0.443   6.426  0.2975 -0.2105  0.2163
 5696SOL     OW17986   1.483   2.460   3.749 -0.0991  0.1108 -0.2086
 5696SOL    HW117987   1.470   2.541   3.692 -0.1696 -0.4172 -0.9686
 5696SOL    HW217988   1.566   2.470   3.803  0.2843  0.3891 -0.8321
 5697SOL     OW17989   1.012   0.962   5.487  0.2999 -0.1614  0.1381
 5697SOL    HW117990   0.970   1.026   5.550  0.5465  0.2674 -0.1305
 5697SOL    HW217991   0.953   0.882   5.476 -0.6214  0.5809 -0.5038
 5698SOL     OW17992   2.225   2.803   5.306 -0.7725 -0.4896 -0.0854
 5698SOL    HW117993   2.184   2.893   5.290 -2.2578 -1.4593 -2.2267
 5698SOL    HW217994   2.324   2.811   5.303 -0.8305  0.7349 -3.2278
 5699SOL     OW17995   1.545   4.416   3.146  0.4756  0.1207 -0.3400
 5699SOL    HW117996   1.447   4.432   3.161  0.2566 -1.2475 -0.2323
 5699SOL    HW217997   1.588   4.389   3.232  0.9457  0.6660 -0.4007
 5700SOL     OW17998   5.497   4.525   3.654 -0.4217 -0.4725 -0.4314
 5700SOL    HW117999   5.484   4.604   3.714 -1.3750 -2.2356  1.8684
 5700SOL    HW218000   5.536   4.555   3.567  1.4802  2.2317  1.1745
 5701SOL     OW18001   4.370   3.248   6.069 -0.5809 -0.0292 -0.3587
 5701SOL    HW118002   4.353   3.315   5.997  0.1695  0.3756 -0.1729
 5701SOL    HW218003   4.440   3.284   6.131 -1.3124 -0.3147  0.6490
 5702SOL     OW18004   6.315   6.436   3.905 -0.8543  0.5022 -0.1648
 5702SOL    HW118005   6.220   6.414   3.927 -0.3107 -0.9973  0.8524
 5702SOL    HW218006   6.360   6.473   3.986  0.0772 -1.2247  0.1681
 5703SOL     OW18007   3.276   2.980   0.207 -0.5033 -0.0200  0.2860
 5703SOL    HW118008   3.336   2.913   0.163 -0.6815 -0.2251  0.3565
 5703SOL    HW218009   3.186   2.977   0.165 -0.9087 -0.7636  1.1747
 5704SOL     OW18010   3.000   4.809   6.889  0.0745 -0.1855 -0.3499
 5704SOL    HW118011   3.044   4.771   6.808 -0.3185 -1.1665 -0.1223
 5704SOL    HW218012   3.060   4.876   6.932  0.3042  0.3100 -1.4183
 5705SOL     OW18013   4.291   6.916   5.869  0.0879  0.0188  0.3258
 5705SOL    HW118014   4.229   6.987   5.904 -1.3084 -1.0370  0.0970
 5705SOL    HW218015   4.285   6.913   5.769 -1.3994 -1.6831  0.4085
 5706SOL     OW18016   2.212   5.447   1.110  0.6111 -0.1725 -0.1593
 5706SOL    HW118017   2.298   5.476   1.153 -0.0208  1.2352  0.2067
 5706SOL    HW218018   2.213   5.472   1.013  0.8923 -0.8108 -0.3282
 5707SOL     OW18019   5.171   4.097   1.391 -0.2254 -0.3640 -0.5245
 5707SOL    HW118020   5.130   4.078   1.481  1.5681 -2.5394 -0.0656
 5707SOL    HW218021   5.101   4.089   1.320 -1.4802  0.4479  0.5711
 5708SOL     OW18022   3.014   1.759   1.876 -0.2004 -0.0868 -0.3123
 5708SOL    HW118023   3.064   1.708   1.806  0.3525  2.0229 -1.5555
 5708SOL    HW218024   3.055   1.743   1.965  0.6647 -0.8907 -0.8328
 5709SOL     OW18025   3.424   4.039   1.463 -0.0519 -0.1523 -0.1434
 5709SOL    HW118026   3.488   3.983   1.411  1.9394  3.1483 -1.5340
 5709SOL    HW218027   3.474   4.103   1.520 -2.1868  0.9964  0.5480
 5710SOL     OW18028   4.531   3.370   6.621 -0.1113  0.5972 -0.3190
 5710SOL    HW118029   4.485   3.453   6.652 -2.0946 -0.8213  0.7562
 5710SOL    HW218030   4.468   3.292   6.630  2.7792 -1.6764  2.1699
 5711SOL     OW18031   1.870   4.757   5.906  0.5662 -0.0974  0.0568
 5711SOL    HW118032   1.926   4.834   5.877  1.4593 -1.1617 -1.1518
 5711SOL    HW218033   1.930   4.685   5.943 -0.1184 -0.7724 -0.1362
 5712SOL     OW18034   0.896   1.717   2.561 -0.4969 -0.1555  0.0055
 5712SOL    HW118035   0.953   1.635   2.571  2.3192  1.5575 -0.7514
 5712SOL    HW218036   0.817   1.696   2.505  0.2203 -2.3118 -0.2886
 5713SOL     OW18037   6.880   5.934   0.601  0.7421  0.0349  0.8431
 5713SOL    HW118038   6.977   5.959   0.601  0.6917  0.2439  1.3842
 5713SOL    HW218039   6.860   5.875   0.679  0.4449 -0.0559  0.7011
 5714SOL     OW18040   1.131   6.128   3.568 -0.0335  0.4703  0.6402
 5714SOL    HW118041   1.111   6.163   3.476  0.0013  0.2313  0.5431
 5714SOL    HW218042   1.077   6.180   3.635  1.5846  2.1689  0.7173
 5715SOL     OW18043   1.401   6.298   2.638  0.0839 -0.2964 -0.5476
 5715SOL    HW118044   1.312   6.255   2.624 -0.0845 -0.2413  0.3368
 5715SOL    HW218045   1.450   6.253   2.712  1.0567 -0.7125 -1.4224
 5716SOL     OW18046   0.998   0.501   4.554 -0.4326  0.2765  0.6366
 5716SOL    HW118047   0.990   0.466   4.647 -1.5790  1.0241  0.8380
 5716SOL    HW218048   1.095   0.504   4.527  0.1077  1.8115  2.5012
 5717SOL     OW18049   1.343   0.340   1.041 -0.0440 -0.4397  0.2287
 5717SOL    HW118050   1.246   0.316   1.029  0.2118 -0.8591 -1.1244
 5717SOL    HW218051   1.351   0.439   1.055 -0.6567 -0.4000  0.3457
 5718SOL     OW18052   5.080   5.368   0.140 -0.1242 -0.3150 -0.3067
 5718SOL    HW118053   5.045   5.424   0.065 -0.4380 -0.2040 -0.0822
 5718SOL    HW218054   5.180   5.374   0.144 -0.0806 -0.5895 -0.9225
 5719SOL     OW18055   3.500   0.643   1.426  0.2583  0.1797 -0.0233
 5719SOL    HW118056   3.428   0.655   1.357  0.1056  0.0085  0.1074
 5719SOL    HW218057   3.588   0.635   1.380  0.1751  0.2196 -0.1932
 5720SOL     OW18058   6.832   5.971   5.178 -0.1870  0.7487 -0.2783
 5720SOL    HW118059   6.745   5.997   5.137 -0.5533  0.1307  0.0785
 5720SOL    HW218060   6.878   5.904   5.120 -0.3307  0.4774 -0.0860
 5721SOL     OW18061   3.994   3.423   0.758  1.1234  0.2941 -0.6470
 5721SOL    HW118062   4.063   3.470   0.702  3.5961 -2.4459 -0.1893
 5721SOL    HW218063   3.939   3.363   0.700  1.3852  0.0023 -0.5964
 5722SOL     OW18064   6.711   0.053   6.762 -0.1501 -0.2904 -0.3340
 5722SOL    HW118065   6.778   0.001   6.813  0.2371 -0.6640 -1.1998
 5722SOL    HW218066   6.745   0.069   6.669 -1.2086 -0.3898 -0.7508
 5723SOL     OW18067   1.437   2.796   3.324 -0.5509 -0.3423 -0.0194
 5723SOL    HW118068   1.491   2.783   3.241  0.4363  1.4080  0.3003
 5723SOL    HW218069   1.352   2.844   3.302 -0.3655 -0.0258 -0.0516
 5724SOL     OW18070   4.942   1.740   2.713 -0.1787 -0.1510 -0.5702
 5724SOL    HW118071   4.982   1.806   2.651  1.4291 -1.6378 -1.1887
 5724SOL    HW218072   5.003   1.661   2.722 -1.1094 -0.6912  1.6643
 5725SOL     OW18073   6.097   0.274   2.181 -0.4934  0.2442  0.3616
 5725SOL    HW118074   6.077   0.370   2.165 -0.7308 -0.0609 -1.3617
 5725SOL    HW218075   6.013   0.226   2.209 -0.8232  0.1820 -0.6875
 5726SOL     OW18076   3.490   4.809   5.686 -0.0245  0.0211  0.1647
 5726SOL    HW118077   3.533   4.728   5.646  1.3465  0.7208  0.1725
 5726SOL    HW218078   3.405   4.782   5.733 -0.2129 -1.2137 -0.8409
 5727SOL     OW18079   5.193   2.370   2.672  0.0342 -0.4271  0.5101
 5727SOL    HW118080   5.241   2.372   2.760  0.3105 -0.3622  0.3597
 5727SOL    HW218081   5.146   2.456   2.658  0.8497 -0.0318  0.1251
 5728SOL     OW18082   2.871   1.244   3.267  0.2842 -0.0513 -0.0950
 5728SOL    HW118083   2.798   1.312   3.255 -0.1606 -0.7376 -1.5630
 5728SOL    HW218084   2.907   1.219   3.178  0.8864 -1.2710  0.4747
 5729SOL     OW18085   6.290   6.180   4.571  0.3426  0.7179 -0.5657
 5729SOL    HW118086   6.266   6.246   4.643 -0.4921  1.1086 -1.1963
 5729SOL    HW218087   6.245   6.205   4.486 -0.8029 -1.2254 -0.5778
 5730SOL     OW18088   0.181   5.529   4.120  0.5094  0.3070  0.5086
 5730SOL    HW118089   0.241   5.469   4.173  0.7058  0.3431  0.3283
 5730SOL    HW218090   0.155   5.482   4.036  2.4753  1.2989 -0.7307
 5731SOL     OW18091   4.834   0.023   6.457 -0.3428  0.3217  0.0604
 5731SOL    HW118092   4.820   0.038   6.555 -0.6473 -0.5787  0.1604
 5731SOL    HW218093   4.817  -0.073   6.435 -1.3403  0.7412 -1.0613
 5732SOL     OW18094   3.193   3.298   1.723 -0.0671  0.5537 -0.4791
 5732SOL    HW118095   3.277   3.338   1.760  0.5691  0.1020 -1.3856
 5732SOL    HW218096   3.170   3.216   1.775  0.7727 -0.0313 -0.9910
 5733SOL     OW18097   3.889   6.824   5.409 -0.0455  0.6928 -0.0070
 5733SOL    HW118098   3.885   6.768   5.492 -1.4950 -1.2250 -1.2823
 5733SOL    HW218099   3.972   6.802   5.358  1.2874  2.4871  1.2580
 5734SOL     OW18100   1.869   1.743   0.532  0.2383  0.1678  0.0059
 5734SOL    HW118101   1.956   1.706   0.499  0.5207 -0.0127  0.9232
 5734SOL    HW218102   1.835   1.687   0.608 -1.1352 -0.2843 -0.9002
 5735SOL     OW18103   5.794   6.621   5.627 -0.0890 -0.3099 -0.2919
 5735SOL    HW118104   5.805   6.718   5.604  0.4911 -0.4337 -0.5663
 5735SOL    HW218105   5.706   6.589   5.593  0.8681 -0.5660 -2.7463
 5736SOL     OW18106   6.985   2.085   4.578 -0.8837  0.2050 -0.0001
 5736SOL    HW118107   6.907   2.135   4.615 -0.2062  1.3591 -0.0617
 5736SOL    HW218108   7.069   2.139   4.593  0.0171 -1.3576  0.7824
 5737SOL     OW18109   5.807   3.497   2.256  0.0590  0.0735  0.0648
 5737SOL    HW118110   5.813   3.423   2.189  0.8154  0.1948 -0.0076
 5737SOL    HW218111   5.878   3.565   2.237  1.2314 -0.5927  1.8609
 5738SOL     OW18112   3.952   1.931   3.578  0.6534  0.3570  0.1758
 5738SOL    HW118113   3.926   1.847   3.626 -0.1152  1.2186  1.3126
 5738SOL    HW218114   3.869   1.985   3.558  1.3345  2.2214  2.0827
 5739SOL     OW18115   3.805   3.200   4.798 -0.0746 -0.1743 -0.3918
 5739SOL    HW118116   3.811   3.294   4.831 -1.5071 -0.4252  0.6868
 5739SOL    HW218117   3.758   3.199   4.709 -0.1260  0.1168 -0.3680
 5740SOL     OW18118   6.912   1.733   5.940 -0.6454  0.0228  0.6807
 5740SOL    HW118119   6.946   1.822   5.908 -0.8291  0.1550  0.8480
 5740SOL    HW218120   6.862   1.688   5.866  0.4746 -0.4788  0.2221
 5741SOL     OW18121   2.080   6.121   2.520 -0.5938 -0.3231  0.1345
 5741SOL    HW118122   2.042   6.132   2.612  3.1880  2.1118  1.6273
 5741SOL    HW218123   2.037   6.188   2.458 -1.2574 -0.1068  0.8124
 5742SOL     OW18124   3.646   3.105   1.655  0.6876 -0.4567  0.0787
 5742SOL    HW118125   3.611   3.131   1.565 -0.4773 -1.5725  0.1802
 5742SOL    HW218126   3.734   3.149   1.671 -0.9185  3.1480  0.0951
 5743SOL     OW18127   3.937   1.790   3.320 -0.2098  0.1683  0.0876
 5743SOL    HW118128   4.019   1.773   3.376 -0.2517 -0.5031 -0.0426
 5743SOL    HW218129   3.868   1.836   3.375  0.0711  0.2796  0.3475
 5744SOL     OW18130   0.605   4.608   5.614  0.1375  0.2435 -0.0500
 5744SOL    HW118131   0.651   4.664   5.683 -0.4515  0.0291  0.5254
 5744SOL    HW218132   0.673   4.551   5.568  0.6934  1.1665 -0.4009
 5745SOL     OW18133   1.098   5.999   0.998 -0.0661  0.2525  0.1562
 5745SOL    HW118134   1.136   5.907   1.012 -2.0536 -0.5538  0.5093
 5745SOL    HW218135   1.161   6.051   0.940  0.8638 -1.5120 -0.5293
 5746SOL     OW18136   6.083   2.685   1.908 -0.4837 -0.0204 -0.1191
 5746SOL    HW118137   6.065   2.767   1.853 -0.0652 -0.4853 -0.9639
 5746SOL    HW218138   6.142   2.623   1.857  0.2319 -0.2997  1.0165
 5747SOL     OW18139   0.131   4.049   5.879  0.1355  0.4238 -0.1253
 5747SOL    HW118140   0.041   4.023   5.845 -0.3849 -0.2421  1.6306
 5747SOL    HW218141   0.165   3.977   5.940  0.3754  2.0969  1.8220
 5748SOL     OW18142   1.859   6.619   3.023 -0.3901  0.2672 -0.4587
 5748SOL    HW118143   1.791   6.682   3.061 -1.2334 -0.6869 -0.3613
 5748SOL    HW218144   1.813   6.546   2.973  0.4943 -0.9817  0.4806
 5749SOL     OW18145   1.996   6.956   0.485  0.7763  0.3972 -0.4628
 5749SOL    HW118146   2.029   6.889   0.419 -0.6625  0.8743 -1.7318
 5749SOL    HW218147   2.069   6.980   0.548  1.8698 -0.9063 -1.1932
 5750SOL     OW18148   3.557   5.925   0.367 -0.3835 -0.1519  0.0502
 5750SOL    HW118149   3.540   5.865   0.445 -0.8480  0.8644  0.7410
 5750SOL    HW218150   3.570   5.869   0.285 -0.3966 -1.2104  0.7495
 5751SOL     OW18151   2.730   4.204   0.065 -0.5878  0.1392  0.5233
 5751SOL    HW118152   2.829   4.203   0.050 -0.6687  2.0771 -0.4856
 5751SOL    HW218153   2.694   4.112   0.054  1.1649 -0.7113  1.4518
 5752SOL     OW18154   2.397   1.496   5.002  0.0490 -0.2766 -0.0934
 5752SOL    HW118155   2.391   1.583   5.051  0.8835 -0.5155  0.4593
 5752SOL    HW218156   2.383   1.421   5.066 -1.2313 -0.5440 -0.6744
 5753SOL     OW18157   4.166   0.020   1.623  0.3178 -0.2976 -0.1543
 5753SOL    HW118158   4.218   0.065   1.697 -0.9866  1.4682 -0.2356
 5753SOL    HW218159   4.070   0.045   1.631 -0.3813 -2.6517 -0.6310
 5754SOL     OW18160   3.360   6.663   6.724  0.3905  0.8069  0.6027
 5754SOL    HW118161   3.429   6.593   6.702  1.1680  1.1994  1.7128
 5754SOL    HW218162   3.268   6.625   6.711  0.8041 -0.3897  1.0901
 5755SOL     OW18163   6.547   3.622   3.324  0.1496  0.5747 -0.1151
 5755SOL    HW118164   6.453   3.655   3.325  0.0999  0.5718 -1.6831
 5755SOL    HW218165   6.596   3.655   3.404 -1.2157  0.4703  0.7886
 5756SOL     OW18166   1.870   3.681   4.916  0.1181 -0.3509 -0.0351
 5756SOL    HW118167   1.812   3.717   4.988  1.5660 -0.3171  1.1675
 5756SOL    HW218168   1.827   3.599   4.876 -0.4947 -0.6526  1.1934
 5757SOL     OW18169   6.819   5.020   0.737 -0.3038  0.1376 -0.5677
 5757SOL    HW118170   6.879   4.966   0.795 -0.3307 -1.4237 -1.9132
 5757SOL    HW218171   6.830   5.117   0.757  0.4105 -0.3047  1.2980
 5758SOL     OW18172   4.552   4.002   5.666 -0.0241 -0.2389  0.3695
 5758SOL    HW118173   4.540   3.912   5.707  0.2151  0.4372  1.9966
 5758SOL    HW218174   4.509   4.003   5.576 -2.1903 -1.2478  1.3120
 5759SOL     OW18175   4.661   0.338   6.487 -0.0946 -0.5410 -0.3681
 5759SOL    HW118176   4.575   0.288   6.475  1.1032 -2.8290  0.0435
 5759SOL    HW218177   4.700   0.359   6.397 -0.9650  0.3846 -0.5555
 5760SOL     OW18178   6.310   2.259   6.670  0.1985 -0.2166  0.2091
 5760SOL    HW118179   6.276   2.172   6.633  0.8221 -0.1825 -0.4736
 5760SOL    HW218180   6.238   2.303   6.724 -0.3971 -0.7570 -0.1273
 5761SOL     OW18181   2.957   6.419   2.296 -0.4135 -0.0905  0.5801
 5761SOL    HW118182   2.933   6.513   2.272 -0.1448 -0.1377  0.1072
 5761SOL    HW218183   2.878   6.360   2.283 -0.3071 -0.0950 -0.1144
 5762SOL     OW18184   4.789   5.552   6.445  0.3804 -0.6568 -0.0590
 5762SOL    HW118185   4.702   5.553   6.394 -0.6663 -1.3770  1.6356
 5762SOL    HW218186   4.848   5.481   6.407 -0.7622 -1.8366  0.3035
 5763SOL     OW18187   5.491   5.058   5.823 -0.1771  0.0278 -0.5650
 5763SOL    HW118188   5.423   5.061   5.897 -0.9316 -0.9903 -1.1817
 5763SOL    HW218189   5.508   5.150   5.790 -1.1062  0.3341 -0.2416
 5764SOL     OW18190   6.729   0.346   0.610 -0.4859  0.0600 -0.1872
 5764SOL    HW118191   6.687   0.432   0.582  0.3236  0.9528  1.2276
 5764SOL    HW218192   6.787   0.361   0.690  1.6292 -1.3184 -1.3440
 5765SOL     OW18193   2.684   1.176   2.107 -0.2591 -0.7050 -0.1675
 5765SOL    HW118194   2.600   1.139   2.067  0.8961 -3.0555 -0.6211
 5765SOL    HW218195   2.750   1.195   2.034  0.1538 -0.3722  0.2826
 5766SOL     OW18196   3.280   3.628   2.411  0.2558  0.0143 -0.4705
 5766SOL    HW118197   3.223   3.698   2.369 -0.9372 -0.7353 -0.1525
 5766SOL    HW218198   3.346   3.671   2.473 -1.0006  0.8242  0.3551
 5767SOL     OW18199   1.885   5.638   5.377  0.4082 -0.1655  0.4287
 5767SOL    HW118200   1.933   5.605   5.295  1.1345  0.4257  0.6139
 5767SOL    HW218201   1.869   5.736   5.369 -0.7962 -0.3522  0.3639
 5768SOL     OW18202   4.916   4.681   1.204  0.1052 -0.8357  0.5262
 5768SOL    HW118203   4.895   4.589   1.239 -1.3423 -0.1866  1.4606
 5768SOL    HW218204   4.835   4.739   1.212  1.0735  0.6115  0.2143
 5769SOL     OW18205   4.845   0.366   6.700 -0.4882  0.3366 -0.3074
 5769SOL    HW118206   4.793   0.339   6.619 -0.6281 -0.1159 -0.0705
 5769SOL    HW218207   4.788   0.424   6.758 -0.0308  1.5895 -1.0492
 5770SOL     OW18208   5.339   4.869   3.414 -0.2003  0.1666 -0.3110
 5770SOL    HW118209   5.278   4.828   3.481 -1.2877 -0.3713 -1.5708
 5770SOL    HW218210   5.381   4.797   3.359  0.5257  0.5997 -0.3342
 5771SOL     OW18211   4.825   0.872   4.863  0.6770 -0.5603  0.5476
 5771SOL    HW118212   4.798   0.791   4.810  2.3151 -0.6031 -0.2802
 5771SOL    HW218213   4.745   0.908   4.912 -0.8501 -0.6755 -1.7373
 5772SOL     OW18214   2.872   3.433   0.779  0.0766 -0.4596  0.1167
 5772SOL    HW118215   2.812   3.472   0.709 -0.2980  0.6848  1.0496
 5772SOL    HW218216   2.820   3.418   0.863  0.5931 -1.5592  0.2609
 5773SOL     OW18217   4.817   3.260   5.767  0.1284 -0.5651  0.2275
 5773SOL    HW118218   4.856   3.227   5.852  0.2069  1.8653  1.2130
 5773SOL    HW218219   4.889   3.267   5.698  0.6054 -0.0972  0.7615
 5774SOL     OW18220   4.919   2.713   1.744  0.0094  0.9332 -0.4886
 5774SOL    HW118221   4.852   2.675   1.680 -0.6542 -0.3274  0.8754
 5774SOL    HW218222   4.876   2.785   1.798 -1.0178 -1.2452  1.8166
 5775SOL     OW18223   3.519   4.641   6.137  0.3469  0.0490  0.0847
 5775SOL    HW118224   3.448   4.682   6.194 -2.3413 -1.6337 -1.7906
 5775SOL    HW218225   3.552   4.708   6.071 -0.5329  0.5329  0.1194
 5776SOL     OW18226   6.567   4.878   4.713 -0.3073  0.2725 -0.6811
 5776SOL    HW118227   6.583   4.936   4.793  1.1583 -0.5854 -0.2983
 5776SOL    HW218228   6.477   4.898   4.674 -1.7002 -0.2068  1.9946
 5777SOL     OW18229   5.738   5.862   0.784  0.0368  0.3349 -0.0449
 5777SOL    HW118230   5.645   5.851   0.818 -0.4690  0.6073 -1.2964
 5777SOL    HW218231   5.772   5.953   0.808 -0.5968  0.8076 -0.8717
 5778SOL     OW18232   6.378   2.955   0.899 -0.4596  0.0437  0.3042
 5778SOL    HW118233   6.295   2.899   0.904 -0.5914  0.0921 -0.9932
 5778SOL    HW218234   6.444   2.912   0.838 -1.5474  2.4454 -2.8170
 5779SOL     OW18235   2.284   0.134   1.092  0.6778  0.3373  0.4158
 5779SOL    HW118236   2.345   0.115   1.015 -0.7105 -2.7371 -0.1096
 5779SOL    HW218237   2.295   0.062   1.161 -1.7404  0.1192  0.6557
 5780SOL     OW18238   5.204   6.125   4.679  0.4862  0.0169 -0.1720
 5780SOL    HW118239   5.185   6.206   4.623 -1.5956 -0.6016 -0.4537
 5780SOL    HW218240   5.194   6.149   4.776  0.1134  0.1686 -0.2458
 5781SOL     OW18241   7.016   6.540   6.701 -0.2898  0.1509  0.1946
 5781SOL    HW118242   6.947   6.501   6.762 -0.7117  0.1032 -0.3103
 5781SOL    HW218243   7.070   6.467   6.660  0.1059  0.1906  0.6332
 5782SOL     OW18244   4.399   0.858   0.327  0.4266  0.1978  0.3011
 5782SOL    HW118245   4.331   0.866   0.401  0.4659  2.3073  0.1601
 5782SOL    HW218246   4.384   0.773   0.277 -0.4648 -0.6189  1.8868
 5783SOL     OW18247   6.320   4.000   5.372  0.2538  0.2811 -0.3578
 5783SOL    HW118248   6.349   4.035   5.282  0.8210  0.4962 -0.0943
 5783SOL    HW218249   6.311   4.077   5.435 -2.0995  0.3881 -0.7453
 5784SOL     OW18250   2.500   4.412   5.201 -0.3265 -0.0153 -0.0808
 5784SOL    HW118251   2.586   4.454   5.229 -1.0394  1.9919 -0.7108
 5784SOL    HW218252   2.478   4.337   5.263  2.1880 -1.0605 -0.3197
 5785SOL     OW18253   5.659   2.103   4.527 -0.0653 -0.8444  0.4718
 5785SOL    HW118254   5.621   2.177   4.471  1.1119  0.7523  1.6938
 5785SOL    HW218255   5.701   2.035   4.467  0.1129  0.2004 -0.6384
 5786SOL     OW18256   2.583   4.525   2.475  0.0048 -0.7546  0.2296
 5786SOL    HW118257   2.527   4.448   2.443 -0.2141 -0.6162  0.2741
 5786SOL    HW218258   2.641   4.557   2.401 -1.0086  0.0182 -0.2600
 5787SOL     OW18259   4.592   1.694   6.126  0.0006 -0.0667  0.0000
 5787SOL    HW118260   4.526   1.706   6.200  0.0427  1.4762 -0.1770
 5787SOL    HW218261   4.684   1.710   6.161  0.2769 -1.7249  0.1320
 5788SOL     OW18262   4.853   1.768   6.218  0.0599  0.3734 -0.3220
 5788SOL    HW118263   4.836   1.842   6.283 -1.0549 -1.0067  1.0225
 5788SOL    HW218264   4.952   1.754   6.208  0.2496  0.7434  0.9248
 5789SOL     OW18265   6.321   2.117   3.333  0.8175  0.1417  0.0608
 5789SOL    HW118266   6.370   2.193   3.290  1.7402 -0.4230  0.0898
 5789SOL    HW218267   6.278   2.061   3.262  0.5044  0.4291  0.0161
 5790SOL     OW18268   1.497   3.937   4.723  0.0217  0.3104 -0.0042
 5790SOL    HW118269   1.422   3.920   4.658 -0.5372  0.4285  0.5987
 5790SOL    HW218270   1.462   3.989   4.801  0.8347  0.7531  0.0737
 5791SOL     OW18271   1.690   6.439   2.876 -0.8701  0.5672 -0.4785
 5791SOL    HW118272   1.654   6.358   2.830 -0.7073 -0.3431  0.9162
 5791SOL    HW218273   1.735   6.498   2.810 -0.1409 -0.9626 -1.4127
 5792SOL     OW18274   3.175   0.883   1.292 -0.0267  0.3396  0.2189
 5792SOL    HW118275   3.151   0.885   1.389 -0.9769 -0.8320  0.0270
 5792SOL    HW218276   3.146   0.969   1.249 -0.2740  0.5610  0.8151
 5793SOL     OW18277   4.999   2.846   4.526  0.0980  0.2218  0.1240
 5793SOL    HW118278   5.017   2.811   4.618 -0.4588 -1.4209 -0.3574
 5793SOL    HW218279   5.084   2.847   4.473  0.4978  1.5502  0.7486
 5794SOL     OW18280   3.666   1.188   4.111  0.6770  0.1684  0.0465
 5794SOL    HW118281   3.583   1.235   4.143  1.8899  2.5281 -0.0191
 5794SOL    HW218282   3.736   1.194   4.181  0.9658 -1.4132 -0.0785
 5795SOL     OW18283   6.364   0.166   6.517  0.5021 -0.0154  0.3371
 5795SOL    HW118284   6.453   0.148   6.474 -0.0042 -0.7491 -0.4256
 5795SOL    HW218285   6.374   0.240   6.583  1.3004  1.2332 -1.1082
 5796SOL     OW18286   6.298   2.672   5.446 -0.2644  0.5046 -0.2975
 5796SOL    HW118287   6.208   2.715   5.440 -0.0283  0.9207 -0.7977
 5796SOL    HW218288   6.292   2.578   5.411 -0.3040  0.8252 -1.1549
 5797SOL     OW18289   1.067   1.564   3.826  0.0235 -0.1062 -0.0676
 5797SOL    HW118290   1.088   1.562   3.924 -1.3000 -0.4257  0.2281
 5797SOL    HW218291   1.060   1.659   3.795  0.2735 -0.0031  0.1876
 5798SOL     OW18292   6.382   3.983   1.466 -0.1769  0.5934 -0.0557
 5798SOL    HW118293   6.336   3.897   1.491  0.7296 -0.1226 -0.7694
 5798SOL    HW218294   6.409   4.032   1.549  0.8053 -0.6516  0.3962
 5799SOL     OW18295   1.117   3.159   5.101 -0.2933  0.2524 -0.0552
 5799SOL    HW118296   1.051   3.235   5.096 -1.3516 -0.6991 -1.2696
 5799SOL    HW218297   1.110   3.115   5.190 -0.4616  0.8853  0.2536
 5800SOL     OW18298   0.457   6.572   1.614 -0.2179 -0.4684  0.0196
 5800SOL    HW118299   0.514   6.655   1.618  2.4253 -2.1589 -0.1362
 5800SOL    HW218300   0.433   6.544   1.707 -1.1288  0.4186  0.0747
 5801SOL     OW18301   1.094   6.060   4.200 -0.2386  0.0027  0.6962
 5801SOL    HW118302   1.168   5.996   4.219 -0.2764  0.1773  1.4684
 5801SOL    HW218303   1.049   6.085   4.285 -0.6531  0.5427  0.3278
 5802SOL     OW18304   0.112   4.410   3.448 -0.0714  0.3576  0.3039
 5802SOL    HW118305   0.187   4.380   3.508 -0.0182  1.2116  0.6816
 5802SOL    HW218306   0.031   4.429   3.503 -0.7405 -1.0371 -0.1579
 5803SOL     OW18307   1.464   4.383   1.177  0.3353  0.1240  0.6800
 5803SOL    HW118308   1.407   4.307   1.207  1.2495 -0.6827  0.4034
 5803SOL    HW218309   1.537   4.350   1.118  0.6182  1.2469  0.3667
 5804SOL     OW18310   3.533   0.771   1.661  0.5210  0.0664 -0.6710
 5804SOL    HW118311   3.606   0.835   1.637 -1.3807  1.8010 -2.2367
 5804SOL    HW218312   3.516   0.710   1.584  1.3596 -1.4693  0.2986
 5805SOL     OW18313   1.150   0.765   4.355  0.1282  0.0717  0.4316
 5805SOL    HW118314   1.186   0.847   4.401  0.1561  1.0201 -1.1859
 5805SOL    HW218315   1.052   0.759   4.372 -0.5462  2.3118 -1.9403
 5806SOL     OW18316   5.314   3.973   5.277 -0.0411  0.0470 -0.4631
 5806SOL    HW118317   5.240   3.907   5.265 -0.8727  0.7637  0.5488
 5806SOL    HW218318   5.375   3.941   5.350 -2.6461  2.1444  2.9400
 5807SOL     OW18319   1.665   5.045   4.048  0.1986 -0.2441 -0.4350
 5807SOL    HW118320   1.700   4.952   4.060  1.2237  0.2579  0.7210
 5807SOL    HW218321   1.585   5.059   4.106  0.4856 -0.1895 -0.0485
 5808SOL     OW18322   5.801   0.094   0.856  0.3703  0.0241 -0.4971
 5808SOL    HW118323   5.894   0.058   0.862 -0.1990 -1.2254  1.8770
 5808SOL    HW218324   5.736   0.019   0.847 -0.4049  0.9337 -4.1666
 5809SOL     OW18325   0.481   1.426   2.981 -0.2398  0.1907  0.0495
 5809SOL    HW118326   0.568   1.471   3.002  0.4272 -0.3696 -1.3686
 5809SOL    HW218327   0.477   1.338   3.028 -0.4909  0.6410  0.8975
 5810SOL     OW18328   4.885   0.942   1.331 -0.1817 -0.1742  0.2291
 5810SOL    HW118329   4.875   0.875   1.257  1.7304 -1.3682  0.9870
 5810SOL    HW218330   4.938   1.020   1.298 -1.0418  0.2480 -0.1957
 5811SOL     OW18331   1.571   6.690   5.226 -0.6488 -0.3678 -0.3549
 5811SOL    HW118332   1.558   6.744   5.308  0.8352 -0.9716  0.3201
 5811SOL    HW218333   1.664   6.703   5.192 -0.9823 -0.7735 -1.4603
 5812SOL     OW18334   1.738   1.677   2.842  0.1714 -0.1353 -0.0831
 5812SOL    HW118335   1.665   1.687   2.910  0.0571 -0.0537 -0.2160
 5812SOL    HW218336   1.744   1.761   2.788 -0.2794 -0.4926 -0.7082
 5813SOL     OW18337   1.689   0.299   1.217  0.2507  0.0998 -0.3761
 5813SOL    HW118338   1.729   0.218   1.261  3.0005  1.0506 -0.9614
 5813SOL    HW218339   1.630   0.347   1.283  0.0340 -1.3453  0.5399
 5814SOL     OW18340   1.279   3.903   0.886 -0.5484  0.1444  0.2564
 5814SOL    HW118341   1.296   3.992   0.845 -0.0890 -0.5845 -1.2062
 5814SOL    HW218342   1.366   3.854   0.897 -0.6928  0.2024  1.8694
 5815SOL     OW18343   4.724   2.582   6.797  0.0607  0.9071 -0.2109
 5815SOL    HW118344   4.724   2.535   6.708 -2.3797  1.8109 -0.7824
 5815SOL    HW218345   4.782   2.663   6.792 -0.7223  1.4401 -1.3272
 5816SOL     OW18346   0.711   2.900   0.536 -0.6615 -0.5893  0.1252
 5816SOL    HW118347   0.787   2.953   0.574 -0.4099 -0.9672  0.1581
 5816SOL    HW218348   0.733   2.803   0.541 -0.4626 -0.6380 -1.3290
 5817SOL     OW18349   4.471   2.563   1.262 -0.1847 -0.2057  0.2331
 5817SOL    HW118350   4.399   2.503   1.227 -1.5577  1.3882  0.1557
 5817SOL    HW218351   4.550   2.560   1.201 -0.4979 -1.3835 -0.1367
 5818SOL     OW18352   1.686   4.945   4.946 -0.1649 -0.2565 -0.0428
 5818SOL    HW118353   1.613   4.911   4.886 -0.0180 -0.5672 -0.0443
 5818SOL    HW218354   1.764   4.883   4.943  1.3086  1.5271 -2.3153
 5819SOL     OW18355   2.487   2.103   3.476  0.2127 -0.1061  0.2534
 5819SOL    HW118356   2.460   2.132   3.384 -0.1709  1.0513  0.7240
 5819SOL    HW218357   2.565   2.041   3.469  0.3811  0.2060 -0.8322
 5820SOL     OW18358   1.563   4.614   6.241 -0.4156 -0.7488  0.0647
 5820SOL    HW118359   1.569   4.537   6.178 -0.6809 -1.1388  0.5071
 5820SOL    HW218360   1.512   4.688   6.198  0.0927 -0.7036 -0.4732
 5821SOL     OW18361   5.258   3.583   1.780  0.4017  0.1327 -0.8956
 5821SOL    HW118362   5.285   3.679   1.772  0.1581  0.2515 -0.3381
 5821SOL    HW218363   5.159   3.575   1.764  0.3959 -0.0072 -0.7835
 5822SOL     OW18364   6.776   2.283   4.008  0.2328  0.3592 -0.1735
 5822SOL    HW118365   6.863   2.322   3.978  0.2650  0.0193 -0.5384
 5822SOL    HW218366   6.701   2.323   3.955  0.0284  1.4978  0.9119
 5823SOL     OW18367   0.269   1.887   1.078 -0.7183 -0.1845  0.0973
 5823SOL    HW118368   0.289   1.815   1.012 -1.3455  1.0730 -1.5302
 5823SOL    HW218369   0.202   1.950   1.040 -0.4712  1.0659  1.6139
 5824SOL     OW18370   5.973   0.054   4.401  0.5446 -0.3808  0.0628
 5824SOL    HW118371   6.068   0.067   4.372  0.3079 -1.8633 -1.6139
 5824SOL    HW218372   5.915   0.048   4.320 -0.8493 -0.4359  1.0393
 5825SOL     OW18373   3.611   4.731   5.421 -0.4137  0.0056 -0.7225
 5825SOL    HW118374   3.517   4.717   5.392 -0.2612 -0.3758 -1.0355
 5825SOL    HW218375   3.667   4.653   5.393 -0.3482 -0.5809  0.9464
 5826SOL     OW18376   6.351   1.324   5.773  0.8629 -0.6803  0.0100
 5826SOL    HW118377   6.362   1.386   5.850  1.6806  0.3682 -0.9257
 5826SOL    HW218378   6.420   1.343   5.703 -0.9605 -0.3519 -1.8055
 5827SOL     OW18379   3.835   1.794   2.302 -0.5800  0.1910 -0.2006
 5827SOL    HW118380   3.816   1.859   2.376 -0.2069  0.5922 -0.4482
 5827SOL    HW218381   3.904   1.833   2.241 -1.7378  0.3941 -1.4352
 5828SOL     OW18382   0.870   1.842   5.510 -0.6441 -0.2109 -0.8813
 5828SOL    HW118383   0.906   1.925   5.468 -0.4777 -0.9146 -2.1769
 5828SOL    HW218384   0.918   1.824   5.596 -1.7372  1.8621  0.2383
 5829SOL     OW18385   3.228   5.428   5.096  0.3256  0.4575 -0.3459
 5829SOL    HW118386   3.215   5.360   5.024 -0.3211  0.7009 -0.4642
 5829SOL    HW218387   3.258   5.514   5.055 -0.7848  0.8215 -0.4160
 5830SOL     OW18388   5.827   1.733   3.563 -0.3113  0.3163  0.1570
 5830SOL    HW118389   5.899   1.780   3.614  0.4352 -0.4114 -0.2134
 5830SOL    HW218390   5.738   1.752   3.606  0.1460  0.8330  0.8995
 5831SOL     OW18391   0.839   7.008   4.464  0.0125  0.5024  0.4567
 5831SOL    HW118392   0.832   7.040   4.369  0.9701 -1.8766 -0.4942
 5831SOL    HW218393   0.932   7.022   4.496 -0.2121  0.9328  0.9381
 5832SOL     OW18394   2.654   0.281   5.071 -0.0915 -0.7566  1.1964
 5832SOL    HW118395   2.695   0.362   5.113 -0.0667  0.1397 -0.4675
 5832SOL    HW218396   2.567   0.261   5.114 -0.9217  1.2125  0.5278
 5833SOL     OW18397   0.474   4.595   3.366  0.4283 -0.2448 -0.2647
 5833SOL    HW118398   0.455   4.662   3.294  2.4439  0.4181 -0.2316
 5833SOL    HW218399   0.529   4.637   3.437  2.0565 -2.0040 -0.4098
 5834SOL     OW18400   0.374   4.772   5.818  0.1797 -0.1546  0.3976
 5834SOL    HW118401   0.460   4.779   5.768  2.1028  1.7705  3.5838
 5834SOL    HW218402   0.375   4.689   5.874 -1.3399 -1.5633 -1.5431
 5835SOL     OW18403   0.419   1.143   2.255  0.4506  0.3086  0.4617
 5835SOL    HW118404   0.481   1.120   2.180  0.8539 -0.8039  1.1045
 5835SOL    HW218405   0.429   1.239   2.278 -0.4004  0.9330 -1.5385
 5836SOL     OW18406   6.554   5.813   5.305  0.7061  0.0928 -0.1227
 5836SOL    HW118407   6.591   5.721   5.308 -0.2641 -0.2945  1.3010
 5836SOL    HW218408   6.614   5.874   5.357  1.5548  0.3721 -1.3905
 5837SOL     OW18409   1.217   0.047   6.154 -0.2452  0.4433  0.4019
 5837SOL    HW118410   1.262   0.068   6.067  4.2405 -0.4740  2.2396
 5837SOL    HW218411   1.193   0.132   6.201 -1.4921  0.9465 -1.0732
 5838SOL     OW18412   6.173   0.781   2.421  0.3852 -0.0663  0.0850
 5838SOL    HW118413   6.170   0.878   2.399 -0.9288  0.1724  1.1568
 5838SOL    HW218414   6.081   0.748   2.439  0.6406 -1.8783 -1.6243
 5839SOL     OW18415   0.847   2.380   5.486  0.0503 -0.3987 -0.3583
 5839SOL    HW118416   0.938   2.408   5.456  0.4915 -1.5053 -0.1176
 5839SOL    HW218417   0.778   2.428   5.432  0.6922  2.1117  0.8900
 5840SOL     OW18418   1.938   2.639   5.064 -0.2969 -0.0946  0.2103
 5840SOL    HW118419   1.862   2.640   5.128 -1.7021 -0.3125 -1.3916
 5840SOL    HW218420   2.023   2.616   5.113 -1.6281 -2.2597  1.6232
 5841SOL     OW18421   0.171   4.964   1.207 -0.2900 -0.3403  0.4701
 5841SOL    HW118422   0.144   4.984   1.113  1.1432  0.8675  0.2877
 5841SOL    HW218423   0.245   5.025   1.235 -1.5498  0.2202  2.8420
 5842SOL     OW18424   0.386   2.877   2.001  0.7049  0.6093 -0.7668
 5842SOL    HW118425   0.317   2.838   2.063  0.5973  0.9581 -0.6589
 5842SOL    HW218426   0.363   2.854   1.907 -0.0668  1.4543 -0.8070
 5843SOL     OW18427   0.338   5.646   1.469  0.0714 -0.1287 -0.1708
 5843SOL    HW118428   0.357   5.640   1.567  0.2276 -0.6306 -0.2294
 5843SOL    HW218429   0.356   5.557   1.426 -1.0601 -0.2274 -0.4693
 5844SOL     OW18430   3.655   6.424   3.890 -0.3710 -0.1085  0.0451
 5844SOL    HW118431   3.622   6.435   3.796  0.3758 -0.1075 -0.2229
 5844SOL    HW218432   3.660   6.513   3.935  0.9559  0.1324 -0.5076
 5845SOL     OW18433   3.759   6.947   3.099  0.2080  0.4058  0.4727
 5845SOL    HW118434   3.768   7.035   3.053 -1.1484  1.1864  1.6364
 5845SOL    HW218435   3.722   6.961   3.191 -0.3595 -1.4150  0.5574
 5846SOL     OW18436   6.582   0.142   4.410  0.2192 -0.0320  0.6694
 5846SOL    HW118437   6.572   0.230   4.364 -0.5548  0.3780  1.5919
 5846SOL    HW218438   6.497   0.118   4.455  0.1509 -1.6561 -0.2254
 5847SOL     OW18439   2.083   4.496   1.968 -0.6131 -0.2055  0.0225
 5847SOL    HW118440   2.042   4.568   2.025 -1.0678 -1.2548  1.0568
 5847SOL    HW218441   2.076   4.409   2.015 -1.2272 -1.1663 -1.7600
 5848SOL     OW18442   1.026   3.259   1.148 -0.0262  0.3904 -0.1162
 5848SOL    HW118443   1.093   3.332   1.132  0.8040 -0.0246  1.2851
 5848SOL    HW218444   0.975   3.278   1.232 -1.0436  0.2223 -0.6769
 5849SOL     OW18445   1.971   0.449   3.752  0.2902  0.1517  0.0532
 5849SOL    HW118446   1.982   0.371   3.813 -0.0862  0.0951  0.0510
 5849SOL    HW218447   1.926   0.524   3.802  2.3517  1.0783  0.6448
 5850SOL     OW18448   2.197   4.082   3.209 -0.2685 -0.2053  0.3554
 5850SOL    HW118449   2.185   4.061   3.112  3.1408  1.4877 -0.5793
 5850SOL    HW218450   2.206   3.997   3.261 -1.4391 -1.1196 -0.8807
 5851SOL     OW18451   1.583   3.220   4.931  0.3574 -0.0802  0.0312
 5851SOL    HW118452   1.625   3.141   4.886 -0.4396  0.0052 -0.9060
 5851SOL    HW218453   1.496   3.241   4.886  0.8448  1.7242 -0.1386
 5852SOL     OW18454   1.627   2.755   6.762 -0.0334 -0.1719  0.1187
 5852SOL    HW118455   1.535   2.741   6.725  0.0547 -0.0194 -0.1589
 5852SOL    HW218456   1.630   2.841   6.813 -0.1816 -0.4306  0.5725
 5853SOL     OW18457   2.517   6.130   2.244  0.4694 -0.6345  0.1886
 5853SOL    HW118458   2.519   6.031   2.255 -1.9526 -1.0279 -1.8206
 5853SOL    HW218459   2.539   6.154   2.149 -0.3622  0.5904  0.2704
 5854SOL     OW18460   4.386   2.439   4.434 -0.0279  0.1810 -0.1176
 5854SOL    HW118461   4.319   2.444   4.508 -0.7266 -0.4895 -0.6759
 5854SOL    HW218462   4.445   2.519   4.437 -1.4872  1.3127 -0.1857
 5855SOL     OW18463   1.313   2.498   4.029  0.9583 -0.5392 -0.3827
 5855SOL    HW118464   1.387   2.510   3.963  1.5054 -0.9549  0.1463
 5855SOL    HW218465   1.262   2.584   4.037  0.6690 -0.5778 -1.5817
 5856SOL     OW18466   5.487   1.181   6.836 -0.0050 -0.1218  0.0498
 5856SOL    HW118467   5.485   1.082   6.856 -1.2331 -0.8131 -2.9307
 5856SOL    HW218468   5.575   1.219   6.863  0.1161 -1.7593  2.2747
 5857SOL     OW18469   6.179   3.461   0.862 -0.5502  0.5731  0.0738
 5857SOL    HW118470   6.186   3.452   0.961 -0.8056 -1.2089 -0.0458
 5857SOL    HW218471   6.262   3.424   0.819 -1.6342 -1.2942 -0.4756
 5858SOL     OW18472   6.503   6.824   5.969 -0.2997 -0.5738 -0.5097
 5858SOL    HW118473   6.454   6.908   5.944  1.4375  0.2308 -1.4441
 5858SOL    HW218474   6.477   6.797   6.061 -1.5832  0.4739 -0.5258
 5859SOL     OW18475   1.422   1.439   5.588 -0.2857 -0.3358  0.1137
 5859SOL    HW118476   1.511   1.410   5.620 -0.4263 -1.1002 -0.1811
 5859SOL    HW218477   1.424   1.452   5.489 -0.7606 -1.3588 -0.0441
 5860SOL     OW18478   1.549   0.612   4.534 -0.1180  0.4415 -0.0880
 5860SOL    HW118479   1.608   0.605   4.614 -0.8808  0.5382  0.4910
 5860SOL    HW218480   1.455   0.592   4.559 -0.2696 -0.1897 -1.1051
 5861SOL     OW18481   2.904   1.050   0.439  0.0904 -0.0671 -0.0148
 5861SOL    HW118482   2.933   1.015   0.350 -2.2104 -0.7551 -0.5722
 5861SOL    HW218483   2.908   0.975   0.506  1.8470  0.4568  0.5180
 5862SOL     OW18484   2.912   5.185   0.111  0.1607 -0.0179 -0.0221
 5862SOL    HW118485   2.972   5.258   0.076 -1.3371  1.1782 -0.2083
 5862SOL    HW218486   2.903   5.195   0.210 -0.9886  0.8161 -0.1953
 5863SOL     OW18487   4.531   5.433   2.164  0.1207 -0.3602  0.0189
 5863SOL    HW118488   4.491   5.525   2.164 -1.1596 -0.8911  1.1136
 5863SOL    HW218489   4.459   5.365   2.173  1.0910 -1.4718 -0.3660
 5864SOL     OW18490   3.571   1.474   5.593  0.1228  0.2333 -0.1526
 5864SOL    HW118491   3.655   1.470   5.539  1.0848  0.7389  1.2528
 5864SOL    HW218492   3.548   1.383   5.627 -0.2222 -0.0036 -1.0058
 5865SOL     OW18493   1.814   6.544   2.179 -0.1320  0.3021  0.1547
 5865SOL    HW118494   1.884   6.486   2.138  0.7858  0.0953  1.9466
 5865SOL    HW218495   1.801   6.625   2.122  0.1151 -0.6030 -1.2384
 5866SOL     OW18496   3.739   3.795   2.847 -0.2663 -0.4452  0.2127
 5866SOL    HW118497   3.673   3.725   2.821 -1.7290  0.4269  1.4147
 5866SOL    HW218498   3.812   3.753   2.900 -0.2984 -1.2910 -0.3843
 5867SOL     OW18499   5.676   4.868   3.496 -0.1946 -0.5421  0.6594
 5867SOL    HW118500   5.673   4.913   3.406  0.7579 -0.6444  0.5674
 5867SOL    HW218501   5.614   4.916   3.558  0.0062  0.2627  0.2666
 5868SOL     OW18502   1.256   1.225   6.442 -0.4628 -0.3468  0.1285
 5868SOL    HW118503   1.232   1.264   6.353 -1.0828  0.2116  0.5282
 5868SOL    HW218504   1.339   1.171   6.434  0.5866  1.2718 -0.4051
 5869SOL     OW18505   3.091   6.940   3.818 -1.0172  0.1378  0.1673
 5869SOL    HW118506   3.026   7.000   3.772 -1.6030 -0.7028 -0.1238
 5869SOL    HW218507   3.049   6.903   3.901 -1.2262 -1.0248 -0.4292
 5870SOL     OW18508   0.613   4.947   5.423  0.1994 -0.0534  0.5118
 5870SOL    HW118509   0.554   4.985   5.352 -0.6133 -0.5736  0.8789
 5870SOL    HW218510   0.646   4.857   5.395  0.2506 -0.0601  0.5926
 5871SOL     OW18511   6.007   5.663   2.666  0.0537 -0.1774  0.7788
 5871SOL    HW118512   6.104   5.651   2.685  0.4418  0.9376 -0.3998
 5871SOL    HW218513   5.964   5.573   2.657  1.4456 -0.7363 -0.9121
 5872SOL     OW18514   4.375   0.103   0.955 -0.0751 -0.0214 -0.2675
 5872SOL    HW118515   4.428   0.019   0.966  0.2930 -0.2141 -2.9642
 5872SOL    HW218516   4.278   0.081   0.956  0.0146 -0.4509 -0.6858
 5873SOL     OW18517   2.853   2.312   5.158  0.3146  0.3151 -0.2262
 5873SOL    HW118518   2.942   2.326   5.116  0.1981  0.3943 -0.4500
 5873SOL    HW218519   2.781   2.333   5.092  0.0945 -2.8140 -1.1075
 5874SOL     OW18520   6.945   2.764   2.723  0.6094 -1.0934 -0.4394
 5874SOL    HW118521   6.937   2.699   2.799 -0.8965  0.0617  0.4740
 5874SOL    HW218522   6.864   2.757   2.665 -0.2454  0.7609  0.4103
 5875SOL     OW18523   1.908   2.578   6.410 -0.4668  0.2314 -0.1992
 5875SOL    HW118524   1.861   2.534   6.334  1.4402  0.1962 -1.4191
 5875SOL    HW218525   1.844   2.637   6.459 -1.5999  0.7766 -2.2232
 5876SOL     OW18526   3.634   3.757   5.651 -0.6392  0.4997 -0.5745
 5876SOL    HW118527   3.660   3.661   5.654 -0.0884  0.6255 -1.1785
 5876SOL    HW218528   3.597   3.779   5.561  2.1795  1.5792 -1.5904
 5877SOL     OW18529   0.790   1.950   4.162 -0.0734 -0.2438  0.2831
 5877SOL    HW118530   0.886   1.975   4.157  0.1542 -1.0540  0.4673
 5877SOL    HW218531   0.756   1.932   4.069 -0.2798  0.8560  0.1341
 5878SOL     OW18532   1.679   1.377   6.897 -0.2439 -0.3399  0.1713
 5878SOL    HW118533   1.642   1.423   6.816  0.5336 -0.2179 -0.1250
 5878SOL    HW218534   1.605   1.360   6.962 -1.0913 -1.4556 -1.0382
 5879SOL     OW18535   3.407   6.700   4.096 -0.1882  0.2900  0.3694
 5879SOL    HW118536   3.506   6.697   4.080 -0.3810 -0.3063 -0.8555
 5879SOL    HW218537   3.360   6.651   4.023 -1.3191 -0.6811  1.6851
 5880SOL     OW18538   5.864   4.688   3.940 -0.6143 -0.1161  0.0180
 5880SOL    HW118539   5.815   4.774   3.927  0.7755  0.7520  0.2955
 5880SOL    HW218540   5.804   4.621   3.984 -1.1177  1.3852  1.7240
 5881SOL     OW18541   4.132   2.236   0.651  0.8043  0.5669  0.2395
 5881SOL    HW118542   4.122   2.265   0.556 -0.1260  1.0591  0.4700
 5881SOL    HW218543   4.079   2.298   0.710  2.1682  0.8717  1.1850
 5882SOL     OW18544   1.824   5.144   0.265  0.3760 -0.2613  0.4005
 5882SOL    HW118545   1.732   5.108   0.250 -0.7344  2.0156  1.1938
 5882SOL    HW218546   1.878   5.134   0.181 -1.3769  0.4527 -0.8803
 5883SOL     OW18547   1.085   3.789   4.712 -0.5161  0.0162 -0.3072
 5883SOL    HW118548   1.157   3.825   4.653 -0.5959 -0.8066 -0.9204
 5883SOL    HW218549   1.123   3.767   4.802 -0.5089  1.8054  0.1704
 5884SOL     OW18550   0.580   2.136   2.790 -0.1933  0.0442  0.3361
 5884SOL    HW118551   0.666   2.159   2.745 -0.4746  0.6808  0.1106
 5884SOL    HW218552   0.507   2.194   2.753 -0.7006 -0.4288  0.5868
 5885SOL     OW18553   4.526   0.595   3.968  0.7585 -0.3123 -0.1566
 5885SOL    HW118554   4.477   0.675   3.931  0.0898 -0.5131  0.2716
 5885SOL    HW218555   4.505   0.586   4.066  0.5618 -1.1965 -0.2711
 5886SOL     OW18556   0.696   1.250   5.688 -0.3925  0.0096 -0.2716
 5886SOL    HW118557   0.674   1.292   5.600  2.2633 -1.2001 -1.6169
 5886SOL    HW218558   0.692   1.319   5.760 -2.2128  1.1181 -1.3420
 5887SOL     OW18559   2.078   3.682   2.119  0.0629  0.2344 -0.7220
 5887SOL    HW118560   2.010   3.669   2.047 -0.3816  1.1764 -0.4833
 5887SOL    HW218561   2.152   3.616   2.107  1.0684  1.6798 -3.2831
 5888SOL     OW18562   4.614   4.910   1.938 -0.4029 -0.6910  0.8870
 5888SOL    HW118563   4.697   4.930   1.991 -0.6300  0.2736  0.9023
 5888SOL    HW218564   4.542   4.880   2.000 -0.4027 -0.4235  1.0189
 5889SOL     OW18565   3.695   5.449   2.913  0.4551 -0.0980  0.2339
 5889SOL    HW118566   3.746   5.441   2.999 -0.4184  0.2099  0.7874
 5889SOL    HW218567   3.635   5.529   2.917 -0.4215 -0.7198 -0.2333
 5890SOL     OW18568   5.799   3.786   0.475  0.3867  0.6009 -0.0221
 5890SOL    HW118569   5.896   3.804   0.490  0.0942  2.6640 -0.3180
 5890SOL    HW218570   5.755   3.768   0.562  0.7534  1.3529  0.3336
 5891SOL     OW18571   1.991   6.288   2.323  0.0044  0.2527  0.1264
 5891SOL    HW118572   1.950   6.339   2.248 -1.8983 -0.4272  0.6272
 5891SOL    HW218573   2.068   6.234   2.289 -0.0068  0.9505 -1.0510
 5892SOL     OW18574   0.408   2.873   4.386 -0.3400 -0.4880 -0.0007
 5892SOL    HW118575   0.348   2.886   4.466  0.0558 -1.2412  0.4330
 5892SOL    HW218576   0.502   2.893   4.411 -0.3814  0.5944 -0.6598
 5893SOL     OW18577   2.880   2.187   3.490  0.0717  0.9323  0.2688
 5893SOL    HW118578   2.849   2.136   3.409  2.6763  1.1761 -0.9783
 5893SOL    HW218579   2.848   2.281   3.484 -2.1841  0.2961  1.0588
 5894SOL     OW18580   1.100   6.869   5.216 -0.2984  0.1744  0.4214
 5894SOL    HW118581   1.112   6.954   5.164 -0.5244  0.2686  0.5241
 5894SOL    HW218582   1.008   6.833   5.201 -0.3574  0.1920  0.7435
 5895SOL     OW18583   1.823   4.335   1.804 -0.1967 -0.0964  0.1945
 5895SOL    HW118584   1.782   4.405   1.745 -1.2782  0.1398  1.1923
 5895SOL    HW218585   1.871   4.379   1.880 -0.1075 -0.4319  0.3341
 5896SOL     OW18586   3.262   0.511   4.136 -0.8704 -0.3207 -0.0083
 5896SOL    HW118587   3.216   0.426   4.162 -3.4333  0.9790  0.0349
 5896SOL    HW218588   3.304   0.499   4.046  0.7315 -2.2496  0.9179
 5897SOL     OW18589   6.680   0.924   3.657 -0.1834  0.0477 -0.1150
 5897SOL    HW118590   6.701   0.992   3.587 -2.7243  1.8421  0.7375
 5897SOL    HW218591   6.627   0.849   3.616 -1.5338  1.0158 -0.2045
 5898SOL     OW18592   2.799   5.610   6.401 -0.1928 -0.2698  0.1453
 5898SOL    HW118593   2.892   5.577   6.421 -0.5886 -1.8484 -0.5343
 5898SOL    HW218594   2.763   5.563   6.321 -1.4047  0.7129  0.0864
 5899SOL     OW18595   5.335   5.239   4.543  0.2475 -0.4460  0.2926
 5899SOL    HW118596   5.402   5.225   4.616 -0.2442 -0.8900  0.6768
 5899SOL    HW218597   5.260   5.295   4.578  0.6848  0.5417 -0.3062
 5900SOL     OW18598   0.753   5.302   6.829  0.0932 -0.0424  0.0917
 5900SOL    HW118599   0.815   5.376   6.856 -0.5090 -0.0216  1.5289
 5900SOL    HW218600   0.789   5.256   6.748  2.2495 -0.3251  1.1332
 5901SOL     OW18601   5.115   0.751   4.713  0.0444 -0.0669  0.2288
 5901SOL    HW118602   5.179   0.796   4.650 -1.2509  0.0127 -1.0876
 5901SOL    HW218603   5.163   0.680   4.764  0.7491 -1.6265 -2.3912
 5902SOL     OW18604   6.388   5.300   2.092  0.1811 -0.2663  0.6295
 5902SOL    HW118605   6.466   5.301   2.030  1.0034 -1.0063  1.6217
 5902SOL    HW218606   6.319   5.237   2.057 -0.7809  1.6380 -1.1483
 5903SOL     OW18607   5.131   1.794   5.586  0.1837 -0.1307 -0.1929
 5903SOL    HW118608   5.041   1.787   5.630  0.1312  0.7909 -0.1288
 5903SOL    HW218609   5.201   1.754   5.646 -0.1635 -0.7602 -0.1988
 5904SOL     OW18610   5.152   0.891   6.083  0.4468 -1.0150 -0.3889
 5904SOL    HW118611   5.137   0.888   5.985 -1.1550 -1.4877 -0.1484
 5904SOL    HW218612   5.161   0.986   6.113 -1.7762 -0.6985 -0.6336
 5905SOL     OW18613   3.225   1.913   2.754 -0.0830 -0.8424 -0.4819
 5905SOL    HW118614   3.127   1.910   2.774 -0.1674  0.1228 -0.6868
 5905SOL    HW218615   3.251   2.007   2.735  0.7638 -1.1914 -1.0639
 5906SOL     OW18616   3.992   4.073   0.714 -0.1506  0.2996 -0.0206
 5906SOL    HW118617   4.033   4.086   0.624 -0.4434  0.4110 -0.1385
 5906SOL    HW218618   3.893   4.065   0.704 -0.2025  0.5255  0.3132
 5907SOL     OW18619   0.715   5.259   2.759 -0.1662  0.3618 -0.0859
 5907SOL    HW118620   0.724   5.190   2.831  0.8979 -0.3821 -0.8986
 5907SOL    HW218621   0.741   5.219   2.671 -1.9449  1.0971 -1.0008
 5908SOL     OW18622   3.916   0.841   0.428 -0.5535  0.4244 -0.2887
 5908SOL    HW118623   3.915   0.885   0.519 -0.3097  1.1164 -0.6109
 5908SOL    HW218624   3.947   0.907   0.360 -0.0125 -0.3140 -0.7703
 5909SOL     OW18625   1.718   3.195   0.493  0.2557 -0.1149  0.1447
 5909SOL    HW118626   1.658   3.136   0.439  1.3610 -0.7207 -0.4436
 5909SOL    HW218627   1.724   3.285   0.449  0.1824 -0.2128 -0.0660
 5910SOL     OW18628   3.386   5.222   3.251  0.0067 -0.0991 -0.8432
 5910SOL    HW118629   3.336   5.163   3.315  0.6083 -0.0465 -0.3276
 5910SOL    HW218630   3.356   5.200   3.157 -2.7248  1.5232 -0.4571
 5911SOL     OW18631   1.355   2.020   2.524 -0.0896 -0.0681 -0.4300
 5911SOL    HW118632   1.317   1.989   2.437  1.1196 -0.9623 -0.6726
 5911SOL    HW218633   1.305   1.978   2.599 -0.4756 -0.1216 -0.7138
 5912SOL     OW18634   6.779   0.371   0.890 -0.3660  0.2452  0.0902
 5912SOL    HW118635   6.795   0.277   0.920  0.6929  0.5169  0.4157
 5912SOL    HW218636   6.860   0.426   0.909 -1.9151  1.8920  2.4825
 5913SOL     OW18637   5.511   4.304   1.645 -0.0910  0.3279 -0.5498
 5913SOL    HW118638   5.607   4.331   1.637  1.3383 -2.3952  3.7577
 5913SOL    HW218639   5.466   4.363   1.712 -0.6536 -0.0283 -0.6058
 5914SOL     OW18640   5.948   6.017   1.016 -0.1206  0.2493 -0.3581
 5914SOL    HW118641   6.009   5.960   0.960 -1.2506 -0.3501 -1.0223
 5914SOL    HW218642   5.888   6.069   0.956 -0.0630  1.0640  0.2826
 5915SOL     OW18643   5.518   1.396   5.046 -0.9666  0.2379 -0.4629
 5915SOL    HW118644   5.524   1.372   4.949 -1.0269 -1.3926 -0.0863
 5915SOL    HW218645   5.425   1.378   5.079 -1.4781  2.4923 -0.4960
 5916SOL     OW18646   0.113   3.371   4.067  0.2241  0.4016 -0.0127
 5916SOL    HW118647   0.117   3.276   4.036  0.7362 -0.2796  1.9805
 5916SOL    HW218648   0.144   3.376   4.163  0.6063  2.6352 -0.1991
 5917SOL     OW18649   4.354   4.309   1.649 -0.3107  0.3039  0.2847
 5917SOL    HW118650   4.282   4.242   1.633 -0.7748  1.1137 -1.2584
 5917SOL    HW218651   4.405   4.284   1.731 -1.6658 -0.8655  0.8201
 5918SOL     OW18652   3.242   2.512   6.480  0.4256 -0.6159  0.0583
 5918SOL    HW118653   3.156   2.516   6.430  0.9504  0.3745 -0.8209
 5918SOL    HW218654   3.316   2.489   6.417  1.2458  1.6147  0.1310
 5919SOL     OW18655   2.778   5.744   0.461 -0.1751 -0.7839 -0.4004
 5919SOL    HW118656   2.722   5.710   0.537 -0.1604 -1.7173 -0.7872
 5919SOL    HW218657   2.792   5.670   0.395 -0.2182  0.0298 -1.3340
 5920SOL     OW18658   2.833   0.978   0.719  0.1476 -0.1622 -0.4638
 5920SOL    HW118659   2.738   0.983   0.689 -0.2402  0.1035  0.7506
 5920SOL    HW218660   2.863   0.882   0.719 -0.7839 -0.4982  1.0222
 5921SOL     OW18661   5.701   4.505   3.244  0.1804  0.0433 -0.6058
 5921SOL    HW118662   5.640   4.428   3.266  0.1216  0.0363 -0.7997
 5921SOL    HW218663   5.716   4.559   3.327 -1.7551  1.2545 -1.0000
 5922SOL     OW18664   2.671   3.437   0.315  0.3555 -0.0414 -0.5305
 5922SOL    HW118665   2.625   3.472   0.234  1.6775 -0.6125 -1.5811
 5922SOL    HW218666   2.769   3.432   0.298  0.7729  0.5375  1.3973
 5923SOL     OW18667   0.044   4.995   0.302  0.4856  0.1340 -0.0209
 5923SOL    HW118668   0.084   5.033   0.385 -0.3097 -0.7510  0.7965
 5923SOL    HW218669   0.115   4.947   0.250  0.4680 -1.8569  1.6618
 5924SOL     OW18670   0.232   1.352   4.152  0.1284 -0.4637 -0.4323
 5924SOL    HW118671   0.260   1.422   4.217 -0.0868 -2.0586  1.4830
 5924SOL    HW218672   0.158   1.387   4.094  0.0224  0.8693  0.4732
 5925SOL     OW18673   6.680   4.494   0.430  0.4964 -0.3748 -0.0945
 5925SOL    HW118674   6.748   4.451   0.371 -0.3302  0.5790 -1.8255
 5925SOL    HW218675   6.663   4.587   0.399 -2.1060 -0.8013 -0.1835
 5926SOL     OW18676   3.684   0.401   0.033  0.4827 -0.3528 -0.1346
 5926SOL    HW118677   3.596   0.441   0.059  0.4648  0.4538 -1.3318
 5926SOL    HW218678   3.757   0.467   0.053  0.6560 -0.4568 -0.4166
 5927SOL     OW18679   6.259   6.899   3.772  0.8729 -0.3199 -0.7218
 5927SOL    HW118680   6.319   6.970   3.736 -0.1411  1.3326  0.6735
 5927SOL    HW218681   6.261   6.901   3.872 -1.5723 -0.0896 -0.6134
 5928SOL     OW18682   0.072   0.651   3.410 -0.0517  0.5314 -0.4333
 5928SOL    HW118683  -0.020   0.675   3.442 -0.6303  0.7313 -2.1128
 5928SOL    HW218684   0.140   0.701   3.464 -0.8216 -0.6611  1.7533
 5929SOL     OW18685   2.036   2.908   4.597  0.0715 -0.1074  0.0552
 5929SOL    HW118686   2.114   2.966   4.620 -0.1056  0.0834  0.1791
 5929SOL    HW218687   1.985   2.886   4.681 -2.7234  3.6109 -0.4050
 5930SOL     OW18688   6.110   0.909   5.709 -0.4923 -0.6062  0.7692
 5930SOL    HW118689   6.044   0.865   5.769 -1.0135  0.4919  1.0294
 5930SOL    HW218690   6.083   0.896   5.614 -1.3806  0.2549  0.8867
 5931SOL     OW18691   6.637   6.792   1.193  0.1173 -0.2284 -0.3509
 5931SOL    HW118692   6.538   6.780   1.205  0.1557  0.2010  0.4414
 5931SOL    HW218693   6.659   6.791   1.095 -0.3387 -2.8907 -0.5162
 5932SOL     OW18694   3.985   5.225   6.495  0.0431  0.0052  0.2689
 5932SOL    HW118695   3.930   5.226   6.579  0.1111 -0.5155  0.3277
 5932SOL    HW218696   3.924   5.226   6.416 -0.0072  1.2806  0.3050
 5933SOL     OW18697   1.581   4.745   0.892  0.5762 -0.4011 -0.2976
 5933SOL    HW118698   1.568   4.730   0.990  1.5878  2.4743  0.3980
 5933SOL    HW218699   1.493   4.743   0.846 -0.3826  1.5849  1.3044
 5934SOL     OW18700   1.239   2.323   3.732 -0.4193  0.3511  0.1318
 5934SOL    HW118701   1.334   2.352   3.748  0.0280 -1.1375  0.3804
 5934SOL    HW218702   1.212   2.348   3.639  0.3689  0.4133 -0.0914
 5935SOL     OW18703   0.587   3.295   2.307  0.2838  0.3779 -0.6487
 5935SOL    HW118704   0.671   3.286   2.361  0.2437 -0.3200 -0.6929
 5935SOL    HW218705   0.580   3.217   2.244 -0.6006  0.2240 -0.3677
 5936SOL     OW18706   0.535   1.693   1.964 -0.2209  0.1820 -0.1864
 5936SOL    HW118707   0.488   1.760   1.907  0.0067  1.9806  1.6330
 5936SOL    HW218708   0.605   1.739   2.019 -0.8535 -1.3372  2.0234
 5937SOL     OW18709   1.473   1.179   3.109  0.0142  0.3126  0.2439
 5937SOL    HW118710   1.515   1.092   3.083 -1.0025  1.0296 -4.9006
 5937SOL    HW218711   1.538   1.254   3.093 -0.4548  0.7969  0.5518
 5938SOL     OW18712   1.254   4.986   4.991  0.9039  0.2739  0.8770
 5938SOL    HW118713   1.209   4.946   5.071  0.9021  1.7194  1.6362
 5938SOL    HW218714   1.303   4.914   4.941 -2.2033 -1.4081 -0.0126
 5939SOL     OW18715   0.690   5.602   6.342  0.1037 -0.3666  0.3794
 5939SOL    HW118716   0.661   5.554   6.425 -0.0240 -0.1927  0.4360
 5939SOL    HW218717   0.724   5.535   6.275  0.4055 -0.4877  0.6505
 5940SOL     OW18718   2.211   2.870   2.704 -0.6423  0.1548 -0.0880
 5940SOL    HW118719   2.147   2.930   2.656  1.1185  0.7626 -1.8184
 5940SOL    HW218720   2.226   2.904   2.797 -0.7602  1.5843 -0.5713
 5941SOL     OW18721   6.971   2.010   5.891  0.8725  0.3360  0.6845
 5941SOL    HW118722   6.892   2.064   5.920 -0.3926 -0.3762 -1.2406
 5941SOL    HW218723   7.055   2.057   5.918 -0.1816  1.9093  1.3953
 5942SOL     OW18724   5.452   3.580   0.291 -0.0254  0.3802 -0.2574
 5942SOL    HW118725   5.517   3.617   0.224  0.7568  0.9848  0.7891
 5942SOL    HW218726   5.468   3.482   0.302 -0.8770  0.0559 -1.7138
 5943SOL     OW18727   0.788   6.120   6.566  0.5551  0.0414  0.2912
 5943SOL    HW118728   0.799   6.071   6.653 -0.8026  0.4476  0.7103
 5943SOL    HW218729   0.787   6.054   6.491 -2.5831 -0.7978  0.9440
 5944SOL     OW18730   2.646   0.833   1.577  0.7563 -0.5062  0.3417
 5944SOL    HW118731   2.684   0.917   1.537  0.0296 -0.3604 -0.0771
 5944SOL    HW218732   2.564   0.807   1.526 -0.4978 -0.0385  2.0304
 5945SOL     OW18733   0.634   6.510   0.621 -0.0594 -0.1859  0.2366
 5945SOL    HW118734   0.560   6.445   0.636 -0.8696  1.1163  2.3764
 5945SOL    HW218735   0.612   6.596   0.666  1.1497  1.4982 -2.1796
 5946SOL     OW18736   0.952   6.448   3.506 -0.2438  0.0590  0.0958
 5946SOL    HW118737   0.897   6.365   3.511  1.5864 -1.1784  0.8621
 5946SOL    HW218738   0.945   6.488   3.414  0.2465 -1.9799 -0.8807
 5947SOL     OW18739   2.181   0.197   4.273 -0.0850  0.1331 -0.1052
 5947SOL    HW118740   2.104   0.166   4.217  1.7685  0.1421 -2.8479
 5947SOL    HW218741   2.207   0.124   4.337  0.7175 -1.9523 -2.6285
 5948SOL     OW18742   3.235   1.215   0.954  0.1331  0.9214 -0.2519
 5948SOL    HW118743   3.313   1.251   0.902 -0.7730  0.1528 -2.2473
 5948SOL    HW218744   3.152   1.227   0.900 -0.7446 -0.6404  0.6965
 5949SOL     OW18745   0.355   2.518   3.380  0.1080 -0.0116  0.6582
 5949SOL    HW118746   0.321   2.445   3.440  1.1789 -1.0157  0.0906
 5949SOL    HW218747   0.397   2.477   3.299 -0.2986  1.2931 -0.2451
 5950SOL     OW18748   0.402   5.663   2.294  0.3546 -0.0841  0.4426
 5950SOL    HW118749   0.303   5.660   2.304  0.3540  0.4541  0.6537
 5950SOL    HW218750   0.429   5.753   2.259  0.8236  0.0590  1.1394
 5951SOL     OW18751   5.020   2.414   1.903  0.0484 -0.2185  0.3397
 5951SOL    HW118752   5.011   2.356   1.822 -0.8113  0.0286  0.2494
 5951SOL    HW218753   5.078   2.492   1.881 -0.2191 -0.1266 -0.0587
 5952SOL     OW18754   0.141   5.166   5.383  0.2708 -0.1387 -0.7631
 5952SOL    HW118755   0.168   5.245   5.328 -0.7473 -1.1818 -2.8887
 5952SOL    HW218756   0.122   5.195   5.477  0.0794  2.1111 -1.4486
 5953SOL     OW18757   5.151   6.140   5.706 -0.3733  0.3819  0.5375
 5953SOL    HW118758   5.210   6.081   5.761 -0.9971 -2.0716 -1.2542
 5953SOL    HW218759   5.207   6.205   5.655  0.7051 -1.0842 -0.2002
 5954SOL     OW18760   1.167   5.160   4.775  0.6891  0.1572 -0.0622
 5954SOL    HW118761   1.103   5.215   4.827  0.9735  0.0143  0.4456
 5954SOL    HW218762   1.207   5.090   4.834 -0.5293 -1.3651 -0.9662
 5955SOL     OW18763   6.424   2.269   1.435 -0.4550 -0.8683 -0.1282
 5955SOL    HW118764   6.401   2.358   1.395  0.0482 -1.1315 -1.0153
 5955SOL    HW218765   6.478   2.216   1.370 -0.5114 -1.7191  0.5063
 5956SOL     OW18766   1.996   3.912   5.418  0.0560  0.0010  0.1683
 5956SOL    HW118767   1.949   3.976   5.478 -0.0292  0.9058 -0.8350
 5956SOL    HW218768   2.059   3.857   5.472 -1.5862 -0.7233  1.4089
 5957SOL     OW18769   0.639   1.705   6.806  0.2305  0.0818 -0.3224
 5957SOL    HW118770   0.549   1.667   6.828  0.4876 -0.2057  0.2589
 5957SOL    HW218771   0.642   1.729   6.709 -0.8852  1.2531 -0.0883
 5958SOL     OW18772   5.344   1.651   3.873  0.2466 -0.3350 -0.5110
 5958SOL    HW118773   5.290   1.604   3.804  0.2725 -0.4611 -0.4452
 5958SOL    HW218774   5.301   1.739   3.894 -0.4535 -0.8392  0.2221
 5959SOL     OW18775   1.902   0.887   0.310 -0.2444 -0.0171 -0.2709
 5959SOL    HW118776   1.888   0.885   0.409 -0.6830 -2.1174 -0.3264
 5959SOL    HW218777   1.856   0.968   0.272  1.2609  1.7111  1.3572
 5960SOL     OW18778   1.428   4.446   6.947 -0.5740  0.1258 -0.2544
 5960SOL    HW118779   1.522   4.445   6.914  0.2075 -0.3462  1.7825
 5960SOL    HW218780   1.386   4.357   6.929 -0.4967  0.2058 -0.8315
 5961SOL     OW18781   3.572   2.023   2.791 -0.7137 -0.3823  0.0665
 5961SOL    HW118782   3.661   2.055   2.823 -0.5246 -0.8555  0.0194
 5961SOL    HW218783   3.584   1.975   2.704 -0.8815 -1.2362  0.4987
 5962SOL     OW18784   6.175   6.940   2.793  0.0025  0.0442  0.4573
 5962SOL    HW118785   6.251   6.979   2.742  1.1444  1.3772  2.9614
 5962SOL    HW218786   6.210   6.872   2.858 -1.0879 -0.1778  0.8339
 5963SOL     OW18787   0.066   0.108   0.170  0.2765 -0.4150 -0.9228
 5963SOL    HW118788   0.013   0.170   0.113  1.1963 -1.5843 -3.2410
 5963SOL    HW218789   0.164   0.127   0.157  0.5406 -1.6973 -0.9835
 5964SOL     OW18790   6.608   4.016   1.295  0.1029 -0.3807  0.0406
 5964SOL    HW118791   6.648   4.096   1.340 -0.7579 -0.9233  1.8735
 5964SOL    HW218792   6.518   3.998   1.334  0.2375 -2.1939 -0.3928
 5965SOL     OW18793   0.520   6.349   4.399  0.2271  0.4689 -0.2432
 5965SOL    HW118794   0.508   6.415   4.324  1.9880 -0.8335 -1.7639
 5965SOL    HW218795   0.434   6.302   4.416 -0.3667  1.2506 -0.9952
 5966SOL     OW18796   6.942   2.875   1.363  0.2292  0.3153  0.1609
 5966SOL    HW118797   7.017   2.934   1.393  1.0036  0.3956 -1.8003
 5966SOL    HW218798   6.856   2.926   1.369  0.7678  1.3705 -0.6810
 5967SOL     OW18799   5.908   0.954   4.303 -0.2016 -0.2149 -0.1464
 5967SOL    HW118800   5.981   0.929   4.240 -1.2360  0.5170 -1.7098
 5967SOL    HW218801   5.898   1.053   4.305 -1.9066 -0.3257 -0.9182
 5968SOL     OW18802   5.221   6.619   2.781 -0.3788  0.1210 -1.0363
 5968SOL    HW118803   5.195   6.522   2.789 -0.7886  0.2303 -0.9870
 5968SOL    HW218804   5.177   6.659   2.700 -0.9673  0.4933 -0.5482
 5969SOL     OW18805   4.832   2.429   7.012  0.1024  0.4321  0.4463
 5969SOL    HW118806   4.804   2.507   6.955  0.0567  0.4616  0.5091
 5969SOL    HW218807   4.776   2.426   7.095 -1.1147 -0.7239 -0.3905
 5970SOL     OW18808   0.710   2.678   5.848 -0.0927  0.3362 -0.3405
 5970SOL    HW118809   0.672   2.586   5.863  1.5578 -1.1328 -3.9416
 5970SOL    HW218810   0.673   2.715   5.763 -0.7890  3.1709  1.0838
 5971SOL     OW18811   0.628   4.593   2.031  0.3769  0.1648 -1.0352
 5971SOL    HW118812   0.610   4.501   2.065  0.2459  0.1978 -1.0145
 5971SOL    HW218813   0.545   4.630   1.990 -0.0012  0.8361  0.2740
 5972SOL     OW18814   4.290   2.198   2.657  0.0087  0.7169  0.1113
 5972SOL    HW118815   4.300   2.099   2.650  0.7503  0.7131  1.0235
 5972SOL    HW218816   4.309   2.240   2.568  0.8615  0.1298  0.0103
 5973SOL     OW18817   3.384   6.616   0.542  0.2991 -0.0502  0.2528
 5973SOL    HW118818   3.289   6.637   0.518  0.6153  0.4365 -0.5734
 5973SOL    HW218819   3.442   6.623   0.461  1.0098 -0.5816  0.7037
 5974SOL     OW18820   2.426   5.206   6.987 -0.0094 -0.2626 -0.1234
 5974SOL    HW118821   2.505   5.197   6.926  0.0257  2.8952 -0.7284
 5974SOL    HW218822   2.440   5.286   7.047 -2.8235  0.5703 -0.4436
 5975SOL     OW18823   4.737   6.475   3.307  0.1490 -0.8609 -0.0668
 5975SOL    HW118824   4.692   6.562   3.328  1.0945 -0.0401 -1.3363
 5975SOL    HW218825   4.747   6.422   3.392 -2.0499 -0.5538  0.4507
 5976SOL     OW18826   3.572   3.819   4.309  0.1045  0.0877 -0.2182
 5976SOL    HW118827   3.669   3.840   4.318 -0.2099  1.6180 -0.2579
 5976SOL    HW218828   3.540   3.846   4.219 -0.3094 -0.6630 -0.3049
 5977SOL     OW18829   2.272   3.726   0.847  0.3339  0.2311 -0.1496
 5977SOL    HW118830   2.175   3.704   0.838  0.6280 -1.0343 -0.4265
 5977SOL    HW218831   2.311   3.738   0.756  1.0136 -2.0137 -0.2023
 5978SOL     OW18832   0.325   6.023   1.588 -0.1136  0.1760 -0.0773
 5978SOL    HW118833   0.266   6.003   1.667 -1.5789  1.6419 -0.7542
 5978SOL    HW218834   0.277   6.001   1.504  1.3285 -1.0780 -0.6102
 5979SOL     OW18835   0.655   3.087   1.059  0.7884 -0.5882  0.4291
 5979SOL    HW118836   0.657   3.046   1.151 -0.4600  1.1783  1.3049
 5979SOL    HW218837   0.629   3.018   0.992 -0.7527 -1.3711  1.7623
 5980SOL     OW18838   3.992   0.479   1.795 -0.3537 -0.3842 -0.6943
 5980SOL    HW118839   4.005   0.570   1.757  3.2560  0.9776  3.0894
 5980SOL    HW218840   4.066   0.419   1.765 -1.2951 -1.3941 -1.1162
 5981SOL     OW18841   1.346   4.514   0.928  0.0148 -0.5679 -0.2470
 5981SOL    HW118842   1.343   4.606   0.889  0.7045 -0.6129 -0.4057
 5981SOL    HW218843   1.260   4.467   0.908 -0.9129  0.5005  0.9868
 5982SOL     OW18844   6.832   5.228   6.952  0.7596 -0.2049  0.0186
 5982SOL    HW118845   6.804   5.273   6.867  0.5519  0.0029  0.1972
 5982SOL    HW218846   6.773   5.258   7.027  2.1185  1.0479  0.6211
 5983SOL     OW18847   6.628   1.317   2.725 -0.4703  0.2158  0.1022
 5983SOL    HW118848   6.703   1.330   2.660 -0.8098  2.6841  0.1281
 5983SOL    HW218849   6.666   1.286   2.813  0.2481 -0.7707 -0.5312
 5984SOL     OW18850   5.873   2.704   4.521  0.4147 -0.4165 -0.0911
 5984SOL    HW118851   5.857   2.612   4.484 -0.1269 -0.2156 -0.3682
 5984SOL    HW218852   5.786   2.752   4.530  0.7826  0.4600 -0.9694
 5985SOL     OW18853   6.905   2.861   3.514 -0.1461  0.1009 -0.4941
 5985SOL    HW118854   6.954   2.868   3.601 -2.9472  2.3048  1.0787
 5985SOL    HW218855   6.881   2.766   3.496 -0.4303 -0.2960  1.7543
 5986SOL     OW18856   6.083   0.451   2.447  0.1874  0.0333  0.3085
 5986SOL    HW118857   6.147   0.376   2.431  1.4093  1.2548 -0.7365
 5986SOL    HW218858   6.082   0.512   2.368 -0.4729  1.3268  1.2743
 5987SOL     OW18859   5.284   6.993   4.719  0.5290 -0.4837 -0.5974
 5987SOL    HW118860   5.269   6.911   4.775 -1.5691  0.5419  0.4397
 5987SOL    HW218861   5.246   6.979   4.628  0.4456 -0.7787 -0.5175
 5988SOL     OW18862   0.411   4.250   1.033 -0.0307 -0.1431  0.0283
 5988SOL    HW118863   0.311   4.247   1.027 -0.0093 -1.0592 -0.0183
 5988SOL    HW218864   0.441   4.190   1.107  0.4490  0.6671  0.4956
 5989SOL     OW18865   0.122   2.026   2.705  0.1188 -0.1614  0.3828
 5989SOL    HW118866   0.188   1.986   2.769  0.0499 -0.0431  0.5301
 5989SOL    HW218867   0.168   2.094   2.648 -0.0828  0.6969  1.2015
 5990SOL     OW18868   2.949   1.061   0.137  0.4816 -0.4933 -0.2789
 5990SOL    HW118869   2.943   1.120   0.056 -0.7142 -0.3763 -0.1260
 5990SOL    HW218870   3.010   0.984   0.118 -1.8927 -2.0157 -2.3073
 5991SOL     OW18871   2.563   0.501   6.562 -0.4908 -0.4044  0.4497
 5991SOL    HW118872   2.494   0.457   6.505 -1.0912 -1.0594  1.6529
 5991SOL    HW218873   2.654   0.483   6.523 -0.8898 -0.7570 -0.3464
 5992SOL     OW18874   5.477   2.446   6.447  0.1177 -0.0717 -0.4006
 5992SOL    HW118875   5.436   2.422   6.535 -2.2179  0.7410 -1.1879
 5992SOL    HW218876   5.524   2.366   6.409  0.0020 -0.8094  0.9650
 5993SOL     OW18877   0.010   6.105   1.413 -0.3854  0.4480  0.2214
 5993SOL    HW118878  -0.028   6.033   1.471 -1.2962  1.3699  0.8229
 5993SOL    HW218879   0.042   6.067   1.327 -1.0969 -0.6225  0.4222
 5994SOL     OW18880   5.644   1.955   3.061  0.4393 -0.1816  0.5580
 5994SOL    HW118881   5.731   2.005   3.066  0.8562 -0.9084  0.8537
 5994SOL    HW218882   5.609   1.942   3.154 -0.2748  0.5887  0.4028
 5995SOL     OW18883   6.138   5.086   5.059 -0.3751  0.4035  0.3254
 5995SOL    HW118884   6.131   5.185   5.056  0.2660  0.4690  0.6944
 5995SOL    HW218885   6.184   5.058   5.144 -0.3659 -0.1960  0.1331
 5996SOL     OW18886   6.822   6.615   0.516 -0.7555  0.1280 -0.4896
 5996SOL    HW118887   6.890   6.585   0.582 -0.2444  0.7611 -0.7178
 5996SOL    HW218888   6.843   6.709   0.487 -2.7317  1.0315  0.7980
 5997SOL     OW18889   3.565   1.023   5.875 -0.0059 -0.0505 -0.6323
 5997SOL    HW118890   3.502   0.949   5.900 -0.1927  0.5708  0.8313
 5997SOL    HW218891   3.639   0.986   5.820  0.0096 -1.3820  0.2476
 5998SOL     OW18892   0.939   0.043   4.849  0.1390  0.6788 -0.0328
 5998SOL    HW118893   0.896   0.133   4.844 -1.0294  0.1618  0.2623
 5998SOL    HW218894   0.869  -0.028   4.844  1.0289 -0.2181 -0.1515
 5999SOL     OW18895   2.012   0.050   1.230 -0.1876 -0.1141  0.2032
 5999SOL    HW118896   2.036   0.139   1.191 -1.4513  0.1933  0.0736
 5999SOL    HW218897   2.088   0.016   1.285 -0.6063  2.3146  2.5062
 6000SOL     OW18898   0.310   3.688   0.138  0.2206  0.4063 -0.0487
 6000SOL    HW118899   0.269   3.720   0.223 -1.9586 -0.7183 -0.6089
 6000SOL    HW218900   0.348   3.596   0.152  0.8748  0.6722 -0.0281
 6001SOL     OW18901   0.221   0.687   0.905  0.1409 -0.0069 -0.1044
 6001SOL    HW118902   0.296   0.620   0.905 -1.1036 -1.4623  0.6373
 6001SOL    HW218903   0.200   0.714   0.811  1.3071  0.1161 -0.3458
 6002SOL     OW18904   4.148   0.879   3.784  0.2236  0.0276 -0.5635
 6002SOL    HW118905   4.069   0.847   3.732 -0.7617 -1.3685  1.6236
 6002SOL    HW218906   4.131   0.973   3.816 -1.0589 -0.6078  0.7252
 6003SOL     OW18907   5.644   6.911   0.207  0.2367 -0.4907  0.5488
 6003SOL    HW118908   5.583   6.952   0.274 -0.7205 -0.9805 -0.0061
 6003SOL    HW218909   5.617   6.937   0.115  1.6716  0.3464  0.3293
 6004SOL     OW18910   4.993   2.200   1.277  0.0607  1.1988 -0.2432
 6004SOL    HW118911   4.963   2.122   1.332  0.4465  1.4907  0.4032
 6004SOL    HW218912   4.995   2.174   1.181 -0.5800  0.6574 -0.1169
 6005SOL     OW18913   5.534   6.346   6.939 -0.2122 -0.1730 -0.2872
 6005SOL    HW118914   5.622   6.380   6.906  0.4361  0.5465  2.0239
 6005SOL    HW218915   5.543   6.250   6.965 -0.0044 -0.0197  0.2263
 6006SOL     OW18916   2.693   5.255   6.484 -0.0055 -0.3629  1.2153
 6006SOL    HW118917   2.634   5.175   6.481  0.6817 -0.8650  0.4439
 6006SOL    HW218918   2.789   5.226   6.490  0.5723  0.2015 -2.5699
 6007SOL     OW18919   0.498   6.048   6.713 -0.2994 -0.5187  0.1932
 6007SOL    HW118920   0.409   6.088   6.734 -0.8912 -1.0863 -1.1463
 6007SOL    HW218921   0.521   6.065   6.617  1.0343 -0.4019  0.5057
 6008SOL     OW18922   3.926   6.833   6.609  0.2958  0.3658 -0.3515
 6008SOL    HW118923   3.940   6.868   6.516  0.7754 -1.6116 -1.0806
 6008SOL    HW218924   3.837   6.788   6.615 -0.0175  1.0571  0.3586
 6009SOL     OW18925   1.123   6.704   1.467  0.4822  0.5960 -0.1809
 6009SOL    HW118926   1.184   6.682   1.543 -0.4674  0.9655  0.7153
 6009SOL    HW218927   1.156   6.660   1.384  0.4550 -1.4998  0.8448
 6010SOL     OW18928   4.813   6.955   4.376  0.0550  0.3606 -0.1827
 6010SOL    HW118929   4.737   6.906   4.333  0.5567 -1.1285  0.5553
 6010SOL    HW218930   4.789   7.052   4.385 -1.5196  0.0273 -0.4736
 6011SOL     OW18931   4.570   2.239   0.883  0.3856  0.5414  0.1807
 6011SOL    HW118932   4.627   2.226   0.964  1.3464  0.3940 -0.4967
 6011SOL    HW218933   4.583   2.161   0.820 -1.3250 -0.0010  0.4349
 6012SOL     OW18934   3.082   5.662   3.363  0.0296  0.1579  0.1172
 6012SOL    HW118935   3.170   5.658   3.316  0.1096  3.3904 -0.2074
 6012SOL    HW218936   3.096   5.684   3.459 -0.4073  0.4657  0.1157
 6013SOL     OW18937   6.993   2.985   6.456 -0.1281 -0.2450 -0.5304
 6013SOL    HW118938   7.055   2.953   6.528  0.6582 -0.1925 -1.1753
 6013SOL    HW218939   6.993   2.919   6.381  0.4637  0.5863 -1.2801
 6014SOL     OW18940   6.141   1.293   3.800 -0.0741  0.1797  0.0910
 6014SOL    HW118941   6.158   1.222   3.732 -1.9802  1.7376 -2.1770
 6014SOL    HW218942   6.052   1.278   3.843 -0.8429  1.5085 -0.9504
 6015SOL     OW18943   0.717   0.233   1.505 -0.0875 -0.5088 -1.2839
 6015SOL    HW118944   0.683   0.185   1.587 -1.0111  2.2118  0.0348
 6015SOL    HW218945   0.815   0.219   1.497  0.3075  0.3175  1.1939
 6016SOL     OW18946   0.891   1.527   0.797 -0.1535 -0.1183  0.2818
 6016SOL    HW118947   0.974   1.486   0.758 -0.1074 -0.0368  0.2939
 6016SOL    HW218948   0.815   1.515   0.733 -0.0751  0.0263  0.1575
 6017SOL     OW18949   0.087   4.368   4.926  0.1947 -0.4372  0.7039
 6017SOL    HW118950   0.036   4.368   5.012  1.3600 -1.8903  1.4264
 6017SOL    HW218951   0.062   4.289   4.871 -0.2871  0.2952 -0.1602
 6018SOL     OW18952   3.977   0.533   6.897 -1.0084 -0.3688 -0.3492
 6018SOL    HW118953   3.955   0.576   6.985  0.0873 -0.3394 -0.0653
 6018SOL    HW218954   3.995   0.436   6.911  3.1968  0.2967  0.2967
 6019SOL     OW18955   1.157   0.430   6.934 -0.1372  0.9362  0.2843
 6019SOL    HW118956   1.244   0.446   6.981  0.4878 -1.5763  0.1596
 6019SOL    HW218957   1.174   0.423   6.835 -0.5522  0.9711  0.2113
 6020SOL     OW18958   0.854   6.834   5.101 -0.4042 -0.2414 -0.1833
 6020SOL    HW118959   0.809   6.845   5.012  1.3003  1.6060 -0.9157
 6020SOL    HW218960   0.795   6.872   5.172 -0.4803  1.2137 -0.9742
 6021SOL     OW18961   5.166   2.484   2.281 -0.4582 -0.1320  0.4186
 6021SOL    HW118962   5.255   2.529   2.270 -0.6415 -0.0124 -0.7309
 6021SOL    HW218963   5.112   2.533   2.349  0.1352  0.1327  0.7091
 6022SOL     OW18964   2.827   4.246   1.405 -0.6106  0.0177  0.4515
 6022SOL    HW118965   2.820   4.205   1.496  1.5625  0.9333  1.0711
 6022SOL    HW218966   2.828   4.345   1.412  3.1107  0.1648 -0.1264
 6023SOL     OW18967   0.731   1.724   1.680  0.9107 -0.1439 -0.4574
 6023SOL    HW118968   0.817   1.772   1.660  0.8888 -0.6055 -1.7688
 6023SOL    HW218969   0.677   1.778   1.745  1.2949  1.1522 -1.1760
 6024SOL     OW18970   3.665   1.656   5.217 -0.0307  0.8006  0.1696
 6024SOL    HW118971   3.573   1.644   5.253 -0.7114  2.9780 -0.6984
 6024SOL    HW218972   3.672   1.744   5.170  2.7922  1.1732  1.0828
 6025SOL     OW18973   1.273   1.416   4.226  0.2647  0.3348  0.7346
 6025SOL    HW118974   1.273   1.422   4.326  0.4000 -1.3110  0.8597
 6025SOL    HW218975   1.339   1.347   4.197 -2.6177 -2.2682 -0.2073
 6026SOL     OW18976   0.514   3.556   0.969  0.1112  0.2745  0.2061
 6026SOL    HW118977   0.542   3.612   0.890 -0.9467 -0.7522 -0.9183
 6026SOL    HW218978   0.424   3.518   0.953 -0.2985  0.3525  2.1123
 6027SOL     OW18979   2.891   1.737   2.615  0.0866  0.3801  0.8080
 6027SOL    HW118980   2.907   1.740   2.517  1.2332  0.0007  0.9715
 6027SOL    HW218981   2.813   1.676   2.634  1.0616 -1.1000  0.2434
 6028SOL     OW18982   5.981   3.748   2.461 -0.1281  0.1143  0.3052
 6028SOL    HW118983   6.018   3.806   2.388 -1.7708 -0.7828 -1.3251
 6028SOL    HW218984   6.050   3.683   2.491 -0.0983 -1.1665 -2.2700
 6029SOL     OW18985   4.058   1.735   3.007  0.7725 -0.1929  0.2232
 6029SOL    HW118986   3.990   1.674   3.047  1.7654 -0.7202  1.1529
 6029SOL    HW218987   4.072   1.813   3.068 -0.2699  0.8438 -0.8123
 6030SOL     OW18988   0.273   3.732   6.390  0.0985  0.0152  0.2696
 6030SOL    HW118989   0.192   3.735   6.331 -0.9467 -1.5605  1.5348
 6030SOL    HW218990   0.341   3.671   6.350  0.1759  0.4001 -0.1995
 6031SOL     OW18991   5.949   2.450   0.636 -0.4634 -0.8861  0.1149
 6031SOL    HW118992   5.941   2.352   0.651 -0.4951 -0.6651  1.7184
 6031SOL    HW218993   5.861   2.487   0.606  0.2605 -1.7647 -3.6640
 6032SOL     OW18994   5.143   3.700   0.297 -0.0566 -0.0476 -0.2012
 6032SOL    HW118995   5.102   3.791   0.306 -0.2415  0.0031 -1.3961
 6032SOL    HW218996   5.230   3.698   0.347 -1.0163  0.1397  1.5484
 6033SOL     OW18997   5.912   5.833   3.431  0.2142 -0.1253  0.1675
 6033SOL    HW118998   5.925   5.771   3.509  0.3452 -1.0269 -0.5603
 6033SOL    HW218999   6.000   5.856   3.392  0.1953  0.8376  0.6577
 6034SOL     OW19000   6.060   4.823   2.206  0.1082  0.0443  0.0513
 6034SOL    HW119001   6.159   4.840   2.211 -0.1500  1.3319  1.3323
 6034SOL    HW219002   6.011   4.894   2.257 -1.4509 -0.9330 -0.0249
 6035SOL     OW19003   2.752   6.327   6.420  0.1982  0.4793 -0.6980
 6035SOL    HW119004   2.718   6.412   6.459 -0.3309  0.6548 -1.5137
 6035SOL    HW219005   2.840   6.304   6.462 -0.0523  0.9870  0.1184
 6036SOL     OW19006   0.820   1.608   0.032  0.0929  0.2977  0.0577
 6036SOL    HW119007   0.918   1.599   0.048  0.1257  0.6916  0.0786
 6036SOL    HW219008   0.783   1.680   0.091 -0.0871  0.6053 -0.4269
 6037SOL     OW19009   4.852   0.830   2.661 -0.7251 -0.0010  0.4741
 6037SOL    HW119010   4.767   0.877   2.637 -0.9224  0.5276  2.0736
 6037SOL    HW219011   4.841   0.731   2.648 -0.7410  0.2302 -1.6497
 6038SOL     OW19012   0.703   6.955   0.627 -0.1328 -0.5505 -0.2113
 6038SOL    HW119013   0.754   6.930   0.544 -0.1819  0.1207 -0.4523
 6038SOL    HW219014   0.767   6.972   0.702  0.0527  0.7149 -0.6272
 6039SOL     OW19015   2.770   3.473   5.593 -0.3147  0.1707 -0.4312
 6039SOL    HW119016   2.821   3.466   5.679 -1.4145 -0.5980  0.1733
 6039SOL    HW219017   2.832   3.458   5.516  0.1353 -2.3295  0.3358
 6040SOL     OW19018   1.351   5.964   4.350  0.0415  0.7197 -0.2013
 6040SOL    HW119019   1.430   5.908   4.326  0.6594  0.5926  1.9002
 6040SOL    HW219020   1.381   6.044   4.402 -1.1963  0.6396  0.6995
 6041SOL     OW19021   1.390   5.206   6.796 -0.0848  0.0442 -0.0537
 6041SOL    HW119022   1.344   5.294   6.785 -2.8895 -1.3608 -0.3306
 6041SOL    HW219023   1.396   5.184   6.894  0.9052  0.6278  0.0359
 6042SOL     OW19024   5.045   6.930   0.531 -0.0942  0.1951 -0.0311
 6042SOL    HW119025   5.099   7.014   0.531 -1.1906  0.9267 -0.2560
 6042SOL    HW219026   5.008   6.913   0.622  0.9024 -0.5954  0.2552
 6043SOL     OW19027   2.292   4.607   4.345  0.3154  0.2620 -0.6870
 6043SOL    HW119028   2.360   4.679   4.350 -0.2310  0.7201  0.6115
 6043SOL    HW219029   2.326   4.532   4.288  1.9814  0.3938  0.0685
 6044SOL     OW19030   6.111   3.363   4.762  0.9173  0.0117 -0.3154
 6044SOL    HW119031   6.153   3.275   4.782  1.2252 -0.4123 -2.5810
 6044SOL    HW219032   6.180   3.435   4.770  1.9855 -0.5798 -3.2021
 6045SOL     OW19033   6.608   4.711   6.684  0.1276  0.0149 -0.1597
 6045SOL    HW119034   6.548   4.730   6.761  1.7506  1.1072  0.8915
 6045SOL    HW219035   6.702   4.701   6.716  0.6186 -1.1727 -1.8156
 6046SOL     OW19036   6.972   3.915   3.346 -0.1589 -0.2794 -0.5837
 6046SOL    HW119037   6.965   3.834   3.405  0.3899 -0.1574 -0.3398
 6046SOL    HW219038   6.944   3.995   3.398  1.9136  0.0774  0.0982
 6047SOL     OW19039   1.329   3.323   3.560  0.2618 -0.2366 -1.0736
 6047SOL    HW119040   1.354   3.243   3.505  2.1184 -0.4194 -0.0311
 6047SOL    HW219041   1.401   3.342   3.627 -0.9624  1.2584 -0.1078
 6048SOL     OW19042   1.582   1.978   2.683  0.3859  0.0539 -0.4668
 6048SOL    HW119043   1.621   1.907   2.624  1.1400  0.3858 -0.3751
 6048SOL    HW219044   1.501   2.016   2.640 -0.1681 -1.0285 -0.4080
 6049SOL     OW19045   0.664   0.379   6.998 -0.2305  0.1340  0.0747
 6049SOL    HW119046   0.625   0.289   6.976  1.1515 -1.0100  2.0224
 6049SOL    HW219047   0.591   0.442   7.022 -1.1934 -0.5651 -0.9142
 6050SOL     OW19048   0.180   1.395   0.039 -0.5048 -0.3852 -0.0417
 6050SOL    HW119049   0.255   1.349   0.087  0.7120  0.7517 -0.7824
 6050SOL    HW219050   0.138   1.333  -0.026  0.5297 -0.7141 -0.4020
 6051SOL     OW19051   4.542   2.847   1.339  1.1028  0.0065  0.0482
 6051SOL    HW119052   4.502   2.762   1.305  0.7644  0.3747 -0.5057
 6051SOL    HW219053   4.479   2.923   1.322  2.1644  0.6672 -1.2119
 6052SOL     OW19054   2.652   0.736   5.655  0.1112  0.6030 -0.0061
 6052SOL    HW119055   2.687   0.659   5.708 -1.1261 -1.2290 -1.6778
 6052SOL    HW219056   2.656   0.820   5.710 -0.2796 -0.9785  2.5924
 6053SOL     OW19057   2.675   3.811   1.175  0.6158  0.5207  0.4706
 6053SOL    HW119058   2.609   3.738   1.194  0.0376  0.4503 -1.5526
 6053SOL    HW219059   2.735   3.783   1.101  0.7851  1.8658  0.0720
 6054SOL     OW19060   0.718   2.107   6.563 -0.5304  0.1024  0.0016
 6054SOL    HW119061   0.705   2.167   6.484  0.0117  0.6647  0.3270
 6054SOL    HW219062   0.811   2.070   6.563 -0.7255 -0.3922  0.0393
 6055SOL     OW19063   4.190   4.301   5.281  0.0909 -0.0327  0.2042
 6055SOL    HW119064   4.215   4.371   5.214 -1.3842  0.3773  0.0451
 6055SOL    HW219065   4.206   4.337   5.373 -1.1801  0.7670  0.1410
 6056SOL     OW19066   6.153   0.446   1.156 -0.1853 -0.4913  0.0513
 6056SOL    HW119067   6.208   0.497   1.222  1.6407 -0.7825 -1.1718
 6056SOL    HW219068   6.059   0.480   1.158  0.2320  0.6964  1.5320
 6057SOL     OW19069   4.458   6.817   2.618 -0.8142  0.0716  0.2160
 6057SOL    HW119070   4.524   6.887   2.589  1.3958 -1.6794  0.6621
 6057SOL    HW219071   4.367   6.841   2.585  0.6768  0.4993 -4.3028
 6058SOL     OW19072   2.544   3.127   1.656  0.5628 -0.3760 -0.2271
 6058SOL    HW119073   2.639   3.098   1.667  0.4480 -1.7678 -2.3585
 6058SOL    HW219074   2.537   3.225   1.678  2.0952 -0.6163  1.6373
 6059SOL     OW19075   2.556   1.910   3.218 -0.4327  0.2694  0.2375
 6059SOL    HW119076   2.549   1.819   3.257 -1.3544 -0.6780 -1.9916
 6059SOL    HW219077   2.602   1.906   3.130 -0.8517  1.8964 -0.0929
 6060SOL     OW19078   1.424   1.441   5.326 -0.3191 -0.4025 -0.2397
 6060SOL    HW119079   1.405   1.370   5.258 -0.7528  1.6066 -2.3515
 6060SOL    HW219080   1.521   1.466   5.322 -0.2361 -0.6230  0.2725
 6061SOL     OW19081   3.556   3.212   1.413 -0.5563 -0.7734 -0.7077
 6061SOL    HW119082   3.634   3.247   1.363 -0.7965 -1.5353 -1.6611
 6061SOL    HW219083   3.492   3.286   1.432  1.7107  0.5417  2.8198
 6062SOL     OW19084   1.048   4.523   5.695 -0.0675  0.3455  0.0254
 6062SOL    HW119085   1.041   4.437   5.744 -3.4819  1.5024  1.9431
 6062SOL    HW219086   1.127   4.575   5.728  0.7506 -1.1085  0.4112
 6063SOL     OW19087   2.970   3.708   4.088  0.9466 -0.0936 -0.7850
 6063SOL    HW119088   2.961   3.700   4.187  0.0164  2.3791 -0.5812
 6063SOL    HW219089   2.935   3.626   4.044  0.6198 -0.9016  0.9145
 6064SOL     OW19090   3.567   2.066   5.957  0.2537 -0.0041  0.0018
 6064SOL    HW119091   3.584   2.128   5.880 -0.5244 -0.0114 -0.1793
 6064SOL    HW219092   3.602   2.107   6.041 -2.4964  1.8941  0.3366
 6065SOL     OW19093   0.709   6.875   2.749  0.0547 -0.1753 -0.0606
 6065SOL    HW119094   0.770   6.953   2.756 -0.0911 -0.1631  1.4696
 6065SOL    HW219095   0.757   6.792   2.778  0.0714 -0.5855 -1.2290
 6066SOL     OW19096   1.737   1.567   5.701  0.0885  0.1714 -0.6545
 6066SOL    HW119097   1.822   1.608   5.668  0.3810  0.1843  0.0927
 6066SOL    HW219098   1.713   1.489   5.642  2.6849 -2.2924  1.2367
 6067SOL     OW19099   3.597   0.865   2.669 -0.4184 -0.2219  0.3909
 6067SOL    HW119100   3.663   0.836   2.737 -0.3964  0.5403  0.7087
 6067SOL    HW219101   3.636   0.855   2.577  0.1180  0.1675  0.5743
 6068SOL     OW19102   4.080   2.394   1.629  0.3689  0.1421 -0.2742
 6068SOL    HW119103   3.986   2.423   1.610  0.5366 -0.4489 -2.2300
 6068SOL    HW219104   4.079   2.317   1.693 -0.4623  0.3606 -0.0158
 6069SOL     OW19105   2.914   5.026   2.718  0.0354 -0.0697 -0.0674
 6069SOL    HW119106   2.865   5.024   2.805  0.1799  1.1742  0.0521
 6069SOL    HW219107   3.008   4.995   2.733  0.8114  2.4747  0.7472
 6070SOL     OW19108   0.246   3.963   0.867  1.2022  0.1644 -0.0345
 6070SOL    HW119109   0.259   3.985   0.964  0.0353 -0.0115  0.1841
 6070SOL    HW219110   0.150   3.942   0.851  1.5038 -0.4669 -1.1066
 6071SOL     OW19111   3.410   5.353   2.039  0.4001  0.1519  0.4228
 6071SOL    HW119112   3.374   5.366   2.132 -2.0359  1.0850 -0.5689
 6071SOL    HW219113   3.337   5.370   1.973  2.6139  1.7598 -1.7726
 6072SOL     OW19114   5.171   6.907   0.263  0.0224  0.3140  0.2626
 6072SOL    HW119115   5.218   6.847   0.328 -0.0098 -0.1447 -0.1278
 6072SOL    HW219116   5.091   6.948   0.307  2.0516  3.0142  1.7140
 6073SOL     OW19117   0.214   3.590   3.943  0.5397  0.2813  0.3059
 6073SOL    HW119118   0.313   3.574   3.940  0.4622 -0.5374  1.3612
 6073SOL    HW219119   0.172   3.522   4.003 -0.4748  1.5812  1.0972
 6074SOL     OW19120   6.135   0.712   1.638 -0.0759  0.0318  0.7025
 6074SOL    HW119121   6.044   0.750   1.657 -0.4879 -0.4175 -0.3381
 6074SOL    HW219122   6.153   0.635   1.699  0.2173  1.0107  1.9046
 6075SOL     OW19123   1.773   4.434   5.938  0.7342 -0.1965 -0.0194
 6075SOL    HW119124   1.847   4.477   5.990  0.7531 -1.0148  0.6567
 6075SOL    HW219125   1.807   4.408   5.848  1.1131 -0.0527  0.0768
 6076SOL     OW19126   0.109   5.645   0.922  0.4065 -0.1602 -0.7237
 6076SOL    HW119127   0.116   5.591   0.838  1.1262 -0.0284 -0.7591
 6076SOL    HW219128   0.159   5.598   0.995 -0.0096 -0.1512 -0.4337
 6077SOL     OW19129   6.580   5.928   1.755  0.7587 -0.6337  0.2923
 6077SOL    HW119130   6.530   5.936   1.842  1.1132 -0.5852  0.4924
 6077SOL    HW219131   6.656   5.994   1.754  1.1350 -1.0656  0.2030
 6078SOL     OW19132   6.662   4.708   6.392  0.0231 -0.5865  0.2315
 6078SOL    HW119133   6.580   4.754   6.358  0.6829  1.2181  0.9154
 6078SOL    HW219134   6.661   4.706   6.492  0.1148 -1.9350  0.2249
 6079SOL     OW19135   4.249   1.632   3.682  0.1149  0.9387 -0.8855
 6079SOL    HW119136   4.293   1.645   3.593  1.8123  0.1876 -0.1926
 6079SOL    HW219137   4.301   1.679   3.752 -0.3293  0.2466 -0.0710
 6080SOL     OW19138   1.255   6.046   5.718  0.0215 -0.0068 -0.4313
 6080SOL    HW119139   1.326   6.111   5.691  0.5421 -0.7972 -0.9990
 6080SOL    HW219140   1.226   5.994   5.638  0.7162 -1.5502  0.2883
 6081SOL     OW19141   1.469   3.658   4.780 -0.8766  0.1765 -0.1349
 6081SOL    HW119142   1.504   3.751   4.763 -1.1667  0.3517  0.2202
 6081SOL    HW219143   1.546   3.596   4.793 -0.6289  0.0700 -1.8514
 6082SOL     OW19144   0.304   3.348   5.719 -0.2278 -0.8612 -0.3841
 6082SOL    HW119145   0.325   3.438   5.681  0.2109 -0.1886  1.3788
 6082SOL    HW219146   0.387   3.292   5.721 -0.3752 -1.1084 -0.9268
 6083SOL     OW19147   3.148   5.583   1.566  0.4082 -0.3391 -0.0557
 6083SOL    HW119148   3.070   5.605   1.507  1.1226  1.8461 -0.2840
 6083SOL    HW219149   3.229   5.568   1.509  0.9539  1.1272  0.2891
 6084SOL     OW19150   3.152   4.881   2.759 -0.7286 -0.3218 -0.4160
 6084SOL    HW119151   3.129   4.786   2.735  1.8386 -1.1462  0.0808
 6084SOL    HW219152   3.238   4.906   2.716 -0.6411  1.3248  0.6290
 6085SOL     OW19153   4.449   6.977   2.390  0.2137  0.0712 -0.1705
 6085SOL    HW119154   4.350   6.981   2.380  0.1722 -0.8304 -0.2044
 6085SOL    HW219155   4.482   6.886   2.366  1.2462  0.8114 -1.7190
 6086SOL     OW19156   6.234   3.949   1.183 -0.0184  0.3833  0.0659
 6086SOL    HW119157   6.193   3.933   1.093 -0.7981 -2.8364  0.8563
 6086SOL    HW219158   6.325   3.908   1.185  0.2422  0.9847  0.5661
 6087SOL     OW19159   3.173   5.337   5.398  0.2268 -0.3050 -0.4159
 6087SOL    HW119160   3.199   5.279   5.321  0.4633 -0.4579 -0.2244
 6087SOL    HW219161   3.124   5.282   5.466  0.3340 -0.2525 -0.2952
 6088SOL     OW19162   3.291   3.297   5.953  0.3081  0.1106  0.0183
 6088SOL    HW119163   3.312   3.308   5.856  1.0850 -0.0417  0.1684
 6088SOL    HW219164   3.267   3.385   5.992  0.9650  0.3304 -0.0808
 6089SOL     OW19165   0.456   6.774   6.959  0.2017  0.1672  0.0428
 6089SOL    HW119166   0.489   6.842   7.023  0.0241 -0.5935  0.9612
 6089SOL    HW219167   0.483   6.682   6.989  0.0985 -0.2095 -0.9528
 6090SOL     OW19168   5.106   1.015   0.456  0.4558 -0.0951 -0.1014
 6090SOL    HW119169   5.105   1.084   0.384 -2.0201 -1.3781 -1.4686
 6090SOL    HW219170   5.090   0.925   0.415 -2.3467 -0.7503  2.0604
 6091SOL     OW19171   2.513   6.258   6.294  0.0921 -0.1168  0.4344
 6091SOL    HW119172   2.446   6.246   6.367  0.3047  0.3757  0.7165
 6091SOL    HW219173   2.597   6.297   6.331 -0.6365  2.4817 -0.4061
 6092SOL     OW19174   0.671   0.259   0.903 -0.1882  0.5715  0.3922
 6092SOL    HW119175   0.600   0.230   0.967 -0.9682  0.5049 -0.5027
 6092SOL    HW219176   0.640   0.246   0.809  0.8738  0.8614 -0.0134
 6093SOL     OW19177   3.122   3.929   5.971 -0.1747  0.7978 -0.2722
 6093SOL    HW119178   3.129   4.001   6.041 -0.5748  1.0834 -0.5225
 6093SOL    HW219179   3.176   3.850   5.999 -1.6871  0.2234  1.2164
 6094SOL     OW19180   3.920   5.636   0.190  0.2214  0.1356  0.5016
 6094SOL    HW119181   3.924   5.553   0.246 -0.8378  0.1162  0.5703
 6094SOL    HW219182   3.992   5.634   0.122  0.8576 -0.3514  1.1729
 6095SOL     OW19183   6.360   1.575   5.101  0.3856 -0.5415 -0.2434
 6095SOL    HW119184   6.422   1.649   5.076  4.9898 -3.2053  2.0199
 6095SOL    HW219185   6.305   1.602   5.180  1.5898  0.6673  0.2042
 6096SOL     OW19186   3.492   1.848   3.997 -0.1068 -0.0259 -0.6715
 6096SOL    HW119187   3.417   1.906   3.967  0.2597  1.2290  0.7700
 6096SOL    HW219188   3.458   1.755   4.015 -1.0950  0.2661 -0.9943
 6097SOL     OW19189   6.223   5.878   6.783 -0.2254 -0.2844 -0.6306
 6097SOL    HW119190   6.229   5.962   6.836 -1.1541  0.9600 -2.3905
 6097SOL    HW219191   6.156   5.889   6.710  1.2099 -1.7798 -2.2833
 6098SOL     OW19192   2.177   2.254   3.858  0.1570  0.0804  0.5205
 6098SOL    HW119193   2.214   2.346   3.870  0.2442  0.3437 -1.3660
 6098SOL    HW219194   2.237   2.202   3.797 -0.1561 -1.0725  1.1652
 6099SOL     OW19195   4.026   3.169   1.166 -0.3537  0.0734  0.1097
 6099SOL    HW119196   4.049   3.177   1.069 -1.1824 -1.2104 -0.2173
 6099SOL    HW219197   3.947   3.109   1.177  0.2157 -0.4510  1.6575
 6100SOL     OW19198   4.368   1.271   5.562  0.3984  0.4529  0.0421
 6100SOL    HW119199   4.272   1.289   5.581  0.1220 -1.9978  1.3404
 6100SOL    HW219200   4.422   1.294   5.643  0.0969 -3.4755  1.5496
 6101SOL     OW19201   6.104   6.766   3.368  0.8204  0.7300 -0.1345
 6101SOL    HW119202   6.167   6.691   3.347 -0.2695 -0.0417 -0.7211
 6101SOL    HW219203   6.096   6.826   3.289  1.3912  1.2507  0.2008
 6102SOL     OW19204   6.774   1.809   5.332  0.8566  0.0277  0.9067
 6102SOL    HW119205   6.738   1.777   5.420 -0.5582 -0.7577  0.0771
 6102SOL    HW219206   6.842   1.744   5.298 -0.3437 -0.9784  0.3200
 6103SOL     OW19207   4.534   4.641   4.134  0.0597  0.4796 -0.2082
 6103SOL    HW119208   4.630   4.663   4.151  0.1165  0.8660 -0.9679
 6103SOL    HW219209   4.516   4.547   4.163  0.6721  0.3954 -0.0729
 6104SOL     OW19210   0.545   0.795   5.756 -0.7126 -0.2760  0.0151
 6104SOL    HW119211   0.484   0.770   5.831 -0.8341  0.1316  0.0523
 6104SOL    HW219212   0.493   0.806   5.672 -0.8330  0.9828  0.2412
 6105SOL     OW19213   6.811   3.910   4.210  0.3692  0.0745  0.3153
 6105SOL    HW119214   6.793   3.859   4.125  2.0772 -0.4469  0.2395
 6105SOL    HW219215   6.760   3.996   4.208 -0.0409 -0.1718 -0.9974
 6106SOL     OW19216   2.010   6.213   6.592  0.5750  0.2432 -0.1018
 6106SOL    HW119217   1.999   6.119   6.558 -0.5729  0.1583  0.4404
 6106SOL    HW219218   1.920   6.250   6.616  0.7679  2.1444 -1.9951
 6107SOL     OW19219   3.833   3.642   4.176 -0.2208 -0.5813  0.3237
 6107SOL    HW119220   3.815   3.626   4.079 -0.9174 -1.2073  0.5556
 6107SOL    HW219221   3.883   3.565   4.214  0.9566  0.1073  0.2418
 6108SOL     OW19222   0.027   6.184   3.479  0.7408  0.6211  0.2640
 6108SOL    HW119223   0.097   6.164   3.547 -0.0089  0.7533  1.0931
 6108SOL    HW219224  -0.032   6.257   3.513 -0.0067  0.2769 -0.2702
 6109SOL     OW19225   3.585   0.121   0.154 -0.7220  0.1571  0.2581
 6109SOL    HW119226   3.583   0.124   0.054  0.6274  0.7725  0.2284
 6109SOL    HW219227   3.535   0.041   0.186 -2.8763  0.9998 -0.8136
 6110SOL     OW19228   3.369   6.922   2.672  0.0240  0.2637  0.1468
 6110SOL    HW119229   3.310   6.887   2.600 -0.1398  1.2462 -0.2087
 6110SOL    HW219230   3.430   6.849   2.704  1.0976  0.1612 -1.9806
 6111SOL     OW19231   6.201   3.907   2.048  0.3068  0.5280  0.5457
 6111SOL    HW119232   6.264   3.984   2.059  1.4638 -0.4466  0.9989
 6111SOL    HW219233   6.194   3.883   1.951 -0.3357  1.4058  0.3629
 6112SOL     OW19234   1.209   4.266   0.322  0.0061  0.7201 -0.4361
 6112SOL    HW119235   1.215   4.361   0.292  1.2972  1.3004  1.4703
 6112SOL    HW219236   1.113   4.237   0.325 -0.2672  0.4100 -5.3311
 6113SOL     OW19237   3.904   0.470   0.329  0.3870  0.1128  0.4613
 6113SOL    HW119238   3.866   0.377   0.324 -0.5457  0.5061 -0.1937
 6113SOL    HW219239   4.004   0.465   0.327  0.3970 -0.8093 -2.2759
 6114SOL     OW19240   3.480   1.217   3.157 -0.4776  0.4440 -0.2579
 6114SOL    HW119241   3.576   1.202   3.180 -0.4849 -1.2246 -1.1677
 6114SOL    HW219242   3.472   1.247   3.062 -0.8557  0.5453 -0.1968
 6115SOL     OW19243   5.865   1.225   4.143 -0.1625 -0.3534  0.2194
 6115SOL    HW119244   5.861   1.323   4.123 -0.7228 -0.6879 -1.4159
 6115SOL    HW219245   5.773   1.186   4.134  0.0752 -1.0529  0.7928
 6116SOL     OW19246   2.498   2.528   3.410 -0.3023 -0.3513 -0.4478
 6116SOL    HW119247   2.592   2.495   3.403 -0.5397 -1.2552  0.4020
 6116SOL    HW219248   2.444   2.463   3.463 -1.5134 -0.0517 -1.2674
 6117SOL     OW19249   6.943   0.297   6.472 -0.4299 -0.4656  0.1361
 6117SOL    HW119250   6.918   0.362   6.544  0.3085  1.8580 -1.5525
 6117SOL    HW219251   6.870   0.293   6.404 -0.0787 -0.7047 -0.2312
 6118SOL     OW19252   3.072   2.643   1.611  0.1210 -0.3632  0.1445
 6118SOL    HW119253   3.024   2.687   1.687 -0.7763 -2.0462  0.5849
 6118SOL    HW219254   3.030   2.670   1.525  0.2797  0.4728  0.3143
 6119SOL     OW19255   2.964   7.014   6.888 -0.2433  0.6964  0.1107
 6119SOL    HW119256   3.000   7.013   6.981  0.1549 -1.9271  0.0027
 6119SOL    HW219257   3.032   6.979   6.825 -2.0836 -2.3540 -0.3941
 6120SOL     OW19258   4.470   4.531   3.294 -0.2012 -0.3623 -0.5376
 6120SOL    HW119259   4.454   4.626   3.319 -1.0038 -0.4897 -0.5262
 6120SOL    HW219260   4.497   4.478   3.374 -1.3248 -0.4649 -0.2058
 6121SOL     OW19261   1.264   5.806   6.597  0.3333 -0.0486  0.1228
 6121SOL    HW119262   1.260   5.708   6.577  0.0948 -0.1767  0.7647
 6121SOL    HW219263   1.309   5.820   6.685  2.1396  0.5573 -0.8611
 6122SOL     OW19264   2.783   0.664   4.963 -0.2012  0.1707  0.0115
 6122SOL    HW119265   2.841   0.593   4.923 -1.8996 -1.1263 -0.3039
 6122SOL    HW219266   2.805   0.752   4.923  3.0313  0.1736  1.5021
 6123SOL     OW19267   3.485   3.906   4.045  0.8098 -0.3578 -0.0919
 6123SOL    HW119268   3.461   3.991   3.998  0.0166 -1.7408 -2.3739
 6123SOL    HW219269   3.546   3.852   3.986  0.6287 -1.7286  0.9335
 6124SOL     OW19270   2.677   5.205   2.260  0.2155  0.0966 -0.1609
 6124SOL    HW119271   2.704   5.163   2.173  1.8334  2.0114 -0.6587
 6124SOL    HW219272   2.730   5.167   2.335  2.0855  1.5307 -0.6866
 6125SOL     OW19273   0.698   5.811   2.537  0.1642 -0.4344 -0.3854
 6125SOL    HW119274   0.665   5.729   2.491 -1.8901  0.9279 -1.4856
 6125SOL    HW219275   0.754   5.864   2.473  0.7826 -0.5515  0.0535
 6126SOL     OW19276   6.751   3.980   2.388 -0.3183  0.2453 -0.2589
 6126SOL    HW119277   6.788   3.947   2.302 -0.8369 -0.7712 -0.1033
 6126SOL    HW219278   6.786   3.924   2.463  0.9348  1.7376  0.3359
 6127SOL     OW19279   0.698   4.896   3.071 -0.5170 -0.6490 -1.1286
 6127SOL    HW119280   0.784   4.846   3.080 -0.1603 -0.0786 -1.3622
 6127SOL    HW219281   0.637   4.869   3.146  0.2644 -0.2692 -0.3290
 6128SOL     OW19282   0.734   5.967   6.798 -0.1834 -0.5761 -0.2670
 6128SOL    HW119283   0.772   6.021   6.873 -0.5282 -1.0047  0.2249
 6128SOL    HW219284   0.642   6.001   6.775 -0.1574 -0.5684 -0.3583
 6129SOL     OW19285   6.819   2.118   4.330 -0.5797 -0.4475 -0.6133
 6129SOL    HW119286   6.888   2.133   4.260 -0.6560  4.3812  0.0155
 6129SOL    HW219287   6.862   2.079   4.411  1.4717  2.0381 -0.3774
 6130SOL     OW19288   0.494   2.928   5.059 -0.2347 -0.6669  0.4610
 6130SOL    HW119289   0.481   3.019   5.097 -3.3053 -0.5457 -0.6104
 6130SOL    HW219290   0.564   2.931   4.987 -0.5224  0.9420  0.2176
 6131SOL     OW19291   0.403   1.343   5.139 -0.9506  0.6608  0.3421
 6131SOL    HW119292   0.322   1.381   5.094 -0.7704  1.8147  0.9566
 6131SOL    HW219293   0.481   1.404   5.124 -0.3508 -0.0969  0.3212
 6132SOL     OW19294   2.282   1.229   3.752 -0.5692 -0.1462 -0.1973
 6132SOL    HW119295   2.359   1.187   3.800 -1.1851 -0.7244  0.3091
 6132SOL    HW219296   2.226   1.281   3.817 -0.3992  0.5852 -0.6302
 6133SOL     OW19297   5.938   4.375   6.084  0.1671 -0.0072  0.0960
 6133SOL    HW119298   5.858   4.434   6.100 -1.0614 -1.4304 -0.4989
 6133SOL    HW219299   5.993   4.371   6.167 -0.2557  1.1810  0.4559
 6134SOL     OW19300   5.740   6.025   5.487  0.3029 -0.1012 -0.3550
 6134SOL    HW119301   5.801   5.951   5.459  0.0176 -0.8722  0.9632
 6134SOL    HW219302   5.687   5.996   5.567 -0.6530  1.1214 -0.5092
 6135SOL     OW19303   1.035   2.419   3.870  0.3636 -0.4151  0.1909
 6135SOL    HW119304   1.100   2.353   3.832  0.6561  0.8575 -1.6322
 6135SOL    HW219305   1.044   2.506   3.823 -1.1500  0.4683  1.4276
 6136SOL     OW19306   1.053   5.793   2.518  0.7009  0.3509  0.4300
 6136SOL    HW119307   0.976   5.748   2.472  0.9279 -0.3057  0.6725
 6136SOL    HW219308   1.018   5.866   2.577  0.3896  1.0412 -0.5904
 6137SOL     OW19309   2.641   4.374   1.213  0.3984 -0.4832 -0.1563
 6137SOL    HW119310   2.706   4.392   1.139  1.4447 -0.8334  0.6424
 6137SOL    HW219311   2.683   4.312   1.280 -0.2187  0.4241  1.1238
 6138SOL     OW19312   3.213   5.224   1.563 -0.0762 -0.9763  0.6102
 6138SOL    HW119313   3.212   5.191   1.468  0.6829 -2.9316  1.2335
 6138SOL    HW219314   3.269   5.306   1.569 -2.1339  0.6792 -1.0360
 6139SOL     OW19315   4.667   6.636   1.209 -0.2521 -0.1123 -0.2817
 6139SOL    HW119316   4.681   6.538   1.197 -5.2379 -1.1333  0.2008
 6139SOL    HW219317   4.724   6.669   1.285  2.1785 -2.3172 -1.0056
 6140SOL     OW19318   2.845   3.678   1.001  0.0496  0.8525 -0.4055
 6140SOL    HW119319   2.863   3.585   1.032  2.0674  0.9270 -1.2479
 6140SOL    HW219320   2.791   3.675   0.916 -0.3951  0.4865 -0.1128
 6141SOL     OW19321   3.133   1.728   3.829 -0.6189 -0.1051 -0.5397
 6141SOL    HW119322   3.177   1.642   3.804 -0.3361 -0.2445  0.3726
 6141SOL    HW219323   3.060   1.748   3.764 -0.4832 -0.8714 -0.9494
 6142SOL     OW19324   6.540   1.513   3.953 -0.1732  0.2083 -0.6035
 6142SOL    HW119325   6.511   1.440   4.014 -0.3878 -0.2692 -1.2605
 6142SOL    HW219326   6.628   1.549   3.982  0.1787 -0.6683 -0.5738
 6143SOL     OW19327   0.466   2.371   1.067  0.3036  0.0641 -0.2888
 6143SOL    HW119328   0.484   2.350   0.971  1.1386 -3.4112  0.5023
 6143SOL    HW219329   0.395   2.309   1.101 -1.0838  2.2458  1.0411
 6144SOL     OW19330   3.672   1.279   4.487 -0.7416 -0.5969 -0.0663
 6144SOL    HW119331   3.655   1.229   4.572  1.6687 -0.0756  0.7934
 6144SOL    HW219332   3.735   1.355   4.504  1.1773 -1.4645 -2.5646
 6145SOL     OW19333   1.615   1.517   4.087 -0.1977  0.1657 -0.0741
 6145SOL    HW119334   1.559   1.474   4.158 -1.5269 -0.0739 -1.2160
 6145SOL    HW219335   1.644   1.448   4.021 -0.1331  0.5969 -0.5050
 6146SOL     OW19336   3.735   5.855   5.651 -0.5104  0.6740  0.1180
 6146SOL    HW119337   3.675   5.788   5.608 -0.2638  0.1943  0.5143
 6146SOL    HW219338   3.755   5.826   5.745  1.8871 -0.1943 -0.5911
 6147SOL     OW19339   6.958   7.004   6.879  0.2986 -0.2861  0.2640
 6147SOL    HW119340   6.962   6.972   6.974 -2.0856 -1.2891  0.0934
 6147SOL    HW219341   6.976   6.928   6.817 -1.0925 -0.3760 -0.0818
 6148SOL     OW19342   5.123   6.913   6.334 -0.2076  0.5252  0.0644
 6148SOL    HW119343   5.045   6.856   6.361  0.5357 -0.5746 -0.0212
 6148SOL    HW219344   5.128   6.917   6.234  0.5554 -0.4600  0.0465
 6149SOL     OW19345   1.142   6.330   4.271 -0.2490 -0.0157  0.3186
 6149SOL    HW119346   1.113   6.286   4.356 -1.2300  0.9863  0.5208
 6149SOL    HW219347   1.100   6.283   4.194  1.0799 -1.2757  0.3220
 6150SOL     OW19348   4.950   3.919   6.613  0.3268  0.1616  0.5087
 6150SOL    HW119349   5.049   3.922   6.597  0.0438 -1.9653 -2.6884
 6150SOL    HW219350   4.906   3.991   6.559  0.0623  1.2048  2.0495
 6151SOL     OW19351   1.161   3.343   3.860 -0.3998 -0.3892 -0.5554
 6151SOL    HW119352   1.133   3.248   3.843  2.2598 -1.0545 -1.6758
 6151SOL    HW219353   1.225   3.345   3.937 -0.3020  0.4758 -0.6541
 6152SOL     OW19354   4.575   3.108   5.428  0.4625 -0.1990  0.0245
 6152SOL    HW119355   4.643   3.047   5.387  0.6329  0.2585 -0.3820
 6152SOL    HW219356   4.541   3.068   5.513 -0.6172 -1.6722 -1.0287
 6153SOL     OW19357   3.153   3.692   0.269 -0.2388  0.3995 -0.3522
 6153SOL    HW119358   3.249   3.696   0.295 -0.5467 -0.1358  0.9780
 6153SOL    HW219359   3.145   3.674   0.171  1.0268 -1.2167 -0.1940
 6154SOL     OW19360   4.391   4.475   6.867 -0.0930 -0.2312  0.6649
 6154SOL    HW119361   4.320   4.439   6.807  0.6094 -1.5636  0.5947
 6154SOL    HW219362   4.465   4.513   6.811 -0.1815  0.0051  0.7109
 6155SOL     OW19363   2.145   5.527   0.314  0.3396 -0.1252 -0.1148
 6155SOL    HW119364   2.156   5.596   0.243 -1.6644  0.0827 -0.2665
 6155SOL    HW219365   2.197   5.555   0.395 -0.3095  1.5070 -0.2208
 6156SOL     OW19366   0.516   5.173   0.946  0.2221 -0.5134 -0.0849
 6156SOL    HW119367   0.534   5.263   0.986 -0.4497 -0.2504 -0.3562
 6156SOL    HW219368   0.520   5.103   1.018 -3.3138  0.2250  0.9989
 6157SOL     OW19369   6.700   4.591   1.012 -0.2355  0.4196 -0.3350
 6157SOL    HW119370   6.747   4.592   0.923  0.3354 -0.1892 -0.0504
 6157SOL    HW219371   6.709   4.500   1.053  1.2282  1.2099  1.2408
 6158SOL     OW19372   2.144   3.250   3.280  0.3525 -0.2435 -0.0154
 6158SOL    HW119373   2.143   3.260   3.180  2.8097 -0.0824 -0.0761
 6158SOL    HW219374   2.125   3.339   3.322 -0.9603 -0.3646 -0.2999
 6159SOL     OW19375   0.874   4.094   4.960 -0.1658 -0.0215  0.8911
 6159SOL    HW119376   0.787   4.137   4.980 -0.5973 -1.3132  1.9059
 6159SOL    HW219377   0.866   3.994   4.969  1.4320 -0.1658  1.1524
 6160SOL     OW19378   2.243   0.632   4.562 -0.0591 -0.1590 -0.3214
 6160SOL    HW119379   2.286   0.682   4.487  1.0928 -0.2665  0.2442
 6160SOL    HW219380   2.292   0.547   4.578 -0.0049  0.0664  0.8302
 6161SOL     OW19381   2.714   5.073   3.727  0.6341  0.3104 -0.6067
 6161SOL    HW119382   2.811   5.084   3.746  0.4819 -0.5927  0.8426
 6161SOL    HW219383   2.661   5.113   3.801  0.0100 -3.1127  1.0094
 6162SOL     OW19384   1.122   4.802   0.549 -0.4325  0.5275 -0.4137
 6162SOL    HW119385   1.145   4.818   0.453  1.9338 -0.9047 -0.1479
 6162SOL    HW219386   1.111   4.704   0.565  1.0143  0.5827  1.1283
 6163SOL     OW19387   2.858   1.134   3.004 -0.6016  0.6086  0.5273
 6163SOL    HW119388   2.845   1.055   2.943  0.2084  1.8709 -1.3916
 6163SOL    HW219389   2.786   1.202   2.987 -3.0265 -0.7342  4.1575
 6164SOL     OW19390   1.311   0.227   2.837  0.6440 -0.0952 -0.1021
 6164SOL    HW119391   1.351   0.309   2.797  0.6754 -0.0048  0.1136
 6164SOL    HW219392   1.343   0.217   2.931 -1.0650  0.8522  0.6211
 6165SOL     OW19393   4.295   2.403   1.867 -0.3986  0.2975  0.2508
 6165SOL    HW119394   4.224   2.336   1.844 -0.8703  1.1190 -0.7701
 6165SOL    HW219395   4.284   2.484   1.810 -0.2377  1.5237  1.8788
 6166SOL     OW19396   1.286   0.135   5.662  0.2469 -0.0696 -0.3275
 6166SOL    HW119397   1.337   0.134   5.748  0.8311 -0.0391 -0.6670
 6166SOL    HW219398   1.193   0.168   5.678 -0.1896 -1.6403  0.5872
 6167SOL     OW19399   2.428   2.176   4.683 -0.6138  0.6481  0.5753
 6167SOL    HW119400   2.361   2.249   4.701 -0.0035  1.2694  0.3630
 6167SOL    HW219401   2.418   2.145   4.589  0.3787  1.7879  0.0742
 6168SOL     OW19402   6.828   2.698   4.121 -0.4761 -0.4139 -0.5968
 6168SOL    HW119403   6.803   2.608   4.157 -1.5396 -0.0692 -0.4314
 6168SOL    HW219404   6.759   2.729   4.056 -0.5170  0.6045 -0.1004
 6169SOL     OW19405   0.164   4.213   7.015 -1.0087 -0.3882 -0.3277
 6169SOL    HW119406   0.169   4.199   7.114  0.3193 -0.2486 -0.3549
 6169SOL    HW219407   0.234   4.157   6.970 -0.3100  0.9882 -1.0185
 6170SOL     OW19408   5.740   1.899   0.493  0.1561  0.5680  0.6315
 6170SOL    HW119409   5.671   1.896   0.421 -0.4650 -0.7253  1.2422
 6170SOL    HW219410   5.800   1.819   0.486  0.5087  0.7813  1.1403
 6171SOL     OW19411   2.843   5.157   2.465 -0.5814  0.3858 -0.3454
 6171SOL    HW119412   2.816   5.150   2.561 -1.8670 -0.4267 -0.7390
 6171SOL    HW219413   2.911   5.230   2.455 -0.9739  0.9890  1.0582
 6172SOL     OW19414   2.839   0.465   1.254 -0.3674  0.3076 -0.6217
 6172SOL    HW119415   2.834   0.411   1.170 -1.5538  1.3770 -1.2648
 6172SOL    HW219416   2.824   0.405   1.333  1.6741 -0.8748 -1.0592
 6173SOL     OW19417   6.990   5.255   4.202  0.3433  0.0874 -0.5721
 6173SOL    HW119418   7.050   5.215   4.132  1.2611 -1.7164  1.1386
 6173SOL    HW219419   7.017   5.221   4.292 -1.2976  1.7221  0.6032
 6174SOL     OW19420   0.359   4.204   5.131 -0.6535  0.1808  0.8361
 6174SOL    HW119421   0.423   4.206   5.208 -0.8830  2.0420  1.0268
 6174SOL    HW219422   0.300   4.285   5.135 -2.8333 -1.2977  0.4922
 6175SOL     OW19423   1.716   6.844   0.456  0.3650 -0.2184 -0.2327
 6175SOL    HW119424   1.775   6.904   0.510 -1.0232  0.8652  0.1313
 6175SOL    HW219425   1.664   6.785   0.517  1.1988 -1.3256 -0.5636
 6176SOL     OW19426   4.078   6.788   3.639  0.0263  0.0667 -0.2366
 6176SOL    HW119427   4.090   6.689   3.637 -1.1276 -0.1000  0.2044
 6176SOL    HW219428   4.061   6.822   3.546 -0.0594 -0.2155 -0.3232
 6177SOL     OW19429   5.045   3.035   3.440 -0.2522 -0.1383  0.0499
 6177SOL    HW119430   5.045   3.123   3.488  0.2960  1.0985 -2.0882
 6177SOL    HW219431   5.116   2.976   3.478  0.0498  0.7169  0.8563
 6178SOL     OW19432   3.823   1.127   4.340 -0.1787  0.0104  0.3865
 6178SOL    HW119433   3.758   1.171   4.402  0.1767  1.4187 -0.1902
 6178SOL    HW219434   3.782   1.043   4.304 -0.9605 -0.0637  1.3866
 6179SOL     OW19435   4.365   5.446   1.638  0.2779 -0.2597  0.5186
 6179SOL    HW119436   4.293   5.442   1.569  0.1405  1.2507  0.5230
 6179SOL    HW219437   4.454   5.456   1.594  0.2138  0.4530  0.5284
 6180SOL     OW19438   4.948   2.974   1.936 -0.4076 -0.2314 -0.0809
 6180SOL    HW119439   4.848   2.976   1.930 -0.5481 -1.8255  1.0271
 6180SOL    HW219440   4.975   2.954   2.030  1.0303  1.9924  0.0441
 6181SOL     OW19441   5.134   2.292   3.654 -0.4735 -0.0035 -0.0178
 6181SOL    HW119442   5.222   2.303   3.701 -0.7532  2.2205  0.1272
 6181SOL    HW219443   5.090   2.207   3.683  0.4933  0.0781  1.8279
 6182SOL     OW19444   0.806   3.890   0.803 -0.3070 -0.6951 -0.1574
 6182SOL    HW119445   0.730   3.945   0.769  0.9354  0.6698 -0.8597
 6182SOL    HW219446   0.873   3.950   0.848  0.2798 -1.8762  0.5869
 6183SOL     OW19447   2.306   3.820   6.524  0.0441 -0.0135  0.0665
 6183SOL    HW119448   2.393   3.781   6.493 -0.0088  0.2691 -0.4431
 6183SOL    HW219449   2.246   3.834   6.446  0.1517  1.3204  0.2075
 6184SOL     OW19450   6.475   0.310   5.480 -0.4124  0.5099 -0.6225
 6184SOL    HW119451   6.416   0.294   5.402 -0.1879  3.3000 -1.4819
 6184SOL    HW219452   6.557   0.253   5.474 -0.8044  0.0768 -1.9593
 6185SOL     OW19453   2.003   0.007   2.955  0.1657 -0.4961 -0.2321
 6185SOL    HW119454   1.973   0.103   2.960 -0.1280 -0.6204  0.6395
 6185SOL    HW219455   1.947  -0.048   3.017  0.1866 -1.2761 -0.8962
 6186SOL     OW19456   4.016   3.843   4.561 -0.2963 -0.4121  0.2231
 6186SOL    HW119457   4.098   3.786   4.548 -0.1297  0.2456 -1.9732
 6186SOL    HW219458   4.028   3.900   4.642  0.3777 -2.0318  1.3136
 6187SOL     OW19459   6.937   6.717   3.283 -0.1466 -0.5926 -0.4199
 6187SOL    HW119460   6.857   6.701   3.225 -1.1772  2.9570 -0.1857
 6187SOL    HW219461   6.907   6.727   3.378  0.9072 -1.3643  0.0127
 6188SOL     OW19462   3.421   4.668   1.610  0.7069  0.1898  0.6409
 6188SOL    HW119463   3.473   4.629   1.686  1.3937  0.2944  0.2334
 6188SOL    HW219464   3.409   4.599   1.539  1.3966  0.5266  0.1835
 6189SOL     OW19465   6.561   2.092   2.704 -0.8859  0.1515  0.3062
 6189SOL    HW119466   6.621   2.016   2.726 -0.9221 -0.4015 -1.3769
 6189SOL    HW219467   6.539   2.142   2.787  0.8228 -0.4213  1.1458
 6190SOL     OW19468   2.462   5.113   4.680  0.0146 -0.3790 -0.1655
 6190SOL    HW119469   2.553   5.073   4.687 -0.2066 -0.7673  0.7219
 6190SOL    HW219470   2.405   5.079   4.756 -0.9532 -0.3804 -0.8672
 6191SOL     OW19471   2.248   0.491   3.724 -0.4989  0.1298  0.1181
 6191SOL    HW119472   2.306   0.450   3.795 -0.7274 -0.0020  0.2310
 6191SOL    HW219473   2.153   0.485   3.752 -0.6020 -0.0405 -0.2628
 6192SOL     OW19474   0.193   1.738   4.495 -0.0832  0.6545 -0.3848
 6192SOL    HW119475   0.263   1.790   4.544 -0.4695  2.0350 -1.2358
 6192SOL    HW219476   0.105   1.785   4.503 -0.4761  0.0445 -1.0466
 6193SOL     OW19477   7.015   2.819   5.411 -0.7030  0.2631 -0.1087
 6193SOL    HW119478   7.070   2.872   5.476 -1.4949 -0.6172  1.3548
 6193SOL    HW219479   6.924   2.860   5.403 -0.6495  0.2939 -0.5753
 6194SOL     OW19480   5.844   0.441   0.211 -0.2793 -0.2165  0.4726
 6194SOL    HW119481   5.936   0.407   0.190  0.2009  0.0209  2.0010
 6194SOL    HW219482   5.785   0.431   0.131  1.8277  2.3214 -1.5835
 6195SOL     OW19483   5.491   2.498   3.430 -0.4851  0.0543 -0.1962
 6195SOL    HW119484   5.422   2.568   3.444 -1.3002 -0.8298  0.2902
 6195SOL    HW219485   5.578   2.542   3.408 -0.5720  1.2922  1.6891
 6196SOL     OW19486   3.077   5.153   5.588  0.4736  0.0488 -0.3475
 6196SOL    HW119487   3.154   5.161   5.650  0.9963  0.2521 -1.0086
 6196SOL    HW219488   3.080   5.064   5.542  0.5859  0.2387 -0.7160
 6197SOL     OW19489   1.207   2.603   2.317  0.9677  0.2167 -0.2473
 6197SOL    HW119490   1.252   2.634   2.233  0.4165  0.0852 -0.5989
 6197SOL    HW219491   1.214   2.504   2.324  1.2666  0.2568  0.0118
 6198SOL     OW19492   5.901   5.760   0.306 -0.5329 -0.3160  0.0819
 6198SOL    HW119493   5.864   5.826   0.371 -0.0698 -0.6841  0.7278
 6198SOL    HW219494   6.000   5.753   0.319 -0.3482  0.0275 -1.0472
 6199SOL     OW19495   2.020   5.828   4.249 -0.1288  0.0255  0.2648
 6199SOL    HW119496   2.026   5.735   4.213  0.6744 -0.1914  0.9140
 6199SOL    HW219497   2.113   5.866   4.257 -0.5398  2.1163 -3.0747
 6200SOL     OW19498   0.950   2.318   0.801 -0.2831 -1.0191 -0.1431
 6200SOL    HW119499   0.987   2.364   0.721 -0.0634 -0.4109  0.2973
 6200SOL    HW219500   0.852   2.336   0.808 -0.2288 -0.7462 -0.0635
 6201SOL     OW19501   4.970   6.241   6.549 -0.3892  0.1552 -0.2466
 6201SOL    HW119502   5.020   6.166   6.505 -0.0349 -0.0652  0.5133
 6201SOL    HW219503   5.034   6.295   6.604 -1.0449 -0.3667  1.0695
 6202SOL     OW19504   3.166   3.710   3.893 -0.5096  0.1871  0.0823
 6202SOL    HW119505   3.108   3.689   3.972  0.3468  0.8763  0.9200
 6202SOL    HW219506   3.140   3.799   3.855 -0.9837 -0.1870 -0.4865
 6203SOL     OW19507   2.576   3.818   0.295 -0.2251 -0.4533  0.2592
 6203SOL    HW119508   2.622   3.768   0.222  0.9629  0.4431  0.3740
 6203SOL    HW219509   2.547   3.754   0.366 -0.7803 -1.2452 -0.6697
 6204SOL     OW19510   3.809   1.661   1.635 -0.5508  0.2516  0.1428
 6204SOL    HW119511   3.853   1.749   1.618  1.3865 -1.1199 -2.8980
 6204SOL    HW219512   3.873   1.600   1.681  0.3203 -1.2166 -2.7576
 6205SOL     OW19513   6.655   4.637   4.302  0.0900 -0.1338  0.7311
 6205SOL    HW119514   6.728   4.569   4.303 -0.2087 -0.4661  0.2324
 6205SOL    HW219515   6.696   4.729   4.303  0.6282 -0.2727 -1.6927
 6206SOL     OW19516   6.871   5.305   6.013  0.3879  0.4744  0.6273
 6206SOL    HW119517   6.814   5.276   5.937 -0.9536  0.5804  1.5585
 6206SOL    HW219518   6.928   5.383   5.985 -0.2907  0.6870 -0.1780
 6207SOL     OW19519   2.761   2.774   0.604 -0.1222  0.1058 -0.3626
 6207SOL    HW119520   2.724   2.685   0.630 -0.1265  1.1002  3.5401
 6207SOL    HW219521   2.696   2.846   0.629  1.2517  1.4141 -0.4016
 6208SOL     OW19522   5.497   2.001   3.613  0.1234  0.3319  0.1752
 6208SOL    HW119523   5.417   1.987   3.671 -1.7836  1.7680 -1.9632
 6208SOL    HW219524   5.521   2.098   3.611 -0.8462  0.5846 -2.5532
 6209SOL     OW19525   3.752   6.870   0.178  0.5305 -0.4078  0.2763
 6209SOL    HW119526   3.665   6.905   0.142  1.4843 -0.3844 -2.2439
 6209SOL    HW219527   3.776   6.920   0.261 -0.5365  1.5468 -0.5095
 6210SOL     OW19528   5.299   2.920   5.852  0.7172 -0.0866  0.0742
 6210SOL    HW119529   5.246   3.002   5.871  2.4082  1.2064 -0.5001
 6210SOL    HW219530   5.338   2.884   5.937  0.7287  0.2464  0.2075
 6211SOL     OW19531   4.291   6.140   3.759 -0.4639 -0.3766  0.2200
 6211SOL    HW119532   4.333   6.079   3.826 -0.3384 -0.4379  0.0862
 6211SOL    HW219533   4.337   6.130   3.671 -0.3783 -0.0187  0.2215
 6212SOL     OW19534   0.018   0.071   6.073  1.1928  1.2945  0.2769
 6212SOL    HW119535  -0.079   0.095   6.080  0.5668 -1.3217  2.0065
 6212SOL    HW219536   0.048   0.084   5.979 -1.2445  0.7879 -0.6612
 6213SOL     OW19537   4.051   2.754   1.016  0.4063  1.0034 -0.1571
 6213SOL    HW119538   3.991   2.744   1.095  0.1422 -0.2687 -0.4853
 6213SOL    HW219539   4.001   2.798   0.942  0.5478  1.8790  0.2515
 6214SOL     OW19540   0.621   2.783   1.236  0.1814  0.0104 -0.2417
 6214SOL    HW119541   0.687   2.733   1.180 -0.3230 -0.5534 -0.3351
 6214SOL    HW219542   0.661   2.871   1.264  0.6134  0.0918 -1.0892
 6215SOL     OW19543   3.852   1.702   2.666  0.0187  0.0680  0.4300
 6215SOL    HW119544   3.897   1.792   2.669  0.1694  0.0762 -1.2314
 6215SOL    HW219545   3.773   1.703   2.727 -0.1317  1.4293  0.2639
 6216SOL     OW19546   6.044   3.573   0.431  0.5621  0.3182  0.2416
 6216SOL    HW119547   6.067   3.584   0.335 -2.1553  0.3784 -0.4810
 6216SOL    HW219548   6.016   3.661   0.469 -2.6128 -0.3688 -0.2182
 6217SOL     OW19549   4.594   5.064   6.331  0.1473  0.4368  0.0503
 6217SOL    HW119550   4.573   5.003   6.255  1.1797  0.3558 -0.1837
 6217SOL    HW219551   4.614   5.156   6.295  1.9028  0.0943  0.0828
 6218SOL     OW19552   5.377   2.772   3.830 -0.8126 -0.8210  0.7777
 6218SOL    HW119553   5.389   2.856   3.882 -0.8311  0.3474 -1.0006
 6218SOL    HW219554   5.368   2.694   3.892  0.6851  0.2710  2.4420
 6219SOL     OW19555   2.979   5.491   5.226  0.2335  0.2313  0.2123
 6219SOL    HW119556   2.984   5.461   5.322 -1.6472 -0.6350  0.0816
 6219SOL    HW219557   3.050   5.445   5.173  0.3681 -0.3895  0.9137
 6220SOL     OW19558   6.981   0.562   0.549  0.3301 -0.0909 -0.2470
 6220SOL    HW119559   6.883   0.560   0.527  0.8194 -2.0479 -2.7187
 6220SOL    HW219560   7.025   0.637   0.501  0.0910  0.7728  0.8435
 6221SOL     OW19561   3.189   4.252   6.422 -0.1917 -0.2883  0.9035
 6221SOL    HW119562   3.274   4.293   6.390 -0.0333 -0.1666  1.4668
 6221SOL    HW219563   3.203   4.214   6.514 -0.4670 -1.1629  0.5966
 6222SOL     OW19564   0.342   0.234   4.549  0.2359 -1.0130  0.2736
 6222SOL    HW119565   0.296   0.146   4.560 -2.0169  0.0104 -0.4752
 6222SOL    HW219566   0.275   0.308   4.557  1.6252  0.5321 -1.6530
 6223SOL     OW19567   6.184   1.566   6.437  0.3789  0.3387  0.5579
 6223SOL    HW119568   6.230   1.501   6.497 -0.4882 -0.2902  0.5642
 6223SOL    HW219569   6.244   1.644   6.419  1.4267 -0.4610  0.5510
 6224SOL     OW19570   6.841   3.059   3.923 -0.1091  0.1672  0.3698
 6224SOL    HW119571   6.802   2.983   3.871 -0.5844 -1.6504  3.1179
 6224SOL    HW219572   6.941   3.054   3.921 -0.0114 -2.8709  3.2852
 6225SOL     OW19573   2.545   0.100   1.554 -0.3816  0.2431  0.3436
 6225SOL    HW119574   2.570   0.080   1.459 -1.6819  1.4695 -0.3022
 6225SOL    HW219575   2.620   0.075   1.614  1.1842  1.0515 -1.1860
 6226SOL     OW19576   4.306   2.666   0.634 -0.1622  0.4257  0.2969
 6226SOL    HW119577   4.234   2.607   0.598  0.9695 -0.3407 -0.8255
 6226SOL    HW219578   4.338   2.630   0.722  1.7188 -1.7937 -1.1586
 6227SOL     OW19579   4.516   6.369   2.656  0.4987 -0.7636  0.0859
 6227SOL    HW119580   4.472   6.452   2.692  0.7529 -2.2585  4.4350
 6227SOL    HW219581   4.610   6.390   2.630 -0.5592  1.0119 -2.8715
 6228SOL     OW19582   4.705   1.585   2.767  0.1540  0.1086  0.4224
 6228SOL    HW119583   4.636   1.628   2.707  0.4199 -1.0573 -0.7537
 6228SOL    HW219584   4.792   1.633   2.757  0.6729 -1.1227 -1.5232
 6229SOL     OW19585   5.950   0.705   2.544 -0.2309 -0.1667  0.0525
 6229SOL    HW119586   5.902   0.765   2.609  0.0659 -0.4916  0.5833
 6229SOL    HW219587   5.883   0.653   2.491 -0.4825  0.3183 -0.1107
 6230SOL     OW19588   3.637   6.221   4.218  0.1103  0.7163  0.3532
 6230SOL    HW119589   3.636   6.186   4.312  1.8063  2.4806  1.0793
 6230SOL    HW219590   3.721   6.272   4.203  0.6647 -0.8843 -2.6740
 6231SOL     OW19591   4.488   2.352   5.075  0.2320  0.4916  0.0530
 6231SOL    HW119592   4.507   2.360   5.173  0.9243 -2.7184  0.2837
 6231SOL    HW219593   4.389   2.358   5.059  0.2362  3.2564  0.5842
 6232SOL     OW19594   4.862   5.477   5.508  0.2181  0.8350  0.3111
 6232SOL    HW119595   4.924   5.500   5.432  1.6792 -0.9786  0.8771
 6232SOL    HW219596   4.800   5.404   5.479  0.6999  0.2221  0.7971
 6233SOL     OW19597   3.312   3.246   0.695  0.0984 -0.0051  0.3452
 6233SOL    HW119598   3.265   3.245   0.607  1.3800  0.0082 -0.3586
 6233SOL    HW219599   3.291   3.331   0.744 -0.8527 -0.1466  0.2008
 6234SOL     OW19600   3.057   6.902   1.555  0.3607 -0.5118  0.5323
 6234SOL    HW119601   3.046   6.988   1.504 -0.6123 -0.6253  0.5334
 6234SOL    HW219602   3.128   6.914   1.624  0.9526 -0.0237 -0.1424
 6235SOL     OW19603   2.510   5.524   3.893  0.0695  0.5578 -0.0937
 6235SOL    HW119604   2.494   5.576   3.809 -1.2824 -0.6820 -0.6487
 6235SOL    HW219605   2.424   5.517   3.944 -0.2155 -2.3861 -0.8169
 6236SOL     OW19606   6.408   0.613   5.098 -0.0135 -0.5739 -0.5406
 6236SOL    HW119607   6.460   0.692   5.130 -1.9958  0.1182  1.2599
 6236SOL    HW219608   6.456   0.529   5.122 -0.4509 -0.0252  2.7877
 6237SOL     OW19609   3.537   6.119   5.036  0.3273  0.8878  0.8486
 6237SOL    HW119610   3.611   6.110   4.970 -0.3464 -0.6636  0.2513
 6237SOL    HW219611   3.566   6.081   5.124  0.4640  0.9072  0.8129
 6238SOL     OW19612   3.880   6.070   0.743 -0.8270 -0.9408 -0.6762
 6238SOL    HW119613   3.932   6.090   0.659  0.5459 -1.3407  0.0481
 6238SOL    HW219614   3.929   6.107   0.822 -1.8543 -1.0009  0.0091
 6239SOL     OW19615   1.098   3.856   2.178  0.2607 -0.3659 -0.2652
 6239SOL    HW119616   1.062   3.851   2.084  0.2745 -0.4051 -0.2683
 6239SOL    HW219617   1.084   3.948   2.213  0.2584 -0.3499 -0.3070
 6240SOL     OW19618   4.434   3.840   6.056  0.4539 -0.6611 -0.4051
 6240SOL    HW119619   4.465   3.746   6.069  0.2370 -0.9324 -1.6637
 6240SOL    HW219620   4.509   3.895   6.020  0.1222 -0.7813 -1.3117
 6241SOL     OW19621   0.937   0.513   3.425 -0.1110 -0.0696  0.2942
 6241SOL    HW119622   0.983   0.602   3.431 -0.3201 -0.0174  1.1996
 6241SOL    HW219623   0.845   0.520   3.463 -0.6797 -0.3230 -0.9652
 6242SOL     OW19624   0.473   2.880   5.727  0.1958  0.2843  0.1712
 6242SOL    HW119625   0.453   2.867   5.824 -0.1170 -0.5756  0.0012
 6242SOL    HW219626   0.556   2.936   5.717  0.7773 -0.4161  0.9470
 6243SOL     OW19627   1.956   1.842   2.476 -0.6838  0.2404 -0.3563
 6243SOL    HW119628   1.962   1.883   2.385  1.3558  0.4602 -0.1766
 6243SOL    HW219629   1.985   1.909   2.544 -0.1278 -0.5827  0.2318
 6244SOL     OW19630   6.625   5.620   4.657 -0.0604  0.3006 -0.1063
 6244SOL    HW119631   6.547   5.562   4.681  0.3798 -1.1648 -1.9820
 6244SOL    HW219632   6.604   5.669   4.572  0.7655  0.4727 -0.2190
 6245SOL     OW19633   0.096   3.389   3.408 -0.4145  0.0956  0.1618
 6245SOL    HW119634   0.109   3.435   3.496  0.0699  1.2926 -0.5135
 6245SOL    HW219635   0.004   3.410   3.373 -0.9992 -1.2229  0.8425
 6246SOL     OW19636   2.880   0.586   4.167  0.6104 -0.0633 -0.1719
 6246SOL    HW119637   2.850   0.491   4.160  0.1960  0.0819 -0.4461
 6246SOL    HW219638   2.966   0.598   4.119  0.7068 -0.3193 -0.0638
 6247SOL     OW19639   1.683   5.422   4.504  0.2278 -0.3298  0.1688
 6247SOL    HW119640   1.743   5.343   4.519 -0.5148 -1.2568 -1.5346
 6247SOL    HW219641   1.693   5.486   4.581  0.6971 -2.1430  1.6986
 6248SOL     OW19642   0.053   2.951   2.220  0.0137  0.8871  0.1483
 6248SOL    HW119643   0.145   2.944   2.260  0.1312 -1.1095 -0.3802
 6248SOL    HW219644   0.006   2.863   2.229 -2.6162  2.3494  2.1363
 6249SOL     OW19645   6.693   4.791   5.792 -0.4285 -0.9868 -0.3385
 6249SOL    HW119646   6.771   4.847   5.820 -1.9672  0.8994  0.4266
 6249SOL    HW219647   6.665   4.817   5.699 -0.9646 -0.6841 -0.0965
 6250SOL     OW19648   1.445   4.551   6.491  0.1753 -0.2863 -0.7403
 6250SOL    HW119649   1.497   4.572   6.408  0.7787  1.1314 -0.0284
 6250SOL    HW219650   1.354   4.517   6.466  0.6584 -0.7221 -1.9774
 6251SOL     OW19651   6.939   0.194   5.356 -0.4133  0.1199  0.4431
 6251SOL    HW119652   7.010   0.207   5.287 -0.3013 -1.6949  0.1787
 6251SOL    HW219653   6.967   0.122   5.420 -1.4232  0.3430  1.1646
 6252SOL     OW19654   0.123   5.584   2.263  0.3344 -0.2169 -0.4709
 6252SOL    HW119655   0.105   5.490   2.292  2.4355 -0.4707  0.1610
 6252SOL    HW219656   0.038   5.637   2.269 -0.6727 -1.8006  0.1148
 6253SOL     OW19657   0.721   3.086   4.646  0.3619  0.2322 -0.0346
 6253SOL    HW119658   0.725   3.092   4.746 -0.6015 -0.0236  0.0265
 6253SOL    HW219659   0.772   3.163   4.607  0.4759  0.5199  0.6557
 6254SOL     OW19660   6.492   2.451   2.175 -0.1256 -0.0937 -0.6411
 6254SOL    HW119661   6.539   2.363   2.165  0.6724  0.1174  0.8816
 6254SOL    HW219662   6.554   2.518   2.215 -1.6321  0.2252  1.3626
 6255SOL     OW19663   3.504   4.821   1.177 -0.1174 -0.3405 -0.1072
 6255SOL    HW119664   3.550   4.741   1.215  0.3910  0.4847  1.0780
 6255SOL    HW219665   3.412   4.796   1.148  0.7795 -1.8522 -1.8512
 6256SOL     OW19666   2.532   2.531   4.778 -0.8263  0.0401  0.4701
 6256SOL    HW119667   2.499   2.615   4.735  1.0100  1.6587  2.0145
 6256SOL    HW219668   2.580   2.476   4.709  0.7719  1.8528  0.0370
 6257SOL     OW19669   3.996   0.328   2.037 -0.6273 -0.8124  0.4008
 6257SOL    HW119670   3.977   0.385   1.957  0.1695 -0.7168  0.2670
 6257SOL    HW219671   3.911   0.292   2.074 -1.2640  1.3253  1.1399
 6258SOL     OW19672   4.307   0.485   0.815  0.2295  0.1614  0.0461
 6258SOL    HW119673   4.344   0.446   0.900  0.5475  1.0371  0.3291
 6258SOL    HW219674   4.348   0.575   0.800 -1.1372  0.7799 -0.1070
 6259SOL     OW19675   4.802   5.884   1.601 -0.0896 -0.1554  0.2164
 6259SOL    HW119676   4.754   5.837   1.527 -0.4705  0.2176  0.2257
 6259SOL    HW219677   4.761   5.860   1.688  0.7365 -1.0673  0.3769
 6260SOL     OW19678   6.853   0.314   3.375  0.4300 -0.2545 -0.1971
 6260SOL    HW119679   6.862   0.362   3.462 -0.3340 -1.0356  0.3291
 6260SOL    HW219680   6.803   0.229   3.389  0.6299 -0.5765 -1.3389
 6261SOL     OW19681   3.843   0.097   6.099 -0.2384 -0.3910 -0.4690
 6261SOL    HW119682   3.935   0.127   6.126 -0.1319  0.4583 -1.6548
 6261SOL    HW219683   3.776   0.163   6.132 -0.5160 -1.3280  0.9244
 6262SOL     OW19684   6.124   6.109   4.010  0.0939 -0.1255  0.2978
 6262SOL    HW119685   6.156   6.073   3.922 -0.7875  0.6536 -0.3558
 6262SOL    HW219686   6.139   6.040   4.081 -0.5850 -1.3720 -0.7328
 6263SOL     OW19687   6.006   2.824   0.561  0.1543 -0.2017 -0.1166
 6263SOL    HW119688   5.943   2.833   0.638 -0.0815 -2.8639  0.0718
 6263SOL    HW219689   6.060   2.741   0.571  0.9888  0.0283 -2.2131
 6264SOL     OW19690   0.310   3.596   1.285  0.0172 -0.5098 -0.2425
 6264SOL    HW119691   0.224   3.632   1.248 -0.1834  0.2112  0.8809
 6264SOL    HW219692   0.292   3.513   1.338 -0.3879  0.9565  2.0384
 6265SOL     OW19693   3.999   2.706   5.902 -0.1905 -0.3742  0.2170
 6265SOL    HW119694   3.953   2.653   5.831 -0.3309  1.7359 -1.3894
 6265SOL    HW219695   3.932   2.761   5.951  0.1161 -0.5292  0.8106
 6266SOL     OW19696   2.042   6.964   6.094 -0.5451 -0.3230 -0.5514
 6266SOL    HW119697   2.040   6.898   6.170 -0.0979  1.8308  1.4624
 6266SOL    HW219698   2.137   6.986   6.073 -0.6959  0.1234 -0.7717
 6267SOL     OW19699   2.452   2.521   4.522 -0.0273  0.1219  0.3046
 6267SOL    HW119700   2.382   2.449   4.523  0.6481 -0.5475  0.6247
 6267SOL    HW219701   2.423   2.597   4.579 -0.7768  0.1329 -0.0739
 6268SOL     OW19702   6.495   0.023   2.205  0.0023  0.4526 -0.0250
 6268SOL    HW119703   6.513  -0.076   2.201  2.3367  0.8681 -1.2209
 6268SOL    HW219704   6.421   0.046   2.143  0.9812 -0.2826 -1.5272
 6269SOL     OW19705   3.944   2.891   6.971 -0.5688  1.0458 -0.1679
 6269SOL    HW119706   3.991   2.948   6.904 -0.2030  1.7034  0.6248
 6269SOL    HW219707   3.974   2.796   6.961  0.5621  1.3672 -0.0263
 6270SOL     OW19708   2.779   5.555   5.990 -0.4629  0.3533 -0.7914
 6270SOL    HW119709   2.684   5.549   6.020 -0.2088 -0.4747 -0.1188
 6270SOL    HW219710   2.828   5.473   6.018  0.5163  0.8845 -0.9030
 6271SOL     OW19711   6.849   3.589   4.514  0.0074 -0.4548 -0.1017
 6271SOL    HW119712   6.888   3.526   4.447  1.9682 -0.0649  0.6087
 6271SOL    HW219713   6.808   3.536   4.589 -0.4888 -0.8790 -0.6626
 6272SOL     OW19714   2.444   4.258   0.900  0.2871  0.5893 -0.3830
 6272SOL    HW119715   2.544   4.259   0.901  0.2877  1.3633 -0.5364
 6272SOL    HW219716   2.409   4.295   0.986  0.1177 -1.1826  0.3390
 6273SOL     OW19717   1.909   4.053   2.739  0.0545 -0.5964 -0.0536
 6273SOL    HW119718   1.929   4.000   2.656 -0.0126 -0.3081 -0.2573
 6273SOL    HW219719   1.840   4.123   2.718 -0.3625 -0.8657  0.3743
 6274SOL     OW19720   2.721   1.769   2.078 -0.1620 -0.0514  0.3233
 6274SOL    HW119721   2.643   1.769   2.141  1.6292  1.9665  2.6857
 6274SOL    HW219722   2.743   1.863   2.052 -0.2982 -0.7639 -2.7642
 6275SOL     OW19723   5.122   2.518   5.081  0.5629 -0.3608  0.4380
 6275SOL    HW119724   5.073   2.500   5.166  1.6625  0.1907  1.2114
 6275SOL    HW219725   5.076   2.472   5.005 -1.9613  1.2278  0.8900
 6276SOL     OW19726   2.768   2.056   2.016  0.2745 -0.0416 -0.5582
 6276SOL    HW119727   2.812   2.141   2.046  1.9177 -0.7747 -0.7713
 6276SOL    HW219728   2.668   2.068   2.017  0.4571  1.8453 -0.5066
 6277SOL     OW19729   4.594   6.410   0.742  0.1433 -0.1427  0.0008
 6277SOL    HW119730   4.678   6.461   0.723  0.8111 -1.3398 -0.4157
 6277SOL    HW219731   4.517   6.473   0.747  1.0174  0.9523  0.0889
 6278SOL     OW19732   4.785   1.188   4.841 -0.1775 -0.5081  0.2049
 6278SOL    HW119733   4.711   1.248   4.872 -0.4479 -0.1814 -1.0210
 6278SOL    HW219734   4.752   1.133   4.764  1.1726  0.4483 -1.1054
 6279SOL     OW19735   1.102   0.781   2.912  0.6598  0.0871  0.0158
 6279SOL    HW119736   1.023   0.840   2.926  1.5405  0.9229  1.8202
 6279SOL    HW219737   1.076   0.686   2.927 -0.0638  0.3227  0.2957
 6280SOL     OW19738   6.616   4.149   4.237  0.2083 -0.5959  0.2404
 6280SOL    HW119739   6.527   4.152   4.190 -0.1119 -1.8607  0.7300
 6280SOL    HW219740   6.614   4.212   4.314  0.4404  0.8486 -0.8867
 6281SOL     OW19741   6.399   2.046   2.162 -0.0586  0.1078 -0.2175
 6281SOL    HW119742   6.321   1.998   2.121  1.0982  0.4745 -3.0582
 6281SOL    HW219743   6.440   2.107   2.095  0.6439  2.5672  2.2473
 6282SOL     OW19744   4.668   2.221   5.377 -0.1611  0.4504 -0.2080
 6282SOL    HW119745   4.697   2.139   5.327 -1.8561  0.4736 -1.2851
 6282SOL    HW219746   4.600   2.195   5.446  0.4631  0.7486  0.5290
 6283SOL     OW19747   5.691   5.322   5.942 -0.5683  0.3031  0.5628
 6283SOL    HW119748   5.789   5.322   5.922 -0.3554 -0.0664  1.5391
 6283SOL    HW219749   5.640   5.352   5.861  0.4606  2.4437  0.6548
 6284SOL     OW19750   0.295   3.649   5.658 -0.0431  0.1261 -0.4512
 6284SOL    HW119751   0.274   3.724   5.595  1.2389  0.2233 -0.7848
 6284SOL    HW219752   0.383   3.666   5.702 -0.2751 -0.6321  0.3317
 6285SOL     OW19753   6.552   6.265   0.740  0.4727 -0.1045  0.1238
 6285SOL    HW119754   6.598   6.205   0.674  0.3003  0.0109 -0.1021
 6285SOL    HW219755   6.515   6.344   0.692 -0.4592 -0.4784  0.2213
 6286SOL     OW19756   5.219   4.415   2.894 -0.2396 -0.9144 -0.4259
 6286SOL    HW119757   5.164   4.490   2.859  2.0075  1.0524  0.0528
 6286SOL    HW219758   5.188   4.391   2.986 -0.8481 -0.4653 -0.5098
 6287SOL     OW19759   0.524   2.465   5.621 -0.2170  0.0467  0.0726
 6287SOL    HW119760   0.594   2.518   5.573 -0.1178 -0.5697 -0.4738
 6287SOL    HW219761   0.436   2.513   5.614 -0.0276  0.3900  0.0189
 6288SOL     OW19762   4.130   5.564   6.092 -0.8461 -0.0005 -0.2587
 6288SOL    HW119763   4.136   5.465   6.089 -0.7547  0.0174 -0.9008
 6288SOL    HW219764   4.170   5.598   6.177 -0.1582 -0.4664 -0.3900
 6289SOL     OW19765   2.767   0.752   2.884 -0.1988 -0.1849 -0.0320
 6289SOL    HW119766   2.705   0.829   2.901 -1.1861 -0.8447 -0.5510
 6289SOL    HW219767   2.716   0.666   2.887  0.7385 -0.7703 -0.2402
 6290SOL     OW19768   5.791   0.295   3.169  0.2739  0.3291 -0.0903
 6290SOL    HW119769   5.757   0.228   3.103 -2.7968  1.7982 -0.2057
 6290SOL    HW219770   5.821   0.248   3.252 -1.4851 -1.2566 -0.2910
 6291SOL     OW19771   2.989   1.432   4.196 -0.5098  0.4507 -0.0078
 6291SOL    HW119772   2.925   1.395   4.264 -0.2024 -1.0336 -0.4744
 6291SOL    HW219773   2.941   1.444   4.109 -1.0523  2.9085  0.5729
 6292SOL     OW19774   1.577   3.124   6.577  0.4752 -0.4396  0.0402
 6292SOL    HW119775   1.486   3.083   6.573  0.7338 -0.8698 -2.3906
 6292SOL    HW219776   1.574   3.205   6.637 -0.8770 -1.8167  1.9518
 6293SOL     OW19777   4.693   2.556   5.991  0.0276 -1.0554 -0.3118
 6293SOL    HW119778   4.637   2.518   6.065 -0.7278 -0.4459 -0.5608
 6293SOL    HW219779   4.760   2.488   5.961  0.4275 -1.2744  1.0124
 6294SOL     OW19780   5.909   0.330   0.794 -0.3188  0.1060 -0.0508
 6294SOL    HW119781   5.955   0.305   0.709  0.7743  0.7781  0.3175
 6294SOL    HW219782   5.861   0.251   0.831 -1.1607 -0.0831 -1.5013
 6295SOL     OW19783   1.103   5.985   4.664  0.2124  0.9077  0.2091
 6295SOL    HW119784   1.194   5.998   4.703  0.2215  2.0017 -0.1395
 6295SOL    HW219785   1.107   5.918   4.590  0.3997 -0.3406  1.3256
 6296SOL     OW19786   1.704   6.928   3.505  0.2375 -0.1422  0.0317
 6296SOL    HW119787   1.635   6.892   3.569 -0.0645  0.7543  0.2315
 6296SOL    HW219788   1.766   6.855   3.478 -0.1992 -0.7458  0.6280
 6297SOL     OW19789   3.137   6.324   2.079 -0.3050  0.4481 -0.1045
 6297SOL    HW119790   3.222   6.273   2.093 -0.6049 -0.2948 -0.8843
 6297SOL    HW219791   3.080   6.317   2.162 -1.1235 -2.0582 -0.7763
 6298SOL     OW19792   0.786   4.153   5.266 -0.4337 -0.1435  0.0652
 6298SOL    HW119793   0.841   4.180   5.187 -0.0857 -2.2156 -0.4771
 6298SOL    HW219794   0.845   4.145   5.347 -0.5583  0.7634  0.2527
 6299SOL     OW19795   6.508   3.186   3.594 -0.1477  0.1577 -0.2001
 6299SOL    HW119796   6.425   3.144   3.630  0.9058 -0.7012  1.3083
 6299SOL    HW219797   6.522   3.276   3.636 -0.1518  0.1833 -0.2521
 6300SOL     OW19798   6.668   3.360   6.494 -0.2437  0.5851  0.2431
 6300SOL    HW119799   6.739   3.356   6.423  0.4835  2.2095  0.8445
 6300SOL    HW219800   6.661   3.271   6.539  2.9368  0.9012  1.6021
 6301SOL     OW19801   2.122   4.013   1.506 -0.3271 -0.2759  0.4366
 6301SOL    HW119802   2.079   4.071   1.575  0.8199  1.4670 -0.2504
 6301SOL    HW219803   2.067   3.930   1.494 -1.3735  0.0797  2.3075
 6302SOL     OW19804   4.344   5.881   1.670  0.2180 -0.2297 -0.1241
 6302SOL    HW119805   4.363   5.823   1.749 -0.9556  1.0079  1.1171
 6302SOL    HW219806   4.316   5.824   1.593 -1.3474 -1.3196  1.1826
 6303SOL     OW19807   6.697   6.245   3.625  0.2795  0.3409 -0.4186
 6303SOL    HW119808   6.710   6.177   3.553  0.0070 -0.6657  0.4366
 6303SOL    HW219809   6.780   6.300   3.636  1.7915 -2.0313  1.0154
 6304SOL     OW19810   6.478   0.287   0.247 -0.5897 -0.0742 -0.2417
 6304SOL    HW119811   6.469   0.306   0.149 -1.4736 -0.3044 -0.2168
 6304SOL    HW219812   6.558   0.229   0.263  0.6293  1.4340 -0.6127
 6305SOL     OW19813   0.832   4.963   4.726 -0.7154  0.3548  0.0623
 6305SOL    HW119814   0.813   4.994   4.819 -2.5918 -0.0627 -0.1489
 6305SOL    HW219815   0.812   5.037   4.661  0.2152  0.5171 -0.0532
 6306SOL     OW19816   3.337   6.883   1.641 -0.4733 -0.2308 -0.3786
 6306SOL    HW119817   3.324   6.806   1.704 -0.5463  0.8223  0.9268
 6306SOL    HW219818   3.379   6.849   1.556 -0.0828 -1.6288  0.3374
 6307SOL     OW19819   0.124   0.187   5.155  0.2036  0.4498 -0.1580
 6307SOL    HW119820   0.188   0.207   5.081 -0.3276 -0.6104 -0.9276
 6307SOL    HW219821   0.121   0.088   5.171  0.5708  0.6750  1.5324
 6308SOL     OW19822   5.344   0.143   0.240  0.0335  0.1506  0.0045
 6308SOL    HW119823   5.378   0.093   0.320 -1.0756  0.1642  0.5133
 6308SOL    HW219824   5.278   0.085   0.191 -1.3427  1.1050  0.6549
 6309SOL     OW19825   3.828   2.114   2.902 -0.2611  0.7033  0.1736
 6309SOL    HW119826   3.847   2.183   2.832 -0.1450  0.4965  0.0007
 6309SOL    HW219827   3.911   2.097   2.955  1.2975 -2.9063 -2.9338
 6310SOL     OW19828   4.146   1.646   4.922 -0.3465 -0.7603 -0.8051
 6310SOL    HW119829   4.205   1.712   4.971 -0.5069 -1.9927  1.1721
 6310SOL    HW219830   4.051   1.660   4.951 -0.2522 -2.5195  0.5241
 6311SOL     OW19831   0.120   2.439   4.319  0.4905  0.2808  0.7713
 6311SOL    HW119832   0.106   2.344   4.289  2.5902  0.9451 -2.9733
 6311SOL    HW219833   0.211   2.448   4.360 -0.2471  0.4677  2.4201
 6312SOL     OW19834   5.872   6.721   2.970 -0.0334  0.5369  0.7544
 6312SOL    HW119835   5.858   6.777   2.888 -0.4360 -1.6361 -0.7461
 6312SOL    HW219836   5.970   6.702   2.980 -0.1829 -1.8006 -1.1825
 6313SOL     OW19837   5.802   5.136   4.573  0.2113 -0.1948 -0.1468
 6313SOL    HW119838   5.843   5.063   4.518  1.3247  1.7570 -2.0590
 6313SOL    HW219839   5.764   5.206   4.513 -1.2254  0.6454  1.6260
 6314SOL     OW19840   0.723   5.809   6.128  0.6323  0.2058  0.1440
 6314SOL    HW119841   0.696   5.776   6.038  0.0628  1.9417 -0.3723
 6314SOL    HW219842   0.700   5.741   6.197  3.2964 -2.2286 -1.1988
 6315SOL     OW19843   4.306   1.153   1.421  0.1015 -0.1123 -0.1362
 6315SOL    HW119844   4.376   1.082   1.432 -1.3842 -1.6600 -0.2602
 6315SOL    HW219845   4.236   1.121   1.358 -0.7106  1.4242 -0.0621
 6316SOL     OW19846   6.165   5.415   2.788 -0.4535 -0.3372  0.0323
 6316SOL    HW119847   6.102   5.474   2.837 -0.1264 -1.0649  1.3688
 6316SOL    HW219848   6.257   5.452   2.793 -0.3007 -0.7836  0.5963
 6317SOL     OW19849   4.565   2.763   5.056 -0.1926 -0.0994 -0.4061
 6317SOL    HW119850   4.507   2.787   5.134 -0.0862 -1.5465  0.1491
 6317SOL    HW219851   4.512   2.710   4.991  0.1151 -0.1443 -0.6213
 6318SOL     OW19852   5.109   3.970   3.964  0.2785  0.1001  0.0375
 6318SOL    HW119853   5.058   3.946   3.881  2.3332 -0.0703 -1.2426
 6318SOL    HW219854   5.058   3.938   4.044 -0.9799 -1.2530 -1.2269
 6319SOL     OW19855   2.904   1.769   2.888 -0.6338  0.0215 -0.4913
 6319SOL    HW119856   2.911   1.748   2.790  4.0265 -0.1172 -0.3907
 6319SOL    HW219857   2.915   1.684   2.940 -0.3420  0.4040  0.0769
 6320SOL     OW19858   2.522   4.585   1.822  0.0114 -0.1771 -0.0172
 6320SOL    HW119859   2.429   4.620   1.812 -0.4908 -1.0214  1.4830
 6320SOL    HW219860   2.579   4.655   1.866  0.0298  0.2343 -0.6786
 6321SOL     OW19861   6.964   3.207   6.329  0.4054  0.1364 -0.1834
 6321SOL    HW119862   7.019   3.191   6.247 -0.7085 -1.9760 -0.6063
 6321SOL    HW219863   6.974   3.129   6.391  2.0061  2.1120  2.2426
 6322SOL     OW19864   4.057   5.951   0.555 -0.2007 -0.3100 -0.4801
 6322SOL    HW119865   4.012   5.862   0.561  0.7629 -0.9436 -1.9922
 6322SOL    HW219866   3.998   6.015   0.506  0.3402 -1.0354 -2.1442
 6323SOL     OW19867   2.713   5.560   5.168 -0.1829 -0.0903  0.3371
 6323SOL    HW119868   2.807   5.534   5.187  0.1820  0.9928  0.0956
 6323SOL    HW219869   2.712   5.640   5.108 -1.2697 -0.8034 -0.6299
 6324SOL     OW19870   6.020   2.150   5.776  0.0128  0.0579  0.5245
 6324SOL    HW119871   6.047   2.060   5.810  0.1138 -0.0165  0.2486
 6324SOL    HW219872   6.066   2.221   5.829  0.0785 -0.0550  0.6190
 6325SOL     OW19873   6.949   1.584   3.720  0.2241 -0.1913 -0.5059
 6325SOL    HW119874   6.865   1.638   3.728  0.6242  0.4869 -0.7905
 6325SOL    HW219875   7.002   1.616   3.642 -0.0517 -1.7383 -1.3617
 6326SOL     OW19876   2.828   6.075   4.804 -0.1492 -0.6307 -0.2828
 6326SOL    HW119877   2.801   6.026   4.887 -0.4687 -0.1144 -0.0724
 6326SOL    HW219878   2.923   6.053   4.782  0.0722 -0.4614  0.4590
 6327SOL     OW19879   4.910   3.942   3.187  0.2521  0.1194  0.1528
 6327SOL    HW119880   4.979   3.988   3.131 -0.5381  0.7632 -0.3039
 6327SOL    HW219881   4.821   3.987   3.175 -0.8465 -2.2453 -1.2827
 6328SOL     OW19882   0.427   4.726   1.886  0.2203  0.2284 -0.5976
 6328SOL    HW119883   0.510   4.781   1.880 -0.0041  0.4646 -1.7172
 6328SOL    HW219884   0.359   4.760   1.821 -0.2885 -0.7583 -0.6065
 6329SOL     OW19885   6.815   2.726   1.657 -0.1378 -0.4053 -0.2261
 6329SOL    HW119886   6.811   2.671   1.741  0.1230  0.3031  0.2684
 6329SOL    HW219887   6.875   2.805   1.672  0.6127 -0.7394 -1.3764
 6330SOL     OW19888   2.300   0.861   4.010  0.2788  0.2851  0.1627
 6330SOL    HW119889   2.348   0.941   4.044 -1.1159  1.0378  0.4260
 6330SOL    HW219890   2.202   0.872   4.025 -0.0917 -0.7487 -1.2691
 6331SOL     OW19891   2.954   5.895   1.755  0.3686  0.2506  0.4033
 6331SOL    HW119892   2.902   5.954   1.694 -1.3384 -1.7824 -0.2274
 6331SOL    HW219893   3.026   5.848   1.704  0.4106  0.2672  0.4468
 6332SOL     OW19894   0.434   2.336   2.667  0.3995 -0.4966  0.0731
 6332SOL    HW119895   0.470   2.429   2.672  2.0386 -1.1474  1.2771
 6332SOL    HW219896   0.389   2.323   2.578  0.8019  1.1963 -0.4272
 6333SOL     OW19897   1.005   1.322   3.103  0.5694  0.4436 -0.0531
 6333SOL    HW119898   1.014   1.285   3.011 -1.1957 -1.0505  0.3148
 6333SOL    HW219899   1.042   1.256   3.169 -4.3195 -1.9763  0.7789
 6334SOL     OW19900   0.190   2.675   6.031 -0.2695 -0.1878 -0.0661
 6334SOL    HW119901   0.226   2.615   6.102  0.0439  2.2978  2.0416
 6334SOL    HW219902   0.265   2.726   5.989 -0.5063 -1.2772 -1.9311
 6335SOL     OW19903   6.341   3.521   0.433 -0.1738 -0.7150 -0.2132
 6335SOL    HW119904   6.245   3.550   0.435 -0.7353 -2.3860 -0.6921
 6335SOL    HW219905   6.365   3.477   0.520  0.5596  0.8067  0.3809
 6336SOL     OW19906   5.704   4.406   4.654 -0.1383  0.2130  0.9745
 6336SOL    HW119907   5.785   4.455   4.685 -0.9149  1.7719  0.6386
 6336SOL    HW219908   5.662   4.358   4.731  1.9902 -2.0274  0.8415
 6337SOL     OW19909   6.537   4.850   1.625 -0.1397  0.1331  0.0769
 6337SOL    HW119910   6.470   4.846   1.551 -1.2450  0.7054  1.0058
 6337SOL    HW219911   6.524   4.771   1.686  0.3860 -0.0317 -0.0197
 6338SOL     OW19912   5.316   2.384   4.056 -0.4780  0.8370  0.0236
 6338SOL    HW119913   5.227   2.365   4.099  0.1905 -0.1937  0.9887
 6338SOL    HW219914   5.352   2.470   4.092 -1.3432  1.5924 -0.8370
 6339SOL     OW19915   6.318   1.062   5.827 -0.1079  0.6698 -0.5369
 6339SOL    HW119916   6.321   1.160   5.808 -0.6478  1.0656  1.1829
 6339SOL    HW219917   6.238   1.022   5.781  0.3532  0.9386 -1.5946
 6340SOL     OW19918   4.899   2.778   5.208  0.2587 -0.5215  0.2295
 6340SOL    HW119919   4.818   2.724   5.185 -0.1904  0.2389  0.0035
 6340SOL    HW219920   4.961   2.780   5.130  1.0475 -2.0328  0.7618
 6341SOL     OW19921   1.706   4.575   1.735 -0.4262  0.2673  0.1896
 6341SOL    HW119922   1.611   4.559   1.709 -0.8308  1.9671  0.5202
 6341SOL    HW219923   1.747   4.642   1.673  0.7407 -0.8106 -0.2640
 6342SOL     OW19924   3.955   5.200   4.839  0.3973  0.2652 -0.1833
 6342SOL    HW119925   3.862   5.193   4.802 -0.3002 -0.4190  1.5864
 6342SOL    HW219926   3.967   5.132   4.911  0.6810  3.3177  2.8906
 6343SOL     OW19927   5.454   1.863   6.813  0.0981  0.2425 -0.2222
 6343SOL    HW119928   5.553   1.866   6.800  0.6313 -1.2470  2.5856
 6343SOL    HW219929   5.414   1.792   6.755  1.1926 -1.2972  0.8269
 6344SOL     OW19930   2.440   0.510   5.304 -0.1675 -0.3337 -0.5379
 6344SOL    HW119931   2.529   0.528   5.262  0.1383  0.7410  0.5016
 6344SOL    HW219932   2.450   0.503   5.403 -1.2209 -0.2922 -0.4122
 6345SOL     OW19933   5.612   5.649   2.358 -0.1318  0.0851 -0.7265
 6345SOL    HW119934   5.515   5.667   2.339 -0.0409 -0.6098 -1.9247
 6345SOL    HW219935   5.668   5.715   2.309  0.0037  1.3509  1.0292
 6346SOL     OW19936   1.583   3.142   2.246 -0.0669 -0.1403 -0.2381
 6346SOL    HW119937   1.617   3.057   2.287 -1.7261 -0.3258  0.8645
 6346SOL    HW219938   1.660   3.202   2.224  1.1027 -1.6927 -0.5514
 6347SOL     OW19939   0.118   4.082   1.697  0.2271 -0.1574  0.3811
 6347SOL    HW119940   0.114   3.983   1.698 -0.6744 -0.1261  1.1836
 6347SOL    HW219941   0.114   4.117   1.791 -0.5225  0.6652  0.0596
 6348SOL     OW19942   0.196   6.572   6.445 -0.5293 -0.0876 -0.4284
 6348SOL    HW119943   0.209   6.504   6.372 -1.3310 -0.3202 -0.3634
 6348SOL    HW219944   0.263   6.645   6.434 -0.2063 -0.4567 -1.0083
 6349SOL     OW19945   1.516   2.210   1.183  0.2352  0.6387  0.2238
 6349SOL    HW119946   1.585   2.167   1.240 -0.1873 -1.4170 -0.7274
 6349SOL    HW219947   1.426   2.202   1.228  0.0585 -0.0948 -0.2382
 6350SOL     OW19948   1.553   6.546   6.112 -0.2887  0.0076 -0.5478
 6350SOL    HW119949   1.467   6.497   6.100 -0.5185  0.0032  0.9726
 6350SOL    HW219950   1.535   6.640   6.138  0.1040 -0.6712  2.4754
 6351SOL     OW19951   4.394   4.814   5.579  0.5508  0.2322  0.0769
 6351SOL    HW119952   4.436   4.863   5.503 -0.3683 -1.3777 -1.5424
 6351SOL    HW219953   4.353   4.729   5.546 -1.3941  0.2878  2.0592
 6352SOL     OW19954   0.963   3.890   5.610  0.5599 -0.0017 -0.0957
 6352SOL    HW119955   0.911   3.848   5.684 -2.6043 -1.0892 -2.7253
 6352SOL    HW219956   1.002   3.818   5.552  1.8812  0.8288 -0.2816
 6353SOL     OW19957   3.064   0.081   6.090 -0.1618  0.0683  0.8096
 6353SOL    HW119958   2.967   0.067   6.113 -0.1502 -1.6923 -0.0076
 6353SOL    HW219959   3.072   0.101   5.993  0.4513 -3.3128  0.0449
 6354SOL     OW19960   5.122   2.451   5.799  0.8623  0.6181 -0.5468
 6354SOL    HW119961   5.123   2.544   5.764  3.4686  0.2911 -1.5691
 6354SOL    HW219962   5.198   2.400   5.760 -0.0425 -1.7431  0.5793
 6355SOL     OW19963   4.129   4.123   1.310 -0.3224  0.3583  0.1155
 6355SOL    HW119964   4.177   4.048   1.355 -1.9808 -0.3442  0.8312
 6355SOL    HW219965   4.177   4.209   1.328  2.8792 -0.6540 -2.5580
 6356SOL     OW19966   1.919   5.465   3.999 -0.7311 -0.1543 -0.1734
 6356SOL    HW119967   2.001   5.481   3.946 -1.0545  0.2644 -0.5547
 6356SOL    HW219968   1.915   5.369   4.028 -0.6255 -0.4240 -1.0290
 6357SOL     OW19969   2.085   4.869   2.245  0.2866  0.1157  0.1091
 6357SOL    HW119970   2.105   4.892   2.340 -2.7069  1.7994  0.4449
 6357SOL    HW219971   2.140   4.790   2.218 -0.2955 -1.7968  3.8919
 6358SOL     OW19972   0.652   1.778   5.139  0.1029 -0.0081  0.2340
 6358SOL    HW119973   0.702   1.849   5.089  1.7754  0.2981  2.2127
 6358SOL    HW219974   0.565   1.814   5.171 -0.3063  0.2525 -1.1066
 6359SOL     OW19975   3.352   4.133   2.487  0.0073  0.3959 -0.2101
 6359SOL    HW119976   3.324   4.131   2.391 -2.4132  1.0639  0.4196
 6359SOL    HW219977   3.420   4.206   2.500  1.7730 -0.8804 -1.6896
 6360SOL     OW19978   1.038   4.880   5.983 -0.3652  0.2009  0.5314
 6360SOL    HW119979   1.018   4.976   5.961 -3.4037 -0.6397 -1.0598
 6360SOL    HW219980   1.116   4.849   5.929 -1.7656  0.8168 -2.0292
 6361SOL     OW19981   1.196   1.063   1.191  0.4596 -0.4187  0.5628
 6361SOL    HW119982   1.118   1.115   1.226 -0.0523 -0.3420 -0.6268
 6361SOL    HW219983   1.174   0.966   1.191  0.1915 -0.3648 -0.1534
 6362SOL     OW19984   6.045   3.887   0.937 -0.1756 -0.9664  0.2132
 6362SOL    HW119985   5.961   3.832   0.935 -0.8170 -0.0936  1.4653
 6362SOL    HW219986   6.021   3.984   0.943  0.9268 -0.6923  0.4513
 6363SOL     OW19987   1.163   4.402   1.682  0.0919  0.1030  0.3061
 6363SOL    HW119988   1.144   4.320   1.629  0.6059 -0.4095  0.9092
 6363SOL    HW219989   1.256   4.433   1.664 -0.3224  0.9668 -0.4503
 6364SOL     OW19990   2.249   3.004   6.246  0.2376  0.2344 -0.5375
 6364SOL    HW119991   2.285   3.052   6.326  1.6655 -1.6322  0.0190
 6364SOL    HW219992   2.288   2.912   6.242 -0.8154 -0.1869 -2.6807
 6365SOL     OW19993   3.105   2.812   6.270  0.5603  0.0565 -0.0874
 6365SOL    HW119994   3.107   2.757   6.186 -1.3021 -0.1150 -0.0438
 6365SOL    HW219995   3.112   2.752   6.349  0.6374  0.0729 -0.0820
 6366SOL     OW19996   0.992   4.135   1.154  0.1146  0.0135 -0.0175
 6366SOL    HW119997   0.995   4.111   1.057 -0.0321  0.7653 -0.2130
 6366SOL    HW219998   1.050   4.216   1.170  0.2829 -0.2149  0.5526
 6367SOL     OW19999   3.862   6.336   2.661 -0.6929 -0.4397 -0.3185
 6367SOL    HW120000   3.792   6.354   2.592  0.3447 -1.9385 -1.8284
 6367SOL    HW220001   3.953   6.348   2.621 -0.0012  1.2123  1.5291
 6368SOL     OW20002   1.860   5.992   4.658 -0.1214 -0.3158 -0.0733
 6368SOL    HW120003   1.832   5.952   4.745  1.1205 -1.8052 -0.3240
 6368SOL    HW220004   1.845   5.925   4.584 -1.7936  1.1458 -1.1580
 6369SOL     OW20005   4.400   1.138   5.861 -0.6328  0.1123  0.0515
 6369SOL    HW120006   4.442   1.048   5.872 -1.6008 -0.2856  0.6027
 6369SOL    HW220007   4.328   1.133   5.792 -3.5534 -0.6344  2.8858
 6370SOL     OW20008   6.116   0.342   5.374  0.5334  0.4592 -0.0777
 6370SOL    HW120009   6.106   0.423   5.317  1.7089  1.8847  1.6687
 6370SOL    HW220010   6.028   0.293   5.378 -1.0796  3.2437  1.1625
 6371SOL     OW20011   1.603   0.679   2.531  0.3616 -0.3876  0.0021
 6371SOL    HW120012   1.554   0.702   2.447  1.8975  0.6712 -0.6604
 6371SOL    HW220013   1.556   0.719   2.610 -1.2609 -1.6552 -0.2858
 6372SOL     OW20014   0.048   2.609   6.544 -0.2185  0.1197 -0.6033
 6372SOL    HW120015   0.095   2.633   6.459  0.5435  2.7671  0.4861
 6372SOL    HW220016  -0.048   2.636   6.538  0.1641  1.6741 -0.1449
 6373SOL     OW20017   5.578   1.442   6.124  0.3958  0.2888 -0.4852
 6373SOL    HW120018   5.667   1.457   6.168  0.5977  1.8959 -1.3595
 6373SOL    HW220019   5.590   1.441   6.025 -0.2551 -1.9129 -0.5880
 6374SOL     OW20020   4.564   4.110   1.372 -0.0717 -0.2253 -0.7455
 6374SOL    HW120021   4.515   4.029   1.405  0.0165 -0.8678 -2.1175
 6374SOL    HW220022   4.652   4.117   1.420 -0.4015 -0.5009 -0.0822
 6375SOL     OW20023   1.579   6.536   2.336  0.2083 -0.2638  0.2020
 6375SOL    HW120024   1.587   6.457   2.397  3.4084 -0.4910 -0.3379
 6375SOL    HW220025   1.663   6.546   2.283 -1.2069  1.8588 -1.8475
 6376SOL     OW20026   6.404   4.301   2.949 -0.5080 -0.0165  0.1889
 6376SOL    HW120027   6.314   4.342   2.955  0.0492  1.2373  0.1857
 6376SOL    HW220028   6.456   4.322   3.032 -0.7567 -2.1195  0.9512
 6377SOL     OW20029   1.999   5.962   0.825 -0.3088  0.3546 -0.0062
 6377SOL    HW120030   1.960   6.043   0.870  0.9488  0.6468  0.5994
 6377SOL    HW220031   2.019   5.984   0.730 -2.6950 -0.1692 -0.6912
 6378SOL     OW20032   2.445   4.481   2.126 -0.7447  0.4053  0.1786
 6378SOL    HW120033   2.478   4.471   2.032 -1.6110  0.6468 -0.1544
 6378SOL    HW220034   2.515   4.527   2.180 -0.3658  0.5484 -0.4206
 6379SOL     OW20035   1.759   1.262   2.795 -0.6848  0.1876  0.4050
 6379SOL    HW120036   1.749   1.349   2.746  0.1157  0.0077 -0.1065
 6379SOL    HW220037   1.830   1.207   2.749 -0.2564 -0.1852  1.4941
 6380SOL     OW20038   2.359   1.803   3.866 -0.2624 -0.7750 -0.0368
 6380SOL    HW120039   2.261   1.795   3.848 -1.1688  1.6829  2.8647
 6380SOL    HW220040   2.391   1.720   3.912 -0.8427 -1.7414 -1.3040
 6381SOL     OW20041   5.851   3.292   1.644  0.3181 -0.5808 -0.1147
 6381SOL    HW120042   5.872   3.225   1.715 -0.7662 -0.5258  0.2798
 6381SOL    HW220043   5.855   3.249   1.554  1.6592 -0.6623 -0.0280
 6382SOL     OW20044   1.601   3.827   2.388 -0.2772 -0.3627 -0.3470
 6382SOL    HW120045   1.675   3.856   2.448 -0.9875  1.1773 -0.1525
 6382SOL    HW220046   1.574   3.904   2.329 -3.7027  0.1749  1.6613
 6383SOL     OW20047   1.766   5.730   1.099  0.1928 -0.2304 -0.3074
 6383SOL    HW120048   1.744   5.660   1.030  1.6753 -0.7931 -0.2368
 6383SOL    HW220049   1.837   5.696   1.160 -0.4614  0.6139  0.9677
 6384SOL     OW20050   2.672   0.478   0.653 -0.3387  0.0275 -0.2907
 6384SOL    HW120051   2.596   0.526   0.610  0.9771  1.2305 -1.3650
 6384SOL    HW220052   2.645   0.447   0.744 -2.3137 -0.1977 -0.9119
 6385SOL     OW20053   1.275   5.184   3.691  0.7365 -0.5578  0.2481
 6385SOL    HW120054   1.219   5.253   3.736  0.7530 -0.1138 -0.3934
 6385SOL    HW220055   1.254   5.094   3.728 -0.6461 -0.4418 -0.1906
 6386SOL     OW20056   6.064   1.666   5.357 -0.8284 -0.2460 -0.9276
 6386SOL    HW120057   6.040   1.659   5.454  0.0794 -1.4454 -0.7606
 6386SOL    HW220058   6.144   1.724   5.347  0.4135 -1.8442 -0.6788
 6387SOL     OW20059   2.776   5.760   1.117 -0.3155 -0.1183  0.2462
 6387SOL    HW120060   2.817   5.688   1.172 -0.7183 -0.4429  0.1334
 6387SOL    HW220061   2.832   5.843   1.121  0.4187 -0.5985 -0.0333
 6388SOL     OW20062   6.820   6.892   0.487  0.1322  0.0322 -0.2520
 6388SOL    HW120063   6.910   6.899   0.444  0.2403 -0.2284 -0.0698
 6388SOL    HW220064   6.749   6.894   0.416  0.2724  0.3607 -0.3877
 6389SOL     OW20065   4.597   2.234   2.571 -1.0976 -0.5342  0.0712
 6389SOL    HW120066   4.577   2.186   2.486 -0.8921 -1.2234  0.3991
 6389SOL    HW220067   4.566   2.178   2.648  2.6995 -2.1484  0.6870
 6390SOL     OW20068   2.331   2.089   3.726  0.0792  0.1730  0.2195
 6390SOL    HW120069   2.303   1.996   3.751 -0.2702 -0.4158 -2.1714
 6390SOL    HW220070   2.401   2.085   3.655  1.4001  1.7572  1.3746
 6391SOL     OW20071   0.167   0.928   1.816 -0.3299 -0.3566  0.1332
 6391SOL    HW120072   0.163   0.862   1.891  1.5942 -0.2467  0.3984
 6391SOL    HW220073   0.076   0.942   1.778 -0.9268 -2.4323  0.6928
 6392SOL     OW20074   2.343   4.899   6.408  0.0821  0.1235  0.3561
 6392SOL    HW120075   2.266   4.910   6.345 -1.2480 -2.5788  1.4053
 6392SOL    HW220076   2.343   4.807   6.446  1.7593  1.1662  3.1664
 6393SOL     OW20077   5.834   0.245   4.692 -0.6152  0.3199  0.1011
 6393SOL    HW120078   5.791   0.156   4.675  0.3897 -0.2742  0.5760
 6393SOL    HW220079   5.803   0.311   4.624  0.2923 -0.9691 -1.6315
 6394SOL     OW20080   2.822   3.982   0.319 -0.6122  0.2563  0.0590
 6394SOL    HW120081   2.740   3.938   0.282  0.7729 -2.1010 -0.4222
 6394SOL    HW220082   2.893   3.983   0.249  1.5875 -2.9506  1.9493
 6395SOL     OW20083   1.957   4.279   2.442 -0.3520  0.0206 -0.1298
 6395SOL    HW120084   1.873   4.316   2.482 -0.6964 -0.9513  0.0802
 6395SOL    HW220085   2.026   4.351   2.437 -1.0801  0.7463  0.0207
 6396SOL     OW20086   2.767   1.927   6.885  0.8272 -0.0821  0.6455
 6396SOL    HW120087   2.782   2.011   6.833  1.1224  0.7409  1.9969
 6396SOL    HW220088   2.848   1.869   6.879  0.6580 -0.2402 -0.2230
 6397SOL     OW20089   1.220   1.516   3.156  1.1468  0.6075 -0.1102
 6397SOL    HW120090   1.154   1.451   3.119  0.4534  2.3444 -2.1541
 6397SOL    HW220091   1.289   1.467   3.209 -0.7818 -1.4492  0.6817
 6398SOL     OW20092   3.092   5.885   6.185 -0.1112 -0.9713  0.4126
 6398SOL    HW120093   3.041   5.837   6.113  1.1252 -0.6576 -0.7215
 6398SOL    HW220094   3.065   5.982   6.185 -0.0223 -0.9455  0.2700
 6399SOL     OW20095   4.589   2.081   4.550  0.0313  0.6325 -0.1271
 6399SOL    HW120096   4.533   2.071   4.632 -1.0135  1.3367 -0.7315
 6399SOL    HW220097   4.659   2.151   4.566  0.6405 -0.1168  0.5680
 6400SOL     OW20098   2.332   6.296   4.303  0.3008  0.2144  0.4352
 6400SOL    HW120099   2.260   6.358   4.271 -2.0780 -2.4079  0.2599
 6400SOL    HW220100   2.333   6.295   4.403  1.2910  1.4705  0.4609
 6401SOL     OW20101   6.436   5.218   4.504 -0.4861  0.6304 -0.2319
 6401SOL    HW120102   6.499   5.194   4.430  0.3215  0.1282  0.6006
 6401SOL    HW220103   6.354   5.161   4.497 -2.1951  3.1013 -2.9378
 6402SOL     OW20104   2.536   1.248   0.924  0.5403 -0.0638  0.0339
 6402SOL    HW120105   2.572   1.162   0.888  0.8212  0.4016 -0.8259
 6402SOL    HW220106   2.443   1.233   0.958  0.2830 -0.5350 -0.8489
 6403SOL     OW20107   3.097   2.207   4.215  0.2810 -0.3959  0.4744
 6403SOL    HW120108   3.110   2.226   4.118 -0.5759 -1.5723  0.0975
 6403SOL    HW220109   3.097   2.108   4.230 -0.8534 -0.2696  1.4706
 6404SOL     OW20110   3.303   4.724   6.300  0.4492  0.5509  1.1260
 6404SOL    HW120111   3.241   4.691   6.371  0.8723 -0.7738  0.9159
 6404SOL    HW220112   3.250   4.771   6.229 -0.1656  0.4624  1.5175
 6405SOL     OW20113   3.307   0.736   2.135 -0.1715  0.1735 -0.0424
 6405SOL    HW120114   3.344   0.720   2.043 -1.2228 -0.5060 -0.3624
 6405SOL    HW220115   3.218   0.691   2.143 -0.4919  0.9816  1.0235
 6406SOL     OW20116   2.644   4.167   6.549  0.2017  0.4822  0.1533
 6406SOL    HW120117   2.577   4.146   6.620  1.2758  0.5763  1.2315
 6406SOL    HW220118   2.725   4.210   6.591  0.9018  0.4610 -1.1175
 6407SOL     OW20119   6.026   1.374   2.442  0.3211 -0.0635  0.8277
 6407SOL    HW120120   6.034   1.282   2.480 -2.2769 -1.0647 -0.7545
 6407SOL    HW220121   5.961   1.427   2.496  1.1698  0.5618  1.2420
 6408SOL     OW20122   6.400   3.768   2.995  0.5099  0.1071 -0.1120
 6408SOL    HW120123   6.360   3.735   3.080  0.5377  0.0113 -0.1358
 6408SOL    HW220124   6.423   3.865   3.004 -0.3176  0.3254 -0.3116
 6409SOL     OW20125   1.271   6.843   4.548 -0.3318 -0.1282  0.0256
 6409SOL    HW120126   1.330   6.923   4.560 -0.1963 -0.3509  0.9565
 6409SOL    HW220127   1.320   6.761   4.577  0.0020 -0.7516 -2.1584
 6410SOL     OW20128   1.776   6.963   1.296 -0.8472  0.1949  0.1854
 6410SOL    HW120129   1.869   6.990   1.271 -0.9409  1.0169  0.6939
 6410SOL    HW220130   1.757   6.872   1.259 -0.2971  0.5483 -1.0493
 6411SOL     OW20131   6.819   3.066   2.510 -0.2970  0.3307  0.0874
 6411SOL    HW120132   6.910   3.078   2.470 -0.6027  1.5644 -0.2775
 6411SOL    HW220133   6.788   3.153   2.549 -1.3579 -0.0522  0.1271
 6412SOL     OW20134   4.832   0.467   1.360  0.2471 -0.0749 -0.3330
 6412SOL    HW120135   4.738   0.498   1.343  0.6365  0.5823 -1.3663
 6412SOL    HW220136   4.830   0.385   1.417 -0.9698 -0.2799 -0.6453
 6413SOL     OW20137   4.102   2.432   6.330  0.0592  0.1661  0.5570
 6413SOL    HW120138   4.172   2.410   6.399 -1.0818 -0.7692  1.4620
 6413SOL    HW220139   4.134   2.508   6.273  1.1118  0.8732  2.0186
 6414SOL     OW20140   5.263   6.394   3.534 -0.2344  0.1596  0.0152
 6414SOL    HW120141   5.297   6.368   3.443  0.1743  2.6080 -0.5884
 6414SOL    HW220142   5.166   6.416   3.527 -0.1389  0.6096  0.1126
 6415SOL     OW20143   1.400   3.549   4.502 -0.7891  0.4881  0.4053
 6415SOL    HW120144   1.335   3.476   4.521 -2.1511  1.4929 -0.2414
 6415SOL    HW220145   1.422   3.598   4.587  0.6996 -1.0660  0.9804
 6416SOL     OW20146   0.077   0.802   2.646  0.3395 -0.4716  0.1674
 6416SOL    HW120147   0.117   0.823   2.556  1.7772 -0.6810  0.7419
 6416SOL    HW220148  -0.018   0.776   2.634  0.2136  0.4758 -1.2022
 6417SOL     OW20149   5.725   4.604   3.478  0.2951 -0.1988  0.5472
 6417SOL    HW120150   5.697   4.699   3.473 -0.8740 -0.5949 -1.5777
 6417SOL    HW220151   5.807   4.596   3.535  1.8423  2.4301 -1.1257
 6418SOL     OW20152   0.368   1.436   6.452 -0.4601 -0.2225  0.3407
 6418SOL    HW120153   0.435   1.362   6.443 -1.3041 -1.5156  3.3152
 6418SOL    HW220154   0.276   1.399   6.435 -0.6928  0.8478 -0.8665
 6419SOL     OW20155   1.310   1.776   6.095  0.3084 -0.4577 -0.0152
 6419SOL    HW120156   1.288   1.764   5.999  0.8156  1.9258 -0.4927
 6419SOL    HW220157   1.409   1.770   6.108  0.4333  1.1481 -0.0179
 6420SOL     OW20158   5.234   1.834   0.453 -0.3871 -0.2813  0.3702
 6420SOL    HW120159   5.306   1.847   0.521 -0.1517 -1.5627  0.3905
 6420SOL    HW220160   5.195   1.923   0.428  1.1967  0.4423  0.3406
 6421SOL     OW20161   3.868   3.289   5.728 -0.6323  0.1271  0.2979
 6421SOL    HW120162   3.906   3.217   5.787 -0.7529  2.0154  2.8439
 6421SOL    HW220163   3.941   3.351   5.700 -1.0357  1.0834  1.2697
 6422SOL     OW20164   1.036   4.286   2.079 -0.4758 -0.3180 -0.2900
 6422SOL    HW120165   0.952   4.263   2.128 -0.6102  2.5543  1.0033
 6422SOL    HW220166   1.024   4.372   2.030  1.1353 -0.8400 -1.7108
 6423SOL     OW20167   2.292   5.617   2.062  0.4123  0.9850 -0.0508
 6423SOL    HW120168   2.280   5.607   2.161 -2.3573  1.1186 -0.2880
 6423SOL    HW220169   2.251   5.539   2.015  2.7371  0.3220 -1.1303
 6424SOL     OW20170   6.286   6.592   6.436 -0.2274 -0.5716  0.4464
 6424SOL    HW120171   6.273   6.511   6.378 -0.5522  1.0987 -1.9483
 6424SOL    HW220172   6.200   6.641   6.445  0.5230  0.9800 -0.4884
 6425SOL     OW20173   2.676   1.462   3.282 -0.7945  0.5251  0.1596
 6425SOL    HW120174   2.602   1.429   3.224 -0.8675 -1.5949  1.3655
 6425SOL    HW220175   2.653   1.449   3.378  1.1998 -0.3987  0.5703
 6426SOL     OW20176   5.324   2.088   0.593 -0.7328 -0.4620 -0.0304
 6426SOL    HW120177   5.266   2.100   0.673  1.2053  0.8449  1.2720
 6426SOL    HW220178   5.403   2.031   0.618  1.1936  1.9633 -0.2003
 6427SOL     OW20179   4.813   4.921   5.053  0.3234  0.0420 -0.2717
 6427SOL    HW120180   4.829   4.834   5.100  1.5450 -0.0191 -0.7650
 6427SOL    HW220181   4.836   4.911   4.956 -1.9336  0.2229 -0.8941
 6428SOL     OW20182   0.887   0.703   5.981 -0.1378 -0.2891  0.4534
 6428SOL    HW120183   0.805   0.694   6.037 -0.5067 -1.5898 -0.2421
 6428SOL    HW220184   0.915   0.799   5.977 -0.7452 -0.0280  1.9155
 6429SOL     OW20185   1.389   0.761   3.309 -0.0783  0.0576  0.1628
 6429SOL    HW120186   1.455   0.822   3.353  1.3902 -1.2865 -0.0853
 6429SOL    HW220187   1.340   0.811   3.237  1.3607  0.8587 -0.2944
 6430SOL     OW20188   3.076   4.908   3.680 -0.3701 -0.4012  0.4933
 6430SOL    HW120189   3.051   4.992   3.728  0.2449 -0.3297  0.7002
 6430SOL    HW220190   3.165   4.877   3.712 -1.8256 -2.7755  2.6113
 6431SOL     OW20191   1.521   2.752   5.312 -0.7251  0.5111  0.3858
 6431SOL    HW120192   1.519   2.845   5.274 -1.3453  0.3719  0.0596
 6431SOL    HW220193   1.578   2.694   5.254  1.1083  1.0772  1.5459
 6432SOL     OW20194   1.717   3.852   4.587 -1.1580 -0.6964  0.2026
 6432SOL    HW120195   1.641   3.885   4.644 -0.2351 -0.4148  1.3046
 6432SOL    HW220196   1.793   3.916   4.594 -0.5878 -1.2985 -0.4047
 6433SOL     OW20197   2.173   0.299   5.910 -0.3796 -0.1852  1.0404
 6433SOL    HW120198   2.076   0.300   5.887 -0.0650 -0.7000 -0.4107
 6433SOL    HW220199   2.214   0.213   5.879  0.6075  0.1738  1.3099
 6434SOL     OW20200   2.839   0.769   6.563  0.4475 -0.0959 -0.3204
 6434SOL    HW120201   2.869   0.760   6.658  0.1878  1.6242 -0.0430
 6434SOL    HW220202   2.742   0.789   6.560  0.5604  0.3881 -0.9190
 6435SOL     OW20203   0.155   1.020   3.958  0.2046 -1.1155 -0.9772
 6435SOL    HW120204   0.226   1.078   3.999  0.1709 -0.4223 -1.8633
 6435SOL    HW220205   0.176   0.924   3.977  0.6509 -0.8554 -0.0912
 6436SOL     OW20206   0.876   3.714   6.572 -0.1144 -0.1560 -0.5280
 6436SOL    HW120207   0.869   3.760   6.484 -1.0334 -0.7058 -0.7668
 6436SOL    HW220208   0.940   3.762   6.631 -1.6112  1.9122 -0.4718
 6437SOL     OW20209   1.645   0.379   6.801 -0.5334 -0.0272  0.1698
 6437SOL    HW120210   1.706   0.434   6.744  0.3108  0.9129  1.9307
 6437SOL    HW220211   1.587   0.323   6.741  0.6119  0.5656 -1.5964
 6438SOL     OW20212   5.578   0.107   1.700  0.3414 -0.6487 -0.0244
 6438SOL    HW120213   5.637   0.026   1.702  0.6504 -0.7617 -4.1175
 6438SOL    HW220214   5.634   0.190   1.699  0.2112 -0.5540  0.5094
 6439SOL     OW20215   5.479   3.056   6.708  0.5872  0.1202  0.1945
 6439SOL    HW120216   5.515   3.149   6.716 -1.8663  1.3222 -1.5880
 6439SOL    HW220217   5.481   3.027   6.613 -0.1662 -1.0244  0.5046
 6440SOL     OW20218   6.792   3.588   1.138  0.2893 -0.2704 -0.0249
 6440SOL    HW120219   6.800   3.551   1.231  0.1989  2.3918  1.1327
 6440SOL    HW220220   6.739   3.673   1.140 -4.1242 -2.5534 -3.2756
 6441SOL     OW20221   2.699   5.947   4.139 -0.1736  1.0744 -0.2429
 6441SOL    HW120222   2.763   6.012   4.180 -0.1306  1.1163 -0.3769
 6441SOL    HW220223   2.626   5.997   4.093  0.7622  1.0686 -1.8189
 6442SOL     OW20224   2.540   0.775   6.501 -1.2497  0.0078  0.0343
 6442SOL    HW120225   2.476   0.821   6.562  0.8506 -0.6602  2.9661
 6442SOL    HW220226   2.559   0.683   6.536  0.4164 -0.2200 -1.3424
 6443SOL     OW20227   5.997   2.891   2.357 -0.6978 -0.4471 -0.7293
 6443SOL    HW120228   6.053   2.859   2.280  0.6589  1.6499 -0.7133
 6443SOL    HW220229   6.044   2.966   2.403 -3.1096  0.7455 -0.0487
 6444SOL     OW20230   4.243   0.737   2.622  0.3744 -0.0218 -0.1101
 6444SOL    HW120231   4.234   0.816   2.683 -0.6068 -0.0195 -0.2288
 6444SOL    HW220232   4.164   0.735   2.560 -0.3354 -1.8416  0.7739
 6445SOL     OW20233   4.216   6.940   4.910 -0.0198  0.0617  0.0463
 6445SOL    HW120234   4.248   6.975   4.822 -0.5620  0.8694  0.1535
 6445SOL    HW220235   4.164   7.012   4.957 -0.9403 -0.8217  0.4016
 6446SOL     OW20236   6.541   5.923   3.406  0.3012 -0.2828 -0.2132
 6446SOL    HW120237   6.561   5.858   3.333  2.6356  1.1659 -0.9677
 6446SOL    HW220238   6.623   5.938   3.461 -1.1394 -0.5830  2.1687
 6447SOL     OW20239   6.936   2.842   4.717 -0.3482  0.2482  0.6147
 6447SOL    HW120240   6.841   2.870   4.733  0.4756  2.9134  1.2672
 6447SOL    HW220241   6.949   2.824   4.620 -1.5187 -0.2136  0.5265
 6448SOL     OW20242   3.064   1.498   2.564  0.2718 -0.1154 -0.4570
 6448SOL    HW120243   3.039   1.477   2.470  0.2795  0.1679 -0.5249
 6448SOL    HW220244   2.983   1.529   2.614  0.2472 -0.3664 -0.3422
 6449SOL     OW20245   5.083   4.755   4.229 -0.0021  0.3070  0.2181
 6449SOL    HW120246   5.075   4.691   4.153 -2.4926  0.0012  0.6516
 6449SOL    HW220247   5.058   4.847   4.197 -1.9399  0.0255  0.7833
 6450SOL     OW20248   4.707   4.651   3.598  0.6075  0.3825  0.7514
 6450SOL    HW120249   4.704   4.670   3.696  0.2268 -0.2797  0.8699
 6450SOL    HW220250   4.777   4.708   3.556 -0.0308  1.5467  1.2122
 6451SOL     OW20251   0.044   0.072   5.566  0.0502  0.3900 -0.0299
 6451SOL    HW120252   0.028   0.170   5.579 -0.2538  0.3419 -0.0274
 6451SOL    HW220253   0.069   0.031   5.654  0.2069  0.4680 -0.0366
 6452SOL     OW20254   2.431   0.089   0.854 -0.7083  0.9396 -0.2978
 6452SOL    HW120255   2.450   0.111   0.758 -1.2472 -0.4088 -0.7309
 6452SOL    HW220256   2.515   0.101   0.907  0.3402 -0.8306 -1.4286
 6453SOL     OW20257   4.090   1.431   0.613 -0.2600  0.5242 -0.3031
 6453SOL    HW120258   4.127   1.368   0.544  1.0308 -0.0331  0.8295
 6453SOL    HW220259   3.990   1.428   0.611 -0.3278  1.6684 -3.1283
 6454SOL     OW20260   6.950   3.031   3.280 -0.3693  0.0457 -0.5543
 6454SOL    HW120261   6.934   2.958   3.346  0.6842  0.4095  0.1329
 6454SOL    HW220262   7.041   3.020   3.240  0.4717  1.8625  0.7463
 6455SOL     OW20263   0.617   1.435   5.498 -0.5345 -0.1328  0.4333
 6455SOL    HW120264   0.693   1.490   5.463  0.3155 -1.8397 -0.5412
 6455SOL    HW220265   0.530   1.476   5.472  0.0627  0.8047 -0.1339
 6456SOL     OW20266   4.777   4.163   5.403  0.1276  0.6653 -0.0737
 6456SOL    HW120267   4.817   4.202   5.486  1.7345 -1.8306  0.4273
 6456SOL    HW220268   4.837   4.181   5.326  0.2838  0.1863 -0.0638
 6457SOL     OW20269   3.792   3.819   6.883 -0.2071  0.6072 -0.5168
 6457SOL    HW120270   3.736   3.747   6.923  0.5213 -0.4366 -1.3215
 6457SOL    HW220271   3.837   3.784   6.801 -0.8082  2.3405 -1.6474
 6458SOL     OW20272   1.544   2.549   3.476 -0.4645  0.1683  0.2911
 6458SOL    HW120273   1.488   2.627   3.448 -1.4473 -0.1360  1.3228
 6458SOL    HW220274   1.513   2.466   3.429  1.2845  0.5352 -1.6448
 6459SOL     OW20275   1.729   3.479   4.782 -0.3842  0.3409 -0.7529
 6459SOL    HW120276   1.702   3.385   4.763 -1.0930  0.4174 -0.1538
 6459SOL    HW220277   1.783   3.514   4.706 -0.2810 -0.4813 -1.0701
 6460SOL     OW20278   2.006   5.730   2.779 -0.1085 -0.4158 -0.2714
 6460SOL    HW120279   2.023   5.665   2.852 -0.3701 -0.1022  0.0737
 6460SOL    HW220280   2.011   5.684   2.691  2.1936 -0.4246 -0.2048
 6461SOL     OW20281   3.016   4.581   0.251 -0.3157 -0.5526  0.0949
 6461SOL    HW120282   2.985   4.676   0.259  1.1287 -0.1255  1.0856
 6461SOL    HW220283   2.939   4.523   0.224 -1.4721  0.7390  0.4856
 6462SOL     OW20284   3.793   3.505   4.779  0.2111 -0.3304 -0.2442
 6462SOL    HW120285   3.801   3.547   4.870  0.3053  1.0625 -0.8792
 6462SOL    HW220286   3.880   3.516   4.730 -0.2430  0.0413 -0.9703
 6463SOL     OW20287   6.516   0.332   1.268  0.1600  0.0282 -0.1712
 6463SOL    HW120288   6.489   0.367   1.178  0.1441  0.7812  0.1265
 6463SOL    HW220289   6.616   0.329   1.273  0.1676 -0.7150 -0.4726
 6464SOL     OW20290   1.286   1.788   3.262 -0.1158 -0.1640  0.8727
 6464SOL    HW120291   1.371   1.815   3.308 -0.8490 -0.2966  2.3846
 6464SOL    HW220292   1.277   1.688   3.266  1.0187 -0.4472 -1.8358
 6465SOL     OW20293   1.176   4.647   1.196 -0.2228 -0.1918 -0.0493
 6465SOL    HW120294   1.202   4.592   1.116 -1.3130 -0.0602 -0.5195
 6465SOL    HW220295   1.188   4.744   1.174 -0.7424 -0.1469 -0.1322
 6466SOL     OW20296   3.941   4.084   1.759 -0.2171  0.1392  0.0504
 6466SOL    HW120297   3.932   4.109   1.856 -2.7118 -1.2070  0.2460
 6466SOL    HW220298   4.014   4.017   1.748  1.3523  1.6642  0.6553
 6467SOL     OW20299   0.510   6.804   5.046 -0.4470  0.1281  0.4833
 6467SOL    HW120300   0.590   6.826   4.990  0.8127 -1.7535  1.4445
 6467SOL    HW220301   0.468   6.889   5.079  2.5019  1.2057  1.7968
 6468SOL     OW20302   6.828   1.336   4.223  0.6336 -0.6515 -0.4307
 6468SOL    HW120303   6.815   1.246   4.182  0.8343 -1.0262  0.3127
 6468SOL    HW220304   6.796   1.334   4.318 -1.8791  0.7890 -1.1593
 6469SOL     OW20305   0.721   1.535   4.817  0.1469  0.1048  0.0187
 6469SOL    HW120306   0.701   1.442   4.787  0.6704 -0.6029  1.7772
 6469SOL    HW220307   0.672   1.599   4.758  0.8146 -1.1862 -2.0600
 6470SOL     OW20308   4.101   0.963   4.491 -0.3393  0.0230 -0.1676
 6470SOL    HW120309   4.101   0.866   4.515  0.8935 -0.1664 -0.8448
 6470SOL    HW220310   4.101   0.973   4.391 -0.7318  0.7209 -0.1037
 6471SOL     OW20311   0.727   6.166   0.982  0.2104 -0.2070  0.0362
 6471SOL    HW120312   0.752   6.074   0.952  0.3745 -0.2683  0.3625
 6471SOL    HW220313   0.683   6.162   1.071  0.7365  0.0867  0.3096
 6472SOL     OW20314   3.077   3.273   0.525  0.1635  0.4045  0.1556
 6472SOL    HW120315   3.063   3.315   0.615 -0.8791  0.8123 -0.1783
 6472SOL    HW220316   3.060   3.175   0.530  3.4581 -0.2257  1.1385
 6473SOL     OW20317   6.675   2.843   1.458 -0.0235 -0.0368  0.0553
 6473SOL    HW120318   6.738   2.817   1.532  2.1065  3.7406 -0.1568
 6473SOL    HW220319   6.587   2.870   1.497  1.0219  1.7897  1.3599
 6474SOL     OW20320   1.993   5.516   1.771 -0.3428  0.0481  0.0205
 6474SOL    HW120321   1.910   5.489   1.819  0.2752  0.8474  1.5922
 6474SOL    HW220322   2.074   5.489   1.824  0.4316 -0.5366 -1.3772
 6475SOL     OW20323   5.248   6.839   4.962 -0.0037 -0.4081 -0.1472
 6475SOL    HW120324   5.309   6.762   4.981 -1.4969 -1.6647 -0.2270
 6475SOL    HW220325   5.166   6.806   4.916  0.0460  1.4945 -1.7349
 6476SOL     OW20326   4.085   3.612   3.730 -0.3564 -0.2201 -0.2096
 6476SOL    HW120327   4.180   3.617   3.759 -0.5256  0.3711  0.2648
 6476SOL    HW220328   4.064   3.519   3.700  0.3463 -0.3724 -0.2577
 6477SOL     OW20329   4.972   6.088   1.492  0.6180 -0.2483 -0.3049
 6477SOL    HW120330   4.900   6.146   1.455 -0.8098 -0.8473  1.4282
 6477SOL    HW220331   4.932   6.010   1.539  2.4083 -0.6639  0.6323
 6478SOL     OW20332   3.078   6.601   6.186  0.7426  0.2476 -0.5135
 6478SOL    HW120333   3.057   6.556   6.099  0.5183 -2.3076  0.7448
 6478SOL    HW220334   2.995   6.644   6.222  0.6603  0.6885 -1.2263
 6479SOL     OW20335   5.020   4.134   6.903  0.0404 -0.4420 -0.0570
 6479SOL    HW120336   4.934   4.094   6.872 -0.4000 -0.5931  1.2870
 6479SOL    HW220337   5.094   4.067   6.894  0.1449 -0.1484 -1.6868
 6480SOL     OW20338   5.914   4.528   3.683  0.3339 -0.4817  0.0871
 6480SOL    HW120339   5.933   4.431   3.697 -0.2791 -0.3354  2.1906
 6480SOL    HW220340   5.900   4.573   3.771  0.4414  1.5064 -0.8443
 6481SOL     OW20341   4.764   2.651   2.654  0.3047  0.1712 -0.0005
 6481SOL    HW120342   4.769   2.668   2.753 -1.9003 -1.2101  0.4199
 6481SOL    HW220343   4.683   2.597   2.634  0.7945  0.2806 -2.5910
 6482SOL     OW20344   3.558   1.457   4.723  0.2266 -0.1481  0.3898
 6482SOL    HW120345   3.475   1.474   4.670  0.0841 -0.4479  0.5160
 6482SOL    HW220346   3.540   1.388   4.793  0.8835 -1.0737 -0.3278
 6483SOL     OW20347   0.235   5.091   2.847  0.2779  0.8795  0.0847
 6483SOL    HW120348   0.139   5.068   2.832  0.3480  1.3133 -1.1257
 6483SOL    HW220349   0.274   5.130   2.763  1.7521 -0.0964  0.2748
 6484SOL     OW20350   3.266   2.989   6.918  0.6355  0.1096  0.3842
 6484SOL    HW120351   3.264   2.921   6.845  1.6530 -1.1804  1.4937
 6484SOL    HW220352   3.355   2.986   6.964 -0.3632  0.0005  2.4396
 6485SOL     OW20353   1.677   1.934   6.745 -0.1247  0.1205 -0.7477
 6485SOL    HW120354   1.682   1.944   6.645  1.6434 -0.3734 -0.7487
 6485SOL    HW220355   1.678   2.024   6.788 -1.2053  0.3474 -1.1752
 6486SOL     OW20356   1.320   2.838   4.434 -0.7053 -0.1139 -0.0074
 6486SOL    HW120357   1.383   2.875   4.502  1.2590 -2.2062 -0.5732
 6486SOL    HW220358   1.323   2.894   4.352  0.5965 -0.2871 -0.0956
 6487SOL     OW20359   2.115   1.811   4.180  0.1948 -0.2184 -0.3520
 6487SOL    HW120360   2.056   1.777   4.107  1.1064 -3.4488  0.2754
 6487SOL    HW220361   2.150   1.901   4.154 -1.6405 -0.0424 -2.6145
 6488SOL     OW20362   5.386   0.061   6.775 -0.1725 -0.0672  0.0779
 6488SOL    HW120363   5.377   0.135   6.709  0.4749  0.0595  0.1261
 6488SOL    HW220364   5.298   0.014   6.784 -0.4653  0.3951 -0.2997
 6489SOL     OW20365   4.959   4.920   0.859 -0.2891 -0.0709 -0.6672
 6489SOL    HW120366   5.039   4.906   0.802 -0.7086  0.1712 -1.3275
 6489SOL    HW220367   4.966   5.008   0.907 -1.8984  1.9048 -3.7451
 6490SOL     OW20368   2.005   3.709   2.641  0.2630 -0.1442  0.4827
 6490SOL    HW120369   2.088   3.760   2.661 -0.9612  2.3112 -0.3203
 6490SOL    HW220370   2.008   3.675   2.547 -0.1283  1.0597  0.0125
 6491SOL     OW20371   2.837   6.988   3.518  0.4221 -0.5870 -0.2179
 6491SOL    HW120372   2.738   6.980   3.532 -0.0091  2.0293 -1.2047
 6491SOL    HW220373   2.880   6.898   3.529 -1.6870 -1.3727  2.8293
 6492SOL     OW20374   5.602   3.470   1.027 -0.2757  0.2574  0.6283
 6492SOL    HW120375   5.613   3.421   0.940  0.1816 -0.2619  0.9760
 6492SOL    HW220376   5.533   3.542   1.016 -0.1008  0.3086 -0.2147
 6493SOL     OW20377   5.486   4.737   3.815 -0.5080 -0.2145 -0.4973
 6493SOL    HW120378   5.453   4.746   3.908  0.8214  0.2579 -0.0447
 6493SOL    HW220379   5.514   4.826   3.780  3.0985 -0.8883  0.2726
 6494SOL     OW20380   5.924   4.254   1.723 -0.7478  0.3679 -0.0153
 6494SOL    HW120381   5.897   4.234   1.817  1.1277  0.8989  0.6818
 6494SOL    HW220382   5.854   4.311   1.679 -1.5383  0.3033  1.1264
 6495SOL     OW20383   4.719   5.807   3.965 -0.1031 -0.4377 -0.1421
 6495SOL    HW120384   4.691   5.736   3.901 -0.5748  0.3531 -0.8261
 6495SOL    HW220385   4.647   5.821   4.033  0.5888 -1.6066  0.8889
 6496SOL     OW20386   0.064   0.835   4.920 -0.5291 -0.9738  0.1285
 6496SOL    HW120387   0.116   0.878   4.993  1.1980 -1.8688 -0.5137
 6496SOL    HW220388   0.112   0.848   4.833 -2.0290 -0.7774 -0.6980
 6497SOL     OW20389   0.727   0.919   2.542 -0.4398 -0.4660  0.0144
 6497SOL    HW120390   0.757   1.001   2.494  0.3112 -0.0477  1.1571
 6497SOL    HW220391   0.628   0.919   2.550 -0.4498  0.2806 -0.0824
 6498SOL     OW20392   0.110   6.679   2.284  0.4720  0.3379  0.4750
 6498SOL    HW120393   0.179   6.708   2.351  2.3622 -2.1533 -0.2251
 6498SOL    HW220394   0.086   6.757   2.226  1.0751  1.8027  2.1009
 6499SOL     OW20395   2.436   4.199   6.358 -0.5879 -0.7389 -0.4007
 6499SOL    HW120396   2.416   4.175   6.263  0.4011 -0.6876 -0.6282
 6499SOL    HW220397   2.510   4.141   6.393  0.9348  1.0079 -0.5496
 6500SOL     OW20398   4.708   1.324   1.782  0.7552 -0.2352  0.0235
 6500SOL    HW120399   4.800   1.332   1.821  0.5105  0.1049  0.5455
 6500SOL    HW220400   4.693   1.397   1.716  0.7817 -0.1636  0.0968
 6501SOL     OW20401   0.253   5.305   3.025  0.3496  0.0141 -0.1567
 6501SOL    HW120402   0.280   5.244   3.099  0.1641  0.1876  0.0548
 6501SOL    HW220403   0.287   5.269   2.938  2.0644  0.7047  0.2025
 6502SOL     OW20404   2.904   2.957   1.307  0.0880  0.2733  0.2279
 6502SOL    HW120405   2.838   2.989   1.238  1.1567 -0.6370 -1.2896
 6502SOL    HW220406   2.892   3.010   1.391  0.6991  3.6022 -1.5829
 6503SOL     OW20407   2.592   6.373   2.969 -0.6606 -0.0151  0.1885
 6503SOL    HW120408   2.671   6.313   2.954 -0.4819  0.6145 -1.6650
 6503SOL    HW220409   2.510   6.330   2.930 -1.1406 -0.3829  1.5504
 6504SOL     OW20410   1.744   6.467   5.345  0.1731 -0.1599  0.1885
 6504SOL    HW120411   1.796   6.550   5.327  0.4948 -0.0986  1.3177
 6504SOL    HW220412   1.743   6.410   5.263  1.0795  0.3463 -0.1913
 6505SOL     OW20413   1.871   3.162   6.147 -0.4454  0.5260 -0.2033
 6505SOL    HW120414   1.953   3.108   6.165 -0.2007  0.7538 -0.6229
 6505SOL    HW220415   1.873   3.245   6.203 -0.2866  0.6367 -0.3749
 6506SOL     OW20416   0.911   2.433   4.469 -0.0653 -0.2547  0.0196
 6506SOL    HW120417   1.004   2.468   4.461  0.2593 -0.5186  2.0678
 6506SOL    HW220418   0.857   2.494   4.527 -1.5377  0.4781 -1.9873
 6507SOL     OW20419   1.913   4.042   4.582  0.1304 -0.0298 -0.1262
 6507SOL    HW120420   1.999   4.000   4.552 -0.1773  1.2748 -3.1537
 6507SOL    HW220421   1.932   4.123   4.636  0.8882  0.7637 -1.5286
 6508SOL     OW20422   0.103   6.342   5.843 -0.6773 -0.1155 -0.1341
 6508SOL    HW120423   0.075   6.368   5.751 -0.8768  1.4288  0.3397
 6508SOL    HW220424   0.202   6.352   5.852 -0.3958 -2.0049 -0.6904
 6509SOL     OW20425   2.326   1.842   6.621 -0.5077 -0.4115  0.0275
 6509SOL    HW120426   2.325   1.742   6.616 -2.9713 -0.4730  0.6488
 6509SOL    HW220427   2.328   1.871   6.716 -1.8041  0.0812 -0.0765
 6510SOL     OW20428   2.053   3.397   5.521 -0.0155 -0.7104  0.3141
 6510SOL    HW120429   2.047   3.307   5.478 -1.1482  0.0106 -1.1446
 6510SOL    HW220430   1.970   3.413   5.575  0.1023 -0.4642  0.4228
 6511SOL     OW20431   4.636   4.931   2.993 -0.0464  0.1329 -0.4417
 6511SOL    HW120432   4.704   4.955   3.062 -1.5206  0.1654  1.0378
 6511SOL    HW220433   4.670   4.853   2.940  1.4751  0.6389 -0.2777
 6512SOL     OW20434   5.824   3.902   5.387 -0.1575  0.1653  0.2915
 6512SOL    HW120435   5.773   3.921   5.471 -1.1279  3.6930 -0.9274
 6512SOL    HW220436   5.764   3.859   5.320 -0.4158  0.6490  0.2095
 6513SOL     OW20437   5.636   2.715   5.331 -0.7053  0.0892  0.3137
 6513SOL    HW120438   5.566   2.660   5.285 -0.2372 -0.0351 -0.2659
 6513SOL    HW220439   5.627   2.704   5.430 -1.9524  0.6434  0.2738
 6514SOL     OW20440   4.004   5.793   1.304 -0.1210  0.2558  0.3209
 6514SOL    HW120441   4.097   5.789   1.340 -0.2745  0.9489  0.8106
 6514SOL    HW220442   3.952   5.714   1.337 -0.4740  1.2420  2.2812
 6515SOL     OW20443   5.396   4.173   4.383 -0.3040  0.2813 -0.3701
 6515SOL    HW120444   5.346   4.132   4.306 -1.5563 -0.3566  0.7382
 6515SOL    HW220445   5.339   4.242   4.426 -0.6303 -1.0528  1.4525
 6516SOL     OW20446   0.435   0.553   3.947 -0.0745 -0.5480  0.2023
 6516SOL    HW120447   0.457   0.492   4.022 -0.0631  0.7360  1.2854
 6516SOL    HW220448   0.347   0.527   3.907 -0.6811 -0.5047  1.4756
 6517SOL     OW20449   1.829   3.032   4.003  0.4184 -0.1264  1.3999
 6517SOL    HW120450   1.848   2.965   4.075 -1.1553 -1.1497  0.9267
 6517SOL    HW220451   1.812   2.983   3.917  2.6195  1.0770  0.1877
 6518SOL     OW20452   4.899   4.692   1.842  0.1429  0.2110  0.3545
 6518SOL    HW120453   4.906   4.676   1.744  1.5204  0.8593  0.3161
 6518SOL    HW220454   4.869   4.786   1.858  1.6849  0.7138  0.5106
 6519SOL     OW20455   6.754   0.752   0.948  0.3920 -0.3840  0.6907
 6519SOL    HW120456   6.821   0.734   1.019 -0.8592  0.3196  2.1051
 6519SOL    HW220457   6.674   0.694   0.962  0.5249 -0.9772 -0.7804
 6520SOL     OW20458   1.574   2.292   5.827 -0.1081  0.2988  0.1616
 6520SOL    HW120459   1.563   2.201   5.786 -1.2701 -0.1451  1.3856
 6520SOL    HW220460   1.616   2.354   5.761 -0.7243 -0.7239 -1.2287
 6521SOL     OW20461   4.648   5.569   3.835 -0.4129  0.1709  0.4017
 6521SOL    HW120462   4.575   5.545   3.898  0.2778 -2.6438  0.3123
 6521SOL    HW220463   4.613   5.571   3.742 -0.4258 -1.3558  0.3387
 6522SOL     OW20464   3.400   1.008   4.331 -0.0436 -0.3230 -0.1143
 6522SOL    HW120465   3.387   0.977   4.237  2.2851  0.9103 -0.9254
 6522SOL    HW220466   3.439   1.100   4.331 -0.0896 -0.2446  2.0810
 6523SOL     OW20467   5.379   4.243   6.859 -0.1432  0.0384  0.1726
 6523SOL    HW120468   5.446   4.316   6.843  1.4688 -1.2226  0.8585
 6523SOL    HW220469   5.335   4.218   6.773 -1.7700  2.7172  0.1266
 6524SOL     OW20470   3.159   6.883   6.383  0.9758  0.1490 -0.4356
 6524SOL    HW120471   3.232   6.834   6.432  1.5611  1.3122 -0.1089
 6524SOL    HW220472   3.199   6.958   6.330  0.1145  0.1905 -1.0501
 6525SOL     OW20473   5.453   6.964   3.814 -0.3474  0.0881  0.5593
 6525SOL    HW120474   5.493   6.932   3.900  2.5162  0.7517 -0.4197
 6525SOL    HW220475   5.402   6.889   3.772  0.0479 -0.9153  1.7888
 6526SOL     OW20476   6.946   1.420   6.688 -0.3131  0.1861  0.8808
 6526SOL    HW120477   6.861   1.461   6.720 -0.5235  0.2323  0.2850
 6526SOL    HW220478   6.992   1.374   6.764 -0.2933  1.1331  1.4612
 6527SOL     OW20479   2.241   0.928   5.236  0.4461 -0.1134 -0.3764
 6527SOL    HW120480   2.315   0.900   5.174  1.6461  2.9013 -0.4716
 6527SOL    HW220481   2.271   0.917   5.330  0.4613 -0.2394 -0.3954
 6528SOL     OW20482   1.262   2.165   1.363  0.4255 -0.6242 -0.2451
 6528SOL    HW120483   1.221   2.120   1.283  2.3369 -1.9173 -0.5586
 6528SOL    HW220484   1.249   2.107   1.443  2.0783 -1.3563 -0.4659
 6529SOL     OW20485   2.686   3.458   6.023  0.1525  0.0128  0.1289
 6529SOL    HW120486   2.635   3.387   5.973  0.7457 -0.5570  0.3253
 6529SOL    HW220487   2.638   3.545   6.014  0.3996 -0.0003 -1.7282
 6530SOL     OW20488   2.036   3.667   4.069 -0.1513  0.4862 -0.4158
 6530SOL    HW120489   2.048   3.614   4.153 -2.1931 -0.8735 -0.9020
 6530SOL    HW220490   2.077   3.757   4.081  0.9373 -0.1856  1.4744
 6531SOL     OW20491   5.311   4.247   0.665 -0.4311  0.0442 -0.1977
 6531SOL    HW120492   5.219   4.277   0.641  0.3500  0.5587 -2.8915
 6531SOL    HW220493   5.330   4.159   0.620  0.6580  0.3363 -0.3346
 6532SOL     OW20494   0.568   1.406   3.613  0.1895 -0.1150  0.1305
 6532SOL    HW120495   0.478   1.365   3.627 -0.8244  2.3629  1.5372
 6532SOL    HW220496   0.578   1.486   3.672  2.6748  0.7091 -1.2448
 6533SOL     OW20497   5.444   5.392   5.268  0.5117 -0.3372  0.7431
 6533SOL    HW120498   5.455   5.396   5.169  1.4219 -1.4035  0.7742
 6533SOL    HW220499   5.348   5.373   5.290  0.7921 -3.1271 -0.0850
 6534SOL     OW20500   2.223   2.524   3.888  0.1047 -0.5239  0.4248
 6534SOL    HW120501   2.293   2.594   3.906  2.7197 -2.7120 -0.5724
 6534SOL    HW220502   2.176   2.547   3.803  1.5758 -0.3610 -0.3969
 6535SOL     OW20503   1.085   5.699   4.202  0.9627 -0.3061 -0.3630
 6535SOL    HW120504   0.987   5.698   4.179  1.0365 -2.2805 -0.8353
 6535SOL    HW220505   1.138   5.674   4.121  1.7527 -0.4815  0.1981
 6536SOL     OW20506   6.919   4.955   5.717 -0.4524 -0.0454 -0.2823
 6536SOL    HW120507   6.989   5.021   5.691 -0.8675  0.5532  0.1059
 6536SOL    HW220508   6.942   4.866   5.677  1.4135 -0.2888  1.1790
 6537SOL     OW20509   0.553   2.957   0.330  0.1955  0.3952 -0.3214
 6537SOL    HW120510   0.486   2.884   0.340 -1.0476  1.4754 -0.5057
 6537SOL    HW220511   0.617   2.954   0.407  0.5653 -1.2530 -0.6490
 6538SOL     OW20512   6.339   3.395   4.174  0.8086  0.0199  0.4784
 6538SOL    HW120513   6.404   3.366   4.244 -0.6932 -0.1622  1.8589
 6538SOL    HW220514   6.318   3.492   4.186 -0.1944 -0.2315  0.9689
 6539SOL     OW20515   1.947   5.194   5.180  0.1949 -0.2191 -0.0762
 6539SOL    HW120516   2.002   5.128   5.231  1.2468  1.4969  1.1455
 6539SOL    HW220517   1.883   5.146   5.120  1.2370 -2.3022  0.3938
 6540SOL     OW20518   1.578   4.382   0.810 -0.0450 -0.1061  0.4051
 6540SOL    HW120519   1.648   4.354   0.876  1.6323  1.3667 -0.6557
 6540SOL    HW220520   1.513   4.443   0.855 -0.2593 -0.9312  1.2358
 6541SOL     OW20521   2.792   2.396   6.200  0.0795 -0.6032 -0.0578
 6541SOL    HW120522   2.719   2.391   6.268 -1.6938  1.3660 -1.6319
 6541SOL    HW220523   2.752   2.389   6.109  2.1049 -1.0305 -0.9622
 6542SOL     OW20524   4.184   6.685   0.248 -0.5433 -1.0118 -0.0109
 6542SOL    HW120525   4.104   6.720   0.199  0.0330 -0.2295 -0.4070
 6542SOL    HW220526   4.172   6.701   0.346 -0.0956  0.7487 -0.2185
 6543SOL     OW20527   0.444   6.087   6.431 -0.0352  0.0159  0.0146
 6543SOL    HW120528   0.440   6.181   6.398 -1.5773  0.0017  0.1280
 6543SOL    HW220529   0.386   6.029   6.374  0.6375 -0.8237  0.1565
 6544SOL     OW20530   4.735   4.895   5.466 -0.4445 -0.7779  0.5046
 6544SOL    HW120531   4.795   4.970   5.439 -1.3337  0.6469  2.2325
 6544SOL    HW220532   4.720   4.899   5.565 -2.4155 -1.7831  0.2934
 6545SOL     OW20533   4.315   2.342   2.408 -0.1060 -0.2650  0.1573
 6545SOL    HW120534   4.305   2.306   2.315 -2.9706  0.2331  0.1800
 6545SOL    HW220535   4.271   2.432   2.413 -1.4267 -0.9796  2.3578
 6546SOL     OW20536   4.324   0.649   2.186  0.4980 -0.3916 -0.5246
 6546SOL    HW120537   4.245   0.594   2.211  0.7086 -0.2138  0.5667
 6546SOL    HW220538   4.378   0.601   2.117 -0.1599 -0.8417 -0.7288
 6547SOL     OW20539   1.617   1.819   6.041  0.8805 -0.2786  0.6819
 6547SOL    HW120540   1.594   1.791   6.134  0.0954  0.5972  0.7649
 6547SOL    HW220541   1.599   1.917   6.030 -1.7701 -0.8665 -1.1920
 6548SOL     OW20542   6.429   5.456   3.836 -0.8067  0.2609  0.0072
 6548SOL    HW120543   6.484   5.505   3.768 -1.8506  0.1988 -0.9080
 6548SOL    HW220544   6.376   5.522   3.890  2.2292  0.5940  2.8872
 6549SOL     OW20545   3.635   1.886   2.553 -0.1806  0.1758  0.0164
 6549SOL    HW120546   3.657   1.792   2.577  1.9075  0.6805  0.2424
 6549SOL    HW220547   3.585   1.888   2.466  0.5442 -1.0714 -0.4411
 6550SOL     OW20548   5.952   0.417   4.124  0.3916  0.1955  0.4418
 6550SOL    HW120549   6.027   0.367   4.081 -0.2567 -1.9478  1.6266
 6550SOL    HW220550   5.909   0.477   4.057  0.8681 -1.2586 -1.2411
 6551SOL     OW20551   6.908   2.389   5.193  0.1813 -0.2510 -0.2624
 6551SOL    HW120552   7.002   2.354   5.200 -0.7453 -2.5145  2.4167
 6551SOL    HW220553   6.882   2.433   5.278 -1.2459  0.3425 -0.9741
 6552SOL     OW20554   1.788   6.360   6.963 -0.1007  0.0514  0.4139
 6552SOL    HW120555   1.831   6.324   7.046 -1.6263 -2.3691  0.2464
 6552SOL    HW220556   1.739   6.445   6.985 -0.4532 -0.5231  2.0159
 6553SOL     OW20557   3.260   0.776   2.857 -0.5757  0.6167 -0.3567
 6553SOL    HW120558   3.353   0.761   2.889 -0.9109 -1.8275 -0.2922
 6553SOL    HW220559   3.258   0.854   2.795  1.4361  0.9356 -0.0931
 6554SOL     OW20560   2.177   6.024   1.339  0.5891 -0.2217 -0.2177
 6554SOL    HW120561   2.186   6.088   1.416  0.1300 -2.3016  1.6615
 6554SOL    HW220562   2.226   5.940   1.360 -0.1894 -1.1382 -1.8953
 6555SOL     OW20563   0.299   3.269   0.078  0.4340 -0.2315  0.3216
 6555SOL    HW120564   0.281   3.338   0.008 -1.7312 -0.7963  0.2515
 6555SOL    HW220565   0.366   3.203   0.045 -2.2996 -1.9244 -2.3332
 6556SOL     OW20566   3.204   3.255   6.568  0.5862  0.0021  0.2268
 6556SOL    HW120567   3.276   3.310   6.526 -0.1888  1.1174  0.2961
 6556SOL    HW220568   3.184   3.176   6.510  1.3211  0.1126 -0.1829
 6557SOL     OW20569   2.527   1.502   6.208  0.4961  0.3095 -0.1218
 6557SOL    HW120570   2.492   1.595   6.209  0.4182  0.2852  0.8414
 6557SOL    HW220571   2.604   1.495   6.272  1.1071 -0.0627 -0.8830
 6558SOL     OW20572   4.701   5.555   2.368  0.0203  0.1170 -0.1941
 6558SOL    HW120573   4.636   5.499   2.318 -0.3244 -0.6530  1.0731
 6558SOL    HW220574   4.755   5.497   2.429  1.6636  0.7864 -0.9425
 6559SOL     OW20575   0.160   3.199   2.740 -0.1518 -0.6234 -0.5516
 6559SOL    HW120576   0.098   3.222   2.665  0.3359  3.3369  0.0438
 6559SOL    HW220577   0.249   3.172   2.702 -0.0714  0.8075 -1.4507
 6560SOL     OW20578   2.875   0.011   2.440  0.1909  0.1453 -0.3439
 6560SOL    HW120579   2.954   0.063   2.407  0.2395 -0.3935 -1.1215
 6560SOL    HW220580   2.872   0.014   2.540  1.6268 -0.4253 -0.2530
 6561SOL     OW20581   6.722   6.453   3.421 -0.1419 -0.1409 -0.0785
 6561SOL    HW120582   6.715   6.528   3.356 -0.3486  0.8353  1.0373
 6561SOL    HW220583   6.682   6.370   3.381 -0.3478  0.4498 -1.1383
 6562SOL     OW20584   6.748   3.564   3.871  0.4213 -0.2924  0.1367
 6562SOL    HW120585   6.847   3.573   3.858  0.5131 -1.7771 -0.3107
 6562SOL    HW220586   6.728   3.480   3.921 -0.7350 -1.0317 -1.4994
 6563SOL     OW20587   5.084   0.976   1.000 -0.3732 -0.2185  0.1227
 6563SOL    HW120588   5.152   1.022   1.057 -1.0420 -0.2164  0.9534
 6563SOL    HW220589   5.117   0.969   0.906  0.1486  1.0905  0.1928
 6564SOL     OW20590   3.553   4.942   4.287 -0.4403  0.0490 -0.3387
 6564SOL    HW120591   3.576   4.882   4.364  0.7452  0.6435 -0.2124
 6564SOL    HW220592   3.515   5.028   4.322 -2.4546 -0.6939 -0.5276
 6565SOL     OW20593   1.948   6.534   6.085 -0.2193  0.0718 -0.2199
 6565SOL    HW120594   1.915   6.520   5.992 -1.0297  0.7207 -0.0437
 6565SOL    HW220595   2.022   6.469   6.104  0.9329  0.8537 -1.7805
 6566SOL     OW20596   1.651   0.599   3.909  0.1583  0.5579  0.3936
 6566SOL    HW120597   1.705   0.544   3.973 -1.3494 -1.3872  0.0780
 6566SOL    HW220598   1.561   0.618   3.949 -0.2659  0.5751 -0.5494
 6567SOL     OW20599   6.382   0.652   2.856  0.3411 -0.1059  0.1008
 6567SOL    HW120600   6.385   0.585   2.930 -0.1116 -0.4890 -0.2281
 6567SOL    HW220601   6.315   0.624   2.788  0.8763  0.1598 -0.5455
 6568SOL     OW20602   3.230   0.633   4.956 -0.7765  0.7860  0.1898
 6568SOL    HW120603   3.169   0.615   4.879  0.6732 -1.4507 -0.5101
 6568SOL    HW220604   3.300   0.698   4.929 -1.7763  2.0322  0.4794
 6569SOL     OW20605   2.291   1.464   4.129 -0.4368 -0.2340  0.2331
 6569SOL    HW120606   2.201   1.504   4.144 -0.6869 -1.3937  2.2166
 6569SOL    HW220607   2.356   1.501   4.196 -0.2226 -1.6319  0.8577
 6570SOL     OW20608   2.558   6.045   4.492 -0.0629 -0.1571  0.1203
 6570SOL    HW120609   2.632   6.008   4.437 -1.2038 -0.3036 -1.3785
 6570SOL    HW220610   2.557   6.000   4.582  0.6367 -1.3372 -0.4394
 6571SOL     OW20611   4.632   1.094   4.294  0.5896  0.2891 -0.2339
 6571SOL    HW120612   4.694   1.164   4.258 -1.6655  2.7517  0.3064
 6571SOL    HW220613   4.561   1.138   4.349 -1.0990 -2.4628 -0.0210
 6572SOL     OW20614   3.127   0.586   5.718 -0.5917  0.2527  0.2529
 6572SOL    HW120615   3.058   0.571   5.790 -0.6071 -1.0039 -0.0006
 6572SOL    HW220616   3.161   0.680   5.724 -0.4332  0.1290  2.0533
 6573SOL     OW20617   3.194   2.947   1.300 -0.0303  0.4634 -0.0513
 6573SOL    HW120618   3.226   2.852   1.300 -0.9337  0.1200 -1.2214
 6573SOL    HW220619   3.094   2.947   1.298 -0.0261  1.4424 -0.5202
 6574SOL     OW20620   2.513   5.885   2.590 -0.6046  0.3004  0.0717
 6574SOL    HW120621   2.434   5.839   2.632 -1.2653  0.9513 -0.4317
 6574SOL    HW220622   2.555   5.823   2.524 -0.4453 -0.1989  0.6369
 6575SOL     OW20623   0.226   1.961   3.475  0.1208  0.4989  0.5721
 6575SOL    HW120624   0.131   1.983   3.493 -0.5246 -0.6083 -1.1898
 6575SOL    HW220625   0.275   2.044   3.448 -0.9256  0.7347 -0.7165
 6576SOL     OW20626   0.532   4.522   5.267  0.0416  0.2165  0.5314
 6576SOL    HW120627   0.483   4.498   5.351  0.8926  0.7005  1.1875
 6576SOL    HW220628   0.467   4.555   5.199 -0.7580 -0.9185  0.7157
 6577SOL     OW20629   0.296   6.637   5.777 -0.8122 -0.0666 -0.0927
 6577SOL    HW120630   0.372   6.701   5.784 -0.2460 -0.6647 -0.6436
 6577SOL    HW220631   0.228   6.657   5.848  0.1483  0.0893  0.8020
 6578SOL     OW20632   1.445   4.883   4.292  0.5685 -0.6767  0.0941
 6578SOL    HW120633   1.416   4.872   4.387 -1.0309 -1.0207 -0.4140
 6578SOL    HW220634   1.518   4.818   4.272 -0.2155 -1.7539  0.6396
 6579SOL     OW20635   3.253   6.554   4.339 -0.0958  0.3490  0.0423
 6579SOL    HW120636   3.284   6.610   4.262 -1.9193  0.8648 -0.3783
 6579SOL    HW220637   3.278   6.458   4.324  1.1631  0.7144 -0.2809
 6580SOL     OW20638   4.841   1.196   3.333 -0.7012  0.1861 -0.4091
 6580SOL    HW120639   4.763   1.197   3.396 -1.6977  0.8105 -1.6127
 6580SOL    HW220640   4.908   1.129   3.365 -2.3802 -1.4584 -0.1033
 6581SOL     OW20641   4.444   0.121   5.397 -0.1248  0.3614 -0.1513
 6581SOL    HW120642   4.378   0.174   5.450  0.5280  0.3337  0.7196
 6581SOL    HW220643   4.529   0.173   5.387  0.0492  0.0256 -0.4643
 6582SOL     OW20644   5.604   4.207   1.061 -0.1357  0.1928 -0.4094
 6582SOL    HW120645   5.571   4.261   0.985  1.1447  2.5568  0.6010
 6582SOL    HW220646   5.682   4.152   1.031  0.8416  1.6720 -0.6935
 6583SOL     OW20647   3.362   6.303   0.347  0.0974  0.1696  0.0226
 6583SOL    HW120648   3.444   6.304   0.289 -0.9483  0.1666 -1.4837
 6583SOL    HW220649   3.310   6.386   0.333  0.0519  0.3967  1.3500
 6584SOL     OW20650   6.481   1.162   5.397  0.0469  0.4402 -0.7919
 6584SOL    HW120651   6.518   1.238   5.450 -1.3958  0.2299  0.5908
 6584SOL    HW220652   6.460   1.086   5.458 -1.9974  0.3129 -1.5721
 6585SOL     OW20653   5.218   6.468   1.274  0.3477  0.1453 -0.1650
 6585SOL    HW120654   5.284   6.543   1.268 -1.7109  2.2648  1.4755
 6585SOL    HW220655   5.235   6.416   1.357  0.6037  0.0013 -0.3063
 6586SOL     OW20656   6.459   3.133   5.178  0.5646  0.4326 -0.7162
 6586SOL    HW120657   6.445   3.049   5.230 -0.9257  2.0127  1.6393
 6586SOL    HW220658   6.372   3.181   5.169  1.0663  0.9790 -3.4821
 6587SOL     OW20659   0.883   3.034   0.709  0.2106 -0.1543 -0.3400
 6587SOL    HW120660   0.902   3.047   0.806  0.0602 -0.6884 -0.2361
 6587SOL    HW220661   0.946   3.089   0.654  2.5464 -2.3416 -0.0424
 6588SOL     OW20662   0.565   0.328   6.527 -0.1824  0.2814  0.3275
 6588SOL    HW120663   0.503   0.355   6.454  1.6663  1.7161 -0.8090
 6588SOL    HW220664   0.617   0.408   6.559 -1.1050 -0.2212  3.4660
 6589SOL     OW20665   1.913   5.762   0.292  0.3369  0.0571 -0.1072
 6589SOL    HW120666   1.946   5.826   0.362 -0.6072  0.0481  0.3627
 6589SOL    HW220667   1.864   5.812   0.221  0.9358  0.0187 -0.5569
 6590SOL     OW20668   6.248   1.105   0.199 -0.6244  0.0719  0.5267
 6590SOL    HW120669   6.232   1.077   0.104  0.9937  0.7440  0.0218
 6590SOL    HW220670   6.316   1.044   0.240 -1.2218 -0.1333  1.2198
 6591SOL     OW20671   0.848   4.500   2.593 -0.2887 -0.4628 -0.2957
 6591SOL    HW120672   0.798   4.512   2.507  0.8327 -0.1070 -0.9265
 6591SOL    HW220673   0.844   4.404   2.620 -2.4243 -0.2295  0.4092
 6592SOL     OW20674   2.130   0.928   1.795 -0.1003 -0.1681 -0.2859
 6592SOL    HW120675   2.116   0.997   1.724 -0.9508  0.6907  0.6841
 6592SOL    HW220676   2.223   0.892   1.789  0.8334  2.0731  0.0367
 6593SOL     OW20677   5.622   5.251   1.625  0.5958 -0.4317  1.0840
 6593SOL    HW120678   5.585   5.343   1.614  0.1371 -0.7136  0.1629
 6593SOL    HW220679   5.662   5.242   1.716  1.2051  0.8742  0.9667
 6594SOL     OW20680   0.482   3.687   0.394  0.6288  0.2606 -0.1748
 6594SOL    HW120681   0.399   3.742   0.394 -1.7611 -3.0555 -0.6680
 6594SOL    HW220682   0.508   3.666   0.489  1.6889  2.2666  0.0259
 6595SOL     OW20683   6.703   3.004   2.867 -0.4099 -0.9368  0.2014
 6595SOL    HW120684   6.704   2.922   2.924 -0.7217 -1.4634 -0.5343
 6595SOL    HW220685   6.728   2.980   2.773 -0.6701 -0.2209 -0.0566
 6596SOL     OW20686   2.018   0.933   4.035  0.4878  0.7884  0.1909
 6596SOL    HW120687   1.933   0.921   4.085 -0.3575 -0.8670 -1.5018
 6596SOL    HW220688   2.038   1.031   4.026 -0.8876  1.1883  1.1472
 6597SOL     OW20689   6.218   6.096   5.671 -0.3453 -1.1602 -0.0807
 6597SOL    HW120690   6.206   6.141   5.583  1.3424 -0.8936 -0.1962
 6597SOL    HW220691   6.189   6.158   5.744  1.1890 -0.1669 -0.2839
 6598SOL     OW20692   3.840   5.429   5.127  0.0384 -0.3753  0.0573
 6598SOL    HW120693   3.931   5.394   5.106 -0.1512 -0.3702 -0.8520
 6598SOL    HW220694   3.814   5.403   5.220  0.3917 -1.6216 -0.1687
 6599SOL     OW20695   4.914   6.465   1.786 -0.3656  0.3044  0.0051
 6599SOL    HW120696   5.006   6.435   1.814 -1.0497 -1.0123  0.9648
 6599SOL    HW220697   4.909   6.564   1.789  0.6435  0.3448  1.2010
 6600SOL     OW20698   1.735   6.878   5.023  0.5497 -0.3434  0.1316
 6600SOL    HW120699   1.689   6.838   4.944  0.6512  0.7570 -0.5113
 6600SOL    HW220700   1.821   6.921   4.994 -0.0849  1.2970  0.5739
 6601SOL     OW20701   0.781   2.128   2.363  0.1330 -0.2046 -0.3419
 6601SOL    HW120702   0.819   2.043   2.399 -1.1588 -0.7947 -0.3074
 6601SOL    HW220703   0.791   2.129   2.263  1.4112  0.2701 -0.2334
 6602SOL     OW20704   0.797   2.407   1.985  0.6922 -0.0315 -0.0584
 6602SOL    HW120705   0.816   2.316   2.024 -0.5503 -1.0639 -1.7285
 6602SOL    HW220706   0.768   2.469   2.058 -0.2153 -1.5035  0.8907
 6603SOL     OW20707   6.925   0.819   0.130 -0.0925 -0.1433  0.4328
 6603SOL    HW120708   6.910   0.871   0.214  0.9769  1.4397 -0.2991
 6603SOL    HW220709   7.022   0.800   0.120 -0.3943 -1.8085  0.3596
 6604SOL     OW20710   5.843   1.896   6.472  0.3727  0.3278 -0.1465
 6604SOL    HW120711   5.847   1.918   6.374 -1.9319 -0.4443 -0.4773
 6604SOL    HW220712   5.835   1.797   6.484 -1.5244  0.5336  0.6643
 6605SOL     OW20713   2.071   6.582   5.148  0.2229  0.3298  0.3221
 6605SOL    HW120714   2.059   6.488   5.116  0.0396 -0.3051  2.1533
 6605SOL    HW220715   2.120   6.634   5.078 -1.8939 -0.3951 -1.8645
 6606SOL     OW20716   2.982   5.645   1.282  0.1395  0.5445  0.6698
 6606SOL    HW120717   2.938   5.577   1.340 -0.7886 -0.5651 -1.2410
 6606SOL    HW220718   2.973   5.736   1.324  2.4421 -0.5172  3.8826
 6607SOL     OW20719   0.834   1.220   0.956  0.0621 -0.3807 -0.0234
 6607SOL    HW120720   0.787   1.250   1.039 -1.2892 -3.1048  0.3233
 6607SOL    HW220721   0.767   1.177   0.894  0.6814  2.9717 -3.3630
 6608SOL     OW20722   1.504   6.373   5.182  0.1544 -0.0314  0.2704
 6608SOL    HW120723   1.418   6.324   5.197  0.2438  0.0195  1.0333
 6608SOL    HW220724   1.495   6.466   5.217  0.0246  0.4676 -1.0672
 6609SOL     OW20725   0.814   6.171   6.975 -0.0185  0.1132 -0.0646
 6609SOL    HW120726   0.913   6.167   6.991  0.0389  0.9519 -0.1850
 6609SOL    HW220727   0.791   6.253   6.924 -0.8477  0.2213  0.4574
 6610SOL     OW20728   0.407   2.160   3.402 -0.1362 -0.0781 -0.1223
 6610SOL    HW120729   0.486   2.220   3.389  0.4330 -0.8550 -0.3057
 6610SOL    HW220730   0.394   2.104   3.321 -0.5701 -0.3123  0.1049
 6611SOL     OW20731   3.038   3.797   2.579  0.2264  0.2788  0.3179
 6611SOL    HW120732   3.006   3.703   2.567  1.5340 -0.2905  1.1270
 6611SOL    HW220733   3.062   3.836   2.490 -2.4667  0.6871 -0.3102
 6612SOL     OW20734   3.155   3.741   6.511  0.6917  0.1380 -0.0787
 6612SOL    HW120735   3.076   3.802   6.512  1.6920  1.4701  1.1297
 6612SOL    HW220736   3.164   3.696   6.599  2.4838  1.6875  0.6088
 6613SOL     OW20737   0.309   4.881   1.718  0.0017 -0.2705 -0.3394
 6613SOL    HW120738   0.248   4.960   1.710  0.5153  0.2325  0.5557
 6613SOL    HW220739   0.402   4.908   1.693  0.2292 -0.5270  0.2206
 6614SOL     OW20740   2.328   6.685   5.431  0.2638 -0.2053 -0.6067
 6614SOL    HW120741   2.340   6.726   5.340 -0.3616  2.3896  0.3882
 6614SOL    HW220742   2.360   6.749   5.501 -1.4630 -1.1105  1.1169
 6615SOL     OW20743   1.119   1.078   4.804 -0.4257  0.0206 -0.1436
 6615SOL    HW120744   1.033   1.130   4.804  0.6881  1.9423 -0.8630
 6615SOL    HW220745   1.098   0.982   4.785 -2.4333  0.4108 -0.2049
 6616SOL     OW20746   6.222   6.493   1.582 -0.3392  0.3958  0.4884
 6616SOL    HW120747   6.246   6.526   1.674  1.4322  2.0175 -0.4525
 6616SOL    HW220748   6.276   6.412   1.561 -0.7111  0.0509  0.8539
 6617SOL     OW20749   3.839   2.195   0.935 -1.0322 -0.3735 -0.7039
 6617SOL    HW120750   3.810   2.269   0.995 -0.4204  1.3737 -2.4199
 6617SOL    HW220751   3.853   2.111   0.988 -1.3777  0.8233  1.3803
 6618SOL     OW20752   3.380   0.094   4.094  0.1418 -0.0996  0.3189
 6618SOL    HW120753   3.405   0.081   3.998 -1.1499  2.2279 -0.4010
 6618SOL    HW220754   3.460   0.125   4.145  0.4741  0.1599 -0.3465
 6619SOL     OW20755   4.906   6.795   0.053 -0.5487 -0.0344 -0.3854
 6619SOL    HW120756   4.985   6.782   0.113  0.1430  1.1907 -0.9935
 6619SOL    HW220757   4.839   6.853   0.099  0.1798  1.2835 -0.9095
 6620SOL     OW20758   1.342   5.519   3.041 -0.0421  0.5499 -0.0877
 6620SOL    HW120759   1.338   5.611   3.081 -1.6782 -0.0554  1.2427
 6620SOL    HW220760   1.263   5.466   3.072  0.1900 -0.9119 -1.8562
 6621SOL     OW20761   5.784   2.849   6.033 -0.2452 -0.3556  0.2560
 6621SOL    HW120762   5.793   2.758   6.074 -2.2487 -0.6938  0.0570
 6621SOL    HW220763   5.691   2.860   5.998 -0.3495  2.1321  1.1377
 6622SOL     OW20764   0.457   4.139   4.255  0.4079  0.8052  0.5250
 6622SOL    HW120765   0.410   4.143   4.166 -1.1781 -1.8045  1.1159
 6622SOL    HW220766   0.544   4.188   4.249 -1.2739  3.8461 -1.3366
 6623SOL     OW20767   5.859   1.977   4.134  0.4556 -0.3548  0.5076
 6623SOL    HW120768   5.828   1.952   4.042 -1.2995 -0.1767  0.9993
 6623SOL    HW220769   5.958   1.972   4.139  0.5045 -1.6705 -1.0132
 6624SOL     OW20770   3.767   5.654   4.289  0.8725 -0.1566  0.1422
 6624SOL    HW120771   3.752   5.722   4.217 -0.5216  0.2424  0.7804
 6624SOL    HW220772   3.683   5.640   4.340  1.7850 -0.5947  1.5834
 6625SOL     OW20773   2.039   2.780   4.868  0.0610  0.1225 -0.3741
 6625SOL    HW120774   2.006   2.711   4.932 -0.0633 -1.8459 -2.4551
 6625SOL    HW220775   2.138   2.789   4.877  0.1052 -0.4824 -0.2174
 6626SOL     OW20776   6.860   3.103   0.920 -0.1204  0.8615  0.8991
 6626SOL    HW120777   6.876   3.011   0.955  0.1388  1.1322  1.5056
 6626SOL    HW220778   6.945   3.139   0.881 -0.3181  0.7001  0.3033
 6627SOL     OW20779   5.701   4.358   2.775  0.1444  0.1767  0.1281
 6627SOL    HW120780   5.757   4.365   2.693 -0.3469 -1.1216 -0.3375
 6627SOL    HW220781   5.673   4.263   2.789 -1.0662  0.6215  0.9224
 6628SOL     OW20782   5.403   4.273   3.586 -0.7589  0.6289 -0.3904
 6628SOL    HW120783   5.361   4.300   3.499  1.6610  2.6913 -1.0115
 6628SOL    HW220784   5.460   4.347   3.620  2.7353 -2.0361  0.1536
 6629SOL     OW20785   0.760   5.161   4.535  0.4147 -0.3688  0.6786
 6629SOL    HW120786   0.744   5.252   4.573  1.9870 -0.1567  0.8784
 6629SOL    HW220787   0.802   5.168   4.445  0.2807 -0.8970  0.5678
 6630SOL     OW20788   3.818   5.292   6.698  0.9074  0.4659  0.1307
 6630SOL    HW120789   3.807   5.362   6.769 -1.2510 -1.0334  1.4178
 6630SOL    HW220790   3.728   5.264   6.666  1.8118  0.3377 -2.5315
 6631SOL     OW20791   6.565   0.716   3.497 -0.6585  0.4599  0.6044
 6631SOL    HW120792   6.534   0.632   3.543  0.9754 -0.6490 -0.2333
 6631SOL    HW220793   6.603   0.693   3.407  2.5708  1.6209  1.5174
 6632SOL     OW20794   6.001   1.620   1.137  0.2743  0.8834 -0.7442
 6632SOL    HW120795   6.083   1.583   1.178 -0.9518  1.0432  2.0933
 6632SOL    HW220796   5.935   1.546   1.120 -0.0651  1.0740 -0.2911
 6633SOL     OW20797   1.788   0.378   3.228  0.5827 -0.8527  0.0444
 6633SOL    HW120798   1.717   0.399   3.295  0.6592  0.1716 -0.1846
 6633SOL    HW220799   1.860   0.447   3.232  0.2950 -0.4294 -1.4936
 6634SOL     OW20800   0.965   3.732   6.232 -0.1643  0.0584 -0.3517
 6634SOL    HW120801   0.913   3.813   6.258  2.0270  1.2304  0.6419
 6634SOL    HW220802   1.053   3.732   6.279  1.1381 -1.3705 -2.5911
 6635SOL     OW20803   6.839   4.268   1.408 -0.1035  0.1800 -0.1470
 6635SOL    HW120804   6.796   4.324   1.478  1.5519  2.2716 -0.7160
 6635SOL    HW220805   6.930   4.240   1.438  0.3143  0.4385 -1.1459
 6636SOL     OW20806   3.428   0.923   2.315 -0.0756  0.3482 -1.2426
 6636SOL    HW120807   3.360   0.942   2.386 -0.5395 -1.7943 -1.0343
 6636SOL    HW220808   3.389   0.861   2.247  1.5141 -0.6463 -1.3152
 6637SOL     OW20809   1.092   4.462   5.288 -0.4948 -0.6825  0.0624
 6637SOL    HW120810   1.069   4.384   5.230 -0.7681  1.1806 -2.4719
 6637SOL    HW220811   1.173   4.508   5.252 -0.6200  0.5099  1.2198
 6638SOL     OW20812   6.250   4.567   1.824  0.6108 -0.1200 -0.2983
 6638SOL    HW120813   6.213   4.603   1.738  0.4891 -0.7850 -0.5292
 6638SOL    HW220814   6.178   4.520   1.874  1.2342 -1.9673 -1.0384
 6639SOL     OW20815   2.406   2.540   0.361 -0.2536  0.3349 -0.4989
 6639SOL    HW120816   2.473   2.548   0.287  1.4075  1.0553  1.0261
 6639SOL    HW220817   2.453   2.528   0.448 -2.1596 -0.1865  0.5139
 6640SOL     OW20818   1.103   1.426   0.692  0.2212 -0.5953 -0.4208
 6640SOL    HW120819   1.142   1.494   0.630 -0.8931  0.1953 -0.2794
 6640SOL    HW220820   1.138   1.335   0.668  1.8971  0.0246 -0.4805
 6641SOL     OW20821   1.719   6.995   7.008  0.1087  0.0520  0.1231
 6641SOL    HW120822   1.744   7.089   7.030  2.7596 -0.9686  1.9215
 6641SOL    HW220823   1.641   6.967   7.065  0.1326  0.7380  0.4974
 6642SOL     OW20824   0.826   6.296   0.535 -0.1748 -0.3663  0.3553
 6642SOL    HW120825   0.779   6.383   0.526 -1.5928 -1.2008 -0.6452
 6642SOL    HW220826   0.777   6.238   0.600 -0.2723 -1.0689 -0.3370
 6643SOL     OW20827   5.139   5.685   6.249 -0.4847  0.4956  0.0958
 6643SOL    HW120828   5.120   5.595   6.289  0.7855  1.3813  3.0211
 6643SOL    HW220829   5.054   5.726   6.218 -1.7670 -0.0829  2.5757
 6644SOL     OW20830   2.021   6.628   4.087  0.5678  0.2264 -0.5277
 6644SOL    HW120831   2.042   6.532   4.069  0.3232 -0.1068  0.8345
 6644SOL    HW220832   2.091   6.667   4.147  0.3486  0.7347 -0.5933
 6645SOL     OW20833   5.438   5.093   2.147 -0.9926  0.1496 -0.1610
 6645SOL    HW120834   5.412   5.016   2.089 -0.9506  0.2578 -0.3251
 6645SOL    HW220835   5.472   5.168   2.089 -1.1172  0.3234 -0.0081
 6646SOL     OW20836   5.587   4.037   2.720  0.0286  0.2928 -0.0412
 6646SOL    HW120837   5.627   4.066   2.633  0.0465  0.5897  0.0640
 6646SOL    HW220838   5.660   4.026   2.787  0.2451 -1.7377 -0.5410
 6647SOL     OW20839   0.416   6.689   1.003  0.1196  0.2989  0.6055
 6647SOL    HW120840   0.417   6.605   1.057  0.2571  0.7598  1.3252
 6647SOL    HW220841   0.487   6.751   1.036 -1.6262  1.7632  1.7865
 6648SOL     OW20842   5.895   6.767   4.699 -0.0061 -0.5954 -0.0697
 6648SOL    HW120843   5.836   6.696   4.738  0.1935 -0.7333 -0.0132
 6648SOL    HW220844   5.841   6.829   4.643 -0.2381 -0.6001  0.1509
 6649SOL     OW20845   0.651   2.688   1.719  0.1872  0.6701 -0.3208
 6649SOL    HW120846   0.607   2.632   1.649 -1.6258  2.6106 -0.8475
 6649SOL    HW220847   0.730   2.735   1.680  0.7237 -0.2168 -0.3232
 6650SOL     OW20848   5.608   4.957   0.495  0.4666  0.8145  0.6909
 6650SOL    HW120849   5.519   5.002   0.500 -0.3095 -0.7284  1.7534
 6650SOL    HW220850   5.625   4.908   0.581  2.3505  1.0722  0.5010
 6651SOL     OW20851   6.710   2.496   4.470  0.4076 -0.4011 -0.0934
 6651SOL    HW120852   6.678   2.590   4.473 -1.2653 -0.9628  1.0551
 6651SOL    HW220853   6.777   2.485   4.396  0.7069  1.6790 -0.1730
 6652SOL     OW20854   0.038   0.575   4.994  0.4682 -0.6675  0.4195
 6652SOL    HW120855  -0.042   0.564   5.053 -0.6088 -0.3966 -0.9364
 6652SOL    HW220856   0.054   0.673   4.977  1.3990 -0.6905  1.0490
 6653SOL     OW20857   4.647   0.913   6.811  0.2851 -0.0465 -0.2645
 6653SOL    HW120858   4.602   0.859   6.882  0.2760 -2.6738 -2.1373
 6653SOL    HW220859   4.596   0.998   6.797 -1.5128 -0.9042  0.7033
 6654SOL     OW20860   0.559   6.916   1.084 -0.0203 -0.4410  0.1554
 6654SOL    HW120861   0.475   6.961   1.051  0.0560 -0.2954  0.1605
 6654SOL    HW220862   0.635   6.980   1.082  0.3821 -0.9258 -1.0719
 6655SOL     OW20863   6.620   4.399   5.285 -0.5352 -0.1530 -0.2058
 6655SOL    HW120864   6.675   4.325   5.323 -0.9692 -1.4946 -2.0865
 6655SOL    HW220865   6.523   4.380   5.300 -0.6042  1.0005  0.9575
 6656SOL     OW20866   4.825   2.370   2.084  0.2961 -0.0005  0.0401
 6656SOL    HW120867   4.874   2.374   1.997  0.0046 -0.0002 -0.1251
 6656SOL    HW220868   4.818   2.275   2.114  1.0265  0.0574  0.4276
 6657SOL     OW20869   3.097   1.294   6.658 -1.0161  0.1451  0.5780
 6657SOL    HW120870   3.066   1.310   6.564  0.7439  2.5578  0.2991
 6657SOL    HW220871   3.052   1.360   6.719 -0.9768 -0.3689  1.1693
 6658SOL     OW20872   0.184   0.882   4.694  0.5669 -0.2348  0.2242
 6658SOL    HW120873   0.167   0.965   4.641 -0.8748  0.1936  1.3298
 6658SOL    HW220874   0.152   0.802   4.642 -0.0057  0.0986  0.0589
 6659SOL     OW20875   2.674   1.567   2.691 -0.2930 -0.2704 -0.0249
 6659SOL    HW120876   2.631   1.520   2.614  0.5305 -1.3359  0.1531
 6659SOL    HW220877   2.629   1.540   2.776 -0.1108 -0.3947  0.0323
 6660SOL     OW20878   4.047   1.297   4.322  0.8772  0.3951 -0.0412
 6660SOL    HW120879   3.988   1.217   4.334 -0.7182  1.6740  1.1002
 6660SOL    HW220880   4.112   1.280   4.248 -1.1302 -0.9639 -1.5931
 6661SOL     OW20881   0.066   4.725   4.553 -0.1470  0.0846  0.3457
 6661SOL    HW120882   0.098   4.807   4.601  1.8198  0.1622 -1.0007
 6661SOL    HW220883   0.008   4.752   4.475  1.1931  0.2827 -0.6098
 6662SOL     OW20884   4.056   0.421   6.371  0.1994  0.0992  0.2244
 6662SOL    HW120885   4.011   0.437   6.283 -2.0900 -0.3932  1.2212
 6662SOL    HW220886   4.034   0.329   6.403 -0.2434  0.7902  1.9782
 6663SOL     OW20887   4.790   2.945   3.580  0.5613  0.0043 -0.1999
 6663SOL    HW120888   4.862   2.978   3.520 -1.0005  0.7824 -1.7233
 6663SOL    HW220889   4.778   2.847   3.567  1.3116 -0.1307  0.0597
 6664SOL     OW20890   2.270   1.067   2.375  0.6437  0.3581  0.2992
 6664SOL    HW120891   2.304   1.143   2.320 -1.0206 -0.0761 -1.4622
 6664SOL    HW220892   2.342   0.999   2.389  1.5209  1.2101 -0.0259
 6665SOL     OW20893   4.076   0.636   0.547  0.5066  0.0724 -0.0070
 6665SOL    HW120894   4.144   0.691   0.596  1.0861 -1.5504  1.0765
 6665SOL    HW220895   4.011   0.697   0.502  0.8825  1.6427  1.4656
 6666SOL     OW20896   2.651   5.696   2.420 -0.2674 -0.1054 -0.8736
 6666SOL    HW120897   2.749   5.703   2.438 -0.3944 -0.3495 -0.0603
 6666SOL    HW220898   2.625   5.600   2.410 -0.6587 -0.1402  0.3336
 6667SOL     OW20899   2.029   3.222   4.004 -0.1801 -0.3481  0.1040
 6667SOL    HW120900   1.932   3.225   4.027 -0.1356 -0.4745  0.3077
 6667SOL    HW220901   2.064   3.129   4.018 -0.1068 -0.3834 -0.2891
 6668SOL     OW20902   0.838   3.747   3.760  0.3526  0.0466  0.2857
 6668SOL    HW120903   0.891   3.662   3.756  1.7342  0.8643  0.6181
 6668SOL    HW220904   0.900   3.825   3.762 -0.8926  1.0718  0.1509
 6669SOL     OW20905   5.319   4.557   6.361 -0.3400 -0.0469  0.1160
 6669SOL    HW120906   5.345   4.479   6.305 -2.2030 -0.9313  0.4341
 6669SOL    HW220907   5.355   4.641   6.319 -0.4306 -0.8184 -1.6036
 6670SOL     OW20908   3.804   5.597   1.388  0.2762  0.1291 -0.4944
 6670SOL    HW120909   3.796   5.593   1.487 -1.0321  1.0901 -0.5320
 6670SOL    HW220910   3.735   5.538   1.346  1.8596 -1.5510 -0.8616
 6671SOL     OW20911   3.246   5.705   4.896 -0.8582 -0.2545 -0.5065
 6671SOL    HW120912   3.180   5.745   4.959 -0.4173  0.5701 -0.5581
 6671SOL    HW220913   3.216   5.722   4.802  0.4516  1.9973 -0.5883
 6672SOL     OW20914   5.505   2.192   5.874 -0.5007 -0.2316  0.3882
 6672SOL    HW120915   5.521   2.111   5.818 -2.0974 -0.4171  0.1574
 6672SOL    HW220916   5.409   2.196   5.900 -0.1938  0.9433  1.4324
 6673SOL     OW20917   5.822   2.499   6.407 -0.2016  0.0537  0.3941
 6673SOL    HW120918   5.751   2.568   6.422  0.6356  0.8480  0.7584
 6673SOL    HW220919   5.797   2.416   6.457  0.3790  1.2046  2.7587
 6674SOL     OW20920   4.748   3.830   5.538  0.4232 -0.1083 -0.0601
 6674SOL    HW120921   4.698   3.912   5.564  0.1700 -0.1380 -0.4545
 6674SOL    HW220922   4.762   3.829   5.439  0.8255 -0.3133 -0.0044
 6675SOL     OW20923   3.080   6.212   4.141  0.2032  0.1097 -0.2840
 6675SOL    HW120924   3.074   6.297   4.088  3.0088 -1.2782 -3.1654
 6675SOL    HW220925   3.053   6.135   4.084 -0.2708 -1.1587  1.5857
 6676SOL     OW20926   3.797   6.974   3.976 -0.5051  0.1916 -0.5155
 6676SOL    HW120927   3.810   6.954   3.879  2.3540 -4.0298  0.4487
 6676SOL    HW220928   3.873   7.030   4.009 -0.3919 -0.0536 -0.3551
 6677SOL     OW20929   2.038   5.957   0.448 -0.6488  0.1896 -0.2544
 6677SOL    HW120930   2.031   6.038   0.507  0.2906 -0.5257  0.8769
 6677SOL    HW220931   2.113   5.970   0.383 -1.2769  0.7113 -0.8981
 6678SOL     OW20932   0.081   5.632   6.620  0.3997  0.1666 -0.0273
 6678SOL    HW120933   0.121   5.574   6.690  1.1801 -0.0251 -0.6223
 6678SOL    HW220934  -0.018   5.635   6.632  0.5842  0.7459  1.5361
 6679SOL     OW20935   6.375   2.978   2.526  0.0478  0.1102  0.6817
 6679SOL    HW120936   6.411   2.930   2.446  0.2484  0.3296  0.6399
 6679SOL    HW220937   6.331   2.912   2.587 -3.1504  0.2917 -1.1910
 6680SOL     OW20938   5.567   4.291   3.325  0.1100 -0.1276 -0.1912
 6680SOL    HW120939   5.477   4.256   3.301 -0.5408  0.9158  0.6385
 6680SOL    HW220940   5.591   4.260   3.417  2.0038 -3.0016 -1.5148
 6681SOL     OW20941   1.244   3.639   4.906  0.0221 -0.0711 -0.0844
 6681SOL    HW120942   1.323   3.632   4.845 -0.2107 -0.4787 -0.3435
 6681SOL    HW220943   1.257   3.717   4.969  0.3920  0.1753 -0.4597
 6682SOL     OW20944   0.034   0.461   5.347 -0.6212 -1.2021 -0.8313
 6682SOL    HW120945   0.038   0.376   5.401 -2.5529 -0.5540  0.4362
 6682SOL    HW220946  -0.055   0.468   5.303 -1.1293  0.9095  0.4049
 6683SOL     OW20947   1.563   3.548   0.316 -0.0337  0.3058  0.8565
 6683SOL    HW120948   1.622   3.552   0.235  0.9359  0.1714  1.5513
 6683SOL    HW220949   1.560   3.638   0.360 -0.3315  0.3068  0.8360
 6684SOL     OW20950   1.610   2.172   5.519  0.0466 -0.0772  0.3173
 6684SOL    HW120951   1.535   2.129   5.570 -0.5126  0.3755 -0.1065
 6684SOL    HW220952   1.637   2.113   5.442  0.8245 -0.7147  1.0537
 6685SOL     OW20953   0.366   2.969   4.671 -0.5528 -0.3819  0.3403
 6685SOL    HW120954   0.373   3.017   4.758 -1.3247  0.1662  0.1106
 6685SOL    HW220955   0.360   2.870   4.687  0.2720 -0.3544  0.8545
 6686SOL     OW20956   1.375   1.313   1.449  0.0140  0.0581  0.1578
 6686SOL    HW120957   1.323   1.368   1.383  0.6627 -0.8092 -1.1092
 6686SOL    HW220958   1.313   1.248   1.494 -0.2225 -0.1707 -0.4865
 6687SOL     OW20959   2.309   3.105   5.587 -0.2263  0.6393 -0.4974
 6687SOL    HW120960   2.330   3.197   5.618  0.0714  0.4716 -0.1920
 6687SOL    HW220961   2.340   3.094   5.492  1.9133  0.1396  0.1944
 6688SOL     OW20962   2.243   0.224   3.042  0.0343 -0.5295  0.4725
 6688SOL    HW120963   2.212   0.289   2.973 -0.4781  0.4641  1.5879
 6688SOL    HW220964   2.288   0.147   2.998 -1.2880 -0.4996 -1.0260
 6689SOL     OW20965   6.667   1.749   1.261  0.5484  0.6098  0.9507
 6689SOL    HW120966   6.709   1.840   1.262 -0.8002  1.2920 -0.0506
 6689SOL    HW220967   6.738   1.679   1.271  2.1303  1.6405 -1.7784
 6690SOL     OW20968   3.752   2.459   5.444  0.3355  0.0182 -0.5804
 6690SOL    HW120969   3.690   2.536   5.426 -1.0947 -1.3941 -2.0154
 6690SOL    HW220970   3.784   2.464   5.539  1.0700  2.8677 -0.8859
 6691SOL     OW20971   1.428   0.513   1.977  0.0561 -0.4079 -0.2432
 6691SOL    HW120972   1.497   0.504   1.905 -1.5049 -1.7466 -1.6496
 6691SOL    HW220973   1.337   0.507   1.937 -0.9078  0.7096  1.6454
 6692SOL     OW20974   0.757   0.320   3.123  0.4669 -0.5107  0.4404
 6692SOL    HW120975   0.663   0.335   3.156  0.7294  1.3750  0.4616
 6692SOL    HW220976   0.756   0.252   3.050 -1.2824  1.0332 -1.0981
 6693SOL     OW20977   2.988   3.448   4.467  0.0476 -0.1888 -0.0044
 6693SOL    HW120978   2.975   3.515   4.540 -1.5284  0.5300 -0.8955
 6693SOL    HW220979   2.987   3.356   4.506 -2.8659  0.0581  0.7380
 6694SOL     OW20980   0.420   5.232   1.931 -0.6450 -0.2620  0.5413
 6694SOL    HW120981   0.383   5.283   2.008 -0.6220 -0.5299  0.7322
 6694SOL    HW220982   0.346   5.179   1.889 -0.4608 -0.9010  1.0042
 6695SOL     OW20983   3.684   5.182   6.193 -0.1740  0.2045  0.2534
 6695SOL    HW120984   3.721   5.108   6.136  0.6427  0.0656  0.9392
 6695SOL    HW220985   3.751   5.256   6.198 -0.8653  0.8695 -0.1794
 6696SOL     OW20986   3.642   3.869   4.932 -0.2800 -0.1484  0.2097
 6696SOL    HW120987   3.722   3.828   4.976 -0.5770  0.4698  1.3676
 6696SOL    HW220988   3.614   3.950   4.983 -0.3517  0.9007 -1.4339
 6697SOL     OW20989   3.427   5.802   4.036  0.4028  0.4414 -0.4560
 6697SOL    HW120990   3.400   5.887   4.080  1.0204  0.5243 -0.2371
 6697SOL    HW220991   3.349   5.739   4.037  0.3517  0.4972  0.6152
 6698SOL     OW20992   6.070   6.669   5.074 -0.4882 -0.1554  0.0971
 6698SOL    HW120993   6.085   6.743   5.008 -2.1313  0.4239  0.3172
 6698SOL    HW220994   6.007   6.601   5.035  1.9471 -2.1590 -0.5841
 6699SOL     OW20995   5.112   3.159   2.904 -0.8703  0.5700  0.0776
 6699SOL    HW120996   5.137   3.103   2.983 -0.3973  1.3954  0.5301
 6699SOL    HW220997   5.013   3.166   2.898 -0.9310  2.6281  2.1843
 6700SOL     OW20998   6.585   1.001   0.858 -0.5081 -0.5440 -0.6134
 6700SOL    HW120999   6.591   1.037   0.951 -0.5723 -0.5806 -0.5948
 6700SOL    HW221000   6.656   0.932   0.844 -1.2332 -1.3977 -0.2050
 6701SOL     OW21001   6.776   5.133   3.678  0.0799 -0.0488  0.2147
 6701SOL    HW121002   6.811   5.202   3.616  0.0573 -1.0719 -0.9767
 6701SOL    HW221003   6.679   5.117   3.661  0.2002 -0.7277  0.1062
 6702SOL     OW21004   6.950   1.176   5.537 -0.7261 -0.1804  0.4133
 6702SOL    HW121005   6.975   1.255   5.481 -0.4678  0.1106  0.9275
 6702SOL    HW221006   6.908   1.105   5.480 -1.4911  0.5591  0.0390
 6703SOL     OW21007   6.801   3.302   0.367 -0.3202 -0.1361  0.3425
 6703SOL    HW121008   6.761   3.337   0.452  3.4837 -0.2765  2.4132
 6703SOL    HW221009   6.869   3.367   0.333 -1.3689 -0.3509 -2.4042
 6704SOL     OW21010   3.478   1.757   0.320  0.3709 -0.1526 -0.0119
 6704SOL    HW121011   3.574   1.747   0.348  0.5720  0.9284 -0.2639
 6704SOL    HW221012   3.474   1.784   0.224 -0.2283 -1.1254 -0.2725
 6705SOL     OW21013   2.121   5.865   3.181 -0.3932 -0.1050  0.0996
 6705SOL    HW121014   2.040   5.818   3.146 -0.7407  0.2847  0.3654
 6705SOL    HW221015   2.111   5.964   3.165  1.1379 -0.2423 -2.1437
 6706SOL     OW21016   5.549   4.772   4.426  0.5095  0.4053  0.7254
 6706SOL    HW121017   5.595   4.807   4.508  1.3814 -1.6519  1.1771
 6706SOL    HW221018   5.522   4.849   4.368 -0.4867  1.9698  3.0837
 6707SOL     OW21019   0.395   0.484   5.542 -0.0895  0.0780  0.0843
 6707SOL    HW121020   0.441   0.567   5.512 -0.4646 -0.0623 -0.9254
 6707SOL    HW221021   0.338   0.504   5.622  0.3629  0.6280  0.2759
 6708SOL     OW21022   0.584   6.745   1.331  0.2906 -0.1336 -0.2655
 6708SOL    HW121023   0.584   6.793   1.419  0.1492 -0.9404  0.1879
 6708SOL    HW221024   0.530   6.797   1.265 -1.4626 -0.5873  0.7470
 6709SOL     OW21025   6.231   6.912   0.462 -0.3934 -0.3631  0.5917
 6709SOL    HW121026   6.192   6.968   0.388 -0.0765 -0.1215  0.6050
 6709SOL    HW221027   6.245   6.818   0.429  1.5348  0.1814 -0.2929
 6710SOL     OW21028   3.761   4.834   2.205 -0.5845 -0.0242 -0.0177
 6710SOL    HW121029   3.689   4.835   2.136 -0.4775 -0.2764 -0.1364
 6710SOL    HW221030   3.814   4.749   2.196 -0.7134 -0.1658  0.5223
 6711SOL     OW21031   5.877   2.805   2.643 -0.3668  0.5256  0.2637
 6711SOL    HW121032   5.795   2.820   2.698 -0.0429  0.5473  0.7500
 6711SOL    HW221033   5.868   2.720   2.592  0.1420 -0.5498  1.8898
 6712SOL     OW21034   0.913   6.447   3.955 -0.4758  0.4259  0.2399
 6712SOL    HW121035   0.817   6.471   3.973 -0.6394 -0.1713  0.1831
 6712SOL    HW221036   0.918   6.353   3.920  0.0953  0.5948 -0.1477
 6713SOL     OW21037   6.428   6.716   0.892 -0.4326  0.2099 -0.4698
 6713SOL    HW121038   6.506   6.655   0.883  1.9881  2.8592  0.9238
 6713SOL    HW221039   6.422   6.776   0.812  0.9153  1.9812  0.6745
 6714SOL     OW21040   0.663   1.915   0.541 -0.3451  0.3724 -0.0347
 6714SOL    HW121041   0.736   1.912   0.473 -1.8874  0.5592 -1.7831
 6714SOL    HW221042   0.702   1.926   0.632  1.8490 -1.0808 -0.7481
 6715SOL     OW21043   5.185   6.798   1.543 -0.4484 -0.0428  0.6209
 6715SOL    HW121044   5.144   6.710   1.517  0.5163 -0.4778  0.5435
 6715SOL    HW221045   5.253   6.825   1.474 -0.0706  0.3061  1.1220
 6716SOL     OW21046   5.565   3.940   2.301  0.1605  0.2485  0.7035
 6716SOL    HW121047   5.652   3.938   2.252  0.0147 -0.6008  0.4725
 6716SOL    HW221048   5.570   4.008   2.375  0.6948  0.8636  0.1127
 6717SOL     OW21049   0.325   3.648   1.726  0.2438 -0.2304  0.5038
 6717SOL    HW121050   0.378   3.672   1.808 -0.3429 -2.7900  1.7375
 6717SOL    HW221051   0.334   3.550   1.709 -1.4059 -0.1277 -1.2443
 6718SOL     OW21052   3.743   3.414   6.093  0.3688 -0.0488 -0.3155
 6718SOL    HW121053   3.842   3.418   6.080  0.3378  0.5802 -0.4056
 6718SOL    HW221054   3.721   3.425   6.190  0.3968 -0.4960 -0.2550
 6719SOL     OW21055   3.741   0.607   5.330 -0.0709  0.4572  0.0166
 6719SOL    HW121056   3.710   0.574   5.420 -0.0645  1.3593  0.3677
 6719SOL    HW221057   3.669   0.592   5.263 -0.2398  0.1432  0.2638
 6720SOL     OW21058   3.806   3.253   3.162  0.1546  0.5362  0.0444
 6720SOL    HW121059   3.734   3.198   3.118 -0.2325  0.5973  0.5963
 6720SOL    HW221060   3.796   3.248   3.261  0.5867  0.9887  0.1132
 6721SOL     OW21061   6.182   1.183   5.384 -0.1648 -0.4958  0.1405
 6721SOL    HW121062   6.258   1.236   5.420  0.4046 -1.8272  0.9792
 6721SOL    HW221063   6.196   1.166   5.287  0.1002  0.0847  0.0709
 6722SOL     OW21064   3.073   6.827   0.841 -0.3097  0.4026  0.5740
 6722SOL    HW121065   2.979   6.860   0.831 -0.8631 -1.0559  0.7528
 6722SOL    HW221066   3.073   6.728   0.846  1.4679  0.1848 -1.8953
 6723SOL     OW21067   5.486   6.605   4.418 -0.9474  0.2988  0.1615
 6723SOL    HW121068   5.480   6.510   4.449  0.9620  0.2804  0.5801
 6723SOL    HW221069   5.550   6.611   4.342  1.0696  1.6093  1.8636
 6724SOL     OW21070   0.228   0.416   3.315  0.1767 -0.3085 -0.3945
 6724SOL    HW121071   0.167   0.340   3.289  0.6609 -0.0623 -2.4022
 6724SOL    HW221072   0.173   0.490   3.355 -0.5911 -0.8627 -0.3922
 6725SOL     OW21073   4.516   0.742   5.264  0.3777 -0.5745  0.0384
 6725SOL    HW121074   4.560   0.828   5.238 -0.2634 -0.2851 -0.0963
 6725SOL    HW221075   4.503   0.739   5.363 -0.2338 -0.2030 -0.0236
 6726SOL     OW21076   6.487   1.021   6.056 -0.3280 -0.7028  0.1903
 6726SOL    HW121077   6.567   0.988   6.006 -0.7874  0.2225 -1.1827
 6726SOL    HW221078   6.413   1.042   5.992 -0.8939  0.6344  1.2402
 6727SOL     OW21079   3.165   2.231   5.820  0.0892 -0.5207  0.2638
 6727SOL    HW121080   3.179   2.140   5.782  0.0605 -0.4232  0.0219
 6727SOL    HW221081   3.125   2.291   5.751 -0.8522 -0.6016  0.7288
 6728SOL     OW21082   2.561   0.360   4.375  0.2352  0.7034  0.5105
 6728SOL    HW121083   2.502   0.365   4.456  0.1202  2.0385  0.3683
 6728SOL    HW221084   2.563   0.450   4.330  0.4516  0.0352 -0.8592
 6729SOL     OW21085   3.648   3.536   2.700 -0.4421  0.1521  0.2146
 6729SOL    HW121086   3.704   3.485   2.635 -0.2378 -0.2121  0.6632
 6729SOL    HW221087   3.663   3.499   2.792 -2.4658 -0.8852  0.1820
 6730SOL     OW21088   5.103   0.591   5.494  0.3932 -0.5119  0.3442
 6730SOL    HW121089   5.086   0.568   5.398 -0.5686 -0.5446  0.5162
 6730SOL    HW221090   5.053   0.527   5.553  2.7075 -1.9228  0.9274
 6731SOL     OW21091   5.988   4.156   2.896  0.2152  0.1062 -0.4931
 6731SOL    HW121092   5.922   4.218   2.938  1.2205  1.6951 -1.1603
 6731SOL    HW221093   6.039   4.109   2.967  0.1636  0.8547  0.0542
 6732SOL     OW21094   3.593   5.624   5.524  0.1017 -0.6203  0.0859
 6732SOL    HW121095   3.523   5.665   5.582  0.2832 -1.1374  0.6832
 6732SOL    HW221096   3.553   5.598   5.436 -0.1412  0.3060 -0.0832
 6733SOL     OW21097   4.158   3.142   1.496  0.0094  0.3223 -0.0982
 6733SOL    HW121098   4.153   3.220   1.433 -0.1168 -0.3501 -0.9249
 6733SOL    HW221099   4.225   3.162   1.567 -0.4693  1.4482  0.0654
 6734SOL     OW21100   5.741   4.069   0.710 -0.1669  0.3309  0.1586
 6734SOL    HW121101   5.747   4.044   0.613 -1.1774  0.2336  0.1156
 6734SOL    HW221102   5.713   4.164   0.718 -0.9552  0.0872  0.3573
 6735SOL     OW21103   2.351   2.379   3.598 -0.5703 -0.4637  0.2152
 6735SOL    HW121104   2.297   2.306   3.555 -0.1266 -0.5552 -0.1872
 6735SOL    HW221105   2.290   2.438   3.651 -0.9989 -0.8519  0.1636
 6736SOL     OW21106   5.599   3.385   0.501 -0.1247  0.4912  0.0125
 6736SOL    HW121107   5.504   3.365   0.475  0.2255  0.3304 -1.2042
 6736SOL    HW221108   5.651   3.412   0.420  0.4674  2.2347  0.9304
 6737SOL     OW21109   3.549   4.511   5.859 -0.1264 -0.2103  0.0090
 6737SOL    HW121110   3.556   4.569   5.940 -1.9903 -1.0223  0.8209
 6737SOL    HW221111   3.526   4.417   5.887 -1.3891 -0.3802 -1.4528
 6738SOL     OW21112   0.199   5.724   3.116  0.4903 -0.4280  0.2555
 6738SOL    HW121113   0.183   5.756   3.023 -1.1312  0.3368  0.7771
 6738SOL    HW221114   0.152   5.784   3.181  1.3528 -1.1203  1.5621
 6739SOL     OW21115   3.082   0.346   1.588 -0.0505 -0.1569 -0.1664
 6739SOL    HW121116   3.136   0.323   1.507 -0.3794  0.0744 -0.4538
 6739SOL    HW221117   2.995   0.296   1.585  0.5069 -1.2258  0.7430
 6740SOL     OW21118   5.200   5.173   5.508 -0.4242 -0.4419 -0.8747
 6740SOL    HW121119   5.135   5.099   5.527 -0.3597 -0.1928  0.3658
 6740SOL    HW221120   5.178   5.253   5.564  1.3029 -0.5594  0.0416
 6741SOL     OW21121   2.398   4.832   0.789  0.1674 -0.2383  0.1488
 6741SOL    HW121122   2.380   4.874   0.700 -1.2601 -0.4285  0.3195
 6741SOL    HW221123   2.332   4.758   0.804 -0.6553  0.7967  2.0289
 6742SOL     OW21124   4.515   0.705   2.546 -0.3615  0.5493  0.2542
 6742SOL    HW121125   4.538   0.609   2.536  0.0637  0.6293  0.4430
 6742SOL    HW221126   4.416   0.715   2.556 -0.6738  0.3331 -2.1431
 6743SOL     OW21127   6.070   6.251   1.095  0.1364  0.0849 -0.2318
 6743SOL    HW121128   6.030   6.168   1.055  1.2124 -0.1420 -0.9079
 6743SOL    HW221129   6.168   6.254   1.072 -0.2047  2.3956 -1.7093
 6744SOL     OW21130   2.340   1.212   4.510  0.1825 -0.0698 -0.2134
 6744SOL    HW121131   2.381   1.298   4.477  0.9036 -0.2767  0.1145
 6744SOL    HW221132   2.267   1.232   4.575  1.4692  0.2916  1.1729
 6745SOL     OW21133   6.821   4.536   5.178  0.6399  0.2305  0.2686
 6745SOL    HW121134   6.824   4.526   5.079  0.1684  0.4798  0.2268
 6745SOL    HW221135   6.746   4.481   5.215 -0.4284  1.6434  0.2827
 6746SOL     OW21136   4.955   0.121   5.675  0.3871 -0.3396  0.0928
 6746SOL    HW121137   4.999   0.042   5.633  0.4581 -0.9155  1.2056
 6746SOL    HW221138   4.999   0.141   5.762 -1.7851 -1.2058  1.4788
 6747SOL     OW21139   6.350   0.550   0.740  0.1140  0.0269  0.0917
 6747SOL    HW121140   6.259   0.527   0.775  0.3885  0.7995  1.3686
 6747SOL    HW221141   6.367   0.648   0.752  1.0529 -0.0747 -0.2958
 6748SOL     OW21142   2.802   1.649   6.885  0.5078  0.7636 -0.0334
 6748SOL    HW121143   2.813   1.636   6.983 -0.9098  1.4109  0.2436
 6748SOL    HW221144   2.711   1.617   6.858  2.1565 -3.0296 -1.8463
 6749SOL     OW21145   3.501   1.489   1.297 -0.0617  0.4481  0.2281
 6749SOL    HW121146   3.460   1.534   1.218 -2.0458 -0.5150  0.6315
 6749SOL    HW221147   3.515   1.555   1.371 -2.0794  0.6528  0.4946
 6750SOL     OW21148   2.178   1.715   0.021 -0.5220 -0.3972  0.0685
 6750SOL    HW121149   2.136   1.743   0.107  0.2979  1.0249  0.0352
 6750SOL    HW221150   2.108   1.707  -0.050 -0.7519  3.0334 -0.2714
 6751SOL     OW21151   6.821   0.713   2.726  0.0704  0.3358  0.0446
 6751SOL    HW121152   6.816   0.703   2.825  3.3160 -0.6820  0.2093
 6751SOL    HW221153   6.842   0.624   2.685  0.7216  1.1085 -1.3452
 6752SOL     OW21154   6.544   0.178   6.989  0.1646 -0.1227  0.2763
 6752SOL    HW121155   6.597   0.121   6.926  0.4239 -1.0349  1.2801
 6752SOL    HW221156   6.449   0.182   6.958  0.2477 -0.7062 -0.0834
 6753SOL     OW21157   3.259   3.481   4.411  0.0410  0.2634 -0.0594
 6753SOL    HW121158   3.220   3.477   4.319 -0.8312 -0.4714  0.3285
 6753SOL    HW221159   3.192   3.520   4.474  0.6423  0.7872  0.2638
 6754SOL     OW21160   3.948   1.982   0.407 -0.3767  0.1105 -0.3943
 6754SOL    HW121161   3.991   1.910   0.461 -0.6187 -0.7269 -1.2929
 6754SOL    HW221162   4.018   2.036   0.361 -0.0252  2.0540  2.1562
 6755SOL     OW21163   6.068   4.764   1.303  0.1436  0.0120 -0.1770
 6755SOL    HW121164   6.024   4.674   1.301  1.1188 -0.4828  0.0426
 6755SOL    HW221165   6.097   4.788   1.211 -0.5207  0.3153 -0.3134
 6756SOL     OW21166   1.270   5.451   6.348 -0.3700  0.2500 -0.3259
 6756SOL    HW121167   1.170   5.452   6.336 -0.5331 -1.1781  0.7280
 6756SOL    HW221168   1.311   5.519   6.286 -1.9861  0.9464 -0.6965
 6757SOL     OW21169   3.719   4.170   0.729  0.5147  0.4615 -0.4105
 6757SOL    HW121170   3.783   4.246   0.735  1.3535 -0.2954  0.7079
 6757SOL    HW221171   3.696   4.138   0.821  0.8913 -1.2027 -0.8548
 6758SOL     OW21172   3.599   6.858   2.295 -0.8514  0.5196 -0.6194
 6758SOL    HW121173   3.611   6.833   2.199 -1.4766  1.1901 -0.8793
 6758SOL    HW221174   3.687   6.888   2.332 -0.5621  0.0546 -0.9172
 6759SOL     OW21175   4.653   4.402   0.365  0.3507 -0.3549 -0.3018
 6759SOL    HW121176   4.626   4.453   0.283  0.0190 -0.8916 -0.5335
 6759SOL    HW221177   4.750   4.381   0.361  0.1868 -1.0156 -0.9178
 6760SOL     OW21178   0.409   1.395   0.981  0.0178 -0.1664  0.3532
 6760SOL    HW121179   0.334   1.448   1.020  1.1679  1.9649 -0.1743
 6760SOL    HW221180   0.495   1.442   0.997  1.0119 -1.4345 -0.9631
 6761SOL     OW21181   6.032   2.911   6.211  0.1195 -0.0590 -0.3793
 6761SOL    HW121182   6.045   2.933   6.307  1.4899 -1.0692 -0.3077
 6761SOL    HW221183   5.938   2.879   6.197 -0.5303  1.4403  0.3186
 6762SOL     OW21184   0.591   2.314   1.760  0.1937  0.6661  0.5230
 6762SOL    HW121185   0.559   2.344   1.850  0.9373  0.2153  0.9587
 6762SOL    HW221186   0.680   2.269   1.770 -0.5359 -1.0454 -0.1719
 6763SOL     OW21187   6.201   3.142   0.916  0.3391 -0.7088  0.5620
 6763SOL    HW121188   6.267   3.067   0.910  1.9098  0.7633 -2.0708
 6763SOL    HW221189   6.170   3.167   0.825 -1.3542  0.8601  1.4897
 6764SOL     OW21190   4.439   2.125   1.584  0.3714 -0.5036  0.0350
 6764SOL    HW121191   4.520   2.141   1.528  0.9019  0.4589  1.0285
 6764SOL    HW221192   4.360   2.168   1.541  1.0910  1.7486  0.8002
 6765SOL     OW21193   4.119   4.275   6.525  0.1223 -0.0190 -0.1068
 6765SOL    HW121194   4.130   4.271   6.425 -2.3437  2.3298 -0.5909
 6765SOL    HW221195   4.022   4.278   6.548  0.6154 -0.9923  2.4584
 6766SOL     OW21196   0.379   4.311   0.550  0.5331  0.0407 -0.2301
 6766SOL    HW121197   0.317   4.233   0.559  0.5633  0.1259  0.9313
 6766SOL    HW221198   0.463   4.282   0.506 -0.3748 -0.0383 -2.0003
 6767SOL     OW21199   3.571   5.707   4.588 -0.5332 -1.1211  0.5926
 6767SOL    HW121200   3.507   5.755   4.528  1.1546 -0.0651 -0.4137
 6767SOL    HW221201   3.624   5.773   4.641  1.5397 -1.8104 -0.5033
 6768SOL     OW21202   5.090   6.857   1.138 -0.2473 -0.2467 -0.1657
 6768SOL    HW121203   5.162   6.905   1.188 -0.2192  0.0228 -0.4547
 6768SOL    HW221204   5.131   6.809   1.060 -0.3368 -0.3632 -0.1402
 6769SOL     OW21205   6.633   3.722   2.123  0.1695  0.5309 -0.2370
 6769SOL    HW121206   6.673   3.688   2.209 -0.5828  1.9801  0.7344
 6769SOL    HW221207   6.704   3.768   2.069  0.4591  0.4312  0.0549
 6770SOL     OW21208   0.429   0.710   2.045  0.0325  0.0486 -0.4570
 6770SOL    HW121209   0.440   0.711   2.145  0.4886 -0.3123 -0.4994
 6770SOL    HW221210   0.331   0.704   2.023 -0.0021 -1.8595  0.0051
 6771SOL     OW21211   5.965   0.827   2.042  0.1026  0.0238 -0.3565
 6771SOL    HW121212   6.060   0.856   2.036  0.0097  0.4687  0.1935
 6771SOL    HW221213   5.910   0.879   1.977  0.5915 -1.9355 -2.4649
 6772SOL     OW21214   3.733   0.237   0.600 -0.6531 -0.1176  0.2268
 6772SOL    HW121215   3.662   0.292   0.644 -1.1187 -0.8926  0.4722
 6772SOL    HW221216   3.729   0.250   0.501 -0.7366  0.3155  0.2870
 6773SOL     OW21217   4.535   5.725   2.547  0.0759 -0.3362  0.2311
 6773SOL    HW121218   4.611   5.789   2.563 -0.0736 -0.0220 -0.2966
 6773SOL    HW221219   4.559   5.664   2.471 -0.3995  0.0937 -0.2724
 6774SOL     OW21220   2.171   1.584   1.723  0.6015 -0.0631 -0.0932
 6774SOL    HW121221   2.072   1.571   1.735  0.9174 -0.1756  3.5892
 6774SOL    HW221222   2.187   1.660   1.660 -1.7876 -0.5709 -1.4314
 6775SOL     OW21223   4.901   6.713   6.012 -0.2631  0.3899 -0.0425
 6775SOL    HW121224   4.881   6.744   5.919  1.1295  0.0046 -0.4979
 6775SOL    HW221225   4.838   6.756   6.076 -0.6601  1.3634 -1.0580
 6776SOL     OW21226   5.545   0.604   4.213  0.3764  0.8509 -0.4391
 6776SOL    HW121227   5.552   0.701   4.189  1.0862  0.5468 -1.5548
 6776SOL    HW221228   5.539   0.549   4.130  0.7410 -0.1198  0.1542
 6777SOL     OW21229   4.550   4.378   4.188  0.4940  0.6509 -0.7290
 6777SOL    HW121230   4.628   4.344   4.242  0.1026  1.4405  0.3808
 6777SOL    HW221231   4.480   4.307   4.182  0.5732  0.5269 -0.2368
 6778SOL     OW21232   1.453   5.136   4.194  0.4232  0.4430  0.1001
 6778SOL    HW121233   1.370   5.181   4.161  0.4797 -0.1721 -0.9079
 6778SOL    HW221234   1.429   5.045   4.229  0.4215  0.9310  1.4567
 6779SOL     OW21235   3.640   3.165   6.027 -0.1631  0.9545  0.4796
 6779SOL    HW121236   3.679   3.255   6.047  1.3799  0.4393 -0.1370
 6779SOL    HW221237   3.601   3.127   6.111  0.5184  1.5574  1.0873
 6780SOL     OW21238   0.103   3.150   6.121 -0.5402  0.2874  0.7844
 6780SOL    HW121239   0.102   3.225   6.055 -0.5125  0.1406  0.6145
 6780SOL    HW221240   0.191   3.102   6.116 -0.8892 -0.3137  0.2495
 6781SOL     OW21241   0.910   6.877   2.053  0.0743 -0.5436 -0.2406
 6781SOL    HW121242   0.994   6.832   2.082  0.7427  0.5629 -0.3995
 6781SOL    HW221243   0.850   6.810   2.009  0.8657 -1.3526 -0.1193
 6782SOL     OW21244   6.724   1.629   4.921  0.8205 -0.0938  0.0305
 6782SOL    HW121245   6.789   1.566   4.962 -0.3847 -2.1760 -1.1214
 6782SOL    HW221246   6.654   1.578   4.871 -1.0769  2.0942  0.2716
 6783SOL     OW21247   1.748   6.237   4.633  0.2239 -0.3530 -0.4442
 6783SOL    HW121248   1.675   6.239   4.565  0.3382 -0.3814 -0.5662
 6783SOL    HW221249   1.798   6.151   4.626  0.9552  0.1155 -1.0708
 6784SOL     OW21250   3.372   2.663   1.553 -0.4697 -0.3514 -0.0113
 6784SOL    HW121251   3.437   2.675   1.628 -0.1309 -0.5499 -0.2738
 6784SOL    HW221252   3.285   2.630   1.590 -0.5941  0.4277  0.4044
 6785SOL     OW21253   2.247   1.643   5.849 -0.1575  0.5018  0.2905
 6785SOL    HW121254   2.272   1.555   5.808  0.2065  0.6860  0.1092
 6785SOL    HW221255   2.306   1.715   5.811 -1.7262  1.1466 -1.0593
 6786SOL     OW21256   5.289   5.909   3.807 -0.2643  0.5648  0.8473
 6786SOL    HW121257   5.301   5.823   3.855 -1.3478  0.0559  0.2513
 6786SOL    HW221258   5.225   5.896   3.731  1.4058  1.3120 -0.7857
 6787SOL     OW21259   5.970   5.378   0.327  0.0423  0.2960 -0.1085
 6787SOL    HW121260   5.901   5.310   0.301  0.8076 -0.8025  0.6661
 6787SOL    HW221261   6.057   5.353   0.286  0.7922 -0.3263  1.7602
 6788SOL     OW21262   2.318   4.213   3.653  0.6805 -0.3054 -0.7441
 6788SOL    HW121263   2.333   4.117   3.627  1.3430 -0.1202 -1.0666
 6788SOL    HW221264   2.359   4.273   3.585 -0.5740  0.2355 -1.0636
 6789SOL     OW21265   3.164   5.056   5.318  0.5364  0.5830  0.7191
 6789SOL    HW121266   3.256   5.039   5.352 -0.3498 -2.4009  1.8687
 6789SOL    HW221267   3.151   5.008   5.231 -0.4403 -0.4914  1.4361
 6790SOL     OW21268   5.730   4.918   0.971 -1.0688  0.1366 -0.1968
 6790SOL    HW121269   5.733   4.825   1.006  2.4824  0.1921  0.0664
 6790SOL    HW221270   5.664   4.972   1.023 -2.4273 -1.9317  0.3300
 6791SOL     OW21271   1.224   4.977   2.251 -0.4331  0.4274  0.0557
 6791SOL    HW121272   1.231   4.907   2.180 -1.2269  0.4304 -0.0313
 6791SOL    HW221273   1.299   4.965   2.316 -0.2006 -0.1182 -0.3007
 6792SOL     OW21274   3.559   4.880   6.807 -0.4520  0.0229  0.1037
 6792SOL    HW121275   3.580   4.897   6.711 -2.0103  1.3885 -0.0389
 6792SOL    HW221276   3.603   4.949   6.864  0.6496 -0.9113  0.4269
 6793SOL     OW21277   1.470   1.486   2.591 -0.0526 -0.9551  0.2920
 6793SOL    HW121278   1.434   1.399   2.558 -1.5883 -0.2347 -0.0376
 6793SOL    HW221279   1.569   1.487   2.580 -0.2674 -1.4828 -2.6573
 6794SOL     OW21280   5.731   4.956   5.812  0.0504 -0.3374  0.2659
 6794SOL    HW121281   5.637   4.991   5.818  1.1558  2.8457  1.0067
 6794SOL    HW221282   5.761   4.924   5.902  0.2699  0.3622  0.4420
 6795SOL     OW21283   0.148   5.341   1.999 -0.0882  0.2784  0.6401
 6795SOL    HW121284   0.067   5.293   1.966 -0.0661 -0.0782  1.1036
 6795SOL    HW221285   0.182   5.297   2.082  0.5902  0.4147  0.4428
 6796SOL     OW21286   5.188   3.181   5.409  0.4589  0.1492 -0.4527
 6796SOL    HW121287   5.263   3.206   5.470 -0.9545  0.2226  1.3349
 6796SOL    HW221288   5.225   3.150   5.321  2.5423  0.3805  0.2950
 6797SOL     OW21289   6.548   0.998   6.352 -0.3032 -0.2631 -0.3207
 6797SOL    HW121290   6.519   1.093   6.344 -0.2836 -0.2619 -0.3766
 6797SOL    HW221291   6.636   0.986   6.307  0.4869  0.0531  1.0678
 6798SOL     OW21292   5.118   5.681   1.987  0.5825 -0.0424  0.2397
 6798SOL    HW121293   5.033   5.645   1.948  0.8693  1.0646 -1.5178
 6798SOL    HW221294   5.170   5.607   2.028 -0.6221 -0.9491  0.1913
 6799SOL     OW21295   4.205   3.461   6.924  0.0867 -0.5221  0.4689
 6799SOL    HW121296   4.193   3.511   7.009 -0.7426 -2.0502  1.3084
 6799SOL    HW221297   4.217   3.363   6.944 -1.0241 -1.0519 -1.1785
 6800SOL     OW21298   0.606   1.503   5.065 -0.7001 -0.0098 -0.0676
 6800SOL    HW121299   0.614   1.584   5.123 -2.1229  2.1464 -2.6330
 6800SOL    HW221300   0.659   1.516   4.981  0.5900 -2.6298  0.2323
 6801SOL     OW21301   4.921   3.528   0.290  0.6011  0.2968 -0.8382
 6801SOL    HW121302   4.951   3.499   0.199  2.2486 -1.1406  0.0859
 6801SOL    HW221303   4.991   3.587   0.331  0.1675  0.4243 -0.2753
 6802SOL     OW21304   0.451   1.548   3.917  0.1757  0.4009  0.0115
 6802SOL    HW121305   0.500   1.610   3.856 -1.4920  0.6222 -1.1611
 6802SOL    HW221306   0.360   1.530   3.880 -0.3043 -0.7305  1.6475
 6803SOL     OW21307   0.785   5.873   1.342 -0.2078  0.6152 -0.0666
 6803SOL    HW121308   0.748   5.795   1.292 -1.0817  1.2302 -0.4004
 6803SOL    HW221309   0.880   5.855   1.367  0.2662  0.3141 -1.9881
 6804SOL     OW21310   1.251   6.213   2.276  0.4753  0.1363 -0.2062
 6804SOL    HW121311   1.258   6.114   2.288 -1.1981 -0.1185 -1.0042
 6804SOL    HW221312   1.173   6.247   2.329 -0.3142  0.6635 -1.6744
 6805SOL     OW21313   5.358   2.142   6.533 -0.0408 -0.5361 -0.3646
 6805SOL    HW121314   5.420   2.156   6.455 -0.1147 -0.6523 -0.4436
 6805SOL    HW221315   5.351   2.227   6.585  1.8570 -1.0610  0.8651
 6806SOL     OW21316   3.468   5.531   0.451 -0.1858  0.6934 -0.0320
 6806SOL    HW121317   3.416   5.568   0.528  1.6064  0.4435  1.3697
 6806SOL    HW221318   3.543   5.593   0.429  0.3466 -0.0842 -0.4413
 6807SOL     OW21319   3.857   2.221   1.740  0.0236 -0.1265  0.7673
 6807SOL    HW121320   3.820   2.296   1.686  2.3650  1.1742  0.8252
 6807SOL    HW221321   3.805   2.211   1.825  0.2111  2.0388  1.1717
 6808SOL     OW21322   0.247   0.743   3.589 -0.1593 -0.0058 -0.1561
 6808SOL    HW121323   0.345   0.763   3.583 -0.1994  0.0262 -0.7400
 6808SOL    HW221324   0.198   0.823   3.624 -0.0624  0.2131 -0.5240
 6809SOL     OW21325   0.908   0.902   0.979  0.2129 -0.2877 -0.2964
 6809SOL    HW121326   0.836   0.909   1.048 -0.0091  0.0607 -0.5597
 6809SOL    HW221327   0.995   0.933   1.018 -0.0016  0.3271 -0.3062
 6810SOL     OW21328   5.818   5.789   1.343 -0.1567 -0.5712 -0.1809
 6810SOL    HW121329   5.833   5.716   1.410  0.4223  0.7810  1.2112
 6810SOL    HW221330   5.720   5.796   1.324 -0.3361 -0.9288  0.5697
 6811SOL     OW21331   1.602   2.555   5.997  0.0053  0.0338 -0.1616
 6811SOL    HW121332   1.589   2.654   5.998 -0.7441 -0.0493 -0.9373
 6811SOL    HW221333   1.662   2.530   5.921  0.3550 -0.0960  0.1533
 6812SOL     OW21334   5.144   0.426   2.627 -0.2605 -0.2258 -0.1999
 6812SOL    HW121335   5.180   0.518   2.647  1.6580 -0.7407 -1.0894
 6812SOL    HW221336   5.149   0.409   2.529 -1.1860 -1.0755 -0.1104
 6813SOL     OW21337   6.358   7.013   4.132 -0.1273  0.0617 -0.0299
 6813SOL    HW121338   6.457   7.027   4.142 -0.2400  0.6350  0.3510
 6813SOL    HW221339   6.315   7.099   4.105 -0.7529  0.2949  1.5948
 6814SOL     OW21340   2.161   1.028   3.556  0.1512 -0.0576 -0.5576
 6814SOL    HW121341   2.152   1.089   3.635 -0.7248 -0.2392 -0.5027
 6814SOL    HW221342   2.243   1.052   3.504  0.0586  0.8808 -0.2871
 6815SOL     OW21343   2.620   1.497   4.229 -0.0073 -0.1120 -0.1589
 6815SOL    HW121344   2.669   1.582   4.213  0.1514 -0.2554 -0.4435
 6815SOL    HW221345   2.532   1.517   4.273  0.1773  0.1666  0.0883
 6816SOL     OW21346   4.540   5.218   2.898 -0.0609  0.0483 -0.3483
 6816SOL    HW121347   4.559   5.122   2.918 -0.2397 -0.2823 -1.6914
 6816SOL    HW221348   4.451   5.227   2.853  0.1373  0.7871 -0.6227
 6817SOL     OW21349   0.399   4.140   2.858  0.0865  0.3839  0.4496
 6817SOL    HW121350   0.335   4.072   2.822 -0.6176  0.6707  1.1320
 6817SOL    HW221351   0.407   4.130   2.957 -1.1691  2.2033  0.7830
 6818SOL     OW21352   0.682   6.491   0.320 -1.0533 -0.1819  0.5002
 6818SOL    HW121353   0.695   6.395   0.295 -0.0983 -0.2128  1.0241
 6818SOL    HW221354   0.656   6.497   0.417  1.5102  0.1488  1.2530
 6819SOL     OW21355   0.992   5.205   3.527  0.1757  0.3536 -0.5220
 6819SOL    HW121356   1.048   5.239   3.452 -0.6454 -1.1471 -1.8945
 6819SOL    HW221357   0.962   5.112   3.506 -1.5441  0.5465  0.8735
 6820SOL     OW21358   0.994   5.037   6.502 -0.0585  0.2362 -0.7334
 6820SOL    HW121359   1.023   5.001   6.590  0.2774  2.0565 -0.0718
 6820SOL    HW221360   1.073   5.071   6.452 -0.3135 -0.3184 -1.5402
 6821SOL     OW21361   1.198   0.226   4.088 -1.1140 -0.7660 -0.5968
 6821SOL    HW121362   1.163   0.314   4.121  1.8140  0.5284 -0.5567
 6821SOL    HW221363   1.247   0.180   4.162 -0.9738 -1.5162 -1.1457
 6822SOL     OW21364   4.866   0.211   5.010  0.1204  0.3075  0.2063
 6822SOL    HW121365   4.775   0.246   5.033 -0.1243  0.6708 -1.2369
 6822SOL    HW221366   4.918   0.197   5.094 -1.7808 -1.3547  1.1816
 6823SOL     OW21367   3.501   3.809   3.472  0.1513  0.8034  0.5975
 6823SOL    HW121368   3.404   3.790   3.455 -0.1270  1.2732  1.6316
 6823SOL    HW221369   3.541   3.847   3.389 -0.3608 -0.0774 -0.0801
 6824SOL     OW21370   6.476   2.268   0.932  0.0835 -0.2483  0.5428
 6824SOL    HW121371   6.519   2.261   1.022 -0.0289  1.0801  0.7250
 6824SOL    HW221372   6.389   2.316   0.941  1.2336  2.2244 -0.5797
 6825SOL     OW21373   2.515   3.585   0.901 -0.4749 -0.2603 -0.4932
 6825SOL    HW121374   2.424   3.625   0.891 -0.3431  0.2134  0.1310
 6825SOL    HW221375   2.582   3.643   0.854 -0.3313  0.0788  0.1159
 6826SOL     OW21376   1.129   3.498   5.673 -0.3746  0.2921 -0.0181
 6826SOL    HW121377   1.136   3.549   5.758 -0.5485  1.7532 -0.8473
 6826SOL    HW221378   1.217   3.454   5.653 -0.8999 -1.8661  1.9310
 6827SOL     OW21379   4.784   4.279   2.661 -0.4482 -0.1171  0.4274
 6827SOL    HW121380   4.861   4.239   2.711 -0.4005  1.0974  1.3769
 6827SOL    HW221381   4.775   4.234   2.572  1.0433 -0.6163  0.4986
 6828SOL     OW21382   0.689   1.588   2.750  0.2244  0.1057  0.3593
 6828SOL    HW121383   0.696   1.489   2.766 -1.9069 -0.1426  0.0139
 6828SOL    HW221384   0.724   1.610   2.659  0.0466 -0.4389  0.1551
 6829SOL     OW21385   1.890   4.102   5.620  0.0386 -0.7413 -0.2354
 6829SOL    HW121386   1.976   4.143   5.652 -0.1080 -0.8610  0.3260
 6829SOL    HW221387   1.824   4.175   5.603 -0.0139 -0.6997  0.1363
 6830SOL     OW21388   2.677   0.998   5.791  0.3122 -0.0761  0.0294
 6830SOL    HW121389   2.582   0.992   5.762  0.0682 -0.1126  0.8002
 6830SOL    HW221390   2.681   1.033   5.885  1.2650  3.9490 -1.3156
 6831SOL     OW21391   1.423   5.084   0.558  0.2202  0.7602 -0.1509
 6831SOL    HW121392   1.473   5.031   0.626 -0.5868  0.3015  0.1110
 6831SOL    HW221393   1.443   5.181   0.569 -0.5971  0.7956  1.3788
 6832SOL     OW21394   1.853   2.719   0.753 -0.2900  0.3026 -0.4775
 6832SOL    HW121395   1.820   2.745   0.662 -2.0244  0.2125  0.0960
 6832SOL    HW221396   1.944   2.760   0.769  2.4331 -3.5049 -4.1093
 6833SOL     OW21397   6.463   6.549   2.711 -0.2552 -0.8057 -0.1258
 6833SOL    HW121398   6.509   6.465   2.683  0.3323 -0.7736  0.7217
 6833SOL    HW221399   6.364   6.533   2.714 -0.3180 -0.9333 -1.7494
 6834SOL     OW21400   2.636   0.930   3.046 -0.3355  0.0919  0.0735
 6834SOL    HW121401   2.544   0.942   3.085 -1.2967 -0.4065 -1.9396
 6834SOL    HW221402   2.687   0.864   3.101 -1.8584 -1.0700  0.1457
 6835SOL     OW21403   4.164   6.110   1.968 -0.0354  0.5188  0.9851
 6835SOL    HW121404   4.198   6.047   1.898 -1.1019 -0.2518  1.1515
 6835SOL    HW221405   4.121   6.059   2.042 -0.8891  1.4349  1.1458
 6836SOL     OW21406   1.731   0.462   0.984  0.3086  0.2568  0.1932
 6836SOL    HW121407   1.692   0.400   1.052 -0.8942 -0.1471 -0.8155
 6836SOL    HW221408   1.811   0.508   1.022 -0.2496 -0.0570  1.8261
 6837SOL     OW21409   2.446   5.693   3.011  0.3393 -0.0419  0.1357
 6837SOL    HW121410   2.354   5.655   3.026 -0.2853  1.9977  1.9715
 6837SOL    HW221411   2.514   5.635   3.057  0.2901 -2.4599 -2.5294
 6838SOL     OW21412   5.771   3.339   5.096 -0.0730 -0.1387 -0.0494
 6838SOL    HW121413   5.683   3.297   5.075  1.1128 -1.7267 -2.3721
 6838SOL    HW221414   5.795   3.404   5.024  1.2589 -0.8142 -0.2584
 6839SOL     OW21415   2.963   3.088   1.799  0.0171 -0.5568  0.9925
 6839SOL    HW121416   2.945   3.155   1.871  1.5625 -0.6281  1.4842
 6839SOL    HW221417   3.040   3.030   1.826  2.4277  1.0698 -1.7646
 6840SOL     OW21418   2.749   0.174   1.966  0.1561  0.6560  0.0132
 6840SOL    HW121419   2.758   0.266   1.929  1.8370  1.7558  2.7876
 6840SOL    HW221420   2.795   0.170   2.055 -1.1081 -2.4972  0.6530
 6841SOL     OW21421   4.422   1.460   2.242  0.1427  0.3666  0.7116
 6841SOL    HW121422   4.394   1.390   2.176 -0.6602  0.9372  0.4394
 6841SOL    HW221423   4.494   1.423   2.301  0.4521 -0.3499 -0.0917
 6842SOL     OW21424   2.125   6.325   6.163  0.0708  0.1515  0.2018
 6842SOL    HW121425   2.151   6.337   6.259 -2.5849  0.3767  0.9766
 6842SOL    HW221426   2.105   6.229   6.146 -2.7555  0.5212  0.9077
 6843SOL     OW21427   0.869   3.382   6.860 -0.0603 -0.3009 -0.0647
 6843SOL    HW121428   0.814   3.408   6.781 -1.5650 -0.1115  1.0113
 6843SOL    HW221429   0.841   3.436   6.940  2.6835  0.8693  0.2350
 6844SOL     OW21430   1.858   0.510   6.276  0.6159 -0.5590  0.1453
 6844SOL    HW121431   1.759   0.502   6.287  0.5585 -1.3231 -0.7982
 6844SOL    HW221432   1.896   0.421   6.251  1.6079 -0.3688  0.9012
 6845SOL     OW21433   4.952   4.368   2.243 -0.7098 -0.3480 -0.0470
 6845SOL    HW121434   4.958   4.426   2.324  1.4373 -0.3945 -0.1127
 6845SOL    HW221435   5.013   4.289   2.255 -0.8867 -0.7094 -1.4231
 6846SOL     OW21436   1.741   3.152   3.636 -0.0966 -0.0125 -0.2768
 6846SOL    HW121437   1.748   3.064   3.683 -0.6870  0.4243  0.6634
 6846SOL    HW221438   1.829   3.198   3.637  0.1779 -0.5173 -0.6408
 6847SOL     OW21439   4.087   1.453   2.097 -0.0414  0.0805  0.7227
 6847SOL    HW121440   4.036   1.367   2.100 -0.2180  0.1366 -0.1977
 6847SOL    HW221441   4.185   1.433   2.094 -0.0434 -0.0572  1.4336
 6848SOL     OW21442   4.269   0.021   6.261 -0.0572 -0.3547  0.3083
 6848SOL    HW121443   4.208  -0.025   6.196 -0.4353  1.3901 -0.6338
 6848SOL    HW221444   4.216   0.048   6.341 -0.2468  0.0317  0.0560
 6849SOL     OW21445   5.916   1.457   1.611 -0.1585 -0.2902 -0.0194
 6849SOL    HW121446   5.871   1.516   1.544 -1.4332  0.8923  1.7663
 6849SOL    HW221447   5.931   1.367   1.571  0.8477  0.8840 -2.4726
 6850SOL     OW21448   5.913   6.083   0.221 -0.0021 -0.9887  0.1000
 6850SOL    HW121449   5.885   6.172   0.184  0.2505 -0.2367  1.6423
 6850SOL    HW221450   5.869   6.010   0.169 -0.8702  0.0494 -0.6716
 6851SOL     OW21451   0.345   0.325   1.676  0.0244 -0.2316  0.6135
 6851SOL    HW121452   0.414   0.371   1.621  1.2479  0.5620  2.6951
 6851SOL    HW221453   0.275   0.390   1.705 -0.3764 -0.5466  0.3690
 6852SOL     OW21454   4.712   6.912   0.489 -0.6627  0.2961 -0.4354
 6852SOL    HW121455   4.627   6.864   0.467 -0.7472 -1.0054  2.2547
 6852SOL    HW221456   4.691   6.998   0.534 -0.8241 -1.5928  3.5196
 6853SOL     OW21457   4.440   2.122   0.187 -0.2551  0.1294 -0.1050
 6853SOL    HW121458   4.481   2.207   0.222  1.1613 -0.0916 -1.1351
 6853SOL    HW221459   4.434   2.126   0.088 -1.1491 -0.5674 -0.0901
 6854SOL     OW21460   3.120   2.530   0.964  0.1828 -0.3634 -0.0920
 6854SOL    HW121461   3.102   2.580   0.879 -1.1752  0.3422  0.5900
 6854SOL    HW221462   3.135   2.434   0.943 -0.3778 -0.2429 -1.1128
 6855SOL     OW21463   0.097   6.324   2.577 -0.4017 -0.2950 -0.2132
 6855SOL    HW121464   0.081   6.236   2.621 -0.3802 -0.2904 -0.1966
 6855SOL    HW221465   0.124   6.310   2.482 -1.3397 -0.2751 -0.4965
 6856SOL     OW21466   4.954   6.122   0.640 -0.2297 -0.4433  0.0229
 6856SOL    HW121467   5.002   6.079   0.564 -0.4879 -1.1419  0.2509
 6856SOL    HW221468   4.868   6.161   0.608 -0.0157 -0.1229 -0.1730
 6857SOL     OW21469   6.121   5.861   0.869  0.1756  0.7664  0.6356
 6857SOL    HW121470   6.197   5.867   0.934  0.3162  0.3839  0.5097
 6857SOL    HW221471   6.134   5.781   0.810 -1.1034 -0.2057  1.6185
 6858SOL     OW21472   4.657   1.574   3.041  0.6359  0.6574 -0.0137
 6858SOL    HW121473   4.668   1.572   2.942 -0.4601  0.0679 -0.1432
 6858SOL    HW221474   4.717   1.644   3.080  2.7370 -0.5626 -0.8597
 6859SOL     OW21475   1.095   0.602   2.217 -0.0386 -0.4107 -0.3643
 6859SOL    HW121476   1.036   0.631   2.293 -1.8395 -1.6143 -1.2481
 6859SOL    HW221477   1.125   0.508   2.232 -0.9527 -0.8933 -1.4231
 6860SOL     OW21478   1.532   1.769   6.272 -0.3747  0.3375 -0.1574
 6860SOL    HW121479   1.599   1.700   6.297  0.7017  0.4295 -2.5357
 6860SOL    HW221480   1.469   1.784   6.349  2.3831  0.3889  2.2571
 6861SOL     OW21481   6.744   4.120   0.549 -0.2629  0.1765  0.5787
 6861SOL    HW121482   6.743   4.205   0.602 -1.6276  0.3135  0.3774
 6861SOL    HW221483   6.687   4.131   0.468  1.0778 -0.3286 -0.4567
 6862SOL     OW21484   4.142   5.933   5.254 -0.0484 -0.3635  0.5436
 6862SOL    HW121485   4.206   5.879   5.309  1.0435 -0.7074 -1.0267
 6862SOL    HW221486   4.192   6.004   5.204 -0.9887 -0.1991 -0.1858
 6863SOL     OW21487   3.010   1.594   4.694  0.5382  0.0786 -0.1534
 6863SOL    HW121488   2.955   1.676   4.704  0.2230 -0.1583  0.0558
 6863SOL    HW221489   3.099   1.608   4.737  0.7139  0.5244 -0.6477
 6864SOL     OW21490   1.204   4.961   3.871 -0.2277  0.3206  0.0461
 6864SOL    HW121491   1.117   5.002   3.899 -1.0145 -0.0178 -1.7685
 6864SOL    HW221492   1.187   4.894   3.799  1.5548  0.3238 -0.4121
 6865SOL     OW21493   3.796   7.010   0.672  0.2962  0.0335  0.0282
 6865SOL    HW121494   3.790   7.108   0.657  0.3138  0.0807  0.3302
 6865SOL    HW221495   3.704   6.971   0.672  0.3264 -0.0550 -0.7749
 6866SOL     OW21496   3.166   0.855   5.645 -0.3700 -0.7256 -0.4159
 6866SOL    HW121497   3.094   0.886   5.583 -0.1296  0.1618 -0.2696
 6866SOL    HW221498   3.170   0.916   5.724 -1.4026 -2.4692  1.0429
 6867SOL     OW21499   6.414   3.956   3.487 -0.0168 -0.2793 -0.4466
 6867SOL    HW121500   6.513   3.966   3.496  0.6024 -2.4176 -3.2848
 6867SOL    HW221501   6.386   3.867   3.522 -0.7872 -0.1001 -0.5797
 6868SOL     OW21502   0.797   4.399   5.534  0.0216  0.1452 -0.3961
 6868SOL    HW121503   0.846   4.480   5.502 -0.6277  0.6465 -0.1513
 6868SOL    HW221504   0.850   4.317   5.513  1.5037  0.7325  0.8655
 6869SOL     OW21505   3.882   4.342   1.203  0.6402 -0.1170  0.2673
 6869SOL    HW121506   3.894   4.434   1.167 -1.5800  0.4963  0.9256
 6869SOL    HW221507   3.917   4.275   1.138  1.4692  1.1405 -0.6186
 6870SOL     OW21508   0.637   0.002   0.276  0.6633  0.3025  0.3649
 6870SOL    HW121509   0.704  -0.056   0.321  1.5866 -0.0558 -1.3727
 6870SOL    HW221510   0.677   0.092   0.259 -0.5842  1.3673  2.5741
 6871SOL     OW21511   1.712   5.773   5.658 -0.0954 -0.3143 -0.5661
 6871SOL    HW121512   1.652   5.788   5.579  0.7843 -0.8882 -1.3541
 6871SOL    HW221513   1.678   5.695   5.711 -1.7856  1.2097  0.7298
 6872SOL     OW21514   1.769   3.847   0.122 -0.4420 -0.6449 -0.4176
 6872SOL    HW121515   1.846   3.818   0.178 -0.5118 -0.7872 -0.3952
 6872SOL    HW221516   1.771   3.947   0.111 -2.1892 -0.1731  2.4800
 6873SOL     OW21517   2.947   0.744   3.376 -0.3285 -0.2502  0.0515
 6873SOL    HW121518   2.993   0.830   3.397  1.0113 -0.5898 -1.3530
 6873SOL    HW221519   3.010   0.683   3.329 -2.3884 -0.4419 -2.6681
 6874SOL     OW21520   2.094   6.178   0.611  0.0678 -0.6815 -0.2790
 6874SOL    HW121521   2.180   6.220   0.583  0.1360 -0.7597 -0.1869
 6874SOL    HW221522   2.022   6.248   0.611  0.2896 -0.4476  0.3785
 6875SOL     OW21523   3.660   2.156   5.177  0.1083 -0.0193 -0.1690
 6875SOL    HW121524   3.664   2.155   5.277 -1.0642  0.6810 -0.0973
 6875SOL    HW221525   3.565   2.145   5.148  0.0519  2.3033 -1.1198
 6876SOL     OW21526   4.099   1.373   1.448 -0.5409  0.2761 -0.1994
 6876SOL    HW121527   4.104   1.472   1.432 -0.9594  0.4115  0.4520
 6876SOL    HW221528   4.170   1.327   1.394 -0.7205  0.8703 -0.9647
 6877SOL     OW21529   1.647   5.454   6.186  0.2421 -0.6495  0.3611
 6877SOL    HW121530   1.548   5.469   6.181  0.5102  1.6319  0.6942
 6877SOL    HW221531   1.677   5.399   6.109 -0.9158  1.0974 -1.4417
 6878SOL     OW21532   1.699   4.540   3.656  0.5214  0.6869 -0.4077
 6878SOL    HW121533   1.720   4.638   3.651  1.7945  0.5685  1.4704
 6878SOL    HW221534   1.783   4.490   3.676 -0.0410 -0.8667 -1.7481
 6879SOL     OW21535   4.081   0.149   4.426  0.0327 -0.6838 -0.4798
 6879SOL    HW121536   4.176   0.118   4.419  0.2545 -0.1954  0.3031
 6879SOL    HW221537   4.048   0.176   4.336  1.3361  1.1692 -0.4615
 6880SOL     OW21538   2.593   6.024   3.269 -0.1259 -0.1793 -0.3753
 6880SOL    HW121539   2.543   5.964   3.207 -0.3984  1.8059 -2.1665
 6880SOL    HW221540   2.686   5.989   3.282  0.7465  0.5348 -3.8429
 6881SOL     OW21541   5.043   1.159   5.622  0.2249  0.3135  0.1136
 6881SOL    HW121542   5.103   1.088   5.586  0.5197  0.3049  0.6151
 6881SOL    HW221543   5.075   1.249   5.590  0.4753  0.3043  0.3342
 6882SOL     OW21544   6.599   3.068   0.716  0.3830 -0.1379 -0.0003
 6882SOL    HW121545   6.592   3.100   0.810  0.7897  2.7800 -0.8592
 6882SOL    HW221546   6.518   3.095   0.665  0.2166 -1.5858 -0.5747
 6883SOL     OW21547   6.687   3.133   5.036 -0.2844 -0.1830 -0.1645
 6883SOL    HW121548   6.720   3.039   5.041 -0.2748 -0.2780 -1.5765
 6883SOL    HW221549   6.599   3.140   5.082 -0.4569 -0.9717 -0.3605
 6884SOL     OW21550   3.638   6.276   0.891  0.0855 -0.2512  0.1313
 6884SOL    HW121551   3.629   6.232   0.980  0.2921 -0.3309  0.1127
 6884SOL    HW221552   3.728   6.319   0.884  0.5007 -1.1775 -0.4526
 6885SOL     OW21553   4.854   3.826   2.136  0.0737 -0.2930 -0.5125
 6885SOL    HW121554   4.848   3.731   2.106 -1.3320 -0.5312  0.4423
 6885SOL    HW221555   4.828   3.887   2.061  1.6593 -0.6002 -1.3479
 6886SOL     OW21556   6.126   6.354   5.376  0.0846 -0.3168  0.1622
 6886SOL    HW121557   6.082   6.436   5.412  0.9162 -0.2841  1.1333
 6886SOL    HW221558   6.221   6.350   5.407 -0.0706 -1.8760  0.5278
 6887SOL     OW21559   5.528   1.692   5.349  0.3019  0.2301 -0.2309
 6887SOL    HW121560   5.565   1.625   5.286  0.5902 -0.3719  0.5649
 6887SOL    HW221561   5.436   1.720   5.319  0.4832  0.0379 -0.9625
 6888SOL     OW21562   5.827   6.217   1.731 -0.2758 -0.3592  0.0493
 6888SOL    HW121563   5.925   6.203   1.718  0.0166 -1.9100  2.9010
 6888SOL    HW221564   5.812   6.304   1.778 -0.3249  0.0996 -0.8059
 6889SOL     OW21565   6.218   5.358   4.928  0.2293 -0.2169 -0.1978
 6889SOL    HW121566   6.274   5.308   4.863  2.4661  1.5092  0.2631
 6889SOL    HW221567   6.273   5.380   5.009 -1.6810  0.0205  1.1052
 6890SOL     OW21568   3.596   0.055   2.689  0.3838 -0.5147  0.2181
 6890SOL    HW121569   3.581   0.125   2.618  0.2416  1.4746  2.1109
 6890SOL    HW221570   3.532  -0.021   2.673  1.9301 -1.3229 -3.0953
 6891SOL     OW21571   4.023   3.231   4.600 -0.2465  0.0449  0.2124
 6891SOL    HW121572   3.979   3.191   4.680 -0.4549 -1.4790 -0.6305
 6891SOL    HW221573   4.032   3.330   4.613 -0.4345 -0.1440  2.0202
 6892SOL     OW21574   1.346   4.364   4.690  0.5795  0.7286 -0.3278
 6892SOL    HW121575   1.305   4.373   4.781  1.2467 -0.2281  0.0883
 6892SOL    HW221576   1.290   4.413   4.623 -0.5080  0.5551  0.4263
 6893SOL     OW21577   2.707   6.294   4.977  0.1862  0.1634  0.0277
 6893SOL    HW121578   2.622   6.338   4.947  0.0187  0.8292  1.3750
 6893SOL    HW221579   2.745   6.240   4.902 -0.2657  1.6137 -1.3050
 6894SOL     OW21580   6.392   2.463   0.690 -0.0375  0.0584 -0.0373
 6894SOL    HW121581   6.489   2.484   0.701  0.0414 -0.3770  0.0880
 6894SOL    HW221582   6.381   2.379   0.637 -0.3573  0.3868 -0.4972
 6895SOL     OW21583   1.906   1.867   5.359 -0.3359  0.3130  0.1975
 6895SOL    HW121584   1.971   1.808   5.311 -0.5667  1.6351 -1.8693
 6895SOL    HW221585   1.954   1.914   5.434  0.6584 -0.0548 -0.1861
 6896SOL     OW21586   0.713   4.034   0.303  0.1991  0.6088 -0.0362
 6896SOL    HW121587   0.721   4.062   0.208  0.3287 -1.9750 -0.8669
 6896SOL    HW221588   0.755   3.944   0.315  1.3533  1.4157  2.7787
 6897SOL     OW21589   0.558   3.391   1.223  0.0617 -0.0975 -0.0351
 6897SOL    HW121590   0.597   3.343   1.302 -0.0858 -0.4115 -0.1509
 6897SOL    HW221591   0.482   3.338   1.186  0.5907 -0.3228 -0.8375
 6898SOL     OW21592   1.329   3.034   2.727 -0.3277 -0.5111  0.2646
 6898SOL    HW121593   1.387   3.110   2.758 -1.6241  0.2167  1.0375
 6898SOL    HW221594   1.362   2.999   2.640  0.7421  0.4600  0.2634
 6899SOL     OW21595   6.695   6.351   4.385  0.5849  0.0518 -0.3157
 6899SOL    HW121596   6.674   6.294   4.306 -0.9717  0.2349 -0.0496
 6899SOL    HW221597   6.665   6.306   4.469 -2.0265  1.8171 -0.2000
 6900SOL     OW21598   5.372   2.331   3.791 -0.1423 -0.1356 -0.4110
 6900SOL    HW121599   5.352   2.316   3.888  1.3111 -2.5546 -0.4159
 6900SOL    HW221600   5.458   2.380   3.782  0.2116 -0.7596 -0.4697
 6901SOL     OW21601   5.587   1.944   3.334  0.2702 -0.5403  0.0984
 6901SOL    HW121602   5.686   1.942   3.350  0.6014 -0.2728 -1.7280
 6901SOL    HW221603   5.541   1.982   3.414  2.1418  4.7679 -0.9709
 6902SOL     OW21604   4.760   5.140   0.346 -0.1535  0.0093  0.1057
 6902SOL    HW121605   4.821   5.112   0.420  0.7125  4.1135  1.1993
 6902SOL    HW221606   4.669   5.158   0.383 -0.2818  0.0786 -0.2390
 6903SOL     OW21607   1.005   0.507   1.478  0.2106  0.0131 -0.4275
 6903SOL    HW121608   0.919   0.542   1.514 -0.5876 -0.5439 -1.7370
 6903SOL    HW221609   1.011   0.526   1.380  1.0746 -0.9148 -0.5724
 6904SOL     OW21610   3.088   3.580   1.300 -0.2061  0.0430 -0.0095
 6904SOL    HW121611   3.132   3.509   1.245 -0.5787  0.4133 -0.8044
 6904SOL    HW221612   3.158   3.640   1.339  0.0350  0.1418 -0.5854
 6905SOL     OW21613   2.257   0.321   5.455  0.0172 -0.7200  0.2687
 6905SOL    HW121614   2.270   0.388   5.383 -0.7291 -2.1244 -1.2490
 6905SOL    HW221615   2.342   0.271   5.471 -0.4075 -2.1188 -1.5032
 6906SOL     OW21616   6.514   1.620   3.508 -0.7317 -0.8461 -0.0478
 6906SOL    HW121617   6.480   1.557   3.577  0.3062 -3.3824 -1.7232
 6906SOL    HW221618   6.436   1.664   3.462 -1.4680 -0.6440  1.3512
 6907SOL     OW21619   5.772   0.297   4.940 -0.1518 -0.1234 -0.4460
 6907SOL    HW121620   5.796   0.272   4.846  0.9525  1.6769 -0.6886
 6907SOL    HW221621   5.677   0.273   4.958 -0.1483 -1.2342 -1.7353
 6908SOL     OW21622   2.009   6.686   3.341  0.0603  0.2490  0.8619
 6908SOL    HW121623   2.107   6.674   3.358  0.3575 -1.3503 -1.4951
 6908SOL    HW221624   1.994   6.767   3.285  0.2393 -0.4254 -0.1793
 6909SOL     OW21625   3.196   5.500   6.887 -0.0068  0.4028 -0.2328
 6909SOL    HW121626   3.102   5.521   6.860  0.2284  0.3140 -1.1605
 6909SOL    HW221627   3.195   5.438   6.965 -0.7541 -0.9029 -1.2200
 6910SOL     OW21628   3.055   5.522   6.250 -0.3565  0.0547  0.1751
 6910SOL    HW121629   3.126   5.570   6.199  0.2860 -1.6529 -0.6254
 6910SOL    HW221630   3.093   5.437   6.287 -1.7211 -0.3856  0.6066
 6911SOL     OW21631   3.677   0.221   5.829 -0.3914 -0.1492 -0.3607
 6911SOL    HW121632   3.582   0.212   5.798 -0.4861  0.2567 -0.1974
 6911SOL    HW221633   3.689   0.171   5.914 -1.0929  1.7209  0.9196
 6912SOL     OW21634   2.309   4.342   1.564  0.0235  0.6257 -0.4895
 6912SOL    HW121635   2.229   4.386   1.604 -0.8676 -3.6772  3.3193
 6912SOL    HW221636   2.281   4.278   1.494 -0.0139 -0.9371  0.8952
 6913SOL     OW21637   1.027   0.831   0.730  0.1402  0.0465  0.1157
 6913SOL    HW121638   0.984   0.877   0.808 -0.0584  3.1219 -1.6810
 6913SOL    HW221639   1.119   0.801   0.757 -0.2292  0.2689  1.7644
 6914SOL     OW21640   0.048   2.104   0.002 -0.4196 -0.2175  0.5242
 6914SOL    HW121641   0.072   2.200   0.016 -0.7986 -0.3658  2.4109
 6914SOL    HW221642   0.111   2.046   0.053 -0.5924 -0.9522 -0.0759
 6915SOL     OW21643   5.935   1.691   0.478  0.7878  0.0966  0.7781
 6915SOL    HW121644   5.911   1.617   0.540  0.5533 -0.0189  0.5539
 6915SOL    HW221645   5.961   1.653   0.389 -0.7146  0.3453  0.2139
 6916SOL     OW21646   5.726   1.499   3.719  0.3285  0.1664 -0.2035
 6916SOL    HW121647   5.761   1.565   3.652 -1.0662 -1.1370 -2.3373
 6916SOL    HW221648   5.703   1.547   3.803  1.2539  2.0606 -0.9617
 6917SOL     OW21649   1.946   0.867   0.581  0.2957 -0.1745  0.3254
 6917SOL    HW121650   1.937   0.787   0.641 -0.6260 -0.8873 -0.7126
 6917SOL    HW221651   2.006   0.934   0.624 -1.0938 -0.2189  2.4842
 6918SOL     OW21652   5.669   3.699   6.626  0.1008  0.0633 -0.4158
 6918SOL    HW121653   5.696   3.606   6.600 -0.6523  0.0895 -1.3576
 6918SOL    HW221654   5.640   3.749   6.544 -0.3082  0.8585  0.2028
 6919SOL     OW21655   1.245   4.786   2.037  0.1887 -0.3316 -0.1372
 6919SOL    HW121656   1.334   4.766   1.996  0.0915  1.1956 -1.1979
 6919SOL    HW221657   1.191   4.842   1.973 -1.6021 -1.3504  0.4196
 6920SOL     OW21658   0.840   2.069   1.790 -0.0653 -0.1298 -0.4816
 6920SOL    HW121659   0.905   1.994   1.786 -1.1609 -1.1898  0.6629
 6920SOL    HW221660   0.845   2.122   1.705  2.3366 -0.0764 -0.3667
 6921SOL     OW21661   6.694   1.196   1.653 -0.2060 -0.3938  0.0917
 6921SOL    HW121662   6.610   1.169   1.607 -0.1767 -0.2382 -0.0570
 6921SOL    HW221663   6.676   1.214   1.749 -0.5463  0.5954 -0.1398
 6922SOL     OW21664   4.037   1.851   1.634 -0.3486  0.2144 -0.1276
 6922SOL    HW121665   4.048   1.928   1.571  0.3050 -0.4206 -0.8010
 6922SOL    HW221666   4.032   1.886   1.728 -1.6806  1.1890 -0.5318
 6923SOL     OW21667   4.905   0.286   6.310 -0.7097 -0.1243  0.1629
 6923SOL    HW121668   4.983   0.270   6.249 -0.4295  1.4768  0.0652
 6923SOL    HW221669   4.896   0.210   6.374  0.5638 -0.6074 -0.2133
 6924SOL     OW21670   0.562   1.948   2.972 -0.1605  0.1266  0.4051
 6924SOL    HW121671   0.647   1.897   2.984 -0.4903 -0.4320  0.3826
 6924SOL    HW221672   0.573   2.014   2.898  0.3092  0.1790  0.5185
 6925SOL     OW21673   0.145   4.048   4.705 -0.1249 -0.4157  0.2227
 6925SOL    HW121674   0.100   4.035   4.616  0.8108 -0.2246 -0.2937
 6925SOL    HW221675   0.085   4.100   4.765 -0.5350 -0.0291 -0.5038
 6926SOL     OW21676   3.527   0.448   5.238  0.0739  0.1115  0.1605
 6926SOL    HW121677   3.538   0.379   5.310  1.0505 -1.2805 -1.2697
 6926SOL    HW221678   3.439   0.494   5.250  0.8150  1.0137  3.1201
 6927SOL     OW21679   1.137   3.314   6.914 -0.4254  0.1144 -0.1692
 6927SOL    HW121680   1.058   3.375   6.924  0.2782  1.3349 -1.6931
 6927SOL    HW221681   1.169   3.317   6.819  0.7650 -1.2407  0.1652
 6928SOL     OW21682   2.822   4.087   6.322  0.1011  0.6013 -0.0122
 6928SOL    HW121683   2.823   3.987   6.320  1.6474  0.5900  0.5025
 6928SOL    HW221684   2.799   4.119   6.414 -2.6701  0.7854 -0.6623
 6929SOL     OW21685   5.512   3.007   1.104 -0.1799  0.6868  0.4677
 6929SOL    HW121686   5.542   3.077   1.039 -1.9441 -1.3029 -2.7070
 6929SOL    HW221687   5.553   2.919   1.081 -2.7401 -0.5918  0.4233
 6930SOL     OW21688   2.288   3.773   5.285 -0.3028 -0.0776 -0.4113
 6930SOL    HW121689   2.265   3.702   5.218  0.0003 -0.0935 -0.4996
 6930SOL    HW221690   2.351   3.838   5.244 -0.9081  0.4859 -0.4714
 6931SOL     OW21691   1.446   5.850   3.611  0.3905  0.0835  0.1272
 6931SOL    HW121692   1.463   5.946   3.588 -0.2276 -0.0018 -0.7130
 6931SOL    HW221693   1.523   5.815   3.665  0.4917  1.1301  0.6950
 6932SOL     OW21694   2.576   0.106   6.410 -0.4119  0.2157 -0.5126
 6932SOL    HW121695   2.625   0.130   6.326  1.1349 -1.9343 -0.3095
 6932SOL    HW221696   2.514   0.180   6.435  1.2137  2.1482 -1.9444
 6933SOL     OW21697   5.365   1.274   5.761 -0.0367  0.0452  0.0451
 6933SOL    HW121698   5.357   1.199   5.695  0.4873  0.6938 -0.7807
 6933SOL    HW221699   5.461   1.290   5.783 -0.2371 -0.5820  1.4832
 6934SOL     OW21700   6.216   2.446   5.272  0.0068  0.6120  0.1078
 6934SOL    HW121701   6.207   2.438   5.173  0.8355 -0.8945  0.1292
 6934SOL    HW221702   6.128   2.425   5.315  0.4317 -2.0486 -0.1871
 6935SOL     OW21703   5.887   0.792   1.090  0.1810 -0.4801  0.0746
 6935SOL    HW121704   5.787   0.790   1.081  0.2021 -0.0066 -0.2892
 6935SOL    HW221705   5.921   0.699   1.107 -0.0209 -1.1790 -2.8978
 6936SOL     OW21706   5.166   6.081   2.873  0.0765 -0.4151 -0.1459
 6936SOL    HW121707   5.132   6.066   2.966  0.8707 -0.6555  0.1099
 6936SOL    HW221708   5.261   6.051   2.867 -0.5067 -2.1612 -1.5096
 6937SOL     OW21709   1.662   5.985   0.692 -0.6092 -0.4127  0.4863
 6937SOL    HW121710   1.729   5.916   0.719 -0.5794 -0.6814 -0.2464
 6937SOL    HW221711   1.658   6.057   0.761  1.2192  0.1713  0.0214
 6938SOL     OW21712   4.114   6.451   1.044 -0.1209 -0.2500  0.4639
 6938SOL    HW121713   4.180   6.510   0.997  0.8359 -0.9962  0.8279
 6938SOL    HW221714   4.110   6.476   1.141 -0.5334 -0.0697  0.4006
 6939SOL     OW21715   5.305   1.744   0.968  0.4085 -0.0229 -0.1178
 6939SOL    HW121716   5.296   1.652   0.930  0.2827  0.5143 -1.4644
 6939SOL    HW221717   5.400   1.773   0.966  0.1340  1.0095 -2.6545
 6940SOL     OW21718   6.780   5.789   6.326 -0.0270  0.1212 -0.4099
 6940SOL    HW121719   6.793   5.888   6.323  0.9430  0.0078 -0.5168
 6940SOL    HW221720   6.865   5.744   6.298 -0.3229 -0.7392  0.0355
 6941SOL     OW21721   0.838   2.484   6.928  0.9380 -0.0775 -0.1817
 6941SOL    HW121722   0.856   2.524   7.018  0.9950  0.0235 -0.2372
 6941SOL    HW221723   0.830   2.557   6.860  0.8582 -0.1515 -0.2522
 6942SOL     OW21724   1.411   4.260   2.568 -0.4801 -0.2176 -0.1427
 6942SOL    HW121725   1.462   4.329   2.517  1.6149 -2.3494 -1.1266
 6942SOL    HW221726   1.451   4.248   2.659 -0.4362 -0.5353 -0.2005
 6943SOL     OW21727   3.763   5.262   4.087 -0.2490 -0.4366  0.4562
 6943SOL    HW121728   3.862   5.245   4.093 -0.2850 -1.1572 -0.6282
 6943SOL    HW221729   3.714   5.175   4.086 -0.6950 -0.2266 -1.6128
 6944SOL     OW21730   5.460   0.245   6.164  0.3747 -0.1479 -0.1487
 6944SOL    HW121731   5.547   0.250   6.115  0.4601  0.2170  0.0344
 6944SOL    HW221732   5.468   0.182   6.241 -0.3180 -2.2308 -1.6960
 6945SOL     OW21733   0.366   5.538   1.756  0.2089  0.1931 -0.4880
 6945SOL    HW121734   0.345   5.521   1.853  3.0286 -0.6187  0.0657
 6945SOL    HW221735   0.450   5.491   1.732  0.4941  1.7914 -2.9100
 6946SOL     OW21736   6.701   3.340   0.655 -0.0908  0.3738  0.1972
 6946SOL    HW121737   6.635   3.415   0.653 -0.2324  0.2391 -1.2625
 6946SOL    HW221738   6.657   3.258   0.691 -0.2742  0.6732  0.6655
 6947SOL     OW21739   0.868   2.497   2.562  0.0875 -0.3562 -0.2922
 6947SOL    HW121740   0.965   2.508   2.581  0.1882  0.5209 -1.2141
 6947SOL    HW221741   0.834   2.578   2.513 -1.3461 -0.1555  0.9447
 6948SOL     OW21742   5.157   3.566   6.663 -0.1774 -0.1081 -0.4318
 6948SOL    HW121743   5.180   3.616   6.746 -0.9471 -1.3523  0.5574
 6948SOL    HW221744   5.241   3.525   6.625  0.8765  3.4438 -2.4086
 6949SOL     OW21745   0.587   3.825   1.094  0.2294 -0.5740  0.4236
 6949SOL    HW121746   0.684   3.815   1.072  0.0522 -0.2770 -0.5474
 6949SOL    HW221747   0.572   3.914   1.138  0.7831 -1.6698  3.0606
 6950SOL     OW21748   3.931   3.189   0.101  0.3732 -0.8113  0.5701
 6950SOL    HW121749   3.918   3.269   0.160  2.3361 -1.4236  1.9231
 6950SOL    HW221750   3.846   3.170   0.052 -0.6668  1.0361  1.5486
 6951SOL     OW21751   1.625   0.417   2.543 -0.2631 -0.0483 -0.1376
 6951SOL    HW121752   1.620   0.514   2.521  0.6932  0.2840  1.0068
 6951SOL    HW221753   1.593   0.363   2.465 -0.2909  1.1594 -0.9850
 6952SOL     OW21754   5.281   4.851   5.999 -0.6059 -0.1776 -0.0451
 6952SOL    HW121755   5.282   4.950   5.985  1.0732 -0.4731 -2.7524
 6952SOL    HW221756   5.375   4.818   6.014 -1.0004 -1.4698 -0.2585
 6953SOL     OW21757   1.732   2.557   3.031  0.5564 -0.2320  0.0411
 6953SOL    HW121758   1.822   2.587   3.000  0.5417 -1.1156 -0.9145
 6953SOL    HW221759   1.676   2.531   2.952 -0.4366  0.0175  0.6422
 6954SOL     OW21760   3.690   3.543   6.944 -0.0923 -0.9476  0.5050
 6954SOL    HW121761   3.602   3.518   6.902 -0.8658  0.7195  1.0333
 6954SOL    HW221762   3.755   3.469   6.932 -1.3176 -1.8809 -0.6556
 6955SOL     OW21763   2.258   6.241   1.521 -0.0642 -0.1622 -0.2712
 6955SOL    HW121764   2.298   6.301   1.452 -0.0927 -3.4938 -3.4885
 6955SOL    HW221765   2.323   6.229   1.596  0.9100  1.8937 -0.7095
 6956SOL     OW21766   2.847   4.524   1.465 -0.3983 -0.0136 -0.4599
 6956SOL    HW121767   2.912   4.550   1.536 -1.1982 -1.0317  0.6959
 6956SOL    HW221768   2.852   4.589   1.390  0.9287  0.7322  0.2372
 6957SOL     OW21769   4.937   5.546   2.970 -0.0955 -0.0746 -0.5421
 6957SOL    HW121770   4.983   5.571   3.055 -0.7542  1.9945 -0.7511
 6957SOL    HW221771   4.846   5.510   2.990  0.4040 -1.2627 -0.3076
 6958SOL     OW21772   5.575   5.711   5.982  0.2385  0.3405 -0.9721
 6958SOL    HW121773   5.607   5.743   5.892  1.9762 -0.4840 -0.6991
 6958SOL    HW221774   5.645   5.651   6.022 -0.8949 -0.0079  0.5551
 6959SOL     OW21775   4.623   4.473   2.481 -0.1239  0.7739 -0.1868
 6959SOL    HW121776   4.692   4.436   2.543 -1.9348 -1.2853  0.7600
 6959SOL    HW221777   4.661   4.482   2.389  1.2748 -0.8017  0.1850
 6960SOL     OW21778   0.099   5.041   6.886 -0.6484 -0.4054 -0.1992
 6960SOL    HW121779   0.113   5.122   6.943  0.5663 -2.3575  2.5074
 6960SOL    HW221780   0.006   5.041   6.850 -1.2661  1.2716  1.2498
 6961SOL     OW21781   3.835   1.607   0.173  0.5236 -0.4388  0.3827
 6961SOL    HW121782   3.818   1.648   0.083  0.5020  0.9397  0.9966
 6961SOL    HW221783   3.934   1.599   0.188  0.5273 -0.6512  0.2524
 6962SOL     OW21784   1.512   1.897   4.725 -0.1893 -0.0162 -0.5266
 6962SOL    HW121785   1.432   1.942   4.765 -0.0864  0.0705 -0.4173
 6962SOL    HW221786   1.594   1.950   4.747 -0.0547 -0.3112 -0.3130
 6963SOL     OW21787   4.625   2.782   6.182 -0.0075  0.7121 -0.2380
 6963SOL    HW121788   4.723   2.785   6.161 -0.2064  0.1850 -1.2616
 6963SOL    HW221789   4.577   2.850   6.127 -0.3167  0.4830 -0.2505
 6964SOL     OW21790   1.876   5.824   3.895  0.6904 -0.5406  0.2345
 6964SOL    HW121791   1.879   5.865   3.986  2.0824  1.2913 -0.5801
 6964SOL    HW221792   1.921   5.734   3.898  1.0611 -0.3367  1.2661
 6965SOL     OW21793   4.409   2.333   2.860 -0.0177 -0.1658 -0.3299
 6965SOL    HW121794   4.366   2.298   2.777  3.1770 -2.3424 -1.2363
 6965SOL    HW221795   4.356   2.304   2.940 -1.7242 -0.2318 -1.4257
 6966SOL     OW21796   6.029   6.074   0.679 -1.2511  0.0655 -0.0851
 6966SOL    HW121797   6.041   6.004   0.750 -0.9571  0.0550 -0.1435
 6966SOL    HW221798   6.109   6.075   0.620 -0.9539  0.9069  0.3154
 6967SOL     OW21799   4.037   1.006   6.613  0.0909 -0.1279  0.0918
 6967SOL    HW121800   4.072   0.979   6.702 -1.3304 -0.7108  0.5055
 6967SOL    HW221801   4.111   1.044   6.557  1.4384 -1.7221  0.7420
 6968SOL     OW21802   5.262   4.723   4.441  0.1482  0.3319 -0.2616
 6968SOL    HW121803   5.196   4.762   4.377 -0.3787 -0.0168  0.0642
 6968SOL    HW221804   5.355   4.736   4.405 -0.1667 -0.2896 -1.3245
 6969SOL     OW21805   0.994   6.074   5.391 -0.2293 -0.0220 -0.2344
 6969SOL    HW121806   1.005   6.172   5.409 -0.4361 -0.0804  0.2459
 6969SOL    HW221807   0.899   6.056   5.365  0.0722  0.0637 -1.4470
 6970SOL     OW21808   2.788   3.716   5.721 -0.1834 -0.0259  0.3728
 6970SOL    HW121809   2.771   3.637   5.662  0.4579  0.6937 -0.8305
 6970SOL    HW221810   2.803   3.797   5.663 -0.2255  0.8485  1.5603
 6971SOL     OW21811   6.733   4.254   1.753 -0.1937 -0.3720 -0.0338
 6971SOL    HW121812   6.659   4.259   1.686 -0.5601  0.4100  0.4075
 6971SOL    HW221813   6.815   4.295   1.714 -0.6147  0.7925  0.2260
 6972SOL     OW21814   6.723   1.708   3.686 -0.2446  0.4753 -0.3835
 6972SOL    HW121815   6.628   1.689   3.660 -0.0708  0.4655 -1.0401
 6972SOL    HW221816   6.738   1.807   3.686 -0.0097  0.4511 -1.2321
 6973SOL     OW21817   0.103   5.959   0.914  0.2355 -0.8661 -0.1132
 6973SOL    HW121818   0.035   5.886   0.928  0.3156 -0.8854  0.1775
 6973SOL    HW221819   0.130   5.997   1.003  0.4624 -0.7264 -0.2420
 6974SOL     OW21820   4.058   3.677   2.470 -0.0017  0.3577 -0.2934
 6974SOL    HW121821   4.102   3.682   2.559 -0.1128  1.3406 -0.2794
 6974SOL    HW221822   3.959   3.668   2.481 -0.7576  5.5772 -0.1021
 6975SOL     OW21823   3.635   5.965   2.930  0.1686  0.1098  0.3755
 6975SOL    HW121824   3.627   6.032   3.003  0.5123 -1.8414  2.3251
 6975SOL    HW221825   3.729   5.964   2.895  0.1062  0.7752  0.1808
 6976SOL     OW21826   3.347   0.841   4.539  0.1438  0.3525 -0.4187
 6976SOL    HW121827   3.402   0.757   4.536  1.3952  1.1598 -2.9057
 6976SOL    HW221828   3.333   0.875   4.446  0.9578  3.6914  0.5358
 6977SOL     OW21829   3.737   2.003   1.616 -0.1804 -0.3842  0.5614
 6977SOL    HW121830   3.817   2.062   1.621 -0.7012  0.7666 -2.5871
 6977SOL    HW221831   3.690   2.003   1.704  2.2220  0.3603  1.9378
 6978SOL     OW21832   4.833   0.194   2.146  0.1278 -0.2083 -0.3575
 6978SOL    HW121833   4.771   0.135   2.094  0.4196  0.2986 -1.3087
 6978SOL    HW221834   4.900   0.137   2.194  0.8801 -0.6601 -1.8743
 6979SOL     OW21835   2.994   5.793   3.109  0.2111  0.0227 -0.3428
 6979SOL    HW121836   2.983   5.716   3.045 -0.3088  0.8215 -1.2469
 6979SOL    HW221837   3.019   5.758   3.199 -1.3957 -1.3368 -0.3590
 6980SOL     OW21838   4.224   0.361   1.690 -0.7423 -0.0973 -0.3861
 6980SOL    HW121839   4.248   0.291   1.623  1.5863  1.3020 -1.1148
 6980SOL    HW221840   4.302   0.377   1.751 -1.1526  1.9729 -0.3553
 6981SOL     OW21841   0.936   6.714   2.457  0.2149  0.2995  0.1957
 6981SOL    HW121842   0.997   6.758   2.524  0.0066  2.5373 -0.9722
 6981SOL    HW221843   0.983   6.636   2.416  1.5328  0.7478  0.7750
 6982SOL     OW21844   4.475   0.702   0.763  0.1122 -0.1064  0.2809
 6982SOL    HW121845   4.527   0.769   0.814  0.1266 -0.0048  0.1334
 6982SOL    HW221846   4.529   0.670   0.684 -0.3870  0.6563 -0.3843
 6983SOL     OW21847   6.164   5.027   3.332 -0.9875  0.6326 -0.4314
 6983SOL    HW121848   6.211   4.939   3.341  0.4227  1.2736 -1.0781
 6983SOL    HW221849   6.115   5.048   3.417 -1.0491 -0.5967 -0.1419
 6984SOL     OW21850   5.909   5.679   4.431 -0.0492 -0.2620 -0.0531
 6984SOL    HW121851   5.954   5.626   4.359 -1.6370 -0.8047 -0.6955
 6984SOL    HW221852   5.869   5.616   4.498  0.9525  0.2302  1.0368
 6985SOL     OW21853   2.744   2.901   1.706  0.9813 -0.0249 -0.1411
 6985SOL    HW121854   2.746   2.802   1.713 -2.2718 -0.1279  1.0305
 6985SOL    HW221855   2.825   2.940   1.751  0.2737 -2.0712  3.1910
 6986SOL     OW21856   0.141   4.876   6.007  0.4372 -0.2627 -0.8608
 6986SOL    HW121857   0.181   4.951   6.061 -0.3641 -1.0200  0.8776
 6986SOL    HW221858   0.207   4.847   5.937  1.8111  0.3342  0.1278
 6987SOL     OW21859   2.687   0.813   2.467  0.0104 -0.3532 -0.0384
 6987SOL    HW121860   2.702   0.734   2.406 -0.2437 -1.7875  1.6792
 6987SOL    HW221861   2.733   0.893   2.429 -0.0853 -1.1908 -2.0753
 6988SOL     OW21862   2.887   3.419   5.834  0.3448 -0.6349 -0.3221
 6988SOL    HW121863   2.952   3.470   5.892  0.8397 -0.3049 -1.1549
 6988SOL    HW221864   2.795   3.426   5.873  0.6937 -0.5453  0.5068
 6989SOL     OW21865   4.858   5.283   4.552 -0.1740 -0.1189  0.3447
 6989SOL    HW121866   4.822   5.375   4.537  0.2857 -0.0558 -0.4080
 6989SOL    HW221867   4.822   5.247   4.638 -0.2151  0.8298  0.7331
 6990SOL     OW21868   0.301   6.574   2.857 -0.1948  0.1254 -0.0847
 6990SOL    HW121869   0.333   6.571   2.762 -0.4362 -1.1980 -0.1419
 6990SOL    HW221870   0.259   6.663   2.875  1.5158  1.0766 -0.6474
 6991SOL     OW21871   4.960   1.869   2.961 -0.1781  0.2139 -0.7659
 6991SOL    HW121872   4.945   1.816   2.877  2.6533 -1.4367 -0.3312
 6991SOL    HW221873   5.041   1.927   2.951 -0.1005  0.3905  0.6473
 6992SOL     OW21874   3.047   6.470   4.046 -0.0288 -0.5520  0.4205
 6992SOL    HW121875   2.966   6.461   3.988  0.2718 -2.7132  0.2830
 6992SOL    HW221876   3.019   6.505   4.136 -0.7296  1.1316 -0.3969
 6993SOL     OW21877   2.150   5.746   5.497  0.1743  0.3426 -0.3862
 6993SOL    HW121878   2.245   5.722   5.518 -0.5034 -0.0725  2.8315
 6993SOL    HW221879   2.132   5.732   5.400  2.9992 -0.9366 -0.8130
 6994SOL     OW21880   2.291   3.613   0.191  0.2162  0.0123  0.2166
 6994SOL    HW121881   2.286   3.624   0.290 -0.1229  2.0761  0.0131
 6994SOL    HW221882   2.210   3.562   0.160 -1.0058  1.5109  0.7853
 6995SOL     OW21883   2.405   5.121   6.586 -0.1898 -0.8305  0.1526
 6995SOL    HW121884   2.356   5.052   6.533  0.7114 -0.5667 -1.0691
 6995SOL    HW221885   2.353   5.207   6.585  1.2097  0.1609 -3.0852
 6996SOL     OW21886   1.084   1.321   0.395  0.8360  0.2708  0.6892
 6996SOL    HW121887   0.985   1.334   0.402  0.7296 -0.2685  0.2572
 6996SOL    HW221888   1.114   1.258   0.467  0.9620  0.8761  1.1810
 6997SOL     OW21889   6.016   5.209   4.152  0.1645 -0.3884 -0.4711
 6997SOL    HW121890   6.022   5.278   4.080 -1.9836  0.3006 -0.0888
 6997SOL    HW221891   6.091   5.144   4.143  1.6858  1.3943 -1.4678
 6998SOL     OW21892   4.296   5.947   6.541  0.3306 -0.2861 -0.1776
 6998SOL    HW121893   4.246   5.867   6.574 -0.4697  0.0985 -0.4251
 6998SOL    HW221894   4.327   5.931   6.447  0.0465 -0.2482 -0.2770
 6999SOL     OW21895   4.584   6.816   4.289 -0.0648 -0.2536 -0.4964
 6999SOL    HW121896   4.524   6.896   4.292 -0.5026 -0.6210  1.5211
 6999SOL    HW221897   4.560   6.760   4.210 -0.0213  1.3737 -1.7153
 7000SOL     OW21898   0.154   1.335   2.350 -0.2181 -0.4304  0.0968
 7000SOL    HW121899   0.111   1.245   2.363  1.0412 -1.2802 -1.3523
 7000SOL    HW221900   0.116   1.378   2.268  0.0527 -0.1784  0.1061
 7001SOL     OW21901   3.192   4.959   4.491  0.0649  1.0001  0.5020
 7001SOL    HW121902   3.262   4.913   4.437  0.2881  1.1000  0.7043
 7001SOL    HW221903   3.160   5.039   4.441 -1.7088 -0.3995 -0.7411
 7002SOL     OW21904   0.958   5.076   4.324  0.0737  0.2343  0.1599
 7002SOL    HW121905   0.955   5.150   4.258 -0.5363 -0.7797 -0.9918
 7002SOL    HW221906   1.050   5.069   4.363 -0.2122  2.5214  1.4486
 7003SOL     OW21907   4.930   3.358   2.748  0.5167 -0.6371 -0.3531
 7003SOL    HW121908   4.873   3.425   2.796  1.0575 -0.3093 -0.1645
 7003SOL    HW221909   4.886   3.268   2.754  1.2206 -0.9068  1.9869
 7004SOL     OW21910   2.085   4.410   1.720  0.1344  0.5693  0.3036
 7004SOL    HW121911   2.082   4.449   1.813  0.8707  0.9426  0.1743
 7004SOL    HW221912   2.060   4.314   1.724  0.3694  0.5256  0.9259
 7005SOL     OW21913   6.214   5.964   2.580  0.2629  0.3895 -0.2755
 7005SOL    HW121914   6.262   5.906   2.647  0.3172 -1.1264 -1.5697
 7005SOL    HW221915   6.161   5.906   2.518  0.7240  1.7066 -1.9621
 7006SOL     OW21916   0.043   1.617   4.848  0.2961  0.5402 -0.5034
 7006SOL    HW121917   0.038   1.567   4.762 -1.7813  0.5268 -0.4367
 7006SOL    HW221918   0.058   1.714   4.829  0.7543  0.4104 -0.8214
 7007SOL     OW21919   4.322   5.951   0.009 -0.3081 -0.1165 -0.3881
 7007SOL    HW121920   4.305   5.975   0.104  0.6617  1.2378 -0.5329
 7007SOL    HW221921   4.331   5.851   0.000 -0.5983 -0.2652  0.8832
 7008SOL     OW21922   3.621   2.862   2.875 -0.2204 -0.0524 -0.1684
 7008SOL    HW121923   3.611   2.764   2.895 -0.3404  0.2983  1.6271
 7008SOL    HW221924   3.589   2.880   2.782 -3.8719 -1.1336  0.7138
 7009SOL     OW21925   1.478   3.354   2.408 -0.1563 -0.3035  0.0311
 7009SOL    HW121926   1.482   3.288   2.333 -0.4438 -0.7169  0.3704
 7009SOL    HW221927   1.567   3.361   2.452  0.1986  0.4600 -0.7771
 7010SOL     OW21928   1.199   6.782   5.446 -0.5956 -0.0418  0.9427
 7010SOL    HW121929   1.253   6.701   5.424 -0.7940  0.1202 -0.1725
 7010SOL    HW221930   1.168   6.826   5.362 -0.6012  1.1233  1.5306
 7011SOL     OW21931   6.096   1.134   3.542 -0.3988 -0.2284 -0.0782
 7011SOL    HW121932   6.050   1.049   3.568  1.4577 -0.2762  3.5676
 7011SOL    HW221933   6.179   1.112   3.491 -0.3376 -0.5703  0.1612
 7012SOL     OW21934   4.681   6.898   5.765 -0.1662  0.0516  0.0012
 7012SOL    HW121935   4.625   6.884   5.683 -0.8909 -0.1570  0.5157
 7012SOL    HW221936   4.775   6.871   5.746 -0.6502 -1.5364 -0.3000
 7013SOL     OW21937   1.219   2.895   6.797  0.3653  0.0442 -0.7767
 7013SOL    HW121938   1.213   2.926   6.892  0.5250 -0.6319 -0.5366
 7013SOL    HW221939   1.128   2.898   6.755 -0.1594 -1.8418  0.1219
 7014SOL     OW21940   0.392   5.153   4.072  0.3126  0.0659  0.2648
 7014SOL    HW121941   0.453   5.087   4.116 -1.9352 -1.6477  1.0276
 7014SOL    HW221942   0.445   5.215   4.015  2.6373 -1.8654  0.1752
 7015SOL     OW21943   0.510   6.163   2.246  0.4963  0.7956 -0.0337
 7015SOL    HW121944   0.534   6.237   2.308  1.0022  1.8355 -1.4206
 7015SOL    HW221945   0.494   6.200   2.155  0.8741 -0.8183 -0.7847
 7016SOL     OW21946   3.742   5.244   1.622  0.4418  0.0415 -0.4461
 7016SOL    HW121947   3.697   5.211   1.706  0.4239  2.1127  0.4051
 7016SOL    HW221948   3.840   5.250   1.637  0.1910  3.5036  0.6695
 7017SOL     OW21949   7.000   5.787   5.477 -0.0475 -0.4657 -0.1007
 7017SOL    HW121950   7.017   5.843   5.396 -0.2411 -0.4762 -0.1479
 7017SOL    HW221951   7.047   5.828   5.556  3.5036 -2.5069 -0.9319
 7018SOL     OW21952   4.205   3.193   0.034  0.9222  0.2169 -0.1161
 7018SOL    HW121953   4.235   3.143   0.116  0.4796 -3.8501 -2.1907
 7018SOL    HW221954   4.105   3.192   0.029  0.8825  1.7422 -0.0408
 7019SOL     OW21955   1.052   3.777   2.504 -0.3144  0.0071  0.3810
 7019SOL    HW121956   1.013   3.686   2.492  1.6852 -0.5468 -4.0332
 7019SOL    HW221957   0.993   3.845   2.460 -0.4107  0.4829  1.2136
 7020SOL     OW21958   5.605   2.089   0.906 -0.6218 -0.0944 -0.1734
 7020SOL    HW121959   5.662   2.138   0.973  0.1661 -0.5104 -0.5221
 7020SOL    HW221960   5.664   2.046   0.837 -1.4712  2.1118 -2.4190
 7021SOL     OW21961   5.216   3.228   6.509  0.1894 -0.5268 -0.6615
 7021SOL    HW121962   5.146   3.220   6.438 -1.3960 -1.7445  0.9755
 7021SOL    HW221963   5.238   3.137   6.544 -0.4504  0.1539  1.6943
 7022SOL     OW21964   5.412   1.049   3.142  0.5698 -0.7059 -0.5528
 7022SOL    HW121965   5.509   1.037   3.163  0.6979 -0.9764 -1.2731
 7022SOL    HW221966   5.401   1.120   3.072  0.3279 -1.3478 -1.1750
 7023SOL     OW21967   1.057   5.838   5.981  0.1275  0.7560 -0.1149
 7023SOL    HW121968   0.965   5.860   6.013  0.5811  2.3958  0.1630
 7023SOL    HW221969   1.107   5.923   5.964  1.2833 -0.1098 -1.1694
 7024SOL     OW21970   4.962   5.801   0.329 -1.0520  0.8882 -0.5139
 7024SOL    HW121971   5.030   5.752   0.274  0.6156  1.8909  0.6104
 7024SOL    HW221972   4.915   5.736   0.389  0.2719  0.4458  0.0798
 7025SOL     OW21973   6.229   5.053   2.084 -0.0038  0.2263  0.3923
 7025SOL    HW121974   6.262   4.982   2.021 -0.1758  1.6207 -1.3694
 7025SOL    HW221975   6.301   5.073   2.151  0.9933  0.0664 -0.5885
 7026SOL     OW21976   0.887   0.412   0.984  0.8070  0.2818 -0.5545
 7026SOL    HW121977   0.802   0.360   0.987  1.4540 -0.9524 -2.0924
 7026SOL    HW221978   0.879   0.486   0.917  1.8249 -1.6598 -2.9739
 7027SOL     OW21979   0.626   5.505   2.318 -0.3813 -0.0917  0.1330
 7027SOL    HW121980   0.536   5.549   2.324  0.2412  1.0656  1.4822
 7027SOL    HW221981   0.661   5.515   2.225 -0.7123  1.4092  0.1354
 7028SOL     OW21982   3.786   5.491   6.901  0.0794  0.1212  0.3789
 7028SOL    HW121983   3.718   5.558   6.873 -0.4429 -1.7632 -3.6229
 7028SOL    HW221984   3.876   5.518   6.868 -0.5005 -2.0024 -3.5399
 7029SOL     OW21985   3.309   6.901   5.628 -0.4498  0.5810 -0.0934
 7029SOL    HW121986   3.251   6.878   5.706  0.3782 -0.4390  0.2339
 7029SOL    HW221987   3.252   6.934   5.552 -1.4252 -0.1559  0.3086
 7030SOL     OW21988   2.461   6.437   1.386 -0.6720  0.4892 -0.2340
 7030SOL    HW121989   2.428   6.445   1.292 -0.5204  0.1126 -0.3227
 7030SOL    HW221990   2.559   6.417   1.386 -0.7465  0.0957 -0.0080
 7031SOL     OW21991   5.996   3.887   6.499 -0.0408 -0.4752 -0.1577
 7031SOL    HW121992   6.010   3.962   6.435 -0.6908  0.1002  0.3499
 7031SOL    HW221993   5.901   3.857   6.495 -0.3272  0.1855  1.1641
 7032SOL     OW21994   6.718   4.023   4.996 -0.1154 -0.5951 -0.5173
 7032SOL    HW121995   6.770   3.948   4.956 -2.2735 -2.0444 -0.8072
 7032SOL    HW221996   6.732   4.024   5.095 -1.0383 -2.2828 -0.3250
 7033SOL     OW21997   5.101   3.783   5.326  0.2106 -0.0312 -0.0073
 7033SOL    HW121998   5.100   3.700   5.269  0.0530  0.8558 -1.3366
 7033SOL    HW221999   5.008   3.818   5.335  0.3455  0.3050  0.0852
 7034SOL     OW22000   4.904   6.875   3.736 -0.1876 -0.2021  0.1064
 7034SOL    HW122001   4.925   6.858   3.639  0.5440  0.6547  0.1079
 7034SOL    HW222002   4.975   6.834   3.793  0.2251  0.6361  0.2081
 7035SOL     OW22003   1.695   0.374   2.818  0.6984  0.1918  0.0063
 7035SOL    HW122004   1.666   0.402   2.726  3.3625  1.8368 -0.4488
 7035SOL    HW222005   1.640   0.421   2.886 -0.6777 -0.3080 -0.7306
 7036SOL     OW22006   5.135   3.399   2.547 -0.1287  0.0197 -0.6070
 7036SOL    HW122007   5.057   3.389   2.609 -1.2079 -0.3538 -1.9808
 7036SOL    HW222008   5.210   3.343   2.580 -1.1140 -1.1735 -0.3123
 7037SOL     OW22009   2.694   5.997   3.826  0.2603 -0.1028  0.4629
 7037SOL    HW122010   2.792   5.982   3.836  0.0036 -0.6781  2.3589
 7037SOL    HW222011   2.656   6.033   3.911 -1.3427 -0.8417  0.1018
 7038SOL     OW22012   6.665   3.946   0.849  0.2402  0.1039 -0.2125
 7038SOL    HW122013   6.727   3.951   0.771 -1.6593 -0.7931 -1.8916
 7038SOL    HW222014   6.582   3.998   0.828  0.3613  1.2726  1.9521
 7039SOL     OW22015   6.466   0.713   4.174  0.3538  0.2049  0.5416
 7039SOL    HW122016   6.505   0.801   4.201 -0.2708  0.5993  0.1633
 7039SOL    HW222017   6.541   0.650   4.151  0.7941  0.7298  0.5094
 7040SOL     OW22018   4.943   1.718   5.238  0.0995 -0.1453 -0.3155
 7040SOL    HW122019   4.974   1.810   5.215  0.1956 -0.1146 -0.0718
 7040SOL    HW222020   4.856   1.724   5.288  0.3365 -0.1565  0.1071
 7041SOL     OW22021   6.453   6.955   4.712  0.3077 -0.1316  0.6313
 7041SOL    HW122022   6.437   6.992   4.620  2.8956  2.0935  0.9444
 7041SOL    HW222023   6.405   6.868   4.722 -2.1464  0.7949 -1.9062
 7042SOL     OW22024   5.740   5.502   3.215  0.1114 -0.1761 -0.0799
 7042SOL    HW122025   5.831   5.469   3.191 -0.0964 -1.5201  0.8046
 7042SOL    HW222026   5.735   5.600   3.202  1.4332 -0.1971 -0.9103
 7043SOL     OW22027   1.112   0.391   1.744 -0.1072 -0.0609 -0.6165
 7043SOL    HW122028   1.151   0.456   1.808 -1.8833  0.7368 -0.2844
 7043SOL    HW222029   1.086   0.438   1.660 -1.1937 -0.3574 -0.4632
 7044SOL     OW22030   3.780   1.128   3.880 -0.1045  0.2828  0.2815
 7044SOL    HW122031   3.698   1.106   3.827  0.0740  1.3429 -0.4765
 7044SOL    HW222032   3.756   1.139   3.977 -0.3946 -1.9066  0.5044
 7045SOL     OW22033   2.639   4.622   3.518 -0.2011  0.4060 -0.3487
 7045SOL    HW122034   2.563   4.560   3.502 -0.8553  1.0246  0.2992
 7045SOL    HW222035   2.673   4.656   3.430 -1.3009  0.8641 -0.6136
 7046SOL     OW22036   4.071   1.224   1.674  0.3138  0.1188  0.3760
 7046SOL    HW122037   4.081   1.126   1.662 -1.2382 -0.1675  1.1550
 7046SOL    HW222038   4.089   1.271   1.587  0.7364 -0.8588 -0.0764
 7047SOL     OW22039   0.951   5.830   5.119  0.1803  0.0058 -0.1762
 7047SOL    HW122040   0.951   5.756   5.051 -0.8109  1.0725 -1.4046
 7047SOL    HW222041   0.927   5.794   5.209 -1.4200 -1.0176 -0.9705
 7048SOL     OW22042   2.706   4.583   5.377  0.6441  0.4208 -0.2315
 7048SOL    HW122043   2.627   4.635   5.344 -0.5458 -0.6657  0.7902
 7048SOL    HW222044   2.768   4.565   5.301 -0.6579  0.3087 -1.3094
 7049SOL     OW22045   2.287   3.360   5.665 -0.8262  0.7146  0.0032
 7049SOL    HW122046   2.358   3.405   5.611 -0.4038 -0.9635 -0.8812
 7049SOL    HW222047   2.197   3.385   5.630 -0.5977  0.8775 -0.4692
 7050SOL     OW22048   4.931   4.746   0.016  0.0021 -0.5140 -0.6138
 7050SOL    HW122049   4.944   4.840  -0.013 -1.7776  0.2557  0.9251
 7050SOL    HW222050   5.012   4.715   0.067  0.5504  0.1909 -1.0398
 7051SOL     OW22051   5.861   0.894   0.456  0.7411  0.7537  0.1755
 7051SOL    HW122052   5.913   0.828   0.401  0.4841  1.8214 -1.4011
 7051SOL    HW222053   5.763   0.879   0.443  0.6738  0.9304  0.4625
 7052SOL     OW22054   5.850   3.210   0.567  0.4385  0.2922 -0.1702
 7052SOL    HW122055   5.762   3.165   0.552  0.6782 -0.5699  0.8810
 7052SOL    HW222056   5.835   3.305   0.594 -0.3053 -0.3935  2.0655
 7053SOL     OW22057   0.432   0.943   3.732  0.0437  0.3130  0.0639
 7053SOL    HW122058   0.360   0.968   3.797  0.8302  2.3092  0.2263
 7053SOL    HW222059   0.500   1.016   3.727  0.2928  0.0063 -2.6524
 7054SOL     OW22060   1.502   0.291   6.576  0.4009 -0.3784  0.0416
 7054SOL    HW122061   1.427   0.246   6.527  0.1912 -0.2976  0.2893
 7054SOL    HW222062   1.589   0.250   6.548  0.1992 -1.1039  0.4443
 7055SOL     OW22063   5.443   3.311   2.307 -0.3456  0.5882 -0.1986
 7055SOL    HW122064   5.538   3.284   2.327 -0.4094  1.5797  1.7371
 7055SOL    HW222065   5.394   3.233   2.268  0.7222 -0.6295  0.7818
 7056SOL     OW22066   0.929   2.567   6.546  0.3223  0.0344  0.2530
 7056SOL    HW122067   0.999   2.573   6.475  0.5008  0.9888  0.4884
 7056SOL    HW222068   0.852   2.626   6.522 -0.5833 -1.2701 -0.1753
 7057SOL     OW22069   5.320   0.350   3.661 -0.1813  0.6751 -0.0186
 7057SOL    HW122070   5.243   0.288   3.672 -0.1864  0.8870  1.2129
 7057SOL    HW222071   5.375   0.321   3.582  0.2781 -1.3800  1.0048
 7058SOL     OW22072   3.539   4.301   5.544  0.4421 -0.2124  0.1646
 7058SOL    HW122073   3.495   4.247   5.615  0.5517 -1.3566 -0.6063
 7058SOL    HW222074   3.475   4.314   5.467  0.0719  1.6172  0.7238
 7059SOL     OW22075   1.171   2.368   5.431 -0.5134  0.3775  0.0187
 7059SOL    HW122076   1.232   2.294   5.404 -0.2819  0.6349 -0.1802
 7059SOL    HW222077   1.214   2.422   5.503 -0.6130  0.4073  0.0560
 7060SOL     OW22078   0.413   2.391   1.963 -0.2526 -0.2966  0.4083
 7060SOL    HW122079   0.436   2.483   1.995 -0.6859 -0.5781  1.5751
 7060SOL    HW222080   0.316   2.373   1.977  0.0841 -1.4264  1.5217
 7061SOL     OW22081   2.646   5.892   5.243 -0.3320  0.3311 -0.1830
 7061SOL    HW122082   2.559   5.940   5.229  0.3838  1.5376 -0.6323
 7061SOL    HW222083   2.701   5.942   5.309  0.1400 -0.2738 -0.1174
 7062SOL     OW22084   6.623   2.787   4.524  0.4180  0.5994 -0.0123
 7062SOL    HW122085   6.583   2.828   4.606  1.5113 -1.1644  1.4688
 7062SOL    HW222086   6.550   2.758   4.462 -0.4256  1.8987  0.3279
 7063SOL     OW22087   6.571   1.322   4.835  0.2763  0.0816 -0.0809
 7063SOL    HW122088   6.656   1.360   4.798  0.4746 -0.4987 -0.2221
 7063SOL    HW222089   6.577   1.318   4.935  0.1277  0.7171 -0.0414
 7064SOL     OW22090   1.476   1.829   5.517 -0.3585  0.3582  0.5692
 7064SOL    HW122091   1.488   1.788   5.608 -0.7779  1.4848  1.1618
 7064SOL    HW222092   1.549   1.799   5.457 -0.0928 -0.4433  1.2706
 7065SOL     OW22093   3.695   6.508   3.201  0.5949 -0.4906  0.4597
 7065SOL    HW122094   3.662   6.476   3.290  2.3187 -1.3798  0.8113
 7065SOL    HW222095   3.791   6.482   3.189  1.8763  3.5933  0.3199
 7066SOL     OW22096   2.803   1.457   6.237 -0.3556  0.2619  0.3763
 7066SOL    HW122097   2.817   1.430   6.142  1.0322 -2.1151  1.1692
 7066SOL    HW222098   2.873   1.523   6.264 -0.1339  0.1687  0.0300
 7067SOL     OW22099   3.461   6.895   0.160  0.0882 -0.0314  0.2221
 7067SOL    HW122100   3.394   6.898   0.233 -0.8916  0.7383 -0.6753
 7067SOL    HW222101   3.459   6.805   0.116 -0.5650  0.0676  0.0326
 7068SOL     OW22102   2.175   3.135   6.877  0.1226  0.6663  0.7733
 7068SOL    HW122103   2.133   3.046   6.890 -0.7099  1.0465  0.7881
 7068SOL    HW222104   2.214   3.141   6.784  0.3636  0.2234  0.8465
 7069SOL     OW22105   0.428   6.913   2.092  0.9676 -0.1139  0.0670
 7069SOL    HW122106   0.386   6.963   2.017 -0.6435 -1.5390 -0.0497
 7069SOL    HW222107   0.461   6.824   2.059 -0.1597 -0.9459  1.0830
 7070SOL     OW22108   3.597   0.211   6.145  0.4125  0.0320 -0.2570
 7070SOL    HW122109   3.547   0.135   6.104  2.0050 -0.9184 -0.4916
 7070SOL    HW222110   3.539   0.293   6.144 -0.6994 -0.7287 -1.5948
 7071SOL     OW22111   3.345   0.282   3.620  0.2257  0.8306  0.0507
 7071SOL    HW122112   3.307   0.356   3.675 -0.4472  1.4139 -1.1506
 7071SOL    HW222113   3.441   0.301   3.599 -0.2339  1.9175 -1.1394
 7072SOL     OW22114   1.956   2.865   1.946  0.2626 -0.7159 -0.0212
 7072SOL    HW122115   1.996   2.916   1.869 -1.8991 -0.6653 -1.1880
 7072SOL    HW222116   1.975   2.768   1.934 -0.9178 -0.8226 -1.2138
 7073SOL     OW22117   6.521   4.183   6.515  0.1906 -0.2720 -0.4329
 7073SOL    HW122118   6.486   4.175   6.608 -1.5793  1.9780 -0.8151
 7073SOL    HW222119   6.610   4.231   6.518 -0.4116  0.8634  0.0563
 7074SOL     OW22120   6.432   1.468   3.709  0.3205 -0.2505 -0.3121
 7074SOL    HW122121   6.477   1.479   3.797 -0.5725  0.7019  0.0434
 7074SOL    HW222122   6.437   1.372   3.681  0.4649 -0.5975  0.8567
 7075SOL     OW22123   0.134   0.078   4.784 -0.0959 -1.1329 -0.2845
 7075SOL    HW122124   0.086  -0.004   4.817  0.2749 -1.7667 -1.2457
 7075SOL    HW222125   0.085   0.160   4.813 -0.9982 -1.7290 -0.0907
 7076SOL     OW22126   1.263   6.407   1.665  0.3282 -0.3200  0.1868
 7076SOL    HW122127   1.303   6.432   1.577 -0.7374 -1.7791 -0.7512
 7076SOL    HW222128   1.227   6.489   1.709 -0.3641  0.2583 -1.3850
 7077SOL     OW22129   2.114   4.922   1.773 -0.3127 -0.1919 -0.4636
 7077SOL    HW122130   2.193   4.983   1.769  0.1822 -0.8124 -0.3427
 7077SOL    HW222131   2.069   4.921   1.684 -0.0872  0.0428 -0.5824
 7078SOL     OW22132   6.131   0.225   4.001 -0.3943 -0.0997 -0.8206
 7078SOL    HW122133   6.074   0.145   3.985 -0.5065 -0.1128 -0.3712
 7078SOL    HW222134   6.166   0.260   3.914 -0.9988 -0.1578 -1.0855
 7079SOL     OW22135   1.544   5.582   0.735  0.1918  0.2175 -0.2154
 7079SOL    HW122136   1.610   5.628   0.676  0.4855 -0.2420 -0.2483
 7079SOL    HW222137   1.592   5.543   0.814 -0.1782  0.7218  0.2655
 7080SOL     OW22138   2.362   5.519   2.504 -0.3228 -0.3226  0.4053
 7080SOL    HW122139   2.450   5.481   2.476  0.4929  3.1396 -2.5195
 7080SOL    HW222140   2.290   5.453   2.484  1.3031 -1.9944 -0.2537
 7081SOL     OW22141   6.961   1.970   3.536  0.4980 -0.1606  0.0005
 7081SOL    HW122142   6.870   1.935   3.514  0.2988 -1.2690  2.3215
 7081SOL    HW222143   6.956   2.025   3.619  2.0385 -0.6879  0.4633
 7082SOL     OW22144   0.352   2.648   6.689  0.3962 -0.3506 -0.2746
 7082SOL    HW122145   0.365   2.550   6.701  1.4911 -0.1769  0.1192
 7082SOL    HW222146   0.256   2.668   6.672 -0.0034 -1.3887  0.7033
 7083SOL     OW22147   4.353   1.289   2.040 -0.1759 -0.4160 -0.0579
 7083SOL    HW122148   4.321   1.308   1.947 -2.1721 -0.1570  0.6323
 7083SOL    HW222149   4.383   1.194   2.046  1.4467 -0.0365 -1.3111
 7084SOL     OW22150   4.909   5.005   6.892  0.0995 -0.3235 -0.2632
 7084SOL    HW122151   4.893   5.060   6.974 -0.6182 -2.2352  0.9456
 7084SOL    HW222152   4.985   5.045   6.840  1.4047  0.2722  1.9467
 7085SOL     OW22153   3.628   3.236   4.206  0.6330  0.1141 -0.7241
 7085SOL    HW122154   3.625   3.318   4.263  1.0550 -0.0816 -0.4183
 7085SOL    HW222155   3.615   3.261   4.110 -0.5701  0.3927 -0.4990
 7086SOL     OW22156   3.687   0.364   6.715 -0.6760 -0.4744  0.3246
 7086SOL    HW122157   3.715   0.408   6.800 -5.0595  2.9041  0.4463
 7086SOL    HW222158   3.608   0.306   6.732 -2.3196  1.0882 -1.3852
 7087SOL     OW22159   6.219   5.328   3.339 -0.1562  0.3739  0.1112
 7087SOL    HW122160   6.276   5.348   3.420  1.0325 -0.4427 -0.4908
 7087SOL    HW222161   6.225   5.231   3.318  0.3995  0.7382 -1.5537
 7088SOL     OW22162   6.709   0.611   0.464 -0.1059  0.0679  0.2576
 7088SOL    HW122163   6.618   0.576   0.442 -0.4212  1.4050 -0.6832
 7088SOL    HW222164   6.723   0.700   0.420  1.2201  0.4452  1.3471
 7089SOL     OW22165   2.062   4.401   4.986  0.2746 -0.1159 -0.0192
 7089SOL    HW122166   2.149   4.366   5.022  0.2228  2.1351  2.5716
 7089SOL    HW222167   2.054   4.498   5.006 -2.8679 -0.2355 -0.1893
 7090SOL     OW22168   4.039   2.952   1.639  0.0096 -0.3292  0.2821
 7090SOL    HW122169   4.009   2.875   1.582 -1.3628  0.8946 -0.7311
 7090SOL    HW222170   4.081   3.022   1.581 -1.6037  1.0387  0.6770
 7091SOL     OW22171   6.466   6.108   1.149  0.6890 -0.1143  0.2177
 7091SOL    HW122172   6.391   6.170   1.125  0.0675 -0.3122  1.5584
 7091SOL    HW222173   6.517   6.085   1.067 -0.1223  0.7989 -0.5776
 7092SOL     OW22174   4.040   1.304   3.181 -0.1088 -0.3235 -0.3480
 7092SOL    HW122175   3.980   1.318   3.102  1.0915 -0.7287 -1.3638
 7092SOL    HW222176   4.112   1.373   3.181 -0.9330  0.6226  1.2790
 7093SOL     OW22177   5.878   1.191   3.871 -0.8072  0.0730  0.1641
 7093SOL    HW122178   5.878   1.184   3.970 -1.4424  1.3263  0.2629
 7093SOL    HW222179   5.908   1.103   3.832 -1.6139 -0.7940  1.4198
 7094SOL     OW22180   5.225   0.040   5.377 -0.2229  0.1439  0.5039
 7094SOL    HW122181   5.194   0.109   5.311 -2.5867 -1.4129 -0.1424
 7094SOL    HW222182   5.313   0.002   5.348 -0.4552  0.6222 -0.8709
 7095SOL     OW22183   6.827   6.101   5.664  0.6311  0.2667  0.5556
 7095SOL    HW122184   6.828   6.180   5.726 -0.7497  0.0015  0.9466
 7095SOL    HW222185   6.787   6.128   5.576  2.0768  0.5043 -0.0463
 7096SOL     OW22186   0.096   6.883   5.112 -0.0800  0.3570 -0.2460
 7096SOL    HW122187   0.183   6.835   5.116  0.2036  0.9151  1.1882
 7096SOL    HW222188   0.068   6.895   5.017  2.0612  1.2940 -0.8204
 7097SOL     OW22189   2.756   2.868   7.000  0.0078  0.5331 -0.2621
 7097SOL    HW122190   2.708   2.863   7.087 -0.2973 -1.5510 -0.5034
 7097SOL    HW222191   2.708   2.931   6.939 -0.8282  0.5957  0.4410
 7098SOL     OW22192   6.311   1.177   6.560  0.5683 -0.1979 -0.4583
 7098SOL    HW122193   6.235   1.116   6.580  0.9693 -0.7394 -0.5881
 7098SOL    HW222194   6.300   1.261   6.614  0.0828 -0.4291 -0.1870
 7099SOL     OW22195   1.633   2.968   6.920  0.3255 -0.2015  0.0523
 7099SOL    HW122196   1.679   3.047   6.879 -0.6959 -0.1360 -1.0426
 7099SOL    HW222197   1.574   2.998   6.995 -0.9913  0.2819 -1.1323
 7100SOL     OW22198   5.184   0.185   2.182  0.8681 -0.1480 -0.1382
 7100SOL    HW122199   5.161   0.194   2.085 -0.7412 -0.5389  0.1852
 7100SOL    HW222200   5.123   0.119   2.225  1.9613 -0.4352  1.0262
 7101SOL     OW22201   1.520   2.847   2.546 -0.2156 -0.4886 -0.5158
 7101SOL    HW122202   1.598   2.798   2.586 -0.7794 -2.7919 -2.0457
 7101SOL    HW222203   1.435   2.801   2.571 -0.9927  1.1445 -0.0591
 7102SOL     OW22204   3.123   2.429   5.616  0.0924  0.2673 -0.2191
 7102SOL    HW122205   3.218   2.399   5.604 -0.3175 -0.6960 -1.3676
 7102SOL    HW222206   3.120   2.511   5.672  1.6291  0.5002 -0.4412
 7103SOL     OW22207   4.050   5.807   6.815  0.1251 -0.1769  0.1569
 7103SOL    HW122208   4.041   5.729   6.877 -0.4352 -1.7822 -1.8330
 7103SOL    HW222209   3.963   5.855   6.808  0.0486 -0.3099  0.2027
 7104SOL     OW22210   2.094   2.236   1.136 -0.2233 -0.0882 -0.3720
 7104SOL    HW122211   2.186   2.202   1.116 -0.3688 -0.3406 -0.6214
 7104SOL    HW222212   2.100   2.324   1.184  0.1582 -0.5335  0.4044
 7105SOL     OW22213   2.032   4.643   0.223 -0.2203  0.2565  0.1245
 7105SOL    HW122214   2.029   4.548   0.254  2.2859 -0.9092 -2.7326
 7105SOL    HW222215   2.082   4.698   0.290  0.2638 -0.9386  0.7758
 7106SOL     OW22216   1.760   3.603   6.018  0.3108  0.4457 -0.3807
 7106SOL    HW122217   1.845   3.576   5.973  0.4114  1.6256 -0.9375
 7106SOL    HW222218   1.781   3.669   6.091  0.0567 -0.7517  0.8260
 7107SOL     OW22219   0.581   0.714   4.685  0.0703 -0.5496  0.5222
 7107SOL    HW122220   0.680   0.722   4.677 -0.0266 -0.8535 -1.4887
 7107SOL    HW222221   0.552   0.626   4.646 -1.1958  0.6178 -1.3158
 7108SOL     OW22222   2.437   0.854   3.732  0.2810  0.7904  0.1380
 7108SOL    HW122223   2.348   0.854   3.776  0.4167  1.9177  0.4360
 7108SOL    HW222224   2.440   0.782   3.663 -0.9963  1.0008 -0.1548
 7109SOL     OW22225   2.091   1.246   6.114  0.2130  0.4108 -0.0114
 7109SOL    HW122226   2.000   1.257   6.073  0.3013  0.3209 -0.2324
 7109SOL    HW222227   2.099   1.307   6.193  0.0241  0.5519 -0.0989
 7110SOL     OW22228   3.064   6.841   2.832 -0.2549  0.5240 -0.0122
 7110SOL    HW122229   3.032   6.754   2.796  1.0517 -0.0279  0.1271
 7110SOL    HW222230   3.012   6.916   2.789  0.4344 -0.1636 -2.1482
 7111SOL     OW22231   6.031   2.043   2.537  0.0915 -0.3133  0.9664
 7111SOL    HW122232   5.951   2.048   2.477 -0.1630  0.1895  1.3397
 7111SOL    HW222233   6.114   2.049   2.482 -0.1393 -0.0067  0.6483
 7112SOL     OW22234   0.582   5.196   1.529 -0.2358  0.2070 -0.1564
 7112SOL    HW122235   0.586   5.261   1.605 -0.1721  0.5035 -0.4144
 7112SOL    HW222236   0.665   5.205   1.473 -0.2759 -0.0237 -0.2556
 7113SOL     OW22237   3.446   4.131   3.893  0.3989 -0.4741  0.3113
 7113SOL    HW122238   3.366   4.187   3.871  1.2611  0.2119 -1.1664
 7113SOL    HW222239   3.485   4.093   3.809  1.0337 -1.6394  1.1068
 7114SOL     OW22240   0.105   6.065   2.643 -0.0270 -0.4338 -1.3765
 7114SOL    HW122241   0.177   6.034   2.581  0.6506  1.3761 -1.5545
 7114SOL    HW222242   0.134   6.049   2.738  0.2379 -0.5100 -1.4698
 7115SOL     OW22243   2.482   6.482   2.293 -0.3293 -0.0199  0.2083
 7115SOL    HW122244   2.522   6.401   2.335  1.0641  0.1204 -0.7795
 7115SOL    HW222245   2.520   6.494   2.201 -1.2865  1.1798 -0.0599
 7116SOL     OW22246   2.105   6.639   4.477 -0.4412 -0.2502  0.2013
 7116SOL    HW122247   2.055   6.716   4.436  1.8715  0.7615 -0.8739
 7116SOL    HW222248   2.082   6.555   4.427 -1.6131  0.0323  0.2258
 7117SOL     OW22249   4.913   0.616   4.576 -0.8226  0.5378 -0.4790
 7117SOL    HW122250   4.987   0.673   4.611 -1.2489 -0.0058  1.3934
 7117SOL    HW222251   4.886   0.649   4.485  0.7958  1.5625 -0.6212
 7118SOL     OW22252   5.799   0.111   1.922 -0.6256  0.0663  0.3219
 7118SOL    HW122253   5.853   0.160   1.854 -0.6868 -0.6617 -0.2684
 7118SOL    HW222254   5.852   0.102   2.006  0.1256 -0.4745 -0.1887
 7119SOL     OW22255   2.817   0.086   0.170  0.2926  0.3590  0.4833
 7119SOL    HW122256   2.853   0.154   0.106  0.8872 -0.6751 -0.3073
 7119SOL    HW222257   2.776   0.010   0.118  2.8218 -1.6322  1.1956
 7120SOL     OW22258   4.415   0.352   3.458  0.4322 -0.1031 -0.3581
 7120SOL    HW122259   4.363   0.425   3.503 -0.5075 -0.5819 -0.6600
 7120SOL    HW222260   4.489   0.323   3.519 -0.9151 -0.8559  0.9899
 7121SOL     OW22261   1.945   4.464   3.730 -0.7148 -0.3726  0.4637
 7121SOL    HW122262   1.983   4.401   3.797  0.1261  0.4061  0.7401
 7121SOL    HW222263   1.976   4.557   3.750 -1.6638  0.0888 -0.1284
 7122SOL     OW22264   5.677   0.807   4.722  0.7981  0.7171  0.4303
 7122SOL    HW122265   5.753   0.860   4.760  1.4314  1.0051 -1.1532
 7122SOL    HW222266   5.686   0.711   4.750  0.9487  1.0020  1.4005
 7123SOL     OW22267   2.956   0.338   1.041  0.0772 -0.1702  0.0386
 7123SOL    HW122268   2.946   0.254   0.987  1.1174 -0.6241  0.5253
 7123SOL    HW222269   3.046   0.340   1.084  1.0078  2.3211 -1.8237
 7124SOL     OW22270   4.986   5.121   2.837  0.3614 -0.3110  0.6823
 7124SOL    HW122271   5.005   5.214   2.805 -1.7381 -0.1631 -0.3607
 7124SOL    HW222272   5.056   5.093   2.902  2.0370  1.3159 -0.3135
 7125SOL     OW22273   6.056   4.759   6.869  0.1208 -0.1370 -0.1694
 7125SOL    HW122274   6.046   4.684   6.935  0.3230  1.4072  1.6966
 7125SOL    HW222275   6.131   4.818   6.897 -1.8519  2.3881  0.1076
 7126SOL     OW22276   6.316   4.409   2.695 -0.0407  0.0083  0.1842
 7126SOL    HW122277   6.394   4.460   2.733 -0.0541  1.2438 -1.3737
 7126SOL    HW222278   6.348   4.322   2.659  0.6107  0.4718 -0.3697
 7127SOL     OW22279   4.426   5.545   1.302 -0.9269  0.1950 -0.1468
 7127SOL    HW122280   4.336   5.508   1.324 -1.2122  2.5063  3.4869
 7127SOL    HW222281   4.491   5.517   1.372  0.7107  0.2832 -1.5765
 7128SOL     OW22282   0.360   1.736   5.031  0.2514 -0.2605  0.0903
 7128SOL    HW122283   0.383   1.649   4.986 -0.1149  0.2237 -1.0718
 7128SOL    HW222284   0.271   1.767   4.998 -0.6102 -0.4794  2.0700
 7129SOL     OW22285   5.587   2.786   0.613  0.2750  0.3827 -0.3767
 7129SOL    HW122286   5.606   2.775   0.516  0.5253  0.4756 -0.3388
 7129SOL    HW222287   5.498   2.745   0.635  0.5074 -0.2048 -0.5225
 7130SOL     OW22288   6.078   1.222   0.655  0.3180 -0.6470  0.3944
 7130SOL    HW122289   6.074   1.194   0.559 -0.5898  1.5088 -0.2452
 7130SOL    HW222290   6.016   1.165   0.708 -0.3930 -0.8124 -0.5771
 7131SOL     OW22291   2.267   3.505   0.451 -0.8278 -0.2093 -0.3337
 7131SOL    HW122292   2.199   3.562   0.496 -2.0373 -2.0536  0.3105
 7131SOL    HW222293   2.234   3.411   0.447  1.2018 -0.9505 -1.0677
 7132SOL     OW22294   1.181   4.550   2.889 -0.6360 -0.3112 -0.5073
 7132SOL    HW122295   1.140   4.460   2.870  1.2924 -0.9846 -1.7293
 7132SOL    HW222296   1.275   4.552   2.855 -0.2445  1.8084  0.5340
 7133SOL     OW22297   5.774   5.281   0.126  0.1716  0.2827 -0.2146
 7133SOL    HW122298   5.806   5.195   0.085  0.4440 -0.0904  0.7434
 7133SOL    HW222299   5.836   5.355   0.100  0.8601 -0.1208  0.2488
 7134SOL     OW22300   0.970   1.656   3.322 -0.4811 -0.6093 -0.4865
 7134SOL    HW122301   0.951   1.567   3.280 -0.5562 -0.9738  0.3103
 7134SOL    HW222302   1.054   1.694   3.284  0.3243 -1.6819  0.1994
 7135SOL     OW22303   5.377   0.749   4.028  0.1885  0.2205  0.1472
 7135SOL    HW122304   5.325   0.675   3.986 -0.2074 -0.3082  1.5298
 7135SOL    HW222305   5.341   0.837   3.996 -1.1750 -0.1399  0.6227
 7136SOL     OW22306   5.432   2.741   5.568 -0.0184  0.0651 -0.1742
 7136SOL    HW122307   5.335   2.718   5.570 -0.0497 -0.3865 -3.1962
 7136SOL    HW222308   5.445   2.827   5.519  1.1160  0.0169  0.0201
 7137SOL     OW22309   2.484   3.931   1.739 -0.3409  0.0387  0.5572
 7137SOL    HW122310   2.433   4.016   1.756 -0.1233  0.4528 -0.7356
 7137SOL    HW222311   2.428   3.853   1.768 -2.2143  0.4037 -1.7809
 7138SOL     OW22312   2.138   6.528   0.261  0.1188 -0.3301 -0.1954
 7138SOL    HW122313   2.211   6.460   0.259  0.6410  0.2361 -2.1513
 7138SOL    HW222314   2.053   6.487   0.226  0.0589 -0.3523 -0.0282
 7139SOL     OW22315   6.837   6.820   5.186 -0.4651 -0.2478  0.0416
 7139SOL    HW122316   6.842   6.732   5.138 -0.8772 -0.2819  0.0626
 7139SOL    HW222317   6.900   6.884   5.143  0.9797 -0.9944  0.9593
 7140SOL     OW22318   3.604   1.818   6.408 -0.0604 -0.0760 -0.1546
 7140SOL    HW122319   3.674   1.753   6.379  0.5315  1.0064 -1.2091
 7140SOL    HW222320   3.517   1.770   6.419  0.3814 -1.0646 -0.8089
 7141SOL     OW22321   1.349   0.216   5.171  0.0725 -0.7630  0.4563
 7141SOL    HW122322   1.284   0.199   5.245 -0.4759 -2.7326 -0.4068
 7141SOL    HW222323   1.382   0.129   5.135 -0.0904  0.0835 -1.9536
 7142SOL     OW22324   3.572   6.642   0.308 -0.4921  0.3489  0.2856
 7142SOL    HW122325   3.632   6.718   0.281  1.2405 -1.3226 -0.8191
 7142SOL    HW222326   3.510   6.620   0.232 -0.8431  0.4917  0.5254
 7143SOL     OW22327   1.215   6.630   3.182  0.5815 -0.4946 -0.0548
 7143SOL    HW122328   1.164   6.576   3.250  2.8421 -1.7278  0.7654
 7143SOL    HW222329   1.225   6.724   3.216  1.5130 -1.0442  1.2905
 7144SOL     OW22330   3.926   0.513   3.605  0.1895 -0.1224 -0.3369
 7144SOL    HW122331   3.835   0.479   3.579  0.4415 -0.6359 -0.5559
 7144SOL    HW222332   3.922   0.551   3.697  0.0748 -1.4677  0.2323
 7145SOL     OW22333   0.417   0.146   2.958  0.3767 -0.2112 -0.1119
 7145SOL    HW122334   0.386   0.204   3.033 -0.2790 -2.5323  1.5061
 7145SOL    HW222335   0.413   0.198   2.872 -1.1824  1.7822  1.0826
 7146SOL     OW22336   2.086   1.731   3.763  0.0191 -0.6808  0.0760
 7146SOL    HW122337   2.063   1.728   3.666  0.0765 -1.0938  0.0732
 7146SOL    HW222338   2.029   1.800   3.808  1.3618  0.9447 -0.5968
 7147SOL     OW22339   4.515   1.438   0.717 -0.4704  0.0352 -0.3301
 7147SOL    HW122340   4.569   1.367   0.671 -0.8359  0.2948 -1.1766
 7147SOL    HW222341   4.462   1.488   0.649 -1.5885 -0.0519  0.4599
 7148SOL     OW22342   4.898   4.681   5.369 -0.3883  0.0411  0.1849
 7148SOL    HW122343   4.933   4.627   5.445  1.1078 -1.1745 -1.2711
 7148SOL    HW222344   4.842   4.756   5.403  1.3004  0.3388  2.5406
 7149SOL     OW22345   6.039   1.118   0.393 -0.5394  0.3802 -0.0711
 7149SOL    HW122346   5.952   1.083   0.358 -0.3258  2.1868 -2.7238
 7149SOL    HW222347   6.109   1.112   0.322  1.0109  0.7589  1.3489
 7150SOL     OW22348   3.004   6.048   0.338  0.1657  0.2489  0.3538
 7150SOL    HW122349   2.963   5.990   0.267  0.2573 -0.0656  0.5521
 7150SOL    HW222350   3.098   6.069   0.313  0.6581 -1.0169  1.0283
 7151SOL     OW22351   3.544   1.570   2.619 -0.2614  0.7423 -0.4232
 7151SOL    HW122352   3.462   1.598   2.669 -1.2150  0.7736 -1.9457
 7151SOL    HW222353   3.526   1.572   2.521  0.9486 -1.1457 -0.7465
 7152SOL     OW22354   2.580   4.562   3.792  0.7602  0.0501 -0.2260
 7152SOL    HW122355   2.620   4.577   3.702 -0.0124  2.9655 -0.1872
 7152SOL    HW222356   2.633   4.612   3.861 -0.9418  1.2187  0.2966
 7153SOL     OW22357   0.177   6.176   0.506 -0.1996  0.3016 -0.6027
 7153SOL    HW122358   0.168   6.077   0.518  0.3221  0.3281  0.0690
 7153SOL    HW222359   0.262   6.196   0.457  0.3673  0.4787  0.4321
 7154SOL     OW22360   6.827   5.641   6.679 -0.1561 -0.2308  0.5736
 7154SOL    HW122361   6.736   5.652   6.641 -0.3565 -0.0615  1.0938
 7154SOL    HW222362   6.867   5.731   6.697  1.1110 -0.1915 -1.9468
 7155SOL     OW22363   5.787   4.252   1.968  0.0268  0.7296 -0.1838
 7155SOL    HW122364   5.757   4.347   1.959 -0.2132  0.5779 -1.1285
 7155SOL    HW222365   5.708   4.191   1.969  0.2174  0.3306 -2.6913
 7156SOL     OW22366   5.422   5.865   2.780 -0.2757 -0.6436  0.2829
 7156SOL    HW122367   5.468   5.953   2.767  0.5239 -1.0384  0.4452
 7156SOL    HW222368   5.471   5.793   2.731  0.3943 -1.4034  1.9719
 7157SOL     OW22369   4.142   0.609   5.103  0.0802 -0.7458 -0.1868
 7157SOL    HW122370   4.184   0.670   5.037  0.6838  0.2856  1.1152
 7157SOL    HW222371   4.048   0.638   5.120  0.2251 -0.4405  0.1007
 7158SOL     OW22372   4.468   0.036   6.013 -0.2758 -0.2470 -0.2898
 7158SOL    HW122373   4.437   0.030   6.108 -0.3395 -2.7251 -0.4036
 7158SOL    HW222374   4.438  -0.046   5.963  2.1713 -0.3797 -1.7103
 7159SOL     OW22375   4.548   1.425   6.728  0.6809 -0.1638 -0.3848
 7159SOL    HW122376   4.515   1.451   6.637 -1.8755  0.9080  0.7428
 7159SOL    HW222377   4.620   1.488   6.757  2.4841 -1.3031 -2.1036
 7160SOL     OW22378   6.132   0.112   6.345 -0.3475 -0.5567 -0.0892
 7160SOL    HW122379   6.075   0.036   6.314 -1.3359  0.4278 -0.7844
 7160SOL    HW222380   6.194   0.080   6.416 -1.3422 -1.8107  0.2597
 7161SOL     OW22381   5.871   1.478   0.677  0.1082  0.2396  0.2550
 7161SOL    HW122382   5.939   1.409   0.703  0.7454  0.3918 -0.9471
 7161SOL    HW222383   5.781   1.448   0.707  0.2192 -1.6591 -1.1176
 7162SOL     OW22384   1.785   3.442   2.344  0.2463  0.5164  0.1433
 7162SOL    HW122385   1.763   3.416   2.438 -0.6931  0.3735 -0.1061
 7162SOL    HW222386   1.844   3.372   2.304 -0.2566 -0.0017  0.2764
 7163SOL     OW22387   5.314   1.028   1.922  0.1061 -0.1173  0.3861
 7163SOL    HW122388   5.396   1.007   1.869  0.4779 -2.3706  1.6994
 7163SOL    HW222389   5.340   1.057   2.013 -0.4892 -1.6036  1.0702
 7164SOL     OW22390   1.503   3.472   5.265  0.1717  0.1408  0.3833
 7164SOL    HW122391   1.596   3.482   5.299 -0.6131  0.5867  2.5773
 7164SOL    HW222392   1.475   3.376   5.269  0.2199  0.1370  0.6088
 7165SOL     OW22393   5.557   3.314   1.237  0.1435  0.2893 -0.0506
 7165SOL    HW122394   5.463   3.278   1.238  0.4394 -0.4985  0.0189
 7165SOL    HW222395   5.568   3.374   1.158 -0.0474 -0.6831 -0.8496
 7166SOL     OW22396   4.645   3.763   1.646 -0.0723 -0.2736 -0.6214
 7166SOL    HW122397   4.678   3.852   1.679  1.4807 -0.7601 -0.7631
 7166SOL    HW222398   4.706   3.691   1.680 -0.8403 -1.2057 -1.1789
 7167SOL     OW22399   6.555   0.822   6.859  0.2180  0.3788  0.5942
 7167SOL    HW122400   6.489   0.886   6.896 -2.4475 -1.9636  0.2056
 7167SOL    HW222401   6.612   0.868   6.791 -2.1771  2.1575 -0.3273
 7168SOL     OW22402   1.391   2.812   4.940  0.4086  0.0726 -0.1772
 7168SOL    HW122403   1.491   2.818   4.936  0.4276 -0.3398 -0.3994
 7168SOL    HW222404   1.351   2.882   4.882  0.5836 -0.3313 -0.7972
 7169SOL     OW22405   3.931   3.414   6.870  0.3048  0.3957  0.2681
 7169SOL    HW122406   4.028   3.440   6.869  0.2670  0.9101 -3.2519
 7169SOL    HW222407   3.922   3.317   6.847 -0.0175 -0.1726  2.5540
 7170SOL     OW22408   6.753   4.566   5.897  0.1360  0.6245  0.1506
 7170SOL    HW122409   6.728   4.653   5.855  0.0030  1.0652  1.1123
 7170SOL    HW222410   6.669   4.515   5.919  0.2224 -0.1665 -1.2149
 7171SOL     OW22411   3.834   6.517   5.359 -0.0009 -0.1893 -0.5523
 7171SOL    HW122412   3.756   6.471   5.402  0.1137  1.1426  1.1970
 7171SOL    HW222413   3.819   6.523   5.260 -1.1176 -1.7935 -0.5130
 7172SOL     OW22414   4.562   0.373   5.293 -0.0053 -0.3667 -0.2732
 7172SOL    HW122415   4.491   0.416   5.238  0.3117  1.4585  0.6654
 7172SOL    HW222416   4.551   0.400   5.389  0.6889 -1.7825  0.2341
 7173SOL     OW22417   5.344   3.360   0.461  0.3840 -0.0739 -0.6289
 7173SOL    HW122418   5.299   3.430   0.517  0.0619  0.9334 -2.1030
 7173SOL    HW222419   5.315   3.270   0.491 -0.1514  0.4562  0.5067
 7174SOL     OW22420   3.606   6.399   3.436 -0.3105  0.3491  0.2497
 7174SOL    HW122421   3.667   6.325   3.463  2.0435  1.7056 -1.0047
 7174SOL    HW222422   3.587   6.457   3.515 -0.6366 -0.5264  0.8261
 7175SOL     OW22423   3.332   6.486   6.254  0.1347  0.3234  0.5682
 7175SOL    HW122424   3.317   6.442   6.342  0.2303 -0.6284  0.1213
 7175SOL    HW222425   3.255   6.547   6.233 -1.4600 -1.8121 -0.0880
 7176SOL     OW22426   1.417   0.099   6.390  0.5168 -0.2127  0.0839
 7176SOL    HW122427   1.492   0.040   6.423 -0.4503 -1.0076  0.9476
 7176SOL    HW222428   1.406   0.086   6.292  1.9500  0.4377 -0.1848
 7177SOL     OW22429   5.086   4.727   5.175 -0.5189  0.6903 -0.1753
 7177SOL    HW122430   5.014   4.738   5.243  0.1331  0.9907  0.4865
 7177SOL    HW222431   5.093   4.631   5.148 -0.0773  0.3777  0.9960
 7178SOL     OW22432   3.924   0.798   6.482 -0.2364  0.0389 -0.5954
 7178SOL    HW122433   3.962   0.874   6.534  1.3929 -0.2780 -1.2706
 7178SOL    HW222434   3.948   0.712   6.527 -1.2110 -0.1235 -0.3759
 7179SOL     OW22435   0.016   2.273   1.290 -0.0344  0.0445  0.0458
 7179SOL    HW122436   0.063   2.354   1.325 -0.2288 -0.2901  1.1363
 7179SOL    HW222437   0.070   2.232   1.216  0.7271  0.4161  0.3874
 7180SOL     OW22438   3.876   4.383   0.823 -0.3585 -0.1387  0.1121
 7180SOL    HW122439   3.973   4.360   0.819 -0.4876 -0.8758  0.9830
 7180SOL    HW222440   3.862   4.460   0.886 -0.3134  0.1746 -0.2534
 7181SOL     OW22441   1.051   5.400   2.793 -0.1898 -0.2205  0.3106
 7181SOL    HW122442   1.028   5.489   2.831 -0.7306 -0.7755  1.3352
 7181SOL    HW222443   0.992   5.330   2.834 -0.7775 -0.8633 -1.5488
 7182SOL     OW22444   1.831   1.107   3.686 -0.3560  0.5958  0.6439
 7182SOL    HW122445   1.733   1.087   3.678 -0.2483 -0.7113  2.1744
 7182SOL    HW222446   1.883   1.043   3.630 -0.3886  2.1079 -1.2119
 7183SOL     OW22447   5.462   2.582   2.496 -0.1376  0.0764 -0.5338
 7183SOL    HW122448   5.442   2.484   2.500  1.3848 -0.2163  0.7973
 7183SOL    HW222449   5.426   2.619   2.410  1.1866 -2.1162 -2.1429
 7184SOL     OW22450   4.762   4.131   6.262 -0.2075 -0.3056  0.1143
 7184SOL    HW122451   4.862   4.138   6.254 -0.0684 -0.9673  1.0226
 7184SOL    HW222452   4.719   4.199   6.203  0.8003  0.4996  0.2611
 7185SOL     OW22453   3.475   5.019   1.376 -0.2522  0.4315  0.4651
 7185SOL    HW122454   3.378   5.045   1.376 -0.2476  0.4501  0.5240
 7185SOL    HW222455   3.490   4.947   1.309 -0.3417  0.3007  0.5849
 7186SOL     OW22456   6.602   3.539   0.402  0.3020  1.1357 -0.2768
 7186SOL    HW122457   6.503   3.545   0.397  0.0668 -1.3594 -0.0543
 7186SOL    HW222458   6.633   3.562   0.494 -0.2825  0.1540  0.1766
 7187SOL     OW22459   5.333   5.690   5.080  0.3385  0.0523  0.1729
 7187SOL    HW122460   5.274   5.703   5.160  0.4204  0.5201  0.1582
 7187SOL    HW222461   5.282   5.646   5.007 -0.2235  1.1896 -0.1319
 7188SOL     OW22462   3.194   6.148   2.410 -1.0398  0.1476  0.1749
 7188SOL    HW122463   3.155   6.200   2.486  0.0316  1.2319  0.0243
 7188SOL    HW222464   3.233   6.212   2.343  0.1981 -0.8439 -0.0875
 7189SOL     OW22465   1.373   1.377   3.357 -0.3958 -0.2564 -0.2078
 7189SOL    HW122466   1.345   1.428   3.438  0.2375 -0.0869 -0.0863
 7189SOL    HW222467   1.461   1.412   3.324 -0.3995 -0.6618 -0.6672
 7190SOL     OW22468   3.560   4.133   6.976  0.1086  0.1865 -0.4958
 7190SOL    HW122469   3.588   4.093   7.064  0.6248  0.0518 -0.7161
 7190SOL    HW222470   3.635   4.124   6.911 -0.3228  0.1641 -0.9915
 7191SOL     OW22471   1.092   2.870   3.208  0.9706  0.4946  0.1014
 7191SOL    HW122472   1.061   2.785   3.251  2.3012  0.5084  1.1471
 7191SOL    HW222473   1.092   2.857   3.108 -1.3723  0.2024  0.0700
 7192SOL     OW22474   4.516   0.930   3.587 -0.1426  0.3573 -0.6415
 7192SOL    HW122475   4.457   0.873   3.531 -1.5228 -0.9930  1.9947
 7192SOL    HW222476   4.582   0.873   3.635  1.9171  1.6174 -1.8043
 7193SOL     OW22477   1.319   4.259   4.252 -0.0538  0.0740 -0.2893
 7193SOL    HW122478   1.237   4.311   4.278  1.4275  1.0688  2.8083
 7193SOL    HW222479   1.373   4.313   4.187 -0.9375  0.1897 -0.9479
 7194SOL     OW22480   6.746   5.156   5.370 -0.0726  0.5450  0.1774
 7194SOL    HW122481   6.654   5.143   5.332  0.2646  0.5031 -0.6533
 7194SOL    HW222482   6.756   5.250   5.400  0.7272  1.6099 -2.9889
 7195SOL     OW22483   0.449   3.172   4.193  0.4378  0.1902  0.0797
 7195SOL    HW122484   0.458   3.272   4.185  1.1150  0.1324  0.0188
 7195SOL    HW222485   0.466   3.129   4.105 -0.8487  0.0738 -0.1178
 7196SOL     OW22486   6.165   4.135   4.929 -0.1880 -0.1854  0.5693
 7196SOL    HW122487   6.223   4.216   4.931  0.0377 -0.3617  1.5124
 7196SOL    HW222488   6.071   4.161   4.907 -0.1014  0.3160  0.7851
 7197SOL     OW22489   1.458   6.229   2.114  0.0392 -0.5509  0.1159
 7197SOL    HW122490   1.508   6.143   2.119 -1.9964 -1.7901 -0.0105
 7197SOL    HW222491   1.371   6.221   2.163 -0.9766  0.8799 -1.3388
 7198SOL     OW22492   4.986   6.579   4.581  0.3477  0.1292 -0.3635
 7198SOL    HW122493   4.901   6.615   4.544  0.7454  2.3153  0.7151
 7198SOL    HW222494   5.045   6.549   4.506 -1.0303 -0.7106 -1.1537
 7199SOL     OW22495   3.886   1.628   5.852 -0.3258  0.7244  0.1206
 7199SOL    HW122496   3.945   1.614   5.773 -0.8786 -1.2724  0.0038
 7199SOL    HW222497   3.842   1.717   5.846 -0.5795  0.5019 -2.0029
 7200SOL     OW22498   3.613   3.354   1.024  0.9037  0.0582 -0.4888
 7200SOL    HW122499   3.598   3.417   1.100  2.3044 -0.0728 -0.0779
 7200SOL    HW222500   3.603   3.404   0.937 -0.0339  0.3601 -0.2179
 7201SOL     OW22501   0.367   5.030   6.829  0.2210 -0.4489  0.1925
 7201SOL    HW122502   0.270   5.030   6.853 -0.4938 -1.0316 -2.4072
 7201SOL    HW222503   0.410   4.947   6.865 -0.8311 -1.3855 -0.6305
 7202SOL     OW22504   5.645   2.999   4.347  0.1453  0.5576 -0.3258
 7202SOL    HW122505   5.586   3.038   4.418 -0.2470 -1.3013  0.4422
 7202SOL    HW222506   5.597   2.924   4.301  0.2267  1.9855 -2.9212
 7203SOL     OW22507   1.545   3.302   1.634  0.2405  0.4179 -0.2582
 7203SOL    HW122508   1.633   3.257   1.651  0.7731  2.0974  1.9837
 7203SOL    HW222509   1.555   3.364   1.556  0.9853  0.4376 -0.1590
 7204SOL     OW22510   3.692   6.391   2.454  0.4722  0.2785  0.0215
 7204SOL    HW122511   3.641   6.474   2.434 -0.0207 -0.0217  0.0174
 7204SOL    HW222512   3.708   6.339   2.370 -0.1221 -0.1399  0.1619
 7205SOL     OW22513   2.154   0.147   3.472 -0.4172 -0.0049  0.0225
 7205SOL    HW122514   2.208   0.110   3.548 -2.1633  0.3289  1.4899
 7205SOL    HW222515   2.177   0.243   3.459  1.4935 -0.5981 -1.3984
 7206SOL     OW22516   0.129   4.184   4.192 -0.0864  0.3907  0.0059
 7206SOL    HW122517   0.103   4.088   4.182 -0.6825  0.2719  2.2298
 7206SOL    HW222518   0.184   4.195   4.274 -0.5777  2.0641  0.1414
 7207SOL     OW22519   3.576   1.654   1.500  0.0241  0.7578 -0.0381
 7207SOL    HW122520   3.670   1.643   1.532 -0.5074  1.5048  1.9352
 7207SOL    HW222521   3.558   1.751   1.482 -0.1081  0.5069 -1.3600
 7208SOL     OW22522   6.785   1.708   1.885 -0.0369 -0.0257  0.3348
 7208SOL    HW122523   6.696   1.719   1.929  0.5405  1.0245  1.2811
 7208SOL    HW222524   6.842   1.787   1.904  1.3245 -0.9412  0.2365
 7209SOL     OW22525   4.348   6.369   1.722  0.1227  0.6270  0.3435
 7209SOL    HW122526   4.344   6.399   1.627 -3.0980  0.1413  0.2004
 7209SOL    HW222527   4.313   6.276   1.729 -1.2670  1.2214  2.1372
 7210SOL     OW22528   3.613   5.886   5.205  0.0233 -0.0990  0.1931
 7210SOL    HW122529   3.710   5.862   5.212  0.3732  1.0968 -0.1550
 7210SOL    HW222530   3.564   5.816   5.153  1.0667  0.1452 -1.1787
 7211SOL     OW22531   0.560   2.893   3.401 -0.1009 -0.3549  0.1340
 7211SOL    HW122532   0.515   2.968   3.451  2.0996  1.3670 -0.3109
 7211SOL    HW222533   0.647   2.871   3.446  0.5918 -0.7191 -1.3360
 7212SOL     OW22534   6.573   5.531   1.772 -0.0812 -0.0951  0.1285
 7212SOL    HW122535   6.592   5.470   1.696  0.9298 -0.2007  0.4548
 7212SOL    HW222536   6.526   5.613   1.738 -1.1738 -0.8887 -0.3513
 7213SOL     OW22537   1.851   1.705   1.225  0.5009 -0.0345 -0.0930
 7213SOL    HW122538   1.909   1.786   1.218 -1.2733  1.3761  0.7539
 7213SOL    HW222539   1.862   1.664   1.315  0.7990 -0.2593 -0.2314
 7214SOL     OW22540   2.990   5.154   3.804  0.4232  0.3418  0.4375
 7214SOL    HW122541   2.969   5.153   3.901  1.1828 -0.5194  0.6124
 7214SOL    HW222542   3.084   5.184   3.790  0.7537 -0.7835  0.0891
 7215SOL     OW22543   0.865   1.535   2.011 -0.3348 -0.4682  0.1796
 7215SOL    HW122544   0.875   1.542   2.110 -1.1981  2.0396  0.1486
 7215SOL    HW222545   0.781   1.485   1.988 -0.3776 -0.6382  0.7070
 7216SOL     OW22546   2.022   5.681   0.589  0.0246  0.1139  0.1366
 7216SOL    HW122547   2.110   5.724   0.609  0.1199 -0.1436  0.2765
 7216SOL    HW222548   1.977   5.655   0.675 -0.0995  0.0712  0.0591
 7217SOL     OW22549   5.661   5.798   4.624 -0.4235 -0.0626  0.2209
 7217SOL    HW122550   5.668   5.701   4.601 -1.5042 -0.4405  1.3734
 7217SOL    HW222551   5.568   5.819   4.655 -0.5415  1.6018 -1.0678
 7218SOL     OW22552   5.299   1.172   2.169 -0.2544  0.2480 -0.3975
 7218SOL    HW122553   5.247   1.248   2.132  0.1605  1.6240  1.6666
 7218SOL    HW222554   5.280   1.163   2.267  2.1331 -0.2151  0.0830
 7219SOL     OW22555   6.012   6.278   1.436 -0.3140  0.2051 -0.2964
 7219SOL    HW122556   6.016   6.307   1.340  0.0663 -1.5350 -0.8536
 7219SOL    HW222557   5.957   6.195   1.443 -0.3527  0.3272  1.0078
 7220SOL     OW22558   3.013   3.937   1.348  0.0399  0.0521  0.0691
 7220SOL    HW122559   3.087   3.876   1.377 -0.8610 -0.4226  1.4943
 7220SOL    HW222560   3.020   3.953   1.250  0.9552 -1.4744 -0.1525
 7221SOL     OW22561   6.917   0.475   3.605 -0.0318 -0.0886  0.4709
 7221SOL    HW122562   6.901   0.570   3.632  0.9699 -0.1182  1.2247
 7221SOL    HW222563   6.863   0.414   3.662  0.0283 -0.0168  0.6046
 7222SOL     OW22564   5.341   6.121   1.066 -0.2603 -0.6016 -0.7079
 7222SOL    HW122565   5.255   6.170   1.075 -0.3028 -1.0366  3.1853
 7222SOL    HW222566   5.343   6.070   0.980 -3.8137 -0.4606 -0.9895
 7223SOL     OW22567   2.548   6.378   4.162 -0.0245  0.1084  0.2518
 7223SOL    HW122568   2.615   6.396   4.234  0.3745 -3.4860  0.9683
 7223SOL    HW222569   2.465   6.338   4.202 -1.2066  1.2208 -0.9879
 7224SOL     OW22570   1.421   4.388   5.032  0.2182 -0.7676  0.5397
 7224SOL    HW122571   1.475   4.473   5.030  0.9371 -1.2266 -0.6665
 7224SOL    HW222572   1.333   4.404   4.987  0.7384 -0.8874 -0.5601
 7225SOL     OW22573   1.936   3.999   6.260 -0.7783  0.0690  0.5125
 7225SOL    HW122574   1.927   4.098   6.258 -0.1984  0.1894  2.2281
 7225SOL    HW222575   1.930   3.967   6.355 -0.7090 -1.5156  0.0145
 7226SOL     OW22576   4.435   5.269   3.825  0.3653 -0.3298 -0.2088
 7226SOL    HW122577   4.513   5.309   3.874  0.3022 -0.1163 -0.2845
 7226SOL    HW222578   4.350   5.303   3.865  0.3098  0.9196 -1.3444
 7227SOL     OW22579   4.641   0.772   1.164 -0.3042  0.3511 -0.3603
 7227SOL    HW122580   4.692   0.852   1.133 -1.0417 -0.1578 -3.2132
 7227SOL    HW222581   4.545   0.781   1.138 -0.0136 -2.3603 -3.0355
 7228SOL     OW22582   5.449   4.625   5.051 -0.2055 -0.3192 -0.5824
 7228SOL    HW122583   5.408   4.672   5.128  1.6492 -0.0079  0.2742
 7228SOL    HW222584   5.477   4.692   4.982  1.8799 -0.1357  0.3664
 7229SOL     OW22585   6.359   6.147   6.466 -0.3984 -0.4288 -0.1448
 7229SOL    HW122586   6.399   6.217   6.525 -1.2873 -1.6570  2.0620
 7229SOL    HW222587   6.307   6.190   6.393  0.3604  1.1835  0.2203
 7230SOL     OW22588   2.047   5.429   2.775  0.0258  0.0061  0.2906
 7230SOL    HW122589   1.960   5.463   2.739 -0.1522 -0.7910 -0.0540
 7230SOL    HW222590   2.060   5.334   2.747  0.0322 -0.5620  2.0680
 7231SOL     OW22591   5.240   0.700   2.646 -0.5211  0.0086  0.2683
 7231SOL    HW122592   5.335   0.709   2.616 -0.0927 -3.0040  0.3400
 7231SOL    HW222593   5.232   0.735   2.739  0.6192  0.0285  0.3822
 7232SOL     OW22594   6.448   2.844   6.177  0.6025  0.3199 -0.6008
 7232SOL    HW122595   6.402   2.912   6.119  0.7571  1.1434  0.2318
 7232SOL    HW222596   6.544   2.839   6.152  0.4856  0.0338 -1.0053
 7233SOL     OW22597   3.475   4.009   1.957 -0.1082 -0.0822  1.0449
 7233SOL    HW122598   3.380   4.010   1.926  0.6153 -0.3430 -1.4127
 7233SOL    HW222599   3.514   4.101   1.948  0.5215 -0.4489 -0.3844
 7234SOL     OW22600   6.482   2.108   1.225 -0.1956  0.2299 -0.4247
 7234SOL    HW122601   6.402   2.049   1.216  0.6612 -1.5178  2.2658
 7234SOL    HW222602   6.536   2.103   1.142 -1.6760 -0.3764 -1.4043
 7235SOL     OW22603   3.240   0.383   5.040 -0.1990  0.1977 -0.3665
 7235SOL    HW122604   3.210   0.317   4.972 -0.8199 -0.9427  0.9628
 7235SOL    HW222605   3.242   0.475   4.999 -1.3800 -0.3212 -1.6605
 7236SOL     OW22606   2.935   1.345   6.443  0.1434  0.6526 -0.6207
 7236SOL    HW122607   2.892   1.397   6.517  0.1117  0.7795 -0.7292
 7236SOL    HW222608   2.901   1.377   6.355 -1.0093 -0.5573 -0.6466
 7237SOL     OW22609   6.695   0.128   1.626  0.2881 -0.2054  0.2169
 7237SOL    HW122610   6.676   0.036   1.661  0.8041 -1.0180 -1.5168
 7237SOL    HW222611   6.753   0.122   1.545 -0.8291  1.5572 -0.7895
 7238SOL     OW22612   0.633   3.449   0.033  0.0863 -0.0833 -0.0242
 7238SOL    HW122613   0.689   3.382   0.082 -0.4469  0.4808  1.4068
 7238SOL    HW222614   0.560   3.402  -0.015  0.3105 -0.6132  0.1400
 7239SOL     OW22615   6.897   0.251   0.396 -0.0561  0.3074 -0.6439
 7239SOL    HW122616   6.910   0.293   0.486 -0.5460 -1.2927  0.2062
 7239SOL    HW222617   6.972   0.278   0.336 -0.0910  1.9621  0.0098
 7240SOL     OW22618   2.394   1.562   4.394 -0.1982 -0.1987  0.1252
 7240SOL    HW122619   2.297   1.539   4.386  0.2134 -1.7552 -0.8341
 7240SOL    HW222620   2.406   1.629   4.466 -1.9707 -0.0879  0.3674
 7241SOL     OW22621   6.824   5.763   0.809  0.4883 -0.3581 -0.3134
 7241SOL    HW122622   6.871   5.750   0.896  0.1553 -1.0184 -0.2305
 7241SOL    HW222623   6.769   5.682   0.787 -0.5073  0.3404 -0.4731
 7242SOL     OW22624   4.102   0.973   1.926 -0.5735 -0.1570 -0.1379
 7242SOL    HW122625   4.134   0.957   2.020 -1.4851 -1.0743  0.0293
 7242SOL    HW222626   4.177   1.011   1.872 -0.2832  1.2484  1.1827
 7243SOL     OW22627   4.833   1.426   0.822  0.5745 -0.1627  0.2344
 7243SOL    HW122628   4.842   1.336   0.866 -0.3186 -0.5840 -0.4083
 7243SOL    HW222629   4.853   1.417   0.725 -3.0463 -0.5006 -0.6301
 7244SOL     OW22630   3.646   6.122   5.596 -0.3485  0.0894  0.3437
 7244SOL    HW122631   3.718   6.053   5.592 -0.4602  0.0273 -1.3466
 7244SOL    HW222632   3.557   6.078   5.602 -0.4966 -0.0117 -1.8181
 7245SOL     OW22633   2.322   0.847   2.934 -0.3906 -0.0813  0.0057
 7245SOL    HW122634   2.374   0.893   3.007 -1.4396  2.0512 -0.4930
 7245SOL    HW222635   2.380   0.836   2.854  0.1974 -0.6578  0.4989
 7246SOL     OW22636   2.049   5.026   5.376  0.4398 -0.3004 -0.2343
 7246SOL    HW122637   1.969   5.001   5.431  0.5794  2.0427  1.1692
 7246SOL    HW222638   2.131   5.018   5.431  0.6634  1.4206 -0.2675
 7247SOL     OW22639   4.468   5.894   5.936  0.1617 -0.1208  0.3528
 7247SOL    HW122640   4.404   5.970   5.946  1.2742  0.7881  0.8455
 7247SOL    HW222641   4.511   5.897   5.846  0.5720  0.1467  0.5525
 7248SOL     OW22642   4.851   5.929   5.887  0.5756 -0.0864  0.3271
 7248SOL    HW122643   4.882   5.908   5.794 -0.3996 -0.4044  0.0604
 7248SOL    HW222644   4.793   5.855   5.920  0.6988  0.1564  1.0887
 7249SOL     OW22645   5.633   3.152   0.875  0.1456  0.4422  0.2568
 7249SOL    HW122646   5.634   3.230   0.812 -0.4168  1.4688  1.4838
 7249SOL    HW222647   5.711   3.159   0.937  0.2520 -0.1352  0.1903
 7250SOL     OW22648   4.892   6.512   0.756  0.5883 -0.3946 -0.1174
 7250SOL    HW122649   4.944   6.460   0.689  2.8777  1.4055  0.1709
 7250SOL    HW222650   4.872   6.603   0.721 -2.6040 -1.0345 -0.2689
 7251SOL     OW22651   1.894   2.491   5.565 -0.1599  0.2159 -0.5606
 7251SOL    HW122652   1.911   2.441   5.649 -0.7096  0.5419 -0.2485
 7251SOL    HW222653   1.972   2.550   5.544 -1.1110  2.2197  1.2235
 7252SOL     OW22654   4.894   2.899   5.739 -0.7895 -0.4281 -0.0731
 7252SOL    HW122655   4.799   2.929   5.735 -0.5119  0.3521 -1.0709
 7252SOL    HW222656   4.949   2.953   5.675 -0.0121 -2.1106 -0.8786
 7253SOL     OW22657   1.532   4.540   3.895 -0.1651  0.3378 -0.4348
 7253SOL    HW122658   1.515   4.638   3.901 -1.0028  0.2755 -1.5117
 7253SOL    HW222659   1.579   4.519   3.809  0.5750 -0.1489  0.0696
 7254SOL     OW22660   1.528   2.143   3.681  0.4277  0.5785 -0.2494
 7254SOL    HW122661   1.552   2.235   3.649  0.2211  0.5953 -0.3574
 7254SOL    HW222662   1.569   2.128   3.771  0.7997  0.6248 -0.4088
 7255SOL     OW22663   6.428   1.557   3.089 -0.1527 -0.7129  0.2710
 7255SOL    HW122664   6.399   1.491   3.158 -1.1496 -2.0486 -1.3517
 7255SOL    HW222665   6.353   1.622   3.072 -0.7439 -1.7072 -1.0550
 7256SOL     OW22666   6.841   3.308   5.191 -0.9788 -0.6740  0.2159
 7256SOL    HW122667   6.780   3.244   5.144  0.2964 -1.3224 -0.6004
 7256SOL    HW222668   6.894   3.259   5.260 -1.8735  0.0250  1.4393
 7257SOL     OW22669   5.137   4.888   3.825  0.1396 -0.7664  0.6049
 7257SOL    HW122670   5.056   4.891   3.883 -0.1710 -1.2571  0.2038
 7257SOL    HW222671   5.218   4.908   3.880 -0.0772 -1.8739  1.3471
 7258SOL     OW22672   5.619   2.544   4.864 -0.1414  0.3051  0.2813
 7258SOL    HW122673   5.547   2.564   4.931  0.1311 -0.1878  0.7303
 7258SOL    HW222674   5.618   2.446   4.842  0.1860  0.3519  0.0433
 7259SOL     OW22675   5.492   0.176   1.291 -0.1107 -0.4722  0.2723
 7259SOL    HW122676   5.559   0.157   1.219 -0.9293  0.4133 -0.7573
 7259SOL    HW222677   5.526   0.252   1.348  0.5175 -1.1459  0.8214
 7260SOL     OW22678   6.070   5.832   1.235 -0.1140  1.0417  0.1475
 7260SOL    HW122679   6.003   5.795   1.299 -0.2739  1.9116  0.4947
 7260SOL    HW222680   6.022   5.882   1.163 -0.2084 -2.3876 -2.4385
 7261SOL     OW22681   4.879   2.297   6.175  0.4347  0.2207  0.5538
 7261SOL    HW122682   4.896   2.299   6.077  0.6515  1.2554  0.6089
 7261SOL    HW222683   4.877   2.202   6.206  1.6618 -0.0837 -0.2235
 7262SOL     OW22684   1.200   0.659   5.315  0.1757 -0.4297  0.1782
 7262SOL    HW122685   1.171   0.599   5.390  0.5464 -1.9016 -0.8171
 7262SOL    HW222686   1.248   0.738   5.353  0.8466 -1.4243  1.4753
 7263SOL     OW22687   2.741   4.959   1.423 -0.6816 -0.3592 -0.9025
 7263SOL    HW122688   2.756   5.028   1.494  0.9180 -0.9230 -0.6549
 7263SOL    HW222689   2.719   5.004   1.337  0.6738  0.5042 -0.8265
 7264SOL     OW22690   4.912   0.255   1.537 -0.0384  0.0740  0.3678
 7264SOL    HW122691   4.984   0.188   1.520  0.7299  0.8965  0.2900
 7264SOL    HW222692   4.949   0.329   1.593 -0.5729  0.9672 -0.4352
 7265SOL     OW22693   5.476   6.232   0.322 -0.0011  0.5133  0.2932
 7265SOL    HW122694   5.505   6.295   0.249 -1.4247  1.5186  0.5505
 7265SOL    HW222695   5.520   6.258   0.408  1.2170 -0.3077 -0.0550
 7266SOL     OW22696   6.578   2.255   6.698  0.3135 -0.2430  0.0098
 7266SOL    HW122697   6.586   2.158   6.675  1.2128 -0.2909  0.4811
 7266SOL    HW222698   6.485   2.286   6.679  0.0943 -1.1224 -0.4184
 7267SOL     OW22699   5.812   6.736   5.336  0.1444 -0.0277  0.2566
 7267SOL    HW122700   5.757   6.762   5.415 -0.6613  0.9793 -0.6068
 7267SOL    HW222701   5.803   6.638   5.320 -1.1240  0.0527  0.3609
 7268SOL     OW22702   0.687   1.871   1.447 -0.0130  0.0403  0.3900
 7268SOL    HW122703   0.655   1.814   1.371  0.8665  0.0852 -0.0249
 7268SOL    HW222704   0.681   1.818   1.532  2.0043 -1.1679 -0.1623
 7269SOL     OW22705   3.255   6.098   5.094 -0.0063  0.0599  0.4099
 7269SOL    HW122706   3.192   6.167   5.059  1.0482 -0.0369 -1.8843
 7269SOL    HW222707   3.344   6.140   5.113  0.5276 -0.5497 -0.6305
 7270SOL     OW22708   2.285   2.402   2.281  0.2448  0.7059  0.2268
 7270SOL    HW122709   2.315   2.359   2.196  0.2837  1.0203  0.0816
 7270SOL    HW222710   2.192   2.436   2.270  0.9863  2.6466 -0.3980
 7271SOL     OW22711   1.780   0.508   1.488 -0.2306  0.2538 -0.1983
 7271SOL    HW122712   1.814   0.589   1.535  2.6330 -1.0663  0.2158
 7271SOL    HW222713   1.778   0.525   1.389 -1.4467  1.3842 -0.0061
 7272SOL     OW22714   1.674   2.186   6.853  0.0683  0.5712  0.6520
 7272SOL    HW122715   1.705   2.200   6.759  1.0429  0.2650  0.9102
 7272SOL    HW222716   1.732   2.238   6.915 -0.6435  0.8627  1.0803
 7273SOL     OW22717   5.371   3.669   4.092 -0.6321  0.1413  0.0034
 7273SOL    HW122718   5.328   3.652   4.181 -2.3988 -0.2917 -0.8934
 7273SOL    HW222719   5.319   3.622   4.020  1.3457 -0.3685 -1.1672
 7274SOL     OW22720   3.927   5.919   2.859  0.2152  0.2313 -0.3434
 7274SOL    HW122721   3.947   5.822   2.867  0.1063  0.1030 -1.4220
 7274SOL    HW222722   4.005   5.972   2.892  0.9644 -0.2487 -1.2908
 7275SOL     OW22723   1.586   5.547   3.535  0.2701 -0.1709 -0.9611
 7275SOL    HW122724   1.524   5.472   3.509 -0.0296  0.0512 -0.8937
 7275SOL    HW222725   1.616   5.534   3.629  0.6559 -0.5004 -1.1245
 7276SOL     OW22726   3.110   5.638   1.829 -0.3002  0.1695 -0.2509
 7276SOL    HW122727   3.074   5.636   1.736  1.5960 -1.7039 -1.0375
 7276SOL    HW222728   3.133   5.544   1.857  2.2018  1.0211  0.8243
 7277SOL     OW22729   6.752   1.424   4.652 -0.0783  0.4884 -0.6070
 7277SOL    HW122730   6.818   1.374   4.596 -1.1582 -1.0784 -0.5201
 7277SOL    HW222731   6.708   1.494   4.596  0.1745  0.1716 -1.2102
 7278SOL     OW22732   4.875   3.964   5.069  0.5791  0.2839  0.6429
 7278SOL    HW122733   4.922   4.052   5.078  0.7110  0.3487 -0.4941
 7278SOL    HW222734   4.936   3.898   5.025 -0.8521  0.8512 -2.4570
 7279SOL     OW22735   3.582   6.171   6.143 -1.0979 -0.7663  0.6012
 7279SOL    HW122736   3.624   6.157   6.233 -0.2360 -0.6583  0.2277
 7279SOL    HW222737   3.641   6.131   6.072  0.2499  2.4924 -0.2946
 7280SOL     OW22738   4.579   6.392   6.097 -0.2296  0.0610 -0.5258
 7280SOL    HW122739   4.579   6.430   6.190 -0.7491 -2.1622  0.4642
 7280SOL    HW222740   4.668   6.409   6.055 -0.1965  1.6680  0.1154
 7281SOL     OW22741   1.699   1.517   0.227 -0.0542 -0.0583 -0.0537
 7281SOL    HW122742   1.669   1.424   0.209 -1.4999  0.1710  0.9512
 7281SOL    HW222743   1.799   1.522   0.223 -0.0099 -1.3514 -1.3675
 7282SOL     OW22744   3.424   4.984   5.441  0.3801  0.4902  0.2921
 7282SOL    HW122745   3.482   5.057   5.406  1.6607  0.1486  1.5861
 7282SOL    HW222746   3.470   4.939   5.518 -0.6749 -1.2172 -0.0250
 7283SOL     OW22747   5.448   3.825   6.308 -0.4258 -0.1212 -0.8710
 7283SOL    HW122748   5.422   3.859   6.218 -0.3777 -0.9710 -1.2131
 7283SOL    HW222749   5.366   3.797   6.358 -0.3897 -0.3427 -0.9363
 7284SOL     OW22750   2.405   1.139   3.395 -0.6182  0.4570 -0.1345
 7284SOL    HW122751   2.408   1.238   3.402 -0.3663  0.3922  0.8141
 7284SOL    HW222752   2.496   1.101   3.414 -0.6754  0.0484 -0.6377
 7285SOL     OW22753   3.137   0.595   3.242  0.4798  0.0438  0.3602
 7285SOL    HW122754   3.172   0.502   3.241  0.9747  0.2206  0.5998
 7285SOL    HW222755   3.213   0.659   3.251  0.1438  0.4704  0.2225
 7286SOL     OW22756   0.968   2.009   3.858  0.4170  0.1922  0.2538
 7286SOL    HW122757   1.065   2.016   3.834  0.4182  0.9451  0.4498
 7286SOL    HW222758   0.925   1.938   3.803  0.1085  2.7101 -3.0840
 7287SOL     OW22759   2.669   2.189   1.286  0.3537  0.1876  0.3778
 7287SOL    HW122760   2.729   2.110   1.278  1.1918  0.8457  0.1193
 7287SOL    HW222761   2.658   2.213   1.383  1.4493  0.7648  0.3750
 7288SOL     OW22762   3.053   6.567   0.860 -0.2485  0.1841  0.5642
 7288SOL    HW122763   3.147   6.545   0.833 -0.7740 -2.1254  0.4023
 7288SOL    HW222764   3.050   6.576   0.960  0.1366  0.1945  0.5797
 7289SOL     OW22765   0.537   2.451   0.070 -0.7303 -0.1015 -0.7952
 7289SOL    HW122766   0.461   2.513   0.093 -0.8305 -0.1676 -0.9460
 7289SOL    HW222767   0.531   2.426  -0.026 -0.8576 -0.5754 -0.6702
 7290SOL     OW22768   0.012   0.314   4.862  0.8021 -0.3218  0.1642
 7290SOL    HW122769   0.013   0.414   4.863 -0.5760 -0.2610 -1.0201
 7290SOL    HW222770  -0.052   0.280   4.932  2.0428 -0.4387  1.2802
 7291SOL     OW22771   5.840   6.083   1.366  0.2002  0.7677  0.1012
 7291SOL    HW122772   5.861   5.985   1.373  0.3350  0.6504 -1.5947
 7291SOL    HW222773   5.835   6.109   1.270  0.1632  2.4449  0.5340
 7292SOL     OW22774   4.420   0.322   2.855 -0.3533 -0.1017  0.4499
 7292SOL    HW122775   4.420   0.417   2.823  0.3870 -0.3568 -0.3412
 7292SOL    HW222776   4.424   0.321   2.955 -0.4615  0.6988  0.4702
 7293SOL     OW22777   0.681   2.608   5.068 -0.0394  0.1320  0.2164
 7293SOL    HW122778   0.765   2.656   5.093 -0.1075  0.9832 -1.0580
 7293SOL    HW222779   0.602   2.656   5.105 -0.0946  0.9151 -0.8693
 7294SOL     OW22780   1.706   1.906   4.051 -0.1439 -0.1537 -0.1211
 7294SOL    HW122781   1.753   1.844   4.114 -1.9056  0.2463  1.7043
 7294SOL    HW222782   1.626   1.860   4.013  0.1656  0.0641 -1.0515
 7295SOL     OW22783   1.770   5.574   1.562  0.3997  0.6683 -0.4628
 7295SOL    HW122784   1.778   5.548   1.466  1.2908  0.8349 -0.4367
 7295SOL    HW222785   1.859   5.566   1.607  0.7278  3.5816 -0.4154
 7296SOL     OW22786   6.755   2.573   5.393 -0.1586 -1.0677 -0.1173
 7296SOL    HW122787   6.717   2.634   5.324 -1.2580 -2.4217 -0.7507
 7296SOL    HW222788   6.836   2.615   5.434 -0.4386  0.4551 -1.0744
 7297SOL     OW22789   2.399   0.339   6.425 -0.0901 -0.7038  0.0238
 7297SOL    HW122790   2.332   0.395   6.473 -0.8763 -0.7569 -0.9892
 7297SOL    HW222791   2.372   0.328   6.330 -1.3937 -4.9172  0.6597
 7298SOL     OW22792   4.010   5.861   1.050 -0.5674 -0.5586  0.0922
 7298SOL    HW122793   4.015   5.853   1.149  0.5273 -1.7833 -0.0300
 7298SOL    HW222794   3.952   5.788   1.013  2.7847 -3.2291 -0.4374
 7299SOL     OW22795   1.630   0.125   1.432 -0.4911  0.1576  0.1079
 7299SOL    HW122796   1.610   0.112   1.529  2.3303  1.2754  0.9181
 7299SOL    HW222797   1.667   0.041   1.394  1.0397  0.5148  0.7595
 7300SOL     OW22798   6.736   6.038   2.861 -0.6658 -0.1220 -0.8432
 7300SOL    HW122799   6.828   6.060   2.892 -0.6652 -1.0978 -0.1073
 7300SOL    HW222800   6.672   6.044   2.937 -0.9656 -0.8139 -1.0295
 7301SOL     OW22801   5.111   4.624   6.037  0.0157  0.7363 -0.1069
 7301SOL    HW122802   5.171   4.704   6.038  0.7157  0.2284 -0.4340
 7301SOL    HW222803   5.165   4.542   6.057 -0.2104  0.0361 -2.1535
 7302SOL     OW22804   3.123   1.437   4.488 -0.2089 -0.2404 -0.0139
 7302SOL    HW122805   3.075   1.429   4.401  0.1070 -3.3468  0.0029
 7302SOL    HW222806   3.077   1.506   4.545 -1.8299  0.1638 -1.7174
 7303SOL     OW22807   1.190   4.245   2.400 -0.2753 -0.1310 -0.0393
 7303SOL    HW122808   1.212   4.268   2.306  0.0546 -0.0958  0.0463
 7303SOL    HW222809   1.274   4.240   2.454 -0.1609 -2.6814 -0.3130
 7304SOL     OW22810   0.125   5.227   5.655  0.3581 -0.0198 -0.3713
 7304SOL    HW122811   0.101   5.221   5.752 -2.0252  0.3557 -0.8896
 7304SOL    HW222812   0.173   5.313   5.638  3.6009 -1.4009  0.9375
 7305SOL     OW22813   2.684   1.195   0.478  0.1955  0.0102  0.1100
 7305SOL    HW122814   2.616   1.122   0.473 -0.3611  0.4994  0.3558
 7305SOL    HW222815   2.776   1.156   0.475 -0.0591 -0.5422 -2.3007
 7306SOL     OW22816   6.726   6.685   1.817  0.1320 -0.4876 -0.2967
 7306SOL    HW122817   6.742   6.616   1.747 -0.4698 -0.2090 -0.7176
 7306SOL    HW222818   6.675   6.762   1.778 -1.8586 -1.1618  0.8622
 7307SOL     OW22819   4.871   0.666   0.936 -0.3456 -0.3327  0.5853
 7307SOL    HW122820   4.910   0.706   1.019 -1.4974 -0.2830  1.1263
 7307SOL    HW222821   4.801   0.726   0.900 -0.9880 -1.1107  0.5010
 7308SOL     OW22822   2.576   1.709   4.544  0.0220 -0.2753  0.2932
 7308SOL    HW122823   2.530   1.707   4.633  0.0599  0.2152  0.3276
 7308SOL    HW222824   2.643   1.783   4.543 -1.1294  0.8058 -0.6908
 7309SOL     OW22825   2.868   2.142   4.590  0.0561 -0.0920  0.1060
 7309SOL    HW122826   2.952   2.124   4.539  0.3516  1.1035  0.1489
 7309SOL    HW222827   2.890   2.162   4.685 -0.2969 -0.0307  0.1778
 7310SOL     OW22828   5.015   0.797   0.275  0.5476  0.5406 -0.2706
 7310SOL    HW122829   4.926   0.804   0.231 -0.1053 -0.5598  0.8055
 7310SOL    HW222830   5.071   0.729   0.226  0.1630 -0.0070  0.0404
 7311SOL     OW22831   1.885   1.849   5.954  0.2576 -0.3826  0.3765
 7311SOL    HW122832   1.787   1.835   5.966 -0.0128  1.5681  0.7432
 7311SOL    HW222833   1.930   1.844   6.043  0.9843 -3.9714 -0.0150
 7312SOL     OW22834   4.136   0.715   4.576 -0.7818 -0.2744  0.3862
 7312SOL    HW122835   4.172   0.670   4.658  1.3551 -0.8350 -0.7600
 7312SOL    HW222836   4.133   0.649   4.501 -3.4056  0.0315  0.1297
 7313SOL     OW22837   3.722   1.626   4.358 -0.3036 -0.3999 -0.0816
 7313SOL    HW122838   3.739   1.582   4.446 -2.2325  1.6093  1.4115
 7313SOL    HW222839   3.774   1.711   4.353 -0.5059 -0.3096 -0.7257
 7314SOL     OW22840   3.531   4.401   1.026  0.4243 -0.5768 -0.1482
 7314SOL    HW122841   3.565   4.473   1.087  1.6635  1.4645 -2.9950
 7314SOL    HW222842   3.591   4.321   1.033  1.5520  0.2581  0.1490
 7315SOL     OW22843   2.913   3.525   3.291 -0.4495 -0.3094 -0.1928
 7315SOL    HW122844   2.906   3.445   3.233  0.9115 -0.2946 -0.3913
 7315SOL    HW222845   2.974   3.592   3.250 -0.5497  0.2867  0.5918
 7316SOL     OW22846   5.612   2.818   6.746  0.2427 -0.5556  0.8320
 7316SOL    HW122847   5.553   2.756   6.798 -0.1373  0.2065  1.3336
 7316SOL    HW222848   5.575   2.911   6.751  1.0189 -0.2157  0.4288
 7317SOL     OW22849   1.497   3.982   6.388  0.3867  0.7286 -0.0554
 7317SOL    HW122850   1.398   3.982   6.382  0.4784  0.8383 -2.6144
 7317SOL    HW222851   1.534   4.058   6.334  1.8762  0.3553  0.3832
 7318SOL     OW22852   1.464   1.719   2.308 -0.0775  0.2247  0.5533
 7318SOL    HW122853   1.369   1.733   2.334 -1.2643 -0.6942 -2.7516
 7318SOL    HW222854   1.468   1.677   2.217  3.5047 -0.5377  0.9103
 7319SOL     OW22855   3.846   6.068   2.622 -0.4538  0.4805  0.3508
 7319SOL    HW122856   3.847   6.165   2.646 -0.8843  0.1218  1.9386
 7319SOL    HW222857   3.882   6.014   2.699  1.0495 -0.5415 -0.9982
 7320SOL     OW22858   2.481   4.496   0.299 -0.6497  0.2625  0.1444
 7320SOL    HW122859   2.455   4.579   0.250 -3.6856  0.0528  1.1653
 7320SOL    HW222860   2.474   4.512   0.398  1.3506 -0.4826  0.4499
 7321SOL     OW22861   5.076   2.482   4.570  0.0422  0.5554 -0.3213
 7321SOL    HW122862   5.136   2.556   4.597  1.5742 -0.7231 -0.0522
 7321SOL    HW222863   5.010   2.515   4.502  0.4391  2.2167  0.0640
 7322SOL     OW22864   4.634   6.728   3.356 -0.1141 -0.9821  0.6682
 7322SOL    HW122865   4.641   6.790   3.435  0.5556  0.0734 -0.1891
 7322SOL    HW222866   4.588   6.775   3.281  1.5897 -1.0105 -0.4603
 7323SOL     OW22867   0.342   0.378   6.369  0.2774  0.0022  0.1112
 7323SOL    HW122868   0.365   0.425   6.283 -1.7144 -3.3331 -2.4779
 7323SOL    HW222869   0.306   0.445   6.435  0.6319  2.5320 -2.0931
 7324SOL     OW22870   1.567   3.358   6.710  0.0442  0.6329 -0.4947
 7324SOL    HW122871   1.665   3.378   6.712 -0.0606  1.5291 -2.1613
 7324SOL    HW222872   1.518   3.427   6.763  0.4768 -1.7120  3.3123
 7325SOL     OW22873   5.046   1.664   0.605 -0.0152  0.3192  0.3256
 7325SOL    HW122874   5.121   1.696   0.547 -0.7634 -0.6098 -1.2181
 7325SOL    HW222875   5.022   1.570   0.580 -1.7692  0.6261  0.7008
 7326SOL     OW22876   5.260   6.619   0.732 -0.7122 -0.2525  0.1133
 7326SOL    HW122877   5.334   6.685   0.745  0.0094 -0.9299 -0.4585
 7326SOL    HW222878   5.298   6.533   0.697 -1.5495 -1.1731  1.3484
 7327SOL     OW22879   5.906   4.546   1.290 -0.6094  0.3691 -0.0473
 7327SOL    HW122880   5.810   4.566   1.267 -0.8640 -0.2230  0.4653
 7327SOL    HW222881   5.930   4.456   1.253 -0.3360  0.3854  0.0901
 7328SOL     OW22882   0.140   4.480   4.145  0.1259  0.1685  0.8087
 7328SOL    HW122883   0.171   4.528   4.227 -0.2087 -0.0906  1.0906
 7328SOL    HW222884   0.139   4.381   4.163 -0.0256  0.1161  0.5181
 7329SOL     OW22885   2.568   5.339   4.730  0.5253  0.0595 -0.0040
 7329SOL    HW122886   2.540   5.244   4.718 -0.1726  0.3647 -0.9202
 7329SOL    HW222887   2.626   5.347   4.811 -0.0648 -1.0062  0.5378
 7330SOL     OW22888   6.272   3.807   0.369  0.1784  0.4457 -0.2548
 7330SOL    HW122889   6.198   3.830   0.432  0.5851  0.5675  0.1829
 7330SOL    HW222890   6.245   3.729   0.313  0.0984 -0.1396  0.5841
 7331SOL     OW22891   1.892   3.207   1.114  0.1171 -0.0426 -0.5899
 7331SOL    HW122892   1.903   3.276   1.042 -3.1736  0.9635 -0.3068
 7331SOL    HW222893   1.841   3.129   1.078 -2.3014  0.8289  0.6831
 7332SOL     OW22894   1.360   2.758   0.144  0.4095 -0.2238 -0.4218
 7332SOL    HW122895   1.269   2.792   0.121  0.0390 -0.5642  0.4860
 7332SOL    HW222896   1.427   2.832   0.132 -0.0159  0.0935 -0.8823
 7333SOL     OW22897   4.133   6.612   6.038  0.1430 -0.1589  0.3571
 7333SOL    HW122898   4.196   6.619   5.961 -0.5398 -0.2917 -0.2160
 7333SOL    HW222899   4.149   6.527   6.088  0.7089  0.0158  0.4763
 7334SOL     OW22900   2.464   5.433   1.198  0.6664  0.0714 -0.1180
 7334SOL    HW122901   2.426   5.341   1.202  0.6260  0.0178 -1.3382
 7334SOL    HW222902   2.562   5.428   1.179  0.5062  0.2772 -1.0704
 7335SOL     OW22903   1.896   5.313   2.143 -0.2089  0.5360  0.2130
 7335SOL    HW122904   1.878   5.411   2.134 -1.5770  0.9112  4.4742
 7335SOL    HW222905   1.994   5.296   2.138  0.2071  2.4312  1.1550
 7336SOL     OW22906   5.101   6.018   6.003 -0.7226 -0.3272  0.4225
 7336SOL    HW122907   5.037   5.976   5.938  0.6734 -2.3628  0.2484
 7336SOL    HW222908   5.078   5.988   6.096  0.2981 -1.5722  0.2957
 7337SOL     OW22909   5.879   0.948   6.510 -0.2720  0.5352 -0.4987
 7337SOL    HW122910   5.840   0.913   6.425 -1.0597  1.3405 -0.4751
 7337SOL    HW222911   5.809   0.949   6.582  0.3471 -0.0061  0.1343
 7338SOL     OW22912   2.086   2.599   4.533  0.4482  0.0857  0.3498
 7338SOL    HW122913   2.090   2.695   4.561  2.2538  0.4085 -0.9124
 7338SOL    HW222914   2.026   2.590   4.453 -3.4761 -0.6194  3.0538
 7339SOL     OW22915   4.907   1.526   2.424 -0.3573  0.6939 -0.0667
 7339SOL    HW122916   4.879   1.444   2.373 -0.7434  0.8192 -0.0559
 7339SOL    HW222917   5.001   1.550   2.399  1.3958 -2.1912  2.9481
 7340SOL     OW22918   2.172   3.626   5.064  0.0199  0.7339 -0.2142
 7340SOL    HW122919   2.120   3.541   5.056  0.2785  0.5685 -0.1416
 7340SOL    HW222920   2.199   3.658   4.973 -0.8288  1.2094 -0.3119
 7341SOL     OW22921   2.779   2.248   1.776  0.0162  0.0540 -0.0915
 7341SOL    HW122922   2.818   2.335   1.807  0.7667 -0.8054  1.5248
 7341SOL    HW222923   2.813   2.174   1.834  0.3648 -1.5114 -2.1844
 7342SOL     OW22924   1.884   0.979   5.255  0.6037 -0.4389 -0.1559
 7342SOL    HW122925   1.802   0.997   5.308  0.3174  0.0169 -0.7504
 7342SOL    HW222926   1.907   0.881   5.260 -1.3724 -1.0684 -1.9552
 7343SOL     OW22927   2.981   5.415   4.797 -0.0901 -0.1677  0.0583
 7343SOL    HW122928   2.902   5.385   4.851  0.0529 -1.3667 -0.3711
 7343SOL    HW222929   3.063   5.364   4.826  0.4261  0.6992  0.1536
 7344SOL     OW22930   4.159   2.249   5.939 -0.4878  0.4207 -0.0125
 7344SOL    HW122931   4.203   2.322   5.886  1.9536 -0.3802  0.7738
 7344SOL    HW222932   4.207   2.238   6.026 -3.3335  0.5463  1.6973
 7345SOL     OW22933   6.155   1.383   0.397  0.7039 -0.2651  0.2630
 7345SOL    HW122934   6.114   1.292   0.409  3.3614 -1.3242  2.6088
 7345SOL    HW222935   6.217   1.381   0.319  3.1011 -1.6122  2.0264
 7346SOL     OW22936   2.750   5.907   5.010 -0.6623 -0.4505 -0.2512
 7346SOL    HW122937   2.693   5.839   4.964  0.2408 -1.3305 -0.1023
 7346SOL    HW222938   2.714   5.925   5.101 -0.6624 -1.0550 -0.1314
 7347SOL     OW22939   1.093   4.378   4.338  0.3880 -0.4135 -0.4260
 7347SOL    HW122940   1.034   4.409   4.263  1.2736 -0.2623 -1.0752
 7347SOL    HW222941   1.126   4.458   4.389  1.9187 -0.2880 -1.5275
 7348SOL     OW22942   0.317   4.794   6.602  0.5676 -0.0277  0.0293
 7348SOL    HW122943   0.223   4.800   6.568  0.7674  2.1056 -0.2757
 7348SOL    HW222944   0.352   4.885   6.620  2.4556 -0.8054  0.5677
 7349SOL     OW22945   2.537   0.164   5.759 -0.4464  0.7600 -0.0509
 7349SOL    HW122946   2.532   0.092   5.829  1.0056  0.7452  0.0852
 7349SOL    HW222947   2.544   0.253   5.804 -1.6960  0.9528 -0.2155
 7350SOL     OW22948   6.004   3.310   6.687 -0.9735 -0.0484  0.0095
 7350SOL    HW122949   5.970   3.377   6.753  0.7703  0.2969  0.6160
 7350SOL    HW222950   6.097   3.335   6.659 -2.0870  0.6212 -3.6982
 7351SOL     OW22951   1.819   0.970   4.558  0.1313  0.1414 -0.3949
 7351SOL    HW122952   1.787   0.878   4.535 -0.2360 -0.0010  0.6322
 7351SOL    HW222953   1.760   1.038   4.514 -0.2846 -0.1186 -0.2431
 7352SOL     OW22954   4.890   0.108   6.786  0.2359 -0.1116  0.2759
 7352SOL    HW122955   4.929   0.098   6.878 -0.1943  1.9593  0.7149
 7352SOL    HW222956   4.873   0.204   6.767 -0.3714 -0.5706 -1.7179
 7353SOL     OW22957   2.198   5.288   0.203 -0.2873 -0.6010 -0.4325
 7353SOL    HW122958   2.167   5.363   0.262 -1.0743 -1.1837 -0.0878
 7353SOL    HW222959   2.215   5.324   0.111 -0.2010  0.0863 -0.1572
 7354SOL     OW22960   5.112   6.994   2.899  0.1424  0.3331 -0.2300
 7354SOL    HW122961   5.054   7.023   2.975 -3.5563 -1.6033 -2.0399
 7354SOL    HW222962   5.150   6.903   2.919  1.0481  0.7906  0.1774
 7355SOL     OW22963   4.631   0.928   5.101  0.3267 -0.0467 -0.1116
 7355SOL    HW122964   4.572   0.967   5.031 -0.5642 -0.6989  0.2612
 7355SOL    HW222965   4.670   1.001   5.157 -2.3881  0.3226  1.4461
 7356SOL     OW22966   4.226   0.053   6.550  0.2829  0.1369  0.3035
 7356SOL    HW122967   4.136   0.081   6.583 -0.3684 -1.5231  0.0485
 7356SOL    HW222968   4.297   0.086   6.613 -0.5549  0.8136  0.9135
 7357SOL     OW22969   6.065   4.606   5.995 -0.1580  0.3123  0.7139
 7357SOL    HW122970   6.058   4.507   6.002  0.2307  0.2020 -0.3477
 7357SOL    HW222971   5.974   4.645   5.978  0.0506 -0.1568 -1.9335
 7358SOL     OW22972   5.715   0.162   5.597 -0.0048 -0.8147  0.2301
 7358SOL    HW122973   5.775   0.197   5.669 -0.1663 -1.5878  0.7462
 7358SOL    HW222974   5.652   0.095   5.636 -1.2851  0.0607 -0.2736
 7359SOL     OW22975   1.207   3.683   1.940 -0.2495 -0.3745  0.2083
 7359SOL    HW122976   1.264   3.652   2.016  0.2630  1.1433  0.4795
 7359SOL    HW222977   1.159   3.766   1.967 -0.4560 -0.1071 -0.9599
 7360SOL     OW22978   0.825   3.762   2.230 -0.7083  0.0419  0.4049
 7360SOL    HW122979   0.816   3.836   2.164  0.9646  2.6028  2.8452
 7360SOL    HW222980   0.903   3.704   2.204 -0.7931  0.2906 -0.4533
 7361SOL     OW22981   6.600   2.004   6.178  0.9417 -0.5930 -0.4267
 7361SOL    HW122982   6.609   1.915   6.223  0.6385  0.6505  2.2919
 7361SOL    HW222983   6.515   2.006   6.126  1.2771 -2.0978 -1.0701
 7362SOL     OW22984   6.567   6.372   2.038  0.2169  0.0361  0.7653
 7362SOL    HW122985   6.651   6.358   1.986 -0.3445  1.1277 -0.5017
 7362SOL    HW222986   6.548   6.470   2.046 -0.9142 -0.1874  1.0420
 7363SOL     OW22987   5.050   5.301   1.647 -0.3664 -0.2332  0.3325
 7363SOL    HW122988   5.139   5.339   1.668  0.0525 -0.7791 -0.4106
 7363SOL    HW222989   5.012   5.258   1.729 -0.9406  1.8749  1.2502
 7364SOL     OW22990   2.257   5.396   5.680  0.0925  0.1342 -0.1104
 7364SOL    HW122991   2.199   5.382   5.600  1.0780 -0.4532 -0.7353
 7364SOL    HW222992   2.333   5.456   5.656 -0.1386  0.7483  0.6555
 7365SOL     OW22993   4.990   2.497   3.648  0.0109 -0.6806 -0.2302
 7365SOL    HW122994   5.021   2.581   3.692  0.0898 -0.0296 -1.4720
 7365SOL    HW222995   5.055   2.423   3.668  0.9223 -0.0002 -0.5634
 7366SOL     OW22996   6.372   5.401   5.146 -0.4044  0.4336  0.3255
 7366SOL    HW122997   6.371   5.501   5.148  1.3260  0.4984 -0.5901
 7366SOL    HW222998   6.387   5.367   5.239 -0.9941  1.0059  0.6458
 7367SOL     OW22999   3.742   0.047   5.496 -0.0118  0.1876  0.3160
 7367SOL    HW123000   3.706   0.013   5.583 -1.5746 -1.8787 -1.0359
 7367SOL    HW223001   3.759  -0.030   5.434  0.6950  1.6088 -1.3475
 7368SOL     OW23002   5.077   3.278   2.293  0.0002  0.3665 -0.8911
 7368SOL    HW123003   5.025   3.202   2.330 -0.5598  1.1690  0.0277
 7368SOL    HW223004   5.112   3.335   2.368 -0.9562  1.8988 -1.5505
 7369SOL     OW23005   1.557   0.579   1.303 -0.6655  0.4757  0.1261
 7369SOL    HW123006   1.589   0.566   1.398  0.9912 -1.1806 -0.5856
 7369SOL    HW223007   1.460   0.600   1.304 -0.5711  1.1292  2.2254
 7370SOL     OW23008   5.658   3.958   0.323  0.3586 -0.8936 -0.7204
 7370SOL    HW123009   5.704   3.883   0.371  2.1650 -0.6576 -1.9767
 7370SOL    HW223010   5.692   3.963   0.229  1.0854  2.1434 -0.3864
 7371SOL     OW23011   4.992   2.361   4.882  0.3966 -0.1472  0.0353
 7371SOL    HW123012   5.022   2.290   4.819 -0.2896  0.8879 -1.5293
 7371SOL    HW223013   4.898   2.342   4.912  0.0470  0.2976 -0.7398
 7372SOL     OW23014   5.023   2.001   5.222  0.2442 -0.2603  0.1141
 7372SOL    HW123015   5.066   2.032   5.138  0.1115 -0.3397  0.0175
 7372SOL    HW223016   5.045   2.064   5.296 -1.3691  0.9939 -0.4237
 7373SOL     OW23017   6.399   4.215   5.754  0.2863  0.1746  0.2087
 7373SOL    HW123018   6.441   4.280   5.818  1.3146 -0.6218  0.3609
 7373SOL    HW223019   6.470   4.165   5.705 -0.4058 -2.3686  1.6384
 7374SOL     OW23020   4.788   2.655   3.576 -0.0513  0.1842 -0.4117
 7374SOL    HW123021   4.859   2.588   3.597  1.1343  1.3026 -0.6391
 7374SOL    HW223022   4.702   2.629   3.619  0.3247 -1.5582 -0.6691
 7375SOL     OW23023   0.970   1.194   6.793  0.2535  0.6442  0.9759
 7375SOL    HW123024   0.881   1.235   6.771 -0.3252 -0.3509  1.3982
 7375SOL    HW223025   0.962   1.141   6.877  0.5002 -1.7952 -0.4430
 7376SOL     OW23026   5.669   2.506   0.671 -0.2512  0.7486 -0.4651
 7376SOL    HW123027   5.616   2.507   0.586  0.1335 -2.3335 -0.8897
 7376SOL    HW223028   5.616   2.548   0.745 -1.3828  1.7683 -1.8179
 7377SOL     OW23029   0.963   1.446   1.290  0.5490  0.2808 -0.3572
 7377SOL    HW123030   0.923   1.461   1.380  2.9324 -0.1764  0.8587
 7377SOL    HW223031   0.943   1.524   1.231  0.3288  1.3675  1.1036
 7378SOL     OW23032   0.858   4.888   2.554 -0.1262 -0.6771 -0.2110
 7378SOL    HW123033   0.937   4.921   2.503 -1.5712  0.8728 -1.5667
 7378SOL    HW223034   0.886   4.863   2.647  1.9748 -0.4491 -0.7364
 7379SOL     OW23035   5.750   1.651   6.828 -0.0801  0.1558 -0.0493
 7379SOL    HW123036   5.775   1.728   6.769  2.9389  0.4759  1.4393
 7379SOL    HW223037   5.804   1.571   6.802  0.0456 -0.1681  1.1656
 7380SOL     OW23038   6.308   2.674   4.454 -0.9053  0.2618 -0.2046
 7380SOL    HW123039   6.370   2.685   4.377 -0.2097 -0.0882  0.2996
 7380SOL    HW223040   6.216   2.705   4.428 -0.6814  0.1222 -1.1754
 7381SOL     OW23041   3.075   3.427   2.910 -0.0040 -0.7473  0.2050
 7381SOL    HW123042   3.006   3.490   2.874  0.5889  0.5630  1.2705
 7381SOL    HW223043   3.040   3.381   2.992  0.9214  1.2705  1.8394
 7382SOL     OW23044   5.540   0.036   2.879 -0.4816 -0.0922  0.3654
 7382SOL    HW123045   5.513   0.055   2.973  0.1112  3.5817 -0.0657
 7382SOL    HW223046   5.475   0.079   2.816  0.4841 -0.3218 -0.8318
 7383SOL     OW23047   2.518   1.200   2.688 -0.3265  0.1192 -0.1580
 7383SOL    HW123048   2.436   1.249   2.660 -0.8250 -0.1297  0.8103
 7383SOL    HW223049   2.596   1.230   2.633 -1.0893  0.2418 -1.2023
 7384SOL     OW23050   1.612   2.859   1.525 -0.2516  0.0846  0.5887
 7384SOL    HW123051   1.619   2.845   1.624 -0.1462  2.5116  0.9874
 7384SOL    HW223052   1.515   2.863   1.499 -0.2810 -1.0257  0.4976
 7385SOL     OW23053   5.444   1.073   2.564  0.1772  0.4853 -0.0587
 7385SOL    HW123054   5.482   0.996   2.512 -0.1706 -0.1676  0.6254
 7385SOL    HW223055   5.518   1.135   2.590  0.5228  0.1591 -0.2499
 7386SOL     OW23056   0.386   4.113   2.400  0.0086  0.1681 -0.6681
 7386SOL    HW123057   0.442   4.185   2.358  0.1501 -0.7190 -2.0962
 7386SOL    HW223058   0.440   4.029   2.405 -0.2450  0.0700  0.7177
 7387SOL     OW23059   0.263   6.353   6.621 -0.1806  0.9789 -0.0760
 7387SOL    HW123060   0.363   6.353   6.627 -0.2121  2.8048  0.9067
 7387SOL    HW223061   0.232   6.437   6.576 -1.1628 -1.2327 -3.9951
 7388SOL     OW23062   5.379   1.750   1.247  0.3220 -0.5073  0.7059
 7388SOL    HW123063   5.308   1.801   1.294 -0.6108  0.5483 -1.6796
 7388SOL    HW223064   5.444   1.813   1.205 -0.7132 -1.1369 -2.1038
 7389SOL     OW23065   6.241   0.924   6.999 -0.3414 -0.2343 -0.4141
 7389SOL    HW123066   6.273   0.873   7.079  0.4551  0.5527 -0.2110
 7389SOL    HW223067   6.318   0.972   6.957 -0.6296 -1.1731 -2.0747
 7390SOL     OW23068   4.693   5.700   0.000  0.4430  0.6014 -0.2251
 7390SOL    HW123069   4.658   5.739   0.085  0.6153  0.2692  0.0001
 7390SOL    HW223070   4.697   5.600   0.009 -0.7704  0.4463 -1.0734
 7391SOL     OW23071   5.511   6.526   6.528  0.3781 -0.0673  0.1624
 7391SOL    HW123072   5.489   6.429   6.513  0.2746  0.2055 -1.6796
 7391SOL    HW223073   5.455   6.561   6.603 -0.2310 -1.2124  0.2707
 7392SOL     OW23074   4.365   4.762   3.594  0.3874  0.0939 -0.3698
 7392SOL    HW123075   4.400   4.744   3.502 -1.8744  1.0165 -1.4892
 7392SOL    HW223076   4.424   4.828   3.640  0.6847  0.8410 -1.7750
 7393SOL     OW23077   1.640   2.523   0.744 -0.1258 -0.2450 -0.2366
 7393SOL    HW123078   1.625   2.530   0.646 -0.8205  1.7600 -0.0368
 7393SOL    HW223079   1.716   2.584   0.771  0.6036 -1.3860  0.3727
 7394SOL     OW23080   4.399   2.646   6.243  0.6432  0.1972  0.0854
 7394SOL    HW123081   4.340   2.682   6.170  0.3426  1.1631  0.7785
 7394SOL    HW223082   4.492   2.681   6.230  0.4097  1.0411  0.6089
 7395SOL     OW23083   3.070   2.463   6.872  0.0722 -0.2184 -0.0862
 7395SOL    HW123084   2.986   2.454   6.818 -0.7361 -0.7552  1.2076
 7395SOL    HW223085   3.110   2.373   6.888  0.3111 -0.0696  0.1657
 7396SOL     OW23086   3.334   6.738   5.255 -0.5022 -0.0589  0.3514
 7396SOL    HW123087   3.423   6.767   5.290  0.6100 -1.4963 -1.1237
 7396SOL    HW223088   3.324   6.639   5.268 -1.8472  0.0643  0.3978
 7397SOL     OW23089   5.131   2.944   2.680  0.2276 -0.2217  0.0434
 7397SOL    HW123090   5.135   3.033   2.726  0.7036 -0.3593  0.2761
 7397SOL    HW223091   5.218   2.927   2.633  0.8300 -1.3473  1.4939
 7398SOL     OW23092   6.520   3.418   3.703 -0.3418 -0.3406  0.2285
 7398SOL    HW123093   6.466   3.476   3.764 -1.3702 -1.9976  0.9398
 7398SOL    HW223094   6.617   3.443   3.711 -0.6667  0.7459  1.0823
 7399SOL     OW23095   0.391   2.032   4.461  0.0183  0.6608 -0.0917
 7399SOL    HW123096   0.488   2.017   4.438  0.2353  1.4629  0.2676
 7399SOL    HW223097   0.379   2.025   4.560 -0.3119  0.4572 -0.1475
 7400SOL     OW23098   1.243   3.377   2.527  0.4808 -0.5350  0.0016
 7400SOL    HW123099   1.328   3.354   2.479  0.9659 -1.1496  1.1226
 7400SOL    HW223100   1.264   3.403   2.621 -0.3860  1.3639 -0.2887
 7401SOL     OW23101   3.982   6.811   0.713  0.4481 -0.6134  0.5381
 7401SOL    HW123102   3.935   6.896   0.689  1.6800 -0.2064 -0.5568
 7401SOL    HW223103   3.933   6.766   0.788 -1.5799 -0.1609 -0.4399
 7402SOL     OW23104   1.950   3.513   3.103 -0.0211  0.1264  0.0708
 7402SOL    HW123105   1.853   3.502   3.125  0.6134 -1.3434  2.6031
 7402SOL    HW223106   1.979   3.437   3.044 -0.1486 -0.1224  0.3257
 7403SOL     OW23107   6.769   6.273   1.880 -0.0823  0.2522 -0.0882
 7403SOL    HW123108   6.861   6.269   1.841 -0.2326 -0.1470 -0.4009
 7403SOL    HW223109   6.743   6.183   1.914 -1.0254 -0.0517 -1.5423
 7404SOL     OW23110   1.801   5.239   6.334 -0.3969 -0.2374  0.0674
 7404SOL    HW123111   1.848   5.202   6.254 -0.6129  1.2739 -0.7988
 7404SOL    HW223112   1.737   5.310   6.305 -1.2892 -0.4153  1.4913
 7405SOL     OW23113   5.285   5.296   6.774  0.4746 -0.2992  0.3530
 7405SOL    HW123114   5.319   5.262   6.861  0.2003 -0.5722  0.3557
 7405SOL    HW223115   5.188   5.272   6.764  0.2303  0.6181  0.4262
 7406SOL     OW23116   1.291   6.213   6.680  0.5054 -0.5416 -0.4663
 7406SOL    HW123117   1.234   6.154   6.623  0.3950 -0.1123 -0.8050
 7406SOL    HW223118   1.251   6.305   6.684 -0.7702 -1.1119  2.1766
 7407SOL     OW23119   1.800   4.115   4.338  0.2741 -0.4438  0.4625
 7407SOL    HW123120   1.818   4.041   4.273  2.2159 -0.4188  0.9125
 7407SOL    HW223121   1.834   4.089   4.429  0.0636  0.6080  0.8604
 7408SOL     OW23122   5.538   6.885   4.456 -0.6243  0.4993  0.6940
 7408SOL    HW123123   5.461   6.939   4.490 -0.3219  2.0801 -0.9565
 7408SOL    HW223124   5.507   6.794   4.431 -2.0195  1.1651 -0.1120
 7409SOL     OW23125   6.113   0.982   6.680  0.1563  0.5069 -0.8966
 7409SOL    HW123126   6.118   0.895   6.729 -0.0413  1.0370  0.0822
 7409SOL    HW223127   6.045   0.975   6.607 -2.1754  0.7345  1.1169
 7410SOL     OW23128   2.770   5.318   4.463  0.0323 -0.8141 -0.2519
 7410SOL    HW123129   2.712   5.317   4.545 -0.0026  0.0899 -0.2548
 7410SOL    HW223130   2.824   5.403   4.461 -1.4056  0.1392 -2.1545
 7411SOL     OW23131   4.202   1.094   0.833  0.1807 -0.3384  0.7113
 7411SOL    HW123132   4.156   1.177   0.864  1.4273  0.7043 -0.1180
 7411SOL    HW223133   4.301   1.109   0.832  0.3039 -0.6892 -2.4532
 7412SOL     OW23134   6.975   0.616   6.677 -0.3416  0.5729 -0.1002
 7412SOL    HW123135   6.934   0.681   6.613 -1.3128  0.7530  0.6916
 7412SOL    HW223136   7.023   0.666   6.749  2.3595  0.3799 -1.6325
 7413SOL     OW23137   1.039   2.376   1.866  0.2190 -0.3333 -0.0772
 7413SOL    HW123138   0.943   2.400   1.885 -0.2585 -0.6739 -1.8714
 7413SOL    HW223139   1.070   2.425   1.785  0.2315 -3.1889 -1.9475
 7414SOL     OW23140   5.726   4.842   4.623 -0.1766  0.0922  0.5162
 7414SOL    HW123141   5.777   4.782   4.561 -2.2853 -1.2037 -0.0827
 7414SOL    HW223142   5.775   4.929   4.634  1.7220 -0.7777 -0.5873
 7415SOL     OW23143   0.358   6.738   3.972  0.5704 -0.0811 -0.1423
 7415SOL    HW123144   0.397   6.769   4.058  1.3692  0.4955 -0.7087
 7415SOL    HW223145   0.414   6.769   3.896 -1.3584  1.3947 -1.0348
 7416SOL     OW23146   5.047   2.560   3.340  0.0157  0.1210  0.0554
 7416SOL    HW123147   5.014   2.645   3.299  1.1367  1.1586  1.2110
 7416SOL    HW223148   4.988   2.535   3.417  1.2065  1.4252  1.4781
 7417SOL     OW23149   5.324   4.869   1.143 -0.6608 -0.4265  0.6904
 7417SOL    HW123150   5.353   4.777   1.169 -1.8844 -1.6691 -1.9835
 7417SOL    HW223151   5.236   4.890   1.187 -0.5917 -0.7094  0.9671
 7418SOL     OW23152   5.624   5.454   0.991 -0.2832 -0.6033 -0.5587
 7418SOL    HW123153   5.555   5.463   0.919  1.2493  0.0474 -1.9928
 7418SOL    HW223154   5.706   5.505   0.966 -0.6537  2.1549  2.9383
 7419SOL     OW23155   4.522   4.949   3.705  0.4049 -0.8482 -0.2539
 7419SOL    HW123156   4.584   5.028   3.707  0.6109 -0.9970 -0.6427
 7419SOL    HW223157   4.445   4.966   3.766  0.2252 -0.1611 -0.6614
 7420SOL     OW23158   6.108   5.163   6.776  0.5612  0.0940  0.1767
 7420SOL    HW123159   6.135   5.259   6.778 -1.1359  0.7463 -2.8063
 7420SOL    HW223160   6.010   5.156   6.759  0.5478 -2.1917  0.8459
 7421SOL     OW23161   0.140   6.794   2.885 -0.2719  0.1226  0.4764
 7421SOL    HW123162   0.086   6.836   2.958  0.8176  1.3565  0.6015
 7421SOL    HW223163   0.159   6.862   2.815 -1.5315 -1.1081 -1.1329
 7422SOL     OW23164   3.784   6.911   4.468 -0.8867  0.2902  0.1500
 7422SOL    HW123165   3.874   6.918   4.511 -0.9018  2.7587 -0.0427
 7422SOL    HW223166   3.733   6.834   4.507  0.9423 -0.5884  0.9140
 7423SOL     OW23167   0.615   0.871   6.349  0.0254  0.3591  0.8049
 7423SOL    HW123168   0.680   0.945   6.336 -2.2854  2.6113  1.2682
 7423SOL    HW223169   0.624   0.834   6.442  0.0026  1.3181  1.1963
 7424SOL     OW23170   6.080   0.526   3.210  0.1295 -0.0123 -0.1522
 7424SOL    HW123171   6.023   0.549   3.131 -1.4397  0.2679  1.0270
 7424SOL    HW223172   6.168   0.491   3.178  0.9234  3.2727 -2.0615
 7425SOL     OW23173   0.190   1.246   3.173  0.2047 -0.1918 -0.0395
 7425SOL    HW123174   0.281   1.272   3.139 -0.1376 -0.0585 -0.8666
 7425SOL    HW223175   0.141   1.328   3.202  0.6348 -0.3364  1.1809
 7426SOL     OW23176   5.460   3.292   0.200 -0.1259 -0.4464  0.2841
 7426SOL    HW123177   5.490   3.196   0.197  0.0733 -0.3686 -0.2508
 7426SOL    HW223178   5.369   3.297   0.241 -0.4918 -0.9569 -0.4437
 7427SOL     OW23179   3.287   3.794   6.154 -0.0248  0.0131  0.2521
 7427SOL    HW123180   3.301   3.864   6.224  0.0651  0.6251 -0.3695
 7427SOL    HW223181   3.365   3.731   6.154  0.0290  0.0763  0.6225
 7428SOL     OW23182   5.471   6.719   2.801  0.7745  0.3507 -0.4264
 7428SOL    HW123183   5.380   6.702   2.837  0.7249 -0.9107 -1.0792
 7428SOL    HW223184   5.532   6.748   2.875 -0.1941  1.4576 -0.0322
 7429SOL     OW23185   3.026   4.794   2.423  0.0368 -0.0621 -0.2296
 7429SOL    HW123186   3.093   4.725   2.394 -0.4186 -0.9249  0.6764
 7429SOL    HW223187   3.067   4.885   2.418  0.8174 -0.4440 -0.9845
 7430SOL     OW23188   1.705   0.037   4.667  0.0465  0.1641 -0.6901
 7430SOL    HW123189   1.690  -0.058   4.639 -0.1086 -0.1073  0.2762
 7430SOL    HW223190   1.640   0.062   4.739  0.2276  0.9366 -0.7796
 7431SOL     OW23191   0.210   6.110   6.731  0.2099  0.0033 -0.4874
 7431SOL    HW123192   0.219   6.183   6.664  3.2829 -0.6578 -0.9662
 7431SOL    HW223193   0.166   6.031   6.689 -0.4354  0.5469 -0.8511
 7432SOL     OW23194   6.938   6.652   6.234 -0.0452  0.3663  0.4572
 7432SOL    HW123195   6.933   6.698   6.323 -2.2112  1.7067 -0.2869
 7432SOL    HW223196   6.883   6.569   6.237 -0.0534  0.3705  0.3887
 7433SOL     OW23197   2.103   1.617   4.369  0.5568  0.0111 -0.0568
 7433SOL    HW123198   2.106   1.649   4.463 -3.8176  0.0864  0.2888
 7433SOL    HW223199   2.109   1.695   4.307  1.1744  0.2209  0.2673
 7434SOL     OW23200   4.750   0.461   0.269 -0.2259  0.1330 -0.0643
 7434SOL    HW123201   4.794   0.509   0.193 -0.1848  0.8939  0.4282
 7434SOL    HW223202   4.817   0.404   0.316 -0.6014 -1.6745 -1.5969
 7435SOL     OW23203   0.571   6.020   1.637  0.6716 -0.5916  0.7257
 7435SOL    HW123204   0.482   6.033   1.594  0.7635  0.3219  0.7976
 7435SOL    HW223205   0.570   5.936   1.691  0.4818 -1.6535 -0.8522
 7436SOL     OW23206   5.637   1.034   6.599 -0.1099 -0.1835  0.4657
 7436SOL    HW123207   5.631   1.011   6.501 -2.2013  0.6022  0.3497
 7436SOL    HW223208   5.548   1.068   6.630  1.3901  2.8879  1.8040
 7437SOL     OW23209   6.495   5.513   2.236  0.2523  0.3498  0.0001
 7437SOL    HW123210   6.568   5.457   2.275  1.0082  1.1294 -0.2672
 7437SOL    HW223211   6.430   5.453   2.189 -0.0778 -0.4881  1.4688
 7438SOL     OW23212   3.038   0.851   4.996  0.6891  0.5093 -0.2261
 7438SOL    HW123213   2.993   0.840   4.907 -1.0275 -0.4970  0.7088
 7438SOL    HW223214   3.099   0.773   5.012  0.8869  0.6155 -0.4679
 7439SOL     OW23215   3.018   0.318   3.902  0.1549 -0.0357  0.0442
 7439SOL    HW123216   3.032   0.256   3.825 -1.0202 -0.4151  0.1075
 7439SOL    HW223217   2.928   0.360   3.895 -0.8231 -1.5719  2.1913
 7440SOL     OW23218   1.339   4.196   0.013  0.3122 -0.2203  0.3464
 7440SOL    HW123219   1.243   4.217   0.035  0.0600 -1.6340  0.7063
 7440SOL    HW223220   1.391   4.191   0.098  0.5528 -0.1653  0.2015
 7441SOL     OW23221   0.585   1.013   0.871 -0.1951  0.5555  0.0201
 7441SOL    HW123222   0.579   0.924   0.827  1.2079  0.5649 -0.2371
 7441SOL    HW223223   0.536   1.011   0.958 -0.8976 -0.1949 -0.3738
 7442SOL     OW23224   1.265   6.555   0.162 -1.0384  0.2725 -0.2038
 7442SOL    HW123225   1.207   6.483   0.201 -2.3547  1.9914  1.1959
 7442SOL    HW223226   1.209   6.616   0.106  0.0157  0.3654 -1.1943
 7443SOL     OW23227   2.607   2.392   2.029  0.0061  0.3528  0.0075
 7443SOL    HW123228   2.698   2.418   1.995  0.3679 -1.1005 -0.1715
 7443SOL    HW223229   2.614   2.365   2.124  0.5064 -3.2724 -0.9275
 7444SOL     OW23230   5.309   1.431   6.835 -0.5463 -0.2878 -0.5151
 7444SOL    HW123231   5.313   1.363   6.762  0.9432  0.9578 -1.6676
 7444SOL    HW223232   5.360   1.397   6.914 -1.3616 -1.2452 -0.3775
 7445SOL     OW23233   2.775   1.044   2.338  0.1068  0.4253  0.2357
 7445SOL    HW123234   2.746   1.099   2.259  0.8023 -0.4659 -0.6538
 7445SOL    HW223235   2.860   1.081   2.375  0.4016  0.1340 -0.1575
 7446SOL     OW23236   6.469   4.966   5.998  0.3006  0.2613 -0.4247
 7446SOL    HW123237   6.561   4.955   5.961  0.1013 -1.0089 -0.5929
 7446SOL    HW223238   6.450   4.893   6.063 -0.8481  0.0613 -0.9531
 7447SOL     OW23239   1.090   1.578   0.067  0.0915 -0.4083 -0.0691
 7447SOL    HW123240   1.137   1.631   0.138 -0.1215 -1.2143  0.6971
 7447SOL    HW223241   1.157   1.545   0.001  0.1501  1.3204 -0.9215
 7448SOL     OW23242   1.187   2.920   1.086  0.2352 -0.0769  0.1857
 7448SOL    HW123243   1.192   2.941   0.988  1.8708 -0.8668  0.0799
 7448SOL    HW223244   1.100   2.954   1.122 -0.1778  0.6848 -1.4227
 7449SOL     OW23245   5.062   4.290   0.129  0.1328 -0.5034 -0.0062
 7449SOL    HW123246   5.158   4.273   0.107 -0.1681  1.0033 -2.9747
 7449SOL    HW223247   5.004   4.239   0.065 -1.0017  0.2950  0.3523
 7450SOL     OW23248   1.793   1.753   1.704  0.2413 -0.4514 -0.2480
 7450SOL    HW123249   1.811   1.840   1.750  0.7679 -0.6776 -0.0236
 7450SOL    HW223250   1.774   1.682   1.772  1.3989 -0.8766 -0.3414
 7451SOL     OW23251   3.891   1.511   4.205 -0.2085  0.5146  0.0053
 7451SOL    HW123252   3.939   1.435   4.249  0.2397 -0.1277 -1.5090
 7451SOL    HW223253   3.819   1.545   4.265 -1.1301 -1.8219  0.3349
 7452SOL     OW23254   0.718   0.383   4.779 -0.5338  0.2148 -0.0517
 7452SOL    HW123255   0.713   0.399   4.680  2.0003  1.9838  0.0154
 7452SOL    HW223256   0.666   0.454   4.827 -3.7778 -1.9685 -0.0429
 7453SOL     OW23257   5.784   1.021   1.885 -0.7872 -0.1243 -0.4213
 7453SOL    HW123258   5.868   1.047   1.836 -0.3697 -1.4558 -0.4651
 7453SOL    HW223259   5.765   1.088   1.957  0.3615  0.1552 -0.3529
 7454SOL     OW23260   0.872   5.177   0.990 -0.2440 -0.1481  0.3737
 7454SOL    HW123261   0.828   5.186   0.901 -3.0191 -0.1583  1.6485
 7454SOL    HW223262   0.822   5.231   1.058  0.9843 -1.1765  2.1932
 7455SOL     OW23263   3.991   3.156   2.961 -0.4329  0.0556 -0.6186
 7455SOL    HW123264   3.941   3.078   2.924  1.4392 -2.2279  1.3659
 7455SOL    HW223265   3.939   3.197   3.036 -0.4662 -0.6486 -0.2558
 7456SOL     OW23266   3.215   5.960   6.873  0.0509 -0.0842  0.0035
 7456SOL    HW123267   3.166   5.906   6.805  0.5632  0.1780 -0.5805
 7456SOL    HW223268   3.279   6.021   6.827  1.3082 -0.7877  0.7708
 7457SOL     OW23269   1.495   0.811   6.303  0.4686 -0.3072 -0.1474
 7457SOL    HW123270   1.492   0.894   6.360  1.9891 -0.9974  1.0115
 7457SOL    HW223271   1.420   0.751   6.329  2.1731 -1.4409  2.5698
 7458SOL     OW23272   1.409   5.979   4.701  0.4356 -0.0151 -0.2349
 7458SOL    HW123273   1.473   5.902   4.696 -1.7143 -1.8186 -2.1439
 7458SOL    HW223274   1.459   6.062   4.727  3.3551 -1.4795 -0.7560
 7459SOL     OW23275   1.279   6.576   2.556 -0.2413 -0.0101  0.3882
 7459SOL    HW123276   1.367   6.543   2.590 -0.1034  0.7048  0.7310
 7459SOL    HW223277   1.275   6.563   2.457  0.1251 -0.3287  0.4129
 7460SOL     OW23278   1.118   1.957   4.751 -0.3427  0.0708 -0.0077
 7460SOL    HW123279   1.053   2.025   4.786 -0.6356  0.2210 -0.8208
 7460SOL    HW223280   1.075   1.906   4.676  0.7091  0.6592 -1.0361
 7461SOL     OW23281   1.590   6.594   0.478 -0.5264 -0.2385 -0.3063
 7461SOL    HW123282   1.528   6.555   0.546  0.0131 -1.9557 -0.7650
 7461SOL    HW223283   1.683   6.561   0.494  0.0156  1.0766 -0.5804
 7462SOL     OW23284   1.150   3.935   5.265  0.3980  0.6745 -0.3213
 7462SOL    HW123285   1.189   3.937   5.357  3.0309  0.8485 -1.3443
 7462SOL    HW223286   1.113   3.844   5.247  2.5236 -0.3063 -0.0528
 7463SOL     OW23287   0.795   1.033   1.813 -0.0832 -0.7770  0.6342
 7463SOL    HW123288   0.842   1.088   1.881  1.5646 -2.3524  0.8569
 7463SOL    HW223289   0.744   0.960   1.858 -1.1567 -0.2630  0.2853
 7464SOL     OW23290   4.447   2.077   3.321 -0.0724 -0.0530 -0.2692
 7464SOL    HW123291   4.461   2.093   3.419 -1.1863 -0.6151 -0.0030
 7464SOL    HW223292   4.526   2.028   3.284 -0.7289 -2.2007  0.9429
 7465SOL     OW23293   1.468   1.934   4.273  0.7225  0.2079  0.5595
 7465SOL    HW123294   1.534   1.902   4.341  1.3436 -0.7163 -0.4551
 7465SOL    HW223295   1.452   1.862   4.206 -0.2805  0.9213  0.0134
 7466SOL     OW23296   2.026   5.649   6.440  0.0082  0.8802 -0.6407
 7466SOL    HW123297   2.063   5.583   6.374  1.3665  2.0763 -1.1281
 7466SOL    HW223298   1.927   5.636   6.449  0.2278 -1.1690 -0.7520
 7467SOL     OW23299   3.151   0.228   0.828 -0.3310 -0.2306 -0.0270
 7467SOL    HW123300   3.171   0.309   0.773 -1.6184  0.0613 -0.1046
 7467SOL    HW223301   3.209   0.228   0.910 -1.1724  1.4649  0.6313
 7468SOL     OW23302   0.578   5.212   4.783 -0.2871 -0.0818 -0.0244
 7468SOL    HW123303   0.528   5.137   4.827 -2.5016  0.8274 -0.8289
 7468SOL    HW223304   0.535   5.233   4.695  0.1902  2.2150  0.2264
 7469SOL     OW23305   2.049   6.570   1.225 -0.2669 -0.3565 -0.3177
 7469SOL    HW123306   2.046   6.615   1.135  0.4424 -1.0842 -0.7229
 7469SOL    HW223307   1.996   6.624   1.291  0.5748  1.0742 -0.7711
 7470SOL     OW23308   2.648   4.231   1.658 -0.1836 -0.4546  0.0003
 7470SOL    HW123309   2.626   4.197   1.567  2.3586  0.6727 -1.1455
 7470SOL    HW223310   2.743   4.209   1.680  0.2589  2.0571  0.9825
 7471SOL     OW23311   0.614   6.174   0.702  0.3080  0.1845  0.2250
 7471SOL    HW123312   0.668   6.143   0.780  0.2679  2.4435  1.2288
 7471SOL    HW223313   0.539   6.231   0.734 -0.7375 -0.2380 -1.3756
 7472SOL     OW23314   3.987   2.044   0.105 -0.3840 -0.2877 -0.2886
 7472SOL    HW123315   3.906   1.999   0.142 -0.2730 -0.4614 -0.2610
 7472SOL    HW223316   3.990   2.030   0.006 -0.5302 -0.0570 -0.3282
 7473SOL     OW23317   4.076   6.194   3.964 -0.0767 -0.0732  1.0979
 7473SOL    HW123318   4.124   6.192   4.051  0.3623 -0.2791  0.8564
 7473SOL    HW223319   4.137   6.159   3.892 -1.0208 -1.6519  1.0137
 7474SOL     OW23320   2.376   6.175   2.875 -0.4875  0.6844 -0.5462
 7474SOL    HW123321   2.370   6.095   2.933  0.9356  0.0275 -1.2430
 7474SOL    HW223322   2.314   6.246   2.908  0.0228  0.2087  1.5440
 7475SOL     OW23323   1.142   5.896   2.061 -0.9113 -0.0361  0.0542
 7475SOL    HW123324   1.128   5.798   2.073  0.6856 -0.1999  0.7397
 7475SOL    HW223325   1.213   5.912   1.993 -0.7316  0.6165  0.3857
 7476SOL     OW23326   6.961   3.765   6.360  0.1008 -0.2561  0.0511
 7476SOL    HW123327   6.943   3.680   6.311 -0.0586 -0.4087  0.3718
 7476SOL    HW223328   6.975   3.745   6.457 -1.1780  0.2166  0.3492
 7477SOL     OW23329   0.235   6.315   1.068  0.1271 -0.5508  0.7528
 7477SOL    HW123330   0.156   6.377   1.073  1.0427  0.5840  1.4790
 7477SOL    HW223331   0.236   6.271   0.978  0.4389  1.8284 -0.4873
 7478SOL     OW23332   0.651   4.874   2.373 -0.0176 -0.0732  0.0968
 7478SOL    HW123333   0.710   4.838   2.301  0.1569  0.8838 -0.2536
 7478SOL    HW223334   0.700   4.877   2.459 -0.2194 -1.2057  0.2652
 7479SOL     OW23335   1.135   6.217   0.049 -0.0430  0.0692 -0.3302
 7479SOL    HW123336   1.220   6.210  -0.002 -1.0923  0.8503 -2.2830
 7479SOL    HW223337   1.132   6.145   0.119  2.2899  0.1948 -0.0417
 7480SOL     OW23338   3.647   3.233   6.753  0.1562 -0.4806  0.3390
 7480SOL    HW123339   3.728   3.264   6.704 -0.1841  1.3415  0.8817
 7480SOL    HW223340   3.674   3.192   6.840  0.5156 -0.0820  0.4180
 7481SOL     OW23341   6.228   0.155   1.116 -1.0267 -0.4740  0.1090
 7481SOL    HW123342   6.230   0.255   1.125  0.2821 -0.4356 -0.3651
 7481SOL    HW223343   6.299   0.115   1.173 -1.7627 -1.1774  0.5590
 7482SOL     OW23344   1.507   4.815   4.777 -0.7569 -0.1173  0.1800
 7482SOL    HW123345   1.561   4.879   4.722 -1.3187  0.2626  0.0579
 7482SOL    HW223346   1.419   4.800   4.733 -0.7696 -0.6982  0.3984
 7483SOL     OW23347   3.672   0.470   5.992 -0.0562 -0.1621 -0.1737
 7483SOL    HW123348   3.647   0.400   5.926 -0.8557 -0.2096  0.1766
 7483SOL    HW223349   3.603   0.542   5.994  0.8234  0.7154 -0.6245
 7484SOL     OW23350   2.149   5.858   6.305  0.6786 -0.6635 -0.0737
 7484SOL    HW123351   2.099   5.775   6.329 -1.5176  0.6192  0.0859
 7484SOL    HW223352   2.224   5.871   6.370 -1.0321 -0.7867  2.0908
 7485SOL     OW23353   5.516   3.328   4.305  0.1140 -0.5056  0.1128
 7485SOL    HW123354   5.564   3.400   4.355  1.0410 -0.0346 -1.3682
 7485SOL    HW223355   5.545   3.330   4.209 -3.4378  0.3123 -1.0849
 7486SOL     OW23356   5.554   5.554   3.788  0.0969 -0.6597 -0.1528
 7486SOL    HW123357   5.581   5.462   3.817 -1.5979 -1.3576 -0.6641
 7486SOL    HW223358   5.520   5.551   3.694 -0.3959  0.4095 -0.0261
 7487SOL     OW23359   3.727   5.266   4.522 -0.1243  0.3373 -0.8016
 7487SOL    HW123360   3.637   5.249   4.561  1.2909 -0.4543  2.4642
 7487SOL    HW223361   3.781   5.182   4.525  2.4227  1.8823  2.4772
 7488SOL     OW23362   6.187   6.446   4.749 -0.0523 -0.2633  1.0385
 7488SOL    HW123363   6.136   6.422   4.666  1.3944  2.4973 -0.8350
 7488SOL    HW223364   6.126   6.490   4.815 -0.7315 -0.0092  0.2568
 7489SOL     OW23365   6.073   5.467   4.687 -0.1244 -0.3037  0.0333
 7489SOL    HW123366   6.126   5.461   4.771  0.4502  0.8596 -0.2242
 7489SOL    HW223367   6.008   5.543   4.693 -1.9046 -1.7871  0.3931
 7490SOL     OW23368   1.642   2.913   3.464  0.3269  0.0121 -0.5778
 7490SOL    HW123369   1.740   2.904   3.446  0.5128 -0.1451  0.4758
 7490SOL    HW223370   1.593   2.839   3.419  0.4418  1.1989 -2.8107
 7491SOL     OW23371   3.127   1.120   6.374 -0.0611 -0.3549 -0.7925
 7491SOL    HW123372   3.083   1.207   6.395  1.2052 -0.1378  1.3326
 7491SOL    HW223373   3.192   1.132   6.299 -0.8333  0.2198 -1.3711
 7492SOL     OW23374   5.767   6.818   0.793 -0.1241 -0.0042 -0.0678
 7492SOL    HW123375   5.865   6.814   0.779 -0.0446  0.8778  0.1322
 7492SOL    HW223376   5.742   6.763   0.873  0.4222  0.9756  0.8052
 7493SOL     OW23377   3.315   0.413   0.098 -0.5541 -0.2105 -0.0472
 7493SOL    HW123378   3.285   0.491   0.154 -1.4034 -0.0019 -0.7565
 7493SOL    HW223379   3.334   0.335   0.156 -2.0068 -0.1849  0.5101
 7494SOL     OW23380   0.298   6.185   4.409  0.0490  0.4877  0.3976
 7494SOL    HW123381   0.289   6.144   4.500  0.0737 -1.0916 -0.2804
 7494SOL    HW223382   0.210   6.224   4.382 -0.6819 -1.2826  0.0875
 7495SOL     OW23383   6.188   3.578   2.550  0.0359  0.2252  0.3709
 7495SOL    HW123384   6.207   3.526   2.633 -1.7805  0.3585  0.9035
 7495SOL    HW223385   6.248   3.658   2.546  0.5155 -0.0816  1.2521
 7496SOL     OW23386   4.371   4.556   1.996  0.8831 -0.2100  0.0565
 7496SOL    HW123387   4.433   4.605   1.935  0.1361 -1.0873 -1.4550
 7496SOL    HW223388   4.389   4.458   1.990 -1.5980 -0.6574 -1.6363
 7497SOL     OW23389   1.049   1.638   6.256 -0.2658  0.4148 -0.2057
 7497SOL    HW123390   1.043   1.730   6.216  0.4703  0.5133 -0.0959
 7497SOL    HW223391   1.074   1.645   6.353 -2.1953  0.1842  0.3495
 7498SOL     OW23392   2.937   3.432   0.329  0.0875  0.3105  0.4429
 7498SOL    HW123393   2.992   3.514   0.312  0.1933 -0.2018 -2.1060
 7498SOL    HW223394   2.981   3.377   0.400  2.2951  0.4825 -0.6852
 7499SOL     OW23395   0.435   1.396   6.717 -0.1464 -0.0284  0.4636
 7499SOL    HW123396   0.366   1.332   6.753  1.3725 -2.3300 -0.4548
 7499SOL    HW223397   0.418   1.411   6.620  0.9742 -1.1752  0.0587
 7500SOL     OW23398   5.648   6.564   4.199 -0.1377  0.0781 -0.2274
 7500SOL    HW123399   5.730   6.518   4.232  0.3896 -0.3297 -1.9615
 7500SOL    HW223400   5.587   6.496   4.158 -0.5442  0.6043 -0.5066
 7501SOL     OW23401   5.855   2.975   2.087 -0.3100  0.1685 -0.0297
 7501SOL    HW123402   5.759   2.998   2.101 -0.3866  0.0943 -0.4108
 7501SOL    HW223403   5.889   2.925   2.166 -0.0751  1.7617  0.9238
 7502SOL     OW23404   6.614   4.259   4.479 -0.2065  0.2767  0.1135
 7502SOL    HW123405   6.642   4.173   4.520 -0.8284  0.2193  0.4348
 7502SOL    HW223406   6.599   4.327   4.551  2.3210  1.3181 -0.2194
 7503SOL     OW23407   0.852   3.079   0.281  0.7531  0.4570  0.5872
 7503SOL    HW123408   0.812   3.112   0.366  1.2139 -0.1516  1.0466
 7503SOL    HW223409   0.792   3.105   0.204  0.1505  0.6930  1.1251
 7504SOL     OW23410   6.690   1.551   3.005 -0.8360 -0.8382 -0.5374
 7504SOL    HW123411   6.709   1.456   2.981 -2.3410 -1.7698  1.6773
 7504SOL    HW223412   6.600   1.557   3.049  0.6073  1.0232  2.4421
 7505SOL     OW23413   0.823   4.859   0.652 -0.2806  0.2617 -0.7870
 7505SOL    HW123414   0.777   4.915   0.584 -0.5727 -1.5328 -2.1411
 7505SOL    HW223415   0.918   4.889   0.661 -0.7527  1.7719 -0.5013
 7506SOL     OW23416   6.969   2.284   3.391 -0.3162 -0.0122  0.3540
 7506SOL    HW123417   7.003   2.194   3.363  0.1214  0.2325  0.0780
 7506SOL    HW223418   7.006   2.354   3.329 -2.0209  0.1722 -0.5074
 7507SOL     OW23419   3.789   0.546   2.652  0.2948 -0.1301  0.4448
 7507SOL    HW123420   3.832   0.627   2.693  2.5041 -1.5825  1.2432
 7507SOL    HW223421   3.809   0.466   2.709 -3.1863 -1.0560  0.5592
 7508SOL     OW23422   5.594   3.832   4.047  0.4350  0.2587 -0.6072
 7508SOL    HW123423   5.579   3.924   4.010 -1.2705  1.3883  2.5723
 7508SOL    HW223424   5.505   3.790   4.068  1.2686 -0.8675  0.7913
 7509SOL     OW23425   0.036   4.690   1.219 -0.2487  0.3378  0.2153
 7509SOL    HW123426   0.103   4.640   1.165 -1.5234  0.4040 -1.5141
 7509SOL    HW223427   0.060   4.787   1.221 -0.6886  0.4893 -1.0824
 7510SOL     OW23428   3.375   4.633   5.306  0.3487 -0.0071  0.7227
 7510SOL    HW123429   3.372   4.537   5.335  0.6507  0.3552  2.0537
 7510SOL    HW223430   3.306   4.649   5.236  0.8869 -1.3918 -0.1682
 7511SOL     OW23431   5.011   5.194   1.389  0.3990  0.9741  0.3678
 7511SOL    HW123432   5.027   5.222   1.484  0.9433  0.0829  0.5506
 7511SOL    HW223433   5.071   5.247   1.329  2.8866 -1.0442  0.8832
 7512SOL     OW23434   6.371   4.035   3.057  0.6432 -0.4457  0.3177
 7512SOL    HW123435   6.422   4.064   3.138  0.1573  1.6090 -0.0603
 7512SOL    HW223436   6.358   4.113   2.996  1.7962 -2.1182 -2.2255
 7513SOL     OW23437   2.083   6.724   6.244 -0.5414  0.4837 -0.0598
 7513SOL    HW123438   2.035   6.713   6.331  0.2218 -1.2926  0.1803
 7513SOL    HW223439   2.045   6.662   6.176 -0.2517  0.8988 -0.6152
 7514SOL     OW23440   2.274   5.086   3.256  0.1498 -0.4840 -0.0022
 7514SOL    HW123441   2.324   5.035   3.326  0.7443 -2.5977 -1.8688
 7514SOL    HW223442   2.338   5.118   3.187 -0.1291  3.2898  1.2498
 7515SOL     OW23443   3.424   0.121   0.677  0.0818  0.7115  0.5465
 7515SOL    HW123444   3.502   0.165   0.633 -0.3357 -0.5045 -1.5361
 7515SOL    HW223445   3.340   0.170   0.654  0.0846  1.3597  1.8568
 7516SOL     OW23446   0.020   6.341   4.042 -1.1186 -0.1703  0.0173
 7516SOL    HW123447   0.023   6.243   4.021  0.0411  0.0719 -1.0759
 7516SOL    HW223448  -0.056   6.384   3.992 -2.3233 -0.6627  1.3493
 7517SOL     OW23449   0.522   2.794   6.862 -0.6538 -0.1670 -0.2257
 7517SOL    HW123450   0.453   2.858   6.895 -1.3541 -0.6092 -0.8041
 7517SOL    HW223451   0.477   2.718   6.815  0.1235 -1.2620  0.7216
 7518SOL     OW23452   5.094   4.906   5.568  0.2155 -0.8501 -0.7256
 7518SOL    HW123453   5.083   4.924   5.665 -1.6328 -0.0124 -1.0470
 7518SOL    HW223454   5.097   4.808   5.552 -4.2690 -1.2626 -0.1682
 7519SOL     OW23455   5.604   3.956   4.396  0.2497  0.1769  0.5928
 7519SOL    HW123456   5.598   3.924   4.301  1.5448  0.5620  0.3582
 7519SOL    HW223457   5.533   4.025   4.413 -0.2322 -0.1727  0.0226
 7520SOL     OW23458   5.660   1.125   4.469 -0.0297 -0.1433 -0.0620
 7520SOL    HW123459   5.737   1.188   4.458 -1.3856  1.4271 -1.1031
 7520SOL    HW223460   5.692   1.039   4.507  2.2238  0.4551 -0.4824
 7521SOL     OW23461   0.764   1.795   2.196  0.0256 -0.2272 -0.3585
 7521SOL    HW123462   0.722   1.843   2.273  1.5774  0.9614 -0.2270
 7521SOL    HW223463   0.803   1.708   2.228  1.5144  0.6989  0.4407
 7522SOL     OW23464   1.924   3.057   6.721 -0.2138  0.2516  0.2264
 7522SOL    HW123465   1.878   3.108   6.794  0.4112  0.8540  0.2071
 7522SOL    HW223466   1.872   3.067   6.636 -0.6369  0.0229  0.4567
 7523SOL     OW23467   6.076   4.508   4.450 -0.6314  0.0532 -0.5037
 7523SOL    HW123468   6.075   4.501   4.351  0.0027 -1.1421 -0.4578
 7523SOL    HW223469   6.064   4.416   4.490  1.6180  0.0854  0.4579
 7524SOL     OW23470   5.846   6.470   2.374 -0.0472  0.4951 -0.0535
 7524SOL    HW123471   5.755   6.500   2.346 -0.8115  0.4444  2.1758
 7524SOL    HW223472   5.914   6.508   2.311 -1.6264 -0.4208 -2.4862
 7525SOL     OW23473   1.428   1.443   2.858  0.1203 -0.4004  0.0677
 7525SOL    HW123474   1.444   1.472   2.764  0.6016 -0.8290  0.0099
 7525SOL    HW223475   1.398   1.347   2.858  0.2279 -0.4347  0.3557
 7526SOL     OW23476   5.731   3.407   6.973  0.1997 -0.1159  0.2992
 7526SOL    HW123477   5.776   3.341   7.033  2.1290  1.6675  0.9164
 7526SOL    HW223478   5.798   3.473   6.939 -1.5664  1.2992 -0.6193
 7527SOL     OW23479   0.464   0.716   2.332  0.2239 -0.1200  0.2669
 7527SOL    HW123480   0.509   0.787   2.386  1.0289 -0.8574  0.6000
 7527SOL    HW223481   0.527   0.640   2.317 -0.0328 -0.0132 -1.6088
 7528SOL     OW23482   0.169   5.401   3.423  0.2917  0.3072  0.3010
 7528SOL    HW123483   0.214   5.455   3.351 -0.8518  0.6210 -0.1962
 7528SOL    HW223484   0.103   5.458   3.471 -1.2439 -0.7358 -0.5067
 7529SOL     OW23485   4.274   3.142   0.306 -0.8564 -0.1311 -0.0078
 7529SOL    HW123486   4.263   3.055   0.354  0.1076 -0.2496  0.0121
 7529SOL    HW223487   4.216   3.211   0.350 -1.6526 -0.7612 -0.0421
 7530SOL     OW23488   4.766   0.227   2.504  0.1175 -0.0609 -0.2131
 7530SOL    HW123489   4.711   0.310   2.514  0.0073  0.0631 -1.5475
 7530SOL    HW223490   4.835   0.224   2.576  1.5121  2.3096 -1.3151
 7531SOL     OW23491   6.283   3.039   4.561  0.0408 -0.2164  0.6852
 7531SOL    HW123492   6.328   2.981   4.494  1.9727  2.5715 -0.6346
 7531SOL    HW223493   6.211   3.093   4.516  0.4294  0.6916  1.1280
 7532SOL     OW23494   5.697   1.037   0.830 -0.3020  0.4033  0.5400
 7532SOL    HW123495   5.654   0.949   0.806 -1.1866  0.9800 -0.0465
 7532SOL    HW223496   5.781   1.048   0.777  0.0977 -0.3104  0.9978
 7533SOL     OW23497   1.595   1.722   1.461  0.2075  0.1378  0.2508
 7533SOL    HW123498   1.652   1.728   1.543  1.0622  2.3146 -0.4409
 7533SOL    HW223499   1.653   1.705   1.382 -0.6026 -1.8404  0.0218
 7534SOL     OW23500   2.730   1.208   3.726 -0.2644  0.0618  0.1491
 7534SOL    HW123501   2.802   1.145   3.697  0.7559  0.2449  2.1221
 7534SOL    HW223502   2.771   1.282   3.779 -1.7941  0.7951  0.3422
 7535SOL     OW23503   7.007   2.270   2.559 -0.4704 -0.3314  0.0730
 7535SOL    HW123504   6.937   2.204   2.531 -0.5571 -1.0393  1.8011
 7535SOL    HW223505   6.997   2.288   2.657  0.4847  1.1451 -0.0796
 7536SOL     OW23506   5.197   1.538   1.978 -0.2383  0.0142 -0.0367
 7536SOL    HW123507   5.128   1.606   1.952  1.4908  1.5075 -0.9794
 7536SOL    HW223508   5.190   1.519   2.075 -1.3188  0.9121  0.0793
 7537SOL     OW23509   6.990   4.510   2.397  0.3541  0.0399 -0.2236
 7537SOL    HW123510   6.922   4.438   2.412  0.2301 -0.0118 -0.9805
 7537SOL    HW223511   7.052   4.483   2.323  1.1488  0.1243  0.4052
 7538SOL     OW23512   3.319   5.759   6.134  0.1594 -0.1668 -0.9833
 7538SOL    HW123513   3.238   5.819   6.131  0.0862 -0.2507 -0.7206
 7538SOL    HW223514   3.318   5.698   6.056 -0.5517 -0.8371 -0.4614
 7539SOL     OW23515   2.594   5.009   4.358  0.6713  0.2397 -0.1470
 7539SOL    HW123516   2.545   4.998   4.272  0.9492  0.7277 -0.3707
 7539SOL    HW223517   2.627   4.920   4.389  0.2103 -0.0003 -0.3229
 7540SOL     OW23518   3.840   3.502   3.930  0.2762  0.1995  0.1936
 7540SOL    HW123519   3.934   3.492   3.963 -0.3980 -0.3949  2.0474
 7540SOL    HW223520   3.831   3.458   3.841  1.7093  0.1451  0.0489
 7541SOL     OW23521   5.115   2.113   0.348  0.2055 -0.1771  0.2233
 7541SOL    HW123522   5.158   2.202   0.329  2.2778 -1.0507  0.4645
 7541SOL    HW223523   5.016   2.120   0.337  0.3468  2.0657 -0.0858
 7542SOL     OW23524   4.755   4.236   4.304 -0.0107  0.1819 -0.1906
 7542SOL    HW123525   4.740   4.253   4.402 -0.2931 -2.8112  0.3795
 7542SOL    HW223526   4.854   4.232   4.287  0.0665  1.8457 -0.3083
 7543SOL     OW23527   6.192   2.883   0.099 -0.6056  0.1986  0.3101
 7543SOL    HW123528   6.161   2.871   0.005 -4.0241 -0.5920  1.4120
 7543SOL    HW223529   6.236   2.973   0.108  1.9865 -0.6234 -2.4508
 7544SOL     OW23530   2.360   4.321   1.180 -0.1956 -0.0060  0.0800
 7544SOL    HW123531   2.458   4.328   1.198 -0.0970 -0.2878 -0.3290
 7544SOL    HW223532   2.329   4.228   1.200 -0.5685  0.3183  1.0842
 7545SOL     OW23533   3.242   3.976   2.684  0.1332 -0.4273 -0.2809
 7545SOL    HW123534   3.201   3.900   2.633 -0.5119 -0.0157 -0.3964
 7545SOL    HW223535   3.272   4.046   2.619  0.1668 -0.3145 -0.1423
 7546SOL     OW23536   0.554   1.602   1.351 -0.6111  0.0308  0.4925
 7546SOL    HW123537   0.500   1.551   1.418 -1.1402  1.6996  1.3720
 7546SOL    HW223538   0.651   1.577   1.360 -1.1355 -3.4969 -1.5319
 7547SOL     OW23539   6.836   1.298   1.467  0.7769 -0.0563 -0.2069
 7547SOL    HW123540   6.775   1.255   1.534  0.5088 -1.5034 -1.3227
 7547SOL    HW223541   6.839   1.242   1.384  1.0246  1.7302 -1.4591
 7548SOL     OW23542   4.787   4.227   1.203  0.0146  0.3552  0.0569
 7548SOL    HW123543   4.691   4.205   1.220 -0.0339  1.1538  0.9164
 7548SOL    HW223544   4.794   4.295   1.129 -0.1430  0.8710  0.5090
 7549SOL     OW23545   5.479   1.874   4.616 -0.0630  0.5201 -0.2262
 7549SOL    HW123546   5.391   1.919   4.601  0.6990  3.8667  3.5626
 7549SOL    HW223547   5.553   1.940   4.608  1.6531 -1.0923  1.2176
 7550SOL     OW23548   1.527   4.029   3.664 -0.3145 -0.0637  0.3105
 7550SOL    HW123549   1.505   4.127   3.669 -2.6740 -0.4982 -0.2943
 7550SOL    HW223550   1.534   3.992   3.757  1.0877  0.7512  0.5513
 7551SOL     OW23551   2.479   1.034   4.625 -0.4449  0.0259  0.2159
 7551SOL    HW123552   2.501   1.064   4.718 -1.2948 -0.5872  0.6237
 7551SOL    HW223553   2.439   1.110   4.574  1.1903  0.7372 -0.0788
 7552SOL     OW23554   5.961   0.186   1.194 -0.2162  0.4520 -0.3451
 7552SOL    HW123555   6.052   0.194   1.154 -0.3635  1.9733 -0.4393
 7552SOL    HW223556   5.916   0.275   1.192 -0.9437  0.1790  1.5068
 7553SOL     OW23557   5.780   0.047   2.579 -0.5697  0.5306 -0.6918
 7553SOL    HW123558   5.789   0.146   2.581 -2.7484  0.7892 -1.4827
 7553SOL    HW223559   5.696   0.022   2.531 -1.1594 -1.6328  1.3040
 7554SOL     OW23560   4.807   0.908   4.397  0.2883 -0.0330 -0.6010
 7554SOL    HW123561   4.745   0.976   4.358 -0.0023 -0.4776 -0.9214
 7554SOL    HW223562   4.817   0.831   4.334 -0.5474 -0.9768  0.3640
 7555SOL     OW23563   5.383   2.020   6.142  0.4906  0.1280  0.4840
 7555SOL    HW123564   5.324   2.100   6.145  0.4859  0.2633 -1.6323
 7555SOL    HW223565   5.329   1.939   6.118  1.2314  0.5394 -3.3022
 7556SOL     OW23566   0.747   1.799   3.235  0.8607 -0.0849 -0.2551
 7556SOL    HW123567   0.658   1.806   3.281  1.0518  0.3159  0.0619
 7556SOL    HW223568   0.799   1.724   3.275  0.9109  0.0779 -0.0109
 7557SOL     OW23569   4.041   6.174   4.925  0.4142  0.1445 -0.0662
 7557SOL    HW123570   4.084   6.128   5.003  0.2713 -0.7128 -0.4836
 7557SOL    HW223571   4.067   6.270   4.925 -0.4233  0.4040  1.6317
 7558SOL     OW23572   1.077   4.929   5.690  0.0135 -0.0925  0.0823
 7558SOL    HW123573   1.099   4.955   5.595  3.2333  0.0227  0.7263
 7558SOL    HW223574   0.982   4.899   5.695 -0.4173  0.3340 -3.0777
 7559SOL     OW23575   5.785   4.831   2.633 -0.2136 -0.0511  0.1461
 7559SOL    HW123576   5.822   4.766   2.700 -0.4179  0.2985  0.6030
 7559SOL    HW223577   5.752   4.912   2.681  0.4894  0.6080 -0.4659
 7560SOL     OW23578   4.234   2.224   5.248 -0.0221  0.0211 -0.0880
 7560SOL    HW123579   4.179   2.288   5.193 -0.7469 -1.5350 -1.2583
 7560SOL    HW223580   4.181   2.194   5.327 -0.0002  0.2376  0.0088
 7561SOL     OW23581   0.840   0.855   4.315 -0.5602  0.4972  0.3498
 7561SOL    HW123582   0.759   0.804   4.285  0.3945 -0.7635 -0.1885
 7561SOL    HW223583   0.879   0.904   4.238  0.3268 -0.5423  0.1056
 7562SOL     OW23584   0.128   0.574   2.828 -0.6055  0.2094  0.2826
 7562SOL    HW123585   0.105   0.640   2.757  2.9739 -0.3190 -1.5793
 7562SOL    HW223586   0.048   0.516   2.847 -2.3085  1.7466 -1.7286
 7563SOL     OW23587   4.075   6.754   1.591 -0.3920  0.6284 -0.3866
 7563SOL    HW123588   4.113   6.694   1.662  1.7179  0.1791 -1.8106
 7563SOL    HW223589   4.102   6.849   1.609 -1.5566  0.8315  0.4482
 7564SOL     OW23590   4.144   5.973   2.439  0.3616 -0.1459  0.3082
 7564SOL    HW123591   4.046   5.953   2.435  0.6166 -1.6751  1.0453
 7564SOL    HW223592   4.180   5.948   2.529  1.6183 -0.5359 -0.2839
 7565SOL     OW23593   4.884   1.979   1.423 -0.2618 -0.1692  0.7925
 7565SOL    HW123594   4.815   1.991   1.351 -0.8530 -0.1305  1.3622
 7565SOL    HW223595   4.929   1.891   1.411 -0.4183 -0.2017  0.4260
 7566SOL     OW23596   4.747   5.625   0.998  0.3657 -0.2037 -0.1020
 7566SOL    HW123597   4.825   5.616   1.059  1.0614  1.4324 -0.6836
 7566SOL    HW223598   4.688   5.700   1.029  0.3168  0.1401 -0.9883
 7567SOL     OW23599   5.303   5.467   6.574 -0.3445  0.6784 -0.2994
 7567SOL    HW123600   5.299   5.410   6.657 -1.0943  1.7279  0.4088
 7567SOL    HW223601   5.389   5.518   6.573 -0.8381  1.5318  0.4281
 7568SOL     OW23602   3.960   6.719   0.069 -0.0823  0.2158  0.2981
 7568SOL    HW123603   3.897   6.765   0.130 -0.3231  2.9343 -1.7947
 7568SOL    HW223604   3.929   6.626   0.052 -2.4789  0.8761  0.7824
 7569SOL     OW23605   2.007   4.142   1.732 -0.0536 -0.2073  0.0148
 7569SOL    HW123606   1.919   4.188   1.748  0.0212 -0.2193  0.4746
 7569SOL    HW223607   2.012   4.059   1.788  0.6176  0.2637  0.6614
 7570SOL     OW23608   5.185   1.513   3.668 -0.6434  0.0492  0.3685
 7570SOL    HW123609   5.257   1.468   3.616 -1.8542  0.0406 -1.3923
 7570SOL    HW223610   5.141   1.447   3.729 -0.6543 -0.4968 -0.2276
 7571SOL     OW23611   3.880   6.349   6.161 -0.1837 -0.5888 -0.7099
 7571SOL    HW123612   3.972   6.385   6.176 -0.3985 -0.1044 -0.5428
 7571SOL    HW223613   3.837   6.400   6.086 -0.9260  0.3066  0.3105
 7572SOL     OW23614   0.427   1.002   5.348 -0.5534  0.1854 -0.8031
 7572SOL    HW123615   0.477   1.063   5.286 -1.6816  0.2636 -1.6809
 7572SOL    HW223616   0.359   0.951   5.295 -0.0314 -1.4267  0.0056
 7573SOL     OW23617   3.590   3.862   3.229  0.4459  0.3077  0.0315
 7573SOL    HW123618   3.649   3.932   3.190  0.7487 -0.9923 -1.9808
 7573SOL    HW223619   3.533   3.822   3.157  0.4078 -1.6115  1.0620
 7574SOL     OW23620   1.628   2.856   6.015 -0.3310 -0.4683  0.3519
 7574SOL    HW123621   1.545   2.893   6.058 -0.5267 -0.6657  0.1468
 7574SOL    HW223622   1.620   2.865   5.916 -0.1995 -0.6868  0.3224
 7575SOL     OW23623   1.819   1.220   4.276  0.1288  0.1639 -0.1651
 7575SOL    HW123624   1.872   1.275   4.340 -1.3320 -0.7536  1.9420
 7575SOL    HW223625   1.844   1.124   4.287 -0.6841 -0.0818 -0.4213
 7576SOL     OW23626   4.301   5.307   2.262 -0.0025 -0.7015 -0.1483
 7576SOL    HW123627   4.217   5.352   2.231  0.7082  1.3407  0.7107
 7576SOL    HW223628   4.332   5.350   2.346  3.4368  0.6592 -1.9071
 7577SOL     OW23629   1.149   5.326   0.927  0.8685  0.0283 -0.3967
 7577SOL    HW123630   1.051   5.307   0.934  1.0000 -0.2860  0.8198
 7577SOL    HW223631   1.166   5.422   0.951  0.8960  0.0017 -0.3115
 7578SOL     OW23632   6.063   3.820   0.550  0.2753 -0.1258 -0.2420
 7578SOL    HW123633   6.120   3.774   0.619  1.6983 -1.1882 -2.0431
 7578SOL    HW223634   6.034   3.909   0.585 -0.3059 -1.2097  2.2903
 7579SOL     OW23635   5.946   6.250   6.989 -0.0342  0.4055  0.0917
 7579SOL    HW123636   6.036   6.256   6.946  0.0909  0.0682  0.2955
 7579SOL    HW223637   5.900   6.339   6.985 -0.7622 -0.0145 -2.2950
 7580SOL     OW23638   1.560   0.171   1.707 -0.3061 -0.3823 -0.1784
 7580SOL    HW123639   1.560   0.263   1.747 -1.6087 -0.1854 -0.6039
 7580SOL    HW223640   1.634   0.117   1.748 -0.7883  0.2138  1.5531
 7581SOL     OW23641   2.031   1.185   5.319  0.6394 -0.2956  0.2407
 7581SOL    HW123642   2.123   1.152   5.297  0.7253 -1.4164  2.0672
 7581SOL    HW223643   1.964   1.113   5.301  0.2310  0.1675 -0.1340
 7582SOL     OW23644   2.188   0.938   2.074 -0.3771  0.6107  0.4810
 7582SOL    HW123645   2.161   0.933   1.978  1.2726  0.7462 -0.0128
 7582SOL    HW223646   2.126   1.001   2.123 -0.8668  1.0005 -0.6087
 7583SOL     OW23647   5.739   4.666   1.047  0.3876 -0.0078 -0.3387
 7583SOL    HW123648   5.650   4.634   1.016 -0.9266  2.5493  0.4740
 7583SOL    HW223649   5.803   4.589   1.053 -1.9006 -2.0135 -0.4094
 7584SOL     OW23650   6.201   0.774   6.062  0.7806  0.5073 -0.0062
 7584SOL    HW123651   6.207   0.765   5.963 -0.2591  0.0658 -0.0426
 7584SOL    HW223652   6.136   0.707   6.098  1.5878  0.2655  1.0447
 7585SOL     OW23653   3.858   3.866   4.329 -0.0752 -0.2202  0.3372
 7585SOL    HW123654   3.941   3.878   4.383 -0.1825  2.5698  0.0560
 7585SOL    HW223655   3.864   3.783   4.274  2.4854 -0.1125  0.3768
 7586SOL     OW23656   1.386   4.304   3.655 -0.5175 -0.5756 -0.1750
 7586SOL    HW123657   1.399   4.394   3.698  0.0126 -0.3067 -0.8696
 7586SOL    HW223658   1.357   4.317   3.560 -0.3902 -1.1449 -0.2925
 7587SOL     OW23659   3.284   2.564   6.741  0.0980 -0.1142  0.7509
 7587SOL    HW123660   3.235   2.496   6.796  1.1132 -0.6748  0.9970
 7587SOL    HW223661   3.285   2.536   6.645  0.3254 -0.3381  0.8177
 7588SOL     OW23662   2.233   2.367   4.568  0.0715 -0.1527 -0.5221
 7588SOL    HW123663   2.185   2.454   4.576  2.4674  1.3425 -1.2205
 7588SOL    HW223664   2.170   2.292   4.586 -2.1730  1.6887 -0.2670
 7589SOL     OW23665   2.724   6.719   1.154  0.7480 -0.1222  0.4324
 7589SOL    HW123666   2.634   6.692   1.190  1.1358  0.8354  2.2406
 7589SOL    HW223667   2.772   6.637   1.121 -0.5616 -0.7174 -0.0722
 7590SOL     OW23668   5.393   5.234   4.008  0.1031 -0.2296 -0.1770
 7590SOL    HW123669   5.410   5.248   4.105  0.6179  0.7750 -0.3948
 7590SOL    HW223670   5.295   5.234   3.991  0.0183 -0.0781  0.2931
 7591SOL     OW23671   4.883   0.721   6.720 -0.1649  0.1878 -0.0843
 7591SOL    HW123672   4.959   0.762   6.669 -1.0299  0.6100 -1.0617
 7591SOL    HW223673   4.820   0.792   6.751  0.1100 -0.1033  1.2299
 7592SOL     OW23674   4.891   6.297   5.739 -0.6230 -0.0358  0.2197
 7592SOL    HW123675   4.832   6.246   5.802  0.4174 -0.5206  0.8345
 7592SOL    HW223676   4.974   6.243   5.720 -0.4793  0.5171 -0.8211
 7593SOL     OW23677   5.567   5.926   3.894 -0.3077 -0.2455 -0.5773
 7593SOL    HW123678   5.481   5.879   3.878 -1.1721  0.9111  0.4761
 7593SOL    HW223679   5.565   6.015   3.848  0.1208  0.0014 -0.1200
 7594SOL     OW23680   3.224   5.521   2.779  0.0453  0.1000  0.2876
 7594SOL    HW123681   3.199   5.436   2.825 -2.7137  1.4994  1.6731
 7594SOL    HW223682   3.232   5.594   2.847 -1.1220  1.6281 -1.1395
 7595SOL     OW23683   6.741   5.385   1.262 -0.0820 -0.1995  0.1124
 7595SOL    HW123684   6.647   5.352   1.250  0.0838 -0.1627 -1.6222
 7595SOL    HW223685   6.803   5.330   1.205  0.7639  0.6237  0.2065
 7596SOL     OW23686   5.461   6.691   1.452  0.0436  0.5315 -0.0182
 7596SOL    HW123687   5.462   6.718   1.356 -0.2861 -0.5398 -0.3401
 7596SOL    HW223688   5.551   6.706   1.492  1.1553 -1.9607 -1.3769
 7597SOL     OW23689   0.235   1.149   6.362  0.3950  0.3978 -0.0951
 7597SOL    HW123690   0.191   1.214   6.301 -0.7752 -1.4232 -1.2986
 7597SOL    HW223691   0.291   1.085   6.309  0.3617 -0.4471  0.8464
 7598SOL     OW23692   6.684   6.194   6.891  0.2184  0.0584  0.0608
 7598SOL    HW123693   6.756   6.226   6.952 -0.6432  0.3239  0.9811
 7598SOL    HW223694   6.601   6.249   6.907 -0.1281 -0.0936 -1.1173
 7599SOL     OW23695   5.394   5.142   3.489  0.0679  0.2568 -0.0126
 7599SOL    HW123696   5.425   5.122   3.582  1.1271  0.9659 -0.1853
 7599SOL    HW223697   5.404   5.060   3.433  5.4943  1.2073 -1.0180
 7600SOL     OW23698   0.429   3.250   0.733 -0.5774  0.3082  0.3600
 7600SOL    HW123699   0.369   3.322   0.698 -1.0314  0.6168  1.7055
 7600SOL    HW223700   0.492   3.288   0.800  0.4893 -0.2008 -0.3310
 7601SOL     OW23701   4.259   5.536   5.347  0.2182  0.7010 -0.8025
 7601SOL    HW123702   4.239   5.456   5.290  0.2690 -1.5734  2.1571
 7601SOL    HW223703   4.182   5.600   5.344 -0.8409 -0.5706 -1.4254
 7602SOL     OW23704   5.225   3.235   4.077 -0.3694 -0.1176 -0.3876
 7602SOL    HW123705   5.147   3.205   4.022 -0.9715  1.7339 -0.6060
 7602SOL    HW223706   5.295   3.274   4.018 -0.6426  1.0931  0.0726
 7603SOL     OW23707   6.221   2.110   3.966  0.2788 -0.4548  0.4140
 7603SOL    HW123708   6.224   2.182   4.035 -0.6067  0.2104 -0.2132
 7603SOL    HW223709   6.226   2.020   4.010  2.5358 -0.0279  1.1296
 7604SOL     OW23710   0.760   5.093   2.148 -0.3286  0.3642  0.0122
 7604SOL    HW123711   0.696   5.131   2.215 -0.8676 -0.9488  0.2730
 7604SOL    HW223712   0.764   4.994   2.158 -0.7688  0.0667 -2.1944
 7605SOL     OW23713   0.607   0.439   2.821  0.0068  0.1481 -0.1752
 7605SOL    HW123714   0.511   0.424   2.800 -0.2408  1.6508 -0.2288
 7605SOL    HW223715   0.616   0.476   2.913  0.5542 -0.2350 -0.0718
 7606SOL     OW23716   3.370   0.377   2.673 -0.1246 -0.2233  0.0630
 7606SOL    HW123717   3.300   0.402   2.740 -0.3425  0.8444 -0.5516
 7606SOL    HW223718   3.420   0.459   2.645  0.6490 -0.8163 -0.3193
 7607SOL     OW23719   6.814   3.703   6.990 -0.3750 -0.3782  0.1328
 7607SOL    HW123720   6.785   3.642   7.064 -0.0745  0.8479  1.3019
 7607SOL    HW223721   6.791   3.661   6.902 -4.4202 -0.2040  0.8848
 7608SOL     OW23722   3.079   3.359   6.803  0.0925  0.2921  0.2703
 7608SOL    HW123723   3.076   3.306   6.888 -1.2341  1.0288  0.7214
 7608SOL    HW223724   3.123   3.305   6.731  2.1318  0.0045  1.6403
 7609SOL     OW23725   2.262   0.064   3.739 -0.1866  0.2582  0.2460
 7609SOL    HW123726   2.361   0.052   3.750 -0.3791 -0.7881  1.0411
 7609SOL    HW223727   2.217  -0.025   3.741 -1.0725  0.6508 -1.0864
 7610SOL     OW23728   4.971   3.028   0.763  0.1342 -0.0323 -0.2896
 7610SOL    HW123729   4.940   2.934   0.753  4.7693 -1.7822 -1.0335
 7610SOL    HW223730   5.007   3.042   0.856  0.8011  0.4810 -0.6143
 7611SOL     OW23731   5.534   4.124   1.921 -0.1983 -0.0017  0.3250
 7611SOL    HW123732   5.530   4.079   1.832 -1.0146 -0.3419  0.5227
 7611SOL    HW223733   5.464   4.195   1.926  0.2351  0.4157  0.4808
 7612SOL     OW23734   6.375   6.448   4.220 -0.2128 -0.1202  0.1520
 7612SOL    HW123735   6.462   6.398   4.217 -0.0556  0.1742 -0.7034
 7612SOL    HW223736   6.374   6.509   4.299  1.0507  1.0357 -0.6553
 7613SOL     OW23737   5.728   2.627   3.473 -0.0318 -0.0722  0.2426
 7613SOL    HW123738   5.760   2.575   3.552 -2.6071  0.8775  2.0179
 7613SOL    HW223739   5.782   2.711   3.464  0.0585 -0.0201  1.2079
 7614SOL     OW23740   2.350   2.474   6.107 -0.3443 -0.2087 -0.1364
 7614SOL    HW123741   2.382   2.514   6.022 -0.1155  0.3165  0.1914
 7614SOL    HW223742   2.374   2.534   6.184 -0.0885 -0.9199  0.3533
 7615SOL     OW23743   5.963   3.984   3.626 -0.0086  0.1421 -0.2725
 7615SOL    HW123744   5.968   3.976   3.527 -0.2239  1.9751 -0.4638
 7615SOL    HW223745   6.055   4.002   3.662  0.1809 -1.1916 -0.0475
 7616SOL     OW23746   0.297   0.340   6.813 -0.1134 -0.5055 -0.8102
 7616SOL    HW123747   0.307   0.414   6.748  2.2752 -0.1311 -0.1162
 7616SOL    HW223748   0.364   0.268   6.792  1.1542 -0.0980  1.5017
 7617SOL     OW23749   1.902   5.720   3.107  0.2582  0.1333  0.2086
 7617SOL    HW123750   1.889   5.665   3.189  2.3596  1.4660  1.5242
 7617SOL    HW223751   1.813   5.739   3.065 -1.3161  2.0133  3.9470
 7618SOL     OW23752   5.625   1.260   0.250  0.1936  0.1625  0.5642
 7618SOL    HW123753   5.690   1.185   0.235  1.7608  1.3920  0.9207
 7618SOL    HW223754   5.669   1.331   0.305 -1.6587  0.8189  1.2886
 7619SOL     OW23755   6.304   0.153   3.000 -0.1980  0.2935  0.0763
 7619SOL    HW123756   6.327   0.197   2.913 -1.9129 -1.1353 -1.1781
 7619SOL    HW223757   6.206   0.137   3.004  0.0317 -0.9705  1.6651
 7620SOL     OW23758   2.087   1.586   2.562  0.0426  0.6268  0.0595
 7620SOL    HW123759   2.020   1.654   2.531  0.5075  1.1935  0.2576
 7620SOL    HW223760   2.121   1.535   2.484 -0.5329  0.4156 -0.0568
 7621SOL     OW23761   5.310   6.554   5.446  0.0813 -0.3041  0.1738
 7621SOL    HW123762   5.303   6.598   5.356  0.7655  0.6682  0.5761
 7621SOL    HW223763   5.220   6.522   5.474 -0.5195  1.1295 -0.0159
 7622SOL     OW23764   4.116   4.799   1.293  0.5002 -0.4065 -0.4502
 7622SOL    HW123765   4.050   4.809   1.367  0.1852 -0.0008 -0.7842
 7622SOL    HW223766   4.206   4.776   1.331  0.4697  0.3501  0.1110
 7623SOL     OW23767   1.151   0.127   3.335 -0.4660  0.3970 -0.1412
 7623SOL    HW123768   1.151   0.206   3.274  1.5195  0.1197 -0.5441
 7623SOL    HW223769   1.171   0.157   3.428 -1.1932  0.5346 -0.0234
 7624SOL     OW23770   2.257   4.864   3.083 -0.1653  0.7774  0.0009
 7624SOL    HW123771   2.312   4.909   3.012 -1.1055  0.0656 -1.2146
 7624SOL    HW223772   2.233   4.931   3.153 -0.0704  1.7722 -0.8818
 7625SOL     OW23773   5.288   1.353   3.892 -0.4126  0.6850 -0.6167
 7625SOL    HW123774   5.199   1.353   3.848 -0.1013  1.7077 -1.2853
 7625SOL    HW223775   5.360   1.359   3.822  0.2213 -0.6779 -0.1257
 7626SOL     OW23776   2.798   6.222   2.886  0.1591 -0.7729 -0.2420
 7626SOL    HW123777   2.751   6.190   2.805 -0.2587  0.6459 -0.5989
 7626SOL    HW223778   2.824   6.144   2.943 -0.0148 -1.7539 -1.4596
 7627SOL     OW23779   5.068   1.623   6.218 -0.0075  0.9919 -0.4481
 7627SOL    HW123780   5.155   1.574   6.222 -0.3590  0.4121  0.5480
 7627SOL    HW223781   4.995   1.560   6.191 -0.4569  0.9393  0.8072
 7628SOL     OW23782   2.056   3.988   2.984  0.1071 -0.0277  0.4638
 7628SOL    HW123783   2.033   3.904   3.032 -0.7765  0.8983  1.7274
 7628SOL    HW223784   2.003   3.994   2.899  0.7441 -1.0923 -0.0153
 7629SOL     OW23785   2.851   5.272   0.898  0.2152 -0.2449  0.1088
 7629SOL    HW123786   2.847   5.173   0.889 -1.3499 -0.2586  0.6300
 7629SOL    HW223787   2.922   5.309   0.838 -0.6836 -1.4835 -1.8127
 7630SOL     OW23788   0.743   4.723   5.323  0.3659  0.7404 -0.3788
 7630SOL    HW123789   0.820   4.704   5.384 -0.2012  1.9919  0.7914
 7630SOL    HW223790   0.687   4.641   5.313  0.0268  0.7025  1.4770
 7631SOL     OW23791   0.280   1.734   6.598 -0.5709 -0.4189 -0.4217
 7631SOL    HW123792   0.358   1.693   6.551  0.0095 -0.0773  0.2291
 7631SOL    HW223793   0.201   1.736   6.536 -0.6858 -2.6776 -0.4221
 7632SOL     OW23794   4.053   6.922   2.947  0.2588  0.0507 -0.0487
 7632SOL    HW123795   3.974   6.974   2.916  0.6544 -0.0121 -1.2002
 7632SOL    HW223796   4.023   6.833   2.981  0.0563 -1.4576 -3.7519
 7633SOL     OW23797   4.181   5.510   2.003  0.1713 -0.4145  0.0242
 7633SOL    HW123798   4.092   5.544   1.972 -0.0420 -0.0145  1.0572
 7633SOL    HW223799   4.186   5.514   2.103  1.5792  0.1235 -0.0488
 7634SOL     OW23800   4.944   3.355   6.337  0.5083 -0.4365 -0.0065
 7634SOL    HW123801   4.915   3.423   6.270 -0.4109  0.1619  0.9672
 7634SOL    HW223802   4.963   3.268   6.291  2.1277  0.5595 -1.3307
 7635SOL     OW23803   6.859   1.874   2.190 -0.0455 -0.1107 -0.1461
 7635SOL    HW123804   6.927   1.925   2.137 -0.4653 -2.1045 -2.8477
 7635SOL    HW223805   6.904   1.822   2.262  1.1499 -0.4485 -1.1081
 7636SOL     OW23806   1.551   4.376   6.076 -0.1999  0.1276  0.0147
 7636SOL    HW123807   1.632   4.393   6.020 -0.2802  1.7717  0.3445
 7636SOL    HW223808   1.575   4.310   6.149  0.2901 -0.8767 -1.0215
 7637SOL     OW23809   4.672   3.374   5.458 -0.3386  0.3119 -0.1422
 7637SOL    HW123810   4.645   3.278   5.451 -1.6754  0.3229  3.3066
 7637SOL    HW223811   4.595   3.432   5.434  0.3121  0.5867 -1.7021
 7638SOL     OW23812   0.471   1.387   0.074 -0.1639 -0.2065 -0.2502
 7638SOL    HW123813   0.570   1.400   0.075 -0.3254  1.2612  1.4459
 7638SOL    HW223814   0.428   1.462   0.023 -0.4708 -0.0881  0.1774
 7639SOL     OW23815   1.401   0.406   2.225 -0.2034 -0.2381  0.2341
 7639SOL    HW123816   1.372   0.467   2.299 -1.7499  0.1870 -0.6738
 7639SOL    HW223817   1.433   0.461   2.147  0.8546 -0.6701  0.3404
 7640SOL     OW23818   1.040   0.349   3.198  0.0284 -0.0013 -0.7228
 7640SOL    HW123819   1.043   0.399   3.285 -0.1256  1.5614 -1.5690
 7640SOL    HW223820   0.944   0.332   3.174  0.0765 -0.5947 -0.5164
 7641SOL     OW23821   6.900   4.178   6.281 -0.4685  0.4571  0.0111
 7641SOL    HW123822   6.872   4.213   6.371 -1.3770 -0.1670 -0.0120
 7641SOL    HW223823   6.892   4.251   6.213  0.7155  1.0805  0.5141
 7642SOL     OW23824   4.431   6.815   6.274  0.0651 -0.0231  0.3203
 7642SOL    HW123825   4.432   6.764   6.360 -0.1206 -0.5231  0.0289
 7642SOL    HW223826   4.368   6.893   6.282 -0.4245 -0.4264  0.4375
 7643SOL     OW23827   3.620   0.241   3.909  0.2538  0.0645 -0.2495
 7643SOL    HW123828   3.617   0.243   4.009  3.4889  1.5001 -0.0648
 7643SOL    HW223829   3.620   0.145   3.878 -1.3118 -0.3978  1.0162
 7644SOL     OW23830   2.448   1.512   1.357  0.1207  0.3320  0.2179
 7644SOL    HW123831   2.499   1.460   1.288  0.0383 -2.1663  1.9047
 7644SOL    HW223832   2.510   1.538   1.431 -0.5616 -0.7043  1.1777
 7645SOL     OW23833   5.913   1.459   6.731  0.6634  0.3033  0.1984
 7645SOL    HW123834   5.895   1.367   6.698 -0.3214  0.2580  0.8156
 7645SOL    HW223835   6.011   1.471   6.748  0.8496 -0.4763 -0.3149
 7646SOL     OW23836   6.815   5.113   2.145  0.4200 -0.0141  0.3725
 7646SOL    HW123837   6.904   5.077   2.170  0.6813  0.9557  0.9048
 7646SOL    HW223838   6.744   5.045   2.166  0.8205  0.0258  1.9995
 7647SOL     OW23839   6.271   5.139   4.094 -0.2152  0.5683  0.5639
 7647SOL    HW123840   6.350   5.201   4.097 -0.7995  1.3305  0.6648
 7647SOL    HW223841   6.299   5.051   4.057  0.3368  1.3570 -1.0044
 7648SOL     OW23842   2.819   6.282   5.608  0.6782  0.0387  0.0307
 7648SOL    HW123843   2.746   6.308   5.670  0.1258 -3.5450  1.1165
 7648SOL    HW223844   2.807   6.329   5.521 -2.6280  0.0549  0.3650
 7649SOL     OW23845   4.079   0.091   5.929  0.4419 -0.1715  0.3676
 7649SOL    HW123846   4.017   0.037   5.872 -1.0188  0.5313  1.2136
 7649SOL    HW223847   4.055   0.187   5.923  1.6154  0.1457  0.5530
 7650SOL     OW23848   5.342   5.486   0.146 -0.8387  0.1129  0.2640
 7650SOL    HW123849   5.376   5.516   0.057 -1.1296 -2.5085 -0.8209
 7650SOL    HW223850   5.415   5.440   0.197 -1.4849 -1.4182 -0.1185
 7651SOL     OW23851   1.039   2.680   3.787 -0.3636 -0.4312 -0.5403
 7651SOL    HW123852   0.985   2.761   3.811 -1.2190 -0.9180 -0.8054
 7651SOL    HW223853   1.078   2.692   3.696  0.7974  0.3334  0.0314
 7652SOL     OW23854   2.829   4.999   0.888 -0.0200  0.5278 -0.6368
 7652SOL    HW123855   2.772   4.928   0.929  0.6318  0.7845  0.7854
 7652SOL    HW223856   2.908   4.957   0.844 -0.4068  0.2831 -1.1022
 7653SOL     OW23857   4.107   0.108   5.103 -0.1309  0.3065  0.0122
 7653SOL    HW123858   4.089   0.199   5.067 -0.6362  0.9057  1.7136
 7653SOL    HW223859   4.096   0.108   5.202  2.4673 -0.9655  0.3897
 7654SOL     OW23860   4.840   0.295   5.344 -0.0286 -0.0453 -0.0383
 7654SOL    HW123861   4.864   0.365   5.411 -2.3347  0.0891  0.7294
 7654SOL    HW223862   4.742   0.299   5.325  0.4000 -0.6466 -2.8164
 7655SOL     OW23863   3.566   2.876   6.562  0.2043  0.3486  0.3081
 7655SOL    HW123864   3.555   2.972   6.539  0.9584  0.6656  1.1962
 7655SOL    HW223865   3.626   2.832   6.495 -0.0942  0.5074 -0.0654
 7656SOL     OW23866   6.480   0.412   6.302 -0.0379 -0.2522 -0.6579
 7656SOL    HW123867   6.483   0.494   6.244 -0.5378 -0.4720 -0.9999
 7656SOL    HW223868   6.421   0.429   6.380  0.5344 -0.0001 -0.2729
 7657SOL     OW23869   1.213   4.023   6.353  0.1805 -0.6028  0.0477
 7657SOL    HW123870   1.220   4.033   6.254  1.5546 -1.3490  0.0466
 7657SOL    HW223871   1.124   4.056   6.384  0.8151  2.5047 -1.0510
 7658SOL     OW23872   2.330   1.518   1.917  0.6766  0.2430 -0.1387
 7658SOL    HW123873   2.273   1.551   1.842 -0.4452  0.1526  0.6511
 7658SOL    HW223874   2.321   1.419   1.926  0.8558  0.2445  0.0837
 7659SOL     OW23875   2.368   6.530   6.115 -0.3281 -0.2024  0.2276
 7659SOL    HW123876   2.284   6.476   6.125 -0.0874 -0.7161 -0.4705
 7659SOL    HW223877   2.438   6.496   6.178 -0.2720 -0.5227 -0.0054
 7660SOL     OW23878   4.411   6.796   3.860 -0.5795  0.0170  0.3307
 7660SOL    HW123879   4.427   6.802   3.762 -0.7522 -0.7572  0.2441
 7660SOL    HW223880   4.469   6.724   3.899 -2.6081 -1.7779  0.2590
 7661SOL     OW23881   6.055   2.378   6.758 -0.5288  0.0514 -0.0007
 7661SOL    HW123882   6.022   2.456   6.811  1.3411  0.1467  1.1183
 7661SOL    HW223883   5.977   2.320   6.731 -1.8157  1.6168  0.2027
 7662SOL     OW23884   2.427   1.718   5.137  0.7618 -0.0638 -0.0288
 7662SOL    HW123885   2.526   1.736   5.143  1.0136 -1.3479 -0.1406
 7662SOL    HW223886   2.385   1.732   5.227  1.0582  0.4076  0.0393
 7663SOL     OW23887   5.588   4.967   3.260 -0.2640 -0.0491 -0.1877
 7663SOL    HW123888   5.536   4.881   3.261 -0.0069 -0.2124 -0.5956
 7663SOL    HW223889   5.592   5.003   3.167 -1.1124  0.8745  0.1144
 7664SOL     OW23890   1.136   0.299   2.163  0.3518  0.2146  0.0718
 7664SOL    HW123891   1.223   0.347   2.161 -0.4359  1.7520  0.9550
 7664SOL    HW223892   1.152   0.201   2.152  2.2378  0.3936  0.8735
 7665SOL     OW23893   6.784   0.410   5.457 -0.4560  0.1518  0.5417
 7665SOL    HW123894   6.736   0.469   5.392  0.4876  0.2780 -0.0695
 7665SOL    HW223895   6.821   0.331   5.408  1.0288  0.6986  0.7284
 7666SOL     OW23896   3.314   4.574   5.717 -0.5678  0.2930  0.1054
 7666SOL    HW123897   3.289   4.507   5.647 -0.7621 -1.0731  1.4030
 7666SOL    HW223898   3.368   4.528   5.788 -1.9242  1.1516  1.7742
 7667SOL     OW23899   2.114   1.688   4.622 -0.1371  0.2459  0.4564
 7667SOL    HW123900   2.155   1.778   4.628 -1.1235  1.0149 -2.4520
 7667SOL    HW223901   2.018   1.693   4.649 -0.3973  0.2801 -0.4336
 7668SOL     OW23902   5.397   5.405   0.809  0.0877 -0.5140  0.1930
 7668SOL    HW123903   5.380   5.435   0.715  0.5726  0.0872  0.2892
 7668SOL    HW223904   5.353   5.468   0.873 -0.0717 -0.8091  0.3771
 7669SOL     OW23905   5.377   5.827   1.965  0.1990  0.0396 -0.0608
 7669SOL    HW123906   5.279   5.809   1.960  0.3569 -1.1817  0.7608
 7669SOL    HW223907   5.394   5.909   2.020 -0.3109 -0.4931  0.9130
 7670SOL     OW23908   1.785   6.191   6.074 -1.0171  0.3015  0.0929
 7670SOL    HW123909   1.868   6.242   6.095 -2.8081  3.2896  0.5728
 7670SOL    HW223910   1.807   6.094   6.062  2.6820  1.1449 -1.1722
 7671SOL     OW23911   2.119   4.465   1.212 -0.5985 -0.1208  0.2022
 7671SOL    HW123912   2.044   4.442   1.275 -1.5021 -1.0763 -1.1654
 7671SOL    HW223913   2.197   4.406   1.230 -0.4720  0.2812  1.0538
 7672SOL     OW23914   0.068   4.172   1.448  0.0642  0.7166 -0.0461
 7672SOL    HW123915   0.135   4.240   1.417  1.5086 -0.2400  0.8436
 7672SOL    HW223916   0.070   4.166   1.547 -0.2617 -0.4107 -0.0936
 7673SOL     OW23917   1.312   6.348   6.031 -0.4404 -0.4119 -0.2835
 7673SOL    HW123918   1.256   6.418   6.078 -0.3863 -0.8514  0.4560
 7673SOL    HW223919   1.265   6.317   5.949 -0.1135  1.0555 -1.0557
 7674SOL     OW23920   2.728   5.791   5.653 -0.2728 -0.2967 -0.6452
 7674SOL    HW123921   2.820   5.760   5.677  0.0522  0.7938 -0.4363
 7674SOL    HW223922   2.709   5.878   5.698 -1.2269 -0.2683 -1.0728
 7675SOL     OW23923   1.581   0.457   1.747  0.3488 -0.4716 -0.6365
 7675SOL    HW123924   1.514   0.526   1.722  0.6608  0.2613  0.4901
 7675SOL    HW223925   1.663   0.469   1.690 -0.0546 -0.7018 -1.2817
 7676SOL     OW23926   5.715   4.914   6.132  0.0144  0.9275  0.0537
 7676SOL    HW123927   5.788   4.885   6.194 -0.0836  1.0908  0.2475
 7676SOL    HW223928   5.705   5.014   6.138 -1.5360  0.7257  1.4920
 7677SOL     OW23929   6.132   1.036   2.291 -0.3176 -0.4691  0.1855
 7677SOL    HW123930   6.081   1.106   2.241 -1.0913  0.1135  1.7137
 7677SOL    HW223931   6.159   0.963   2.228 -3.8499 -1.2971 -0.6123
 7678SOL     OW23932   0.151   0.405   3.964 -0.1631  0.2445 -0.5794
 7678SOL    HW123933   0.080   0.340   3.990  1.8722 -1.5178  0.8562
 7678SOL    HW223934   0.140   0.429   3.867 -2.2280 -0.5452 -0.5864
 7679SOL     OW23935   5.922   4.882   5.073  0.3115  0.8747 -0.1088
 7679SOL    HW123936   5.986   4.955   5.048  0.0399  1.6730  1.3949
 7679SOL    HW223937   5.829   4.909   5.047  0.2478  0.9568  0.1950
 7680SOL     OW23938   5.870   0.067   0.558 -0.2629  1.0357 -0.5044
 7680SOL    HW123939   5.782   0.114   0.564  0.1828  1.7956  0.4926
 7680SOL    HW223940   5.944   0.135   0.554  0.5263  0.5690  2.9581
 7681SOL     OW23941   0.057   4.164   5.493 -0.1803  0.5720  0.3563
 7681SOL    HW123942   0.006   4.094   5.443  0.7420 -0.7680  1.2132
 7681SOL    HW223943   0.154   4.144   5.489 -0.0160  0.9302  1.9232
 7682SOL     OW23944   0.024   6.096   3.946  0.2621  0.9179  0.0205
 7682SOL    HW123945   0.117   6.089   3.908 -0.3466 -0.5161 -1.2994
 7682SOL    HW223946   0.019   6.041   4.030  0.3812  0.2861 -0.3807
 7683SOL     OW23947   3.251   0.797   6.258 -0.0222 -0.2392  1.3470
 7683SOL    HW123948   3.235   0.714   6.204  1.3393  0.2285  0.1850
 7683SOL    HW223949   3.167   0.820   6.308 -0.9554 -1.3370  0.3617
 7684SOL     OW23950   4.881   1.032   2.245  0.1698  0.2476  0.3357
 7684SOL    HW123951   4.931   1.119   2.239  0.1013  0.2083 -1.1950
 7684SOL    HW223952   4.947   0.957   2.254  0.4091  0.2286 -1.2962
 7685SOL     OW23953   2.242   6.754   4.203  0.0253 -0.0637 -0.2569
 7685SOL    HW123954   2.335   6.761   4.240 -0.0336 -1.3417  0.1945
 7685SOL    HW223955   2.225   6.830   4.140  1.6613 -0.2693 -0.9886
 7686SOL     OW23956   0.119   1.932   5.694 -0.2742 -0.0498 -0.1050
 7686SOL    HW123957   0.206   1.981   5.701  0.4515 -1.5116  1.9109
 7686SOL    HW223958   0.061   1.955   5.772 -0.4763 -1.3416  0.1384
 7687SOL     OW23959   6.875   1.576   3.448 -0.2642  0.2759 -0.3609
 7687SOL    HW123960   6.795   1.522   3.421 -0.4318  0.7464 -0.8235
 7687SOL    HW223961   6.853   1.628   3.531 -1.3645  2.3966 -1.8779
 7688SOL     OW23962   3.698   6.620   0.589  0.3007  0.1363 -0.2916
 7688SOL    HW123963   3.770   6.572   0.540  0.0573 -1.9264  1.2451
 7688SOL    HW223964   3.609   6.580   0.567 -0.8306  3.7345 -3.5321
 7689SOL     OW23965   5.898   1.952   1.977 -0.6562  0.2216 -0.7078
 7689SOL    HW123966   5.866   1.938   1.883  0.3936 -1.0148 -0.9074
 7689SOL    HW223967   5.998   1.948   1.979 -0.4856  2.8179  0.0743
 7690SOL     OW23968   5.897   1.338   3.523 -0.3959 -0.0430  0.4809
 7690SOL    HW123969   5.867   1.363   3.616  0.2349  1.5955  0.2822
 7690SOL    HW223970   5.956   1.257   3.528  0.0329  0.3091  1.5931
 7691SOL     OW23971   1.963   6.136   1.854  0.1873  0.0241  0.0139
 7691SOL    HW123972   1.985   6.083   1.772 -0.0330 -0.9461  0.5753
 7691SOL    HW223973   2.040   6.135   1.917 -0.3527 -0.8781  0.6725
 7692SOL     OW23974   2.080   2.009   6.782  0.5931  0.0394  0.1228
 7692SOL    HW123975   2.039   2.061   6.856  1.0625 -0.6462  0.8808
 7692SOL    HW223976   2.051   2.047   6.694  0.1623  0.9607  0.6533
 7693SOL     OW23977   3.701   5.061   3.479  0.1506 -0.2781 -0.3292
 7693SOL    HW123978   3.795   5.033   3.461 -0.1061 -0.2042 -1.9475
 7693SOL    HW223979   3.680   5.143   3.425 -0.5840  0.1958  0.6616
 7694SOL     OW23980   1.378   6.342   3.453 -0.0709 -0.3600  0.4805
 7694SOL    HW123981   1.470   6.380   3.448 -0.0502 -0.4452  0.2292
 7694SOL    HW223982   1.318   6.406   3.500 -0.1103  0.1278 -0.2221
 7695SOL     OW23983   4.111   6.329   2.539  0.1145 -0.2272 -0.1395
 7695SOL    HW123984   4.121   6.238   2.499 -0.5313  0.0417 -0.9531
 7695SOL    HW223985   4.136   6.398   2.472 -2.3987  0.2840 -0.6584
 7696SOL     OW23986   5.320   2.704   2.759  0.0238 -0.7596 -0.3959
 7696SOL    HW123987   5.394   2.655   2.806  4.2679  3.0046 -2.3268
 7696SOL    HW223988   5.319   2.678   2.663 -1.4445 -0.9359 -0.3535
 7697SOL     OW23989   3.502   1.271   5.214 -0.3359  0.0275 -1.3426
 7697SOL    HW123990   3.480   1.367   5.228 -0.3913 -0.0707 -0.7404
 7697SOL    HW223991   3.466   1.217   5.290  1.5371 -0.2021 -0.5669
 7698SOL     OW23992   6.178   1.650   3.812  0.7189  0.2429  1.2514
 7698SOL    HW123993   6.101   1.591   3.835  0.7680 -0.6555 -0.6376
 7698SOL    HW223994   6.259   1.594   3.797  0.6404  0.6526 -1.1240
 7699SOL     OW23995   1.168   4.871   5.233  0.1224 -0.0649  0.1019
 7699SOL    HW123996   1.081   4.826   5.212  1.0789 -1.7540 -0.4012
 7699SOL    HW223997   1.152   4.943   5.302 -1.8119  0.3904 -0.7406
 7700SOL     OW23998   0.857   2.157   1.059  0.6383  0.0467 -0.1679
 7700SOL    HW123999   0.863   2.062   1.029  1.0084  0.3027 -0.9009
 7700SOL    HW224000   0.887   2.218   0.986  2.6230  0.6356  1.0844
 7701SOL     OW24001   1.286   4.673   4.190 -0.1748 -0.2611  0.0565
 7701SOL    HW124002   1.338   4.754   4.162  1.6250 -0.9644  1.1645
 7701SOL    HW224003   1.329   4.591   4.151  0.8702 -1.0377  2.6329
 7702SOL     OW24004   2.910   3.597   6.857  0.3362  0.0961 -0.2580
 7702SOL    HW124005   2.831   3.622   6.802  0.8468 -0.5121 -1.2973
 7702SOL    HW224006   2.947   3.509   6.825  1.7671  0.6395 -0.1807
 7703SOL     OW24007   4.706   5.384   3.062 -0.4842  0.7618  0.1967
 7703SOL    HW124008   4.632   5.450   3.075  0.3626  1.6615  0.5670
 7703SOL    HW224009   4.682   5.320   2.989 -1.0144  1.9175 -0.6602
 7704SOL     OW24010   0.341   4.843   4.430 -0.3474 -0.1961  0.2150
 7704SOL    HW124011   0.434   4.875   4.446  0.0518 -1.9939  1.8562
 7704SOL    HW224012   0.277   4.897   4.485 -0.2488  0.7602 -0.5883
 7705SOL     OW24013   5.058   4.364   6.749 -0.1798  0.0840 -0.1756
 7705SOL    HW124014   5.023   4.280   6.790 -1.6539  1.5477  1.7984
 7705SOL    HW224015   5.039   4.364   6.651 -0.7197 -1.5861 -0.1034
 7706SOL     OW24016   3.742   2.964   3.322 -0.2895 -0.2572 -0.2838
 7706SOL    HW124017   3.704   2.873   3.308  0.3697 -0.5732 -0.0796
 7706SOL    HW224018   3.735   3.017   3.238  1.6683 -1.3854 -1.2249
 7707SOL     OW24019   4.327   5.182   3.152  0.3312 -0.6872 -0.2673
 7707SOL    HW124020   4.414   5.226   3.129 -0.7953  1.0975 -1.3732
 7707SOL    HW224021   4.319   5.176   3.252 -0.0743  3.2532  0.1291
 7708SOL     OW24022   1.724   6.588   0.738  0.0068 -0.4678 -0.8400
 7708SOL    HW124023   1.800   6.651   0.720  0.4241 -0.1670  1.5710
 7708SOL    HW224024   1.655   6.634   0.793  0.0134 -1.8838  0.4404
 7709SOL     OW24025   2.972   2.395   0.429  0.0217 -0.0635  0.5814
 7709SOL    HW124026   3.000   2.301   0.410  0.9772  0.4660 -0.8028
 7709SOL    HW224027   3.040   2.438   0.488 -0.5092 -0.2725  1.3665
 7710SOL     OW24028   0.079   4.015   2.409 -0.5138  0.8382  0.2715
 7710SOL    HW124029   0.038   4.086   2.465 -0.2230  1.0727  0.1953
 7710SOL    HW224030   0.179   4.023   2.414 -0.2994 -1.8426  3.2305
 7711SOL     OW24031   4.589   2.009   6.382  0.2200 -0.3426 -0.1329
 7711SOL    HW124032   4.582   1.953   6.464 -0.4704  0.9549  0.7350
 7711SOL    HW224033   4.503   2.002   6.330  0.6838 -1.2259 -0.8274
 7712SOL     OW24034   6.160   2.617   0.662 -0.2464 -0.4574 -0.0112
 7712SOL    HW124035   6.245   2.569   0.642 -0.3933 -0.2167 -1.3212
 7712SOL    HW224036   6.091   2.551   0.692  0.4488 -0.6200  1.3295
 7713SOL     OW24037   4.302   5.660   0.471 -0.0603 -0.0969 -0.1495
 7713SOL    HW124038   4.288   5.615   0.382  0.5878  0.4743 -0.5501
 7713SOL    HW224039   4.377   5.725   0.464  0.5374 -0.6215  1.0448
 7714SOL     OW24040   6.283   5.451   0.898  0.8260  0.2413 -0.2264
 7714SOL    HW124041   6.238   5.517   0.957  2.3971 -0.1988  1.5616
 7714SOL    HW224042   6.221   5.375   0.879 -1.0949  2.2409 -2.5157
 7715SOL     OW24043   4.645   6.688   1.877  0.0817 -0.1963 -0.3081
 7715SOL    HW124044   4.724   6.711   1.820  1.2059  0.0348  1.2929
 7715SOL    HW224045   4.622   6.592   1.865 -0.3668  0.0890 -1.9226
 7716SOL     OW24046   6.813   2.494   0.333 -0.4202 -0.0927  0.6449
 7716SOL    HW124047   6.807   2.552   0.414 -2.2854  1.0298 -0.2294
 7716SOL    HW224048   6.783   2.401   0.356  0.4321 -0.1497  1.5521
 7717SOL     OW24049   6.033   6.875   1.760 -0.0620 -0.0781  0.0876
 7717SOL    HW124050   6.085   6.834   1.685  1.0445 -0.4656  1.0313
 7717SOL    HW224051   6.040   6.816   1.841  0.1002  1.1068  0.9660
 7718SOL     OW24052   1.702   1.078   0.167 -0.1531  0.3898  0.3353
 7718SOL    HW124053   1.758   1.153   0.130 -0.1399 -0.7464 -2.1361
 7718SOL    HW224054   1.606   1.093   0.142 -0.2841  0.0411  0.6272
 7719SOL     OW24055   6.513   2.801   0.678 -0.2635 -0.4140  0.0691
 7719SOL    HW124056   6.570   2.882   0.673 -1.8622  0.7379 -0.1559
 7719SOL    HW224057   6.454   2.797   0.597 -1.9783 -0.4174  1.2754
 7720SOL     OW24058   2.058   1.198   2.198 -0.3667 -0.0256  0.4952
 7720SOL    HW124059   2.153   1.186   2.227  0.3111  0.2788 -1.4546
 7720SOL    HW224060   2.015   1.270   2.253  0.5662 -0.0384  1.2809
 7721SOL     OW24061   3.003   6.276   3.806  0.5208 -0.6747  0.1115
 7721SOL    HW124062   3.102   6.265   3.803  0.4281 -1.4253 -0.8073
 7721SOL    HW224063   2.960   6.192   3.773 -0.4064 -0.0827 -0.2088
 7722SOL     OW24064   0.799   0.686   1.543  0.1001 -0.1572 -0.4380
 7722SOL    HW124065   0.850   0.732   1.616 -0.8833  1.0794 -0.4966
 7722SOL    HW224066   0.721   0.742   1.517 -0.9362 -1.6964 -0.7955
 7723SOL     OW24067   2.315   2.055   3.225 -0.2922  0.5940  0.0946
 7723SOL    HW124068   2.396   2.008   3.191 -2.5753 -2.7375 -1.2224
 7723SOL    HW224069   2.301   2.139   3.173  0.7857 -0.2185 -1.5969
 7724SOL     OW24070   2.606   6.133   2.714  0.0801  0.0892  0.9279
 7724SOL    HW124071   2.525   6.140   2.772 -1.5672 -0.0008 -1.2511
 7724SOL    HW224072   2.594   6.059   2.649  0.5031  2.0436 -1.4991
 7725SOL     OW24073   1.332   1.934   0.832  0.2810  0.3650  0.0895
 7725SOL    HW124074   1.343   1.947   0.733  0.8124 -1.7315 -0.1648
 7725SOL    HW224075   1.262   1.997   0.866 -1.8764 -0.7058 -2.1022
 7726SOL     OW24076   2.886   4.978   3.180  0.6083  0.1038 -0.5464
 7726SOL    HW124077   2.924   4.946   3.267  0.6725 -1.2621 -1.0451
 7726SOL    HW224078   2.906   5.075   3.167  0.1027  0.4787  1.2203
 7727SOL     OW24079   5.551   0.385   6.766 -0.3613 -0.3576  0.2080
 7727SOL    HW124080   5.488   0.461   6.779 -1.5997 -1.5283  1.2996
 7727SOL    HW224081   5.509   0.315   6.709  0.9923 -0.0081 -1.2938
 7728SOL     OW24082   2.003   4.891   0.829 -0.0983  0.1490  0.0062
 7728SOL    HW124083   2.089   4.901   0.879  0.2886  1.4815 -0.8660
 7728SOL    HW224084   2.022   4.873   0.733 -0.8173 -0.6361 -0.0007
 7729SOL     OW24085   4.890   4.405   1.582 -0.5262 -0.0347 -0.0612
 7729SOL    HW124086   4.934   4.494   1.567  0.2620 -0.4885 -0.4659
 7729SOL    HW224087   4.953   4.344   1.631 -0.0194 -1.2582 -2.1279
 7730SOL     OW24088   5.108   3.641   2.770  0.3814  0.0538  0.6665
 7730SOL    HW124089   5.126   3.660   2.673 -1.9236 -0.4918  0.0628
 7730SOL    HW224090   5.133   3.546   2.790 -0.2970 -0.2318  0.2327
 7731SOL     OW24091   4.124   4.752   3.268 -0.1140 -0.3372  0.6008
 7731SOL    HW124092   4.171   4.663   3.262  0.7173  0.1736 -0.7986
 7731SOL    HW224093   4.150   4.797   3.354 -0.5924 -1.4515  1.3564
 7732SOL     OW24094   2.741   2.310   2.611  0.0014  0.2332 -0.6831
 7732SOL    HW124095   2.822   2.307   2.669  0.7359 -0.0452 -1.6819
 7732SOL    HW224096   2.769   2.326   2.516 -1.1195  0.1954 -1.0347
 7733SOL     OW24097   2.274   0.768   0.639  0.0623  0.2374  0.2634
 7733SOL    HW124098   2.266   0.867   0.627  0.2040  0.1550 -0.5560
 7733SOL    HW224099   2.250   0.722   0.553  0.7623 -0.3999  0.4037
 7734SOL     OW24100   2.143   3.151   4.983 -0.0024  0.0803 -0.5947
 7734SOL    HW124101   2.222   3.095   5.008 -0.1364 -0.3873 -1.2016
 7734SOL    HW224102   2.059   3.098   4.994 -0.1953  0.4101 -0.4464
 7735SOL     OW24103   0.761   6.465   6.395  0.0382 -0.4549 -0.0733
 7735SOL    HW124104   0.682   6.521   6.420 -0.1061 -0.3302 -0.7806
 7735SOL    HW224105   0.814   6.443   6.477 -0.6217 -0.3757  0.3812
 7736SOL     OW24106   2.091   4.691   4.957 -0.6408 -0.2359  0.5464
 7736SOL    HW124107   2.112   4.654   4.867 -1.3358 -1.5033  0.8813
 7736SOL    HW224108   2.151   4.768   4.977  0.2875 -0.6679 -0.5217
 7737SOL     OW24109   4.238   6.831   6.669 -0.1769  0.1121  0.2384
 7737SOL    HW124110   4.215   6.841   6.766  0.6807  0.6490  0.3929
 7737SOL    HW224111   4.207   6.911   6.619 -0.8263 -0.2679  0.0205
 7738SOL     OW24112   5.217   0.593   6.056  0.3813  0.2877  0.3337
 7738SOL    HW124113   5.181   0.682   6.083 -1.6274 -0.4941  0.3867
 7738SOL    HW224114   5.200   0.578   5.959  2.1730  0.5857 -0.0702
 7739SOL     OW24115   4.841   4.715   3.877 -0.1894  0.0756  0.4606
 7739SOL    HW124116   4.830   4.639   3.941 -0.8378 -0.8388 -0.7032
 7739SOL    HW224117   4.786   4.793   3.908 -0.0440 -0.1573  1.3179
 7740SOL     OW24118   5.554   0.008   4.745 -0.2880 -0.3874  0.2605
 7740SOL    HW124119   5.605  -0.031   4.668  0.1683 -2.4635  1.5190
 7740SOL    HW224120   5.460  -0.024   4.743 -0.2913 -0.3992  0.5260
 7741SOL     OW24121   1.085   0.800   4.747  0.2204  0.4896  0.0203
 7741SOL    HW124122   1.155   0.729   4.743  1.2755  1.4371  0.8315
 7741SOL    HW224123   1.000   0.766   4.706  1.4330 -0.3363 -1.9557
 7742SOL     OW24124   6.079   1.782   6.600  0.3679  0.2992  0.3670
 7742SOL    HW124125   6.006   1.823   6.545  1.1986  2.0302  0.4927
 7742SOL    HW224126   6.111   1.698   6.555 -0.9795  0.0731 -0.2179
 7743SOL     OW24127   4.009   4.707   6.448 -0.0495 -0.0145 -0.1466
 7743SOL    HW124128   4.005   4.795   6.495 -0.8590 -0.8728  1.4907
 7743SOL    HW224129   3.917   4.682   6.417 -0.3379 -1.3630  1.6089
 7744SOL     OW24130   1.801   5.761   0.772  0.3198 -0.0698 -0.3156
 7744SOL    HW124131   1.739   5.696   0.814 -0.5425  0.6745 -0.4101
 7744SOL    HW224132   1.856   5.806   0.843 -0.2694  0.3082 -0.0989
 7745SOL     OW24133   0.281   1.851   1.561  0.0769  0.1860  0.5698
 7745SOL    HW124134   0.293   1.805   1.472  0.6554 -0.9322  1.2059
 7745SOL    HW224135   0.251   1.945   1.545  1.1651  0.3397 -0.8573
 7746SOL     OW24136   2.196   4.660   2.898 -0.0780  0.0960  0.0191
 7746SOL    HW124137   2.226   4.568   2.921 -0.8867 -0.0923  0.3597
 7746SOL    HW224138   2.223   4.723   2.971  0.2867  0.0966 -0.1128
 7747SOL     OW24139   1.086   4.862   0.063 -0.4316 -0.7503  0.2237
 7747SOL    HW124140   1.151   4.808   0.010  0.3564 -1.1164  1.5076
 7747SOL    HW224141   1.066   4.947   0.015  1.9691 -0.0519  0.3140
 7748SOL     OW24142   5.803   5.303   5.535 -0.4340  0.1854 -0.5193
 7748SOL    HW124143   5.813   5.206   5.557  0.0283  0.2762 -0.3232
 7748SOL    HW224144   5.884   5.335   5.487  0.7790  1.1873  2.0209
 7749SOL     OW24145   2.508   2.620   1.279 -0.7330 -0.2602 -0.2275
 7749SOL    HW124146   2.554   2.613   1.191 -0.9063  0.5349 -0.3889
 7749SOL    HW224147   2.451   2.702   1.281 -0.3475  0.0040  0.7998
 7750SOL     OW24148   6.293   4.500   2.380  0.2907  0.3406 -0.3497
 7750SOL    HW124149   6.226   4.541   2.442  1.5266  0.0270  1.2559
 7750SOL    HW224150   6.329   4.416   2.420  3.2796  1.6239 -0.0306
 7751SOL     OW24151   4.796   6.858   5.410 -0.8484 -0.6835 -0.4070
 7751SOL    HW124152   4.700   6.885   5.417 -0.4005  0.6586  1.7738
 7751SOL    HW224153   4.842   6.879   5.496  1.5911 -0.6011 -1.6560
 7752SOL     OW24154   4.491   4.861   1.540 -0.3156  0.4065  0.7322
 7752SOL    HW124155   4.414   4.825   1.594 -0.6438  2.5290  1.8008
 7752SOL    HW224156   4.565   4.887   1.601 -0.0386  1.3510  0.0210
 7753SOL     OW24157   2.380   6.086   3.414 -0.4574  0.4076  0.1645
 7753SOL    HW124158   2.420   6.062   3.502 -0.3949  0.7300  0.2251
 7753SOL    HW224159   2.445   6.062   3.341 -0.2019  0.8181  0.2551
 7754SOL     OW24160   1.017   6.628   0.036 -0.6546  0.1496  0.0147
 7754SOL    HW124161   0.989   6.583   0.121 -1.0313 -0.1943 -0.2870
 7754SOL    HW224162   0.970   6.585  -0.041 -0.9433  1.0136 -0.2925
 7755SOL     OW24163   6.400   2.224   4.656  0.0370  0.0830 -0.5384
 7755SOL    HW124164   6.371   2.209   4.751 -0.8084  0.2618 -0.7565
 7755SOL    HW224165   6.416   2.135   4.612 -2.3918 -0.1787 -1.0484
 7756SOL     OW24166   1.274   3.330   1.580  0.0984  0.3525  0.3915
 7756SOL    HW124167   1.223   3.246   1.563 -0.2456  0.6607 -0.1420
 7756SOL    HW224168   1.367   3.307   1.607 -0.7306 -0.2638  2.9908
 7757SOL     OW24169   2.214   2.982   3.305 -0.0379  0.1480 -0.3678
 7757SOL    HW124170   2.202   3.081   3.314 -2.4268 -0.0648 -0.5169
 7757SOL    HW224171   2.298   2.963   3.255  0.8183  2.0668  0.2537
 7758SOL     OW24172   4.499   6.678   1.454  0.2188 -0.0518 -0.4140
 7758SOL    HW124173   4.452   6.765   1.472  1.0101  0.4604 -0.7356
 7758SOL    HW224174   4.591   6.681   1.493  0.7557 -0.1956 -1.5954
 7759SOL     OW24175   4.377   6.918   1.477  0.5410  0.2972 -0.3398
 7759SOL    HW124176   4.313   6.966   1.536  0.4610  0.9274 -0.9265
 7759SOL    HW224177   4.347   6.925   1.382  0.7429 -0.5849 -0.4833
 7760SOL     OW24178   0.130   4.774   4.986 -0.1348  0.4180 -0.5678
 7760SOL    HW124179   0.051   4.806   4.933 -1.2092 -1.4943 -0.2073
 7760SOL    HW224180   0.102   4.760   5.081  1.2526  1.8446  0.1097
 7761SOL     OW24181   2.257   1.884   3.447 -0.3550 -0.8829  0.3265
 7761SOL    HW124182   2.286   1.906   3.354  1.1342  3.6680  1.6064
 7761SOL    HW224183   2.331   1.838   3.496 -0.3736 -1.3935 -0.1153
 7762SOL     OW24184   6.172   3.156   1.804  0.6775  0.3433 -0.1891
 7762SOL    HW124185   6.153   3.230   1.869  1.8477  0.0516  0.5132
 7762SOL    HW224186   6.094   3.094   1.802  0.4773  0.5421  0.6902
 7763SOL     OW24187   4.222   3.555   6.194 -0.2421  0.2617 -0.7839
 7763SOL    HW124188   4.267   3.576   6.280 -0.1442 -1.2816 -0.4314
 7763SOL    HW224189   4.288   3.560   6.119 -0.2452  1.2392 -0.7275
 7764SOL     OW24190   6.723   3.099   1.317 -0.3218 -0.4909 -0.2273
 7764SOL    HW124191   6.749   3.163   1.244 -0.8093  0.7968  0.7086
 7764SOL    HW224192   6.705   3.009   1.276 -0.3155  0.1213 -1.6544
 7765SOL     OW24193   0.404   0.048   3.598 -0.1988  0.7100  0.1083
 7765SOL    HW124194   0.332   0.115   3.586 -2.0885 -1.4276 -1.3188
 7765SOL    HW224195   0.475   0.061   3.528 -0.6428  1.0758 -0.2746
 7766SOL     OW24196   5.891   5.770   5.444  0.1936  0.4733  1.4604
 7766SOL    HW124197   5.980   5.736   5.474 -0.4335 -0.2849  2.5365
 7766SOL    HW224198   5.823   5.698   5.452 -0.7797  1.4003  1.9107
 7767SOL     OW24199   1.275   0.952   6.150  0.2096 -0.2677  0.0369
 7767SOL    HW124200   1.344   0.919   6.215 -0.2901  0.0112  0.7243
 7767SOL    HW224201   1.320   0.979   6.065  0.9962  0.2327  0.5902
 7768SOL     OW24202   5.607   3.787   1.077 -0.5419 -0.2126 -0.2218
 7768SOL    HW124203   5.530   3.743   1.031 -0.8549  0.6289 -0.5298
 7768SOL    HW224204   5.575   3.830   1.161 -0.0342 -1.4582  0.6285
 7769SOL     OW24205   0.945   0.064   5.761  0.3297  0.1173  0.6117
 7769SOL    HW124206   0.896   0.052   5.847 -1.1671 -1.6297 -0.4215
 7769SOL    HW224207   0.980  -0.024   5.730  0.7269  0.6926 -0.6433
 7770SOL     OW24208   3.979   0.336   3.951 -0.1312 -0.8197  0.8304
 7770SOL    HW124209   3.942   0.422   3.916 -2.3337 -1.7559  0.7361
 7770SOL    HW224210   4.061   0.355   4.004 -1.0574  1.4452  1.5724
 7771SOL     OW24211   1.592   3.180   5.205 -0.1862  0.6474  0.5499
 7771SOL    HW124212   1.672   3.121   5.206 -2.3391 -2.7717 -2.7343
 7771SOL    HW224213   1.565   3.198   5.110 -4.8238 -0.8296  1.3347
 7772SOL     OW24214   6.911   2.819   4.456  0.1072 -0.3848  0.1743
 7772SOL    HW124215   6.818   2.855   4.463  0.7794  1.3061  0.8513
 7772SOL    HW224216   6.940   2.820   4.360  0.4098  1.8031  0.2366
 7773SOL     OW24217   0.240   5.047   6.186 -0.4077  0.3965 -0.2583
 7773SOL    HW124218   0.274   5.141   6.184  0.6887  0.0114 -0.3422
 7773SOL    HW224219   0.212   5.023   6.279 -2.8445  1.5252 -0.6345
 7774SOL     OW24220   6.975   0.497   2.508 -0.5279  0.1939  0.1343
 7774SOL    HW124221   7.066   0.498   2.550  0.4051  0.3781 -1.7740
 7774SOL    HW224222   6.983   0.528   2.413 -2.6285  0.3657 -0.0167
 7775SOL     OW24223   4.337   5.641   5.908 -0.3551 -0.2243 -0.2218
 7775SOL    HW124224   4.358   5.729   5.867  0.1158  0.7452  1.9794
 7775SOL    HW224225   4.257   5.650   5.968 -1.8385 -1.8916 -1.8167
 7776SOL     OW24226   6.443   0.260   3.537 -0.9103  0.6194 -0.1831
 7776SOL    HW124227   6.452   0.273   3.439 -0.7397 -0.2559 -0.2884
 7776SOL    HW224228   6.346   0.255   3.561 -1.0274  2.5286 -0.0553
 7777SOL     OW24229   3.739   5.704   5.881  0.4328 -0.1008 -0.1588
 7777SOL    HW124230   3.838   5.701   5.867  0.3054  0.7887 -1.3964
 7777SOL    HW224231   3.699   5.615   5.857  0.9662 -0.6119  0.7934
 7778SOL     OW24232   3.381   1.939   6.134 -0.3404 -0.0900 -0.2381
 7778SOL    HW124233   3.448   1.994   6.084 -0.1633 -0.0699  0.0196
 7778SOL    HW224234   3.399   1.842   6.120  1.3999 -0.1742  1.9266
 7779SOL     OW24235   1.401   5.243   4.456 -0.3880 -0.4395 -0.2438
 7779SOL    HW124236   1.481   5.290   4.495 -0.9933 -0.8937  1.6626
 7779SOL    HW224237   1.424   5.207   4.366  2.7867 -3.6126  1.5811
 7780SOL     OW24238   5.601   5.708   2.642  0.1180 -0.2715  0.0753
 7780SOL    HW124239   5.558   5.626   2.681 -2.3863  0.8639 -0.0746
 7780SOL    HW224240   5.613   5.694   2.543 -1.8313  0.0632 -0.2581
 7781SOL     OW24241   0.289   0.287   3.558  0.1402  0.2254  0.2956
 7781SOL    HW124242   0.257   0.331   3.642 -0.1550  1.0849 -0.2602
 7781SOL    HW224243   0.238   0.323   3.480  0.4038 -0.5763 -0.2577
 7782SOL     OW24244   6.624   6.225   1.504 -0.7466  0.7492 -0.2169
 7782SOL    HW124245   6.686   6.153   1.476 -0.3923  0.9561  0.0271
 7782SOL    HW224246   6.530   6.198   1.485 -0.5492  0.6715 -1.1033
 7783SOL     OW24247   5.440   5.513   2.752 -0.5915 -0.0404 -0.0087
 7783SOL    HW124248   5.431   5.504   2.851  0.2468 -0.3465  0.0550
 7783SOL    HW224249   5.354   5.546   2.713 -0.5130  1.4552  0.9790
 7784SOL     OW24250   2.776   3.607   1.608  0.3533 -0.7786 -0.5503
 7784SOL    HW124251   2.745   3.694   1.570  1.4414  0.1680  0.6300
 7784SOL    HW224252   2.868   3.618   1.645  0.6091 -2.5127 -0.5807
 7785SOL     OW24253   4.996   2.666   4.047 -0.2200 -0.9717  0.2451
 7785SOL    HW124254   4.928   2.600   4.077  0.2216 -3.0516 -2.9220
 7785SOL    HW224255   5.008   2.660   3.948  1.7673  2.0932  0.1501
 7786SOL     OW24256   1.212   1.100   1.518  0.4292 -0.3382 -0.2613
 7786SOL    HW124257   1.122   1.140   1.536 -0.3480 -2.1031 -0.0772
 7786SOL    HW224258   1.240   1.046   1.598  1.6826  0.2288 -0.3039
 7787SOL     OW24259   1.255   2.223   0.631 -0.0927  0.1877  0.1275
 7787SOL    HW124260   1.294   2.308   0.665  0.3801  0.0068  0.0459
 7787SOL    HW224261   1.325   2.172   0.580 -0.4968 -0.0359 -0.2105
 7788SOL     OW24262   6.118   0.872   3.568  0.5277 -0.5645 -0.5042
 7788SOL    HW124263   6.209   0.884   3.609 -0.0464 -0.0722  0.6699
 7788SOL    HW224264   6.126   0.818   3.485  2.0614  0.4314 -1.0560
 7789SOL     OW24265   3.127   2.677   0.128 -0.0054  0.2526 -0.0093
 7789SOL    HW124266   3.044   2.623   0.143  0.4579 -0.8961 -1.3840
 7789SOL    HW224267   3.108   2.773   0.152 -1.9935  0.1781 -1.0250
 7790SOL     OW24268   0.741   1.321   2.735 -0.5508  0.3996 -0.2454
 7790SOL    HW124269   0.670   1.251   2.740 -0.7424  0.6641  0.8210
 7790SOL    HW224270   0.819   1.293   2.791 -0.0872  0.4494 -0.8441
 7791SOL     OW24271   4.503   0.030   3.962  0.4215  0.4458  0.3382
 7791SOL    HW124272   4.456  -0.057   3.949  0.7038  0.1610  1.1217
 7791SOL    HW224273   4.522   0.072   3.874  0.5487 -0.4362 -0.0605
 7792SOL     OW24274   4.148   0.396   0.592  1.0785  0.2473  0.2716
 7792SOL    HW124275   4.208   0.411   0.671  2.4358  0.7487 -0.8073
 7792SOL    HW224276   4.116   0.484   0.557  0.2588  0.0143  0.4153
 7793SOL     OW24277   5.008   5.512   5.723 -0.0398  0.5183  0.3173
 7793SOL    HW124278   4.950   5.493   5.644  0.0922  0.6859  0.1788
 7793SOL    HW224279   5.019   5.611   5.734 -0.6399  0.5244  0.9723
 7794SOL     OW24280   3.365   1.981   3.616 -0.0100  0.9121  0.0291
 7794SOL    HW124281   3.453   2.019   3.587 -0.4996  0.8896 -1.6126
 7794SOL    HW224282   3.346   1.898   3.564 -0.5812  0.4039  1.0353
 7795SOL     OW24283   6.142   5.391   5.560 -0.3745  0.1482 -0.1323
 7795SOL    HW124284   6.120   5.453   5.485 -1.7594  0.4076  0.4581
 7795SOL    HW224285   6.165   5.301   5.522  0.2036  0.6137 -0.9184
 7796SOL     OW24286   3.411   2.924   3.139 -0.6327  0.4404  0.1237
 7796SOL    HW124287   3.400   2.925   3.239 -0.2839  3.3594  0.2333
 7796SOL    HW224288   3.429   2.831   3.108  2.2942 -0.1670  3.1277
 7797SOL     OW24289   6.907   0.887   2.370 -0.0413  0.2044  0.2879
 7797SOL    HW124290   6.962   0.819   2.322 -0.2266  1.3260 -1.5730
 7797SOL    HW224291   6.825   0.843   2.408 -0.3123 -0.5740 -1.1495
 7798SOL     OW24292   6.573   1.860   1.590  0.4989  0.0911 -0.2255
 7798SOL    HW124293   6.664   1.819   1.578  0.9804  0.7756  0.9052
 7798SOL    HW224294   6.583   1.957   1.611 -0.4846  0.0912  0.2781
 7799SOL     OW24295   4.907   6.705   0.493 -0.1269 -0.0522 -0.3337
 7799SOL    HW124296   4.819   6.752   0.497 -0.5418 -0.7973 -0.4906
 7799SOL    HW224297   4.981   6.772   0.498 -0.6997  0.6995 -1.4398
 7800SOL     OW24298   1.717   0.684   0.354  0.4519  1.0006  0.0657
 7800SOL    HW124299   1.780   0.747   0.308  1.8005 -0.4680 -0.1748
 7800SOL    HW224300   1.768   0.606   0.389 -1.3035 -0.4496 -0.4696
 7801SOL     OW24301   2.989   4.962   1.258  0.4443  0.6364 -0.3767
 7801SOL    HW124302   3.004   4.898   1.183  0.6552  0.2859 -0.0374
 7801SOL    HW224303   2.900   4.943   1.301  0.2035  1.0077 -0.7030
 7802SOL     OW24304   3.782   2.578   5.746  0.0766  0.5995  0.1255
 7802SOL    HW124305   3.699   2.632   5.749  0.0325  0.4998  1.2242
 7802SOL    HW224306   3.762   2.485   5.778  0.4275  0.3203 -0.4536
 7803SOL     OW24307   2.524   5.377   5.343 -0.3102 -0.1269 -0.2703
 7803SOL    HW124308   2.585   5.303   5.372 -1.0214 -0.7963 -0.4484
 7803SOL    HW224309   2.578   5.459   5.325  0.7891 -1.1555 -2.0517
 7804SOL     OW24310   4.552   1.344   0.369 -0.5987  0.0568  0.4619
 7804SOL    HW124311   4.580   1.278   0.440 -1.2703 -0.7323  0.0175
 7804SOL    HW224312   4.594   1.319   0.282 -1.4301 -0.2204  0.1320
 7805SOL     OW24313   4.423   1.739   6.432  0.4899 -0.0972  0.0472
 7805SOL    HW124314   4.334   1.693   6.436  0.2957  0.0406 -1.7194
 7805SOL    HW224315   4.426   1.813   6.499 -0.6655 -0.2023  0.2355
 7806SOL     OW24316   4.007   2.705   1.534 -0.0106 -0.6224  0.2387
 7806SOL    HW124317   4.081   2.696   1.601 -1.6385  1.1809  2.4411
 7806SOL    HW224318   3.930   2.648   1.563 -0.8699  0.4552  0.1334
 7807SOL     OW24319   2.818   0.329   4.206  0.9759 -0.8329  0.3119
 7807SOL    HW124320   2.725   0.339   4.242 -0.9328 -0.3276 -4.0906
 7807SOL    HW224321   2.834   0.233   4.181  2.4112 -1.2523  2.5359
 7808SOL     OW24322   0.809   5.335   0.595 -0.2059 -0.3650 -0.3193
 7808SOL    HW124323   0.814   5.253   0.652  1.7105 -0.1051 -0.0391
 7808SOL    HW224324   0.853   5.317   0.506  2.8320  1.0542  0.7503
 7809SOL     OW24325   2.787   4.987   5.617 -0.9251 -0.5776  0.0463
 7809SOL    HW124326   2.815   4.909   5.672 -0.4065  0.1098  0.7771
 7809SOL    HW224327   2.691   5.007   5.633 -0.4327  0.5620  1.9394
 7810SOL     OW24328   3.770   6.137   2.237  1.1406  0.4240  0.0420
 7810SOL    HW124329   3.762   6.138   2.138  0.8657 -0.6393  0.0372
 7810SOL    HW224330   3.856   6.179   2.264  1.0674  1.0193 -0.6232
 7811SOL     OW24331   0.358   2.324   2.388 -0.4077 -0.2529 -0.1790
 7811SOL    HW124332   0.423   2.363   2.323  0.7144 -1.7548 -0.0361
 7811SOL    HW224333   0.269   2.367   2.377 -0.0802 -0.0022 -2.2313
 7812SOL     OW24334   4.483   1.685   2.116  0.2425 -0.1720 -0.1694
 7812SOL    HW124335   4.431   1.624   2.176 -0.0636  0.9351  0.7104
 7812SOL    HW224336   4.420   1.742   2.064  0.5338  1.1906  0.9133
 7813SOL     OW24337   5.285   2.116   1.264 -0.0210 -0.3978 -0.1204
 7813SOL    HW124338   5.299   2.205   1.220  2.6544 -1.2092 -1.1161
 7813SOL    HW224339   5.222   2.061   1.210 -0.1139  0.1712 -0.6022
 7814SOL     OW24340   4.080   6.287   5.519  0.1042 -0.0667  0.2491
 7814SOL    HW124341   4.006   6.236   5.474  0.2990 -0.4520  0.3580
 7814SOL    HW224342   4.043   6.334   5.599 -0.5443  1.7279 -1.0216
 7815SOL     OW24343   0.120   3.683   2.027 -0.1146  0.4563  0.7464
 7815SOL    HW124344   0.180   3.603   2.023 -1.5884 -0.6697  0.3665
 7815SOL    HW224345   0.055   3.672   2.102 -0.3225  1.3223  0.7059
 7816SOL     OW24346   3.554   5.116   5.107  0.4949 -0.1903  0.5670
 7816SOL    HW124347   3.648   5.085   5.110  0.7690  0.6320  0.7499
 7816SOL    HW224348   3.493   5.037   5.102  1.3021 -0.7708 -3.7806
 7817SOL     OW24349   7.006   6.665   5.610  0.2547 -0.0121  0.4946
 7817SOL    HW124350   7.031   6.696   5.518  0.3197  0.7024  0.7420
 7817SOL    HW224351   7.025   6.738   5.675  1.7731 -1.0892  1.3180
 7818SOL     OW24352   6.704   2.837   2.596  0.8052 -0.2707 -0.1968
 7818SOL    HW124353   6.754   2.911   2.550 -1.6562  0.3850 -2.0543
 7818SOL    HW224354   6.607   2.841   2.569 -0.1515 -1.9191  2.6069
 7819SOL     OW24355   5.618   0.982   6.341 -0.1925  0.3189  0.2865
 7819SOL    HW124356   5.582   1.015   6.253 -1.5381  0.1975  0.7632
 7819SOL    HW224357   5.688   0.913   6.325  4.0620  4.3392 -0.8636
 7820SOL     OW24358   0.508   3.310   5.346 -0.2795 -0.7536 -0.1260
 7820SOL    HW124359   0.521   3.308   5.445 -2.3536 -1.3272  0.1687
 7820SOL    HW224360   0.459   3.393   5.320  0.1061 -0.6851 -0.6675
 7821SOL     OW24361   3.932   4.480   1.418 -0.3677 -0.1705 -0.1052
 7821SOL    HW124362   3.939   4.421   1.498  0.7902 -0.2084 -0.2174
 7821SOL    HW224363   3.908   4.426   1.338 -1.3359 -0.1608  0.1644
 7822SOL     OW24364   2.059   1.909   5.033 -0.4840  0.1114  0.1955
 7822SOL    HW124365   2.055   1.979   5.104 -0.9507 -0.3378  0.6209
 7822SOL    HW224366   2.154   1.899   5.001 -0.2932  0.4136  0.6560
 7823SOL     OW24367   0.110   0.463   0.256  0.1445 -0.1966  0.0423
 7823SOL    HW124368   0.115   0.546   0.311 -0.1277 -0.4051  0.3864
 7823SOL    HW224369   0.015   0.450   0.224  0.4372  0.3229 -1.1029
 7824SOL     OW24370   5.022   3.513   5.180  0.2220 -0.4954  0.2241
 7824SOL    HW124371   4.991   3.478   5.269 -0.2730  3.4140  1.7851
 7824SOL    HW224372   4.945   3.516   5.117 -0.0111 -0.9553  0.4821
 7825SOL     OW24373   2.816   5.219   5.783 -0.0195 -0.3224  0.6623
 7825SOL    HW124374   2.820   5.165   5.699  1.7248 -1.9643  1.7147
 7825SOL    HW224375   2.732   5.273   5.784 -0.1855 -0.4078 -2.0103
 7826SOL     OW24376   1.486   5.882   4.004 -0.1800 -0.3862 -0.2421
 7826SOL    HW124377   1.541   5.830   3.939 -0.9280 -0.4118 -0.8650
 7826SOL    HW224378   1.390   5.883   3.975 -0.1281  1.7878 -0.5601
 7827SOL     OW24379   5.102   1.428   4.577  0.4924  0.0836 -1.1042
 7827SOL    HW124380   5.076   1.340   4.535  2.0604  0.0222 -2.0381
 7827SOL    HW224381   5.027   1.493   4.566 -0.1572 -0.7274 -1.6427
 7828SOL     OW24382   0.958   4.783   3.024  0.3476 -0.6610  0.1790
 7828SOL    HW124383   0.922   4.764   2.932 -0.4561 -0.3545  0.4209
 7828SOL    HW224384   1.017   4.864   3.021 -2.4684  1.5675  0.4964
 7829SOL     OW24385   6.306   0.505   6.484 -0.6476 -0.8692 -0.2427
 7829SOL    HW124386   6.261   0.589   6.455  2.6055  1.0242 -0.3463
 7829SOL    HW224387   6.349   0.519   6.574  1.0897 -1.9242 -0.8524
 7830SOL     OW24388   3.540   2.078   1.820  0.2986  0.2965 -0.0625
 7830SOL    HW124389   3.566   2.161   1.869 -0.0971 -0.0156  0.6904
 7830SOL    HW224390   3.452   2.045   1.854 -1.0700  1.2573 -2.4949
 7831SOL     OW24391   4.922   0.808   2.971 -0.0126 -0.5286 -0.2510
 7831SOL    HW124392   4.910   0.810   2.872  0.1711  0.5999 -0.2680
 7831SOL    HW224393   4.867   0.881   3.013 -0.0111 -0.9326  0.4680
 7832SOL     OW24394   1.288   3.244   3.074  0.3577 -0.2235  0.1873
 7832SOL    HW124395   1.266   3.241   3.171  0.7281  0.7804  0.3242
 7832SOL    HW224396   1.374   3.196   3.058  0.3305 -0.3344  0.3728
 7833SOL     OW24397   4.631   0.512   6.805 -0.0109 -0.3500  0.2774
 7833SOL    HW124398   4.585   0.479   6.888 -2.3241  0.6065 -0.5323
 7833SOL    HW224399   4.562   0.533   6.736  1.8990 -1.9548 -2.2528
 7834SOL     OW24400   1.788   4.739   2.917  0.0620  0.6414  0.3913
 7834SOL    HW124401   1.804   4.834   2.941  0.3560 -0.1314  3.8383
 7834SOL    HW224402   1.849   4.680   2.971  0.0278 -1.5116 -1.7603
 7835SOL     OW24403   5.958   4.614   5.017  1.2050 -0.1622 -0.1001
 7835SOL    HW124404   5.920   4.546   5.080 -1.4818 -0.7966 -2.2015
 7835SOL    HW224405   5.950   4.705   5.058 -0.7794 -0.5196  0.4055
 7836SOL     OW24406   5.540   1.732   2.932  0.3330 -0.1944  0.3577
 7836SOL    HW124407   5.569   1.815   2.978  2.1223 -2.0552  2.8571
 7836SOL    HW224408   5.598   1.715   2.853  0.5034  0.4750  0.3356
 7837SOL     OW24409   1.980   5.108   0.063  0.5731  0.0083 -0.2392
 7837SOL    HW124410   1.955   5.012   0.066 -0.2430  0.1720  3.2690
 7837SOL    HW224411   2.071   5.119   0.023  1.2664 -2.3939  0.5543
 7838SOL     OW24412   3.096   1.692   0.292 -0.2135 -0.5457 -0.3818
 7838SOL    HW124413   3.002   1.657   0.294 -0.1958 -0.6085 -0.6044
 7838SOL    HW224414   3.153   1.636   0.352 -0.5015  0.0475  0.4684
 7839SOL     OW24415   2.959   1.739   4.397  0.0887  0.0055  0.3297
 7839SOL    HW124416   3.034   1.758   4.461 -0.3131  0.7132  0.5982
 7839SOL    HW224417   2.937   1.641   4.400  0.5432 -0.0914  0.7448
 7840SOL     OW24418   5.642   5.111   1.384 -0.0401 -0.0159  0.0465
 7840SOL    HW124419   5.676   5.189   1.331 -1.3026  0.0990 -0.6396
 7840SOL    HW224420   5.628   5.138   1.479  1.2908  0.0592  0.2345
 7841SOL     OW24421   2.306   6.294   1.996  0.2778  0.0690  0.1412
 7841SOL    HW124422   2.320   6.387   1.963  0.5662 -0.3081 -0.8377
 7841SOL    HW224423   2.391   6.242   1.988  0.1914 -0.2137  0.9342
 7842SOL     OW24424   4.484   2.338   5.975 -0.3296  0.2281  0.0182
 7842SOL    HW124425   4.415   2.387   5.922  1.7523  3.2710 -0.1468
 7842SOL    HW224426   4.445   2.307   6.061 -1.6266  3.0495  0.5358
 7843SOL     OW24427   5.848   7.010   6.910 -0.4104  0.2812 -0.2803
 7843SOL    HW124428   5.879   7.060   6.830  2.4559 -1.9666 -0.7637
 7843SOL    HW224429   5.896   7.043   6.991 -1.3457  0.8081  0.0673
 7844SOL     OW24430   5.817   3.214   1.305  0.2568 -0.3979  0.3241
 7844SOL    HW124431   5.837   3.144   1.373  0.3358 -1.0662 -0.3809
 7844SOL    HW224432   5.718   3.226   1.297  0.2225 -0.9159 -0.0421
 7845SOL     OW24433   6.880   2.474   6.056 -0.1769 -0.6536  0.2200
 7845SOL    HW124434   6.939   2.551   6.030  0.3421 -1.1001  0.0399
 7845SOL    HW224435   6.857   2.420   5.975 -1.2546 -0.2027  0.2173
 7846SOL     OW24436   5.037   6.246   4.433  0.7543  0.1973 -0.0343
 7846SOL    HW124437   4.998   6.204   4.351 -0.3800 -0.0299  0.5940
 7846SOL    HW224438   5.085   6.330   4.408  0.2094  0.2640 -0.9041
 7847SOL     OW24439   2.960   3.711   3.618  1.1021 -0.0961 -0.1846
 7847SOL    HW124440   3.054   3.741   3.630  0.8542  1.5112 -1.7784
 7847SOL    HW224441   2.958   3.622   3.572  1.8218 -0.8770  1.2380
 7848SOL     OW24442   1.459   5.883   1.611 -0.4671 -0.1988  0.0109
 7848SOL    HW124443   1.374   5.891   1.664  0.8020  0.5202  2.0400
 7848SOL    HW224444   1.469   5.963   1.551  0.5057  1.6802  2.5138
 7849SOL     OW24445   3.093   1.865   4.898  0.3583  0.1070  0.0804
 7849SOL    HW124446   3.162   1.793   4.888  0.8016  0.3120  1.3662
 7849SOL    HW224447   3.053   1.859   4.990 -0.4720  0.7476 -0.2313
 7850SOL     OW24448   1.586   5.793   3.174  0.4302  0.6520  0.1432
 7850SOL    HW124449   1.632   5.878   3.200 -0.9810  2.1749 -1.9697
 7850SOL    HW224450   1.605   5.772   3.078 -1.4099  0.0978 -0.1445
 7851SOL     OW24451   1.082   3.277   6.229  0.0259  0.2456  0.4094
 7851SOL    HW124452   1.047   3.297   6.138  2.6882  1.0281 -0.5426
 7851SOL    HW224453   1.168   3.227   6.221  0.1442  0.0280  2.5128
 7852SOL     OW24454   6.597   6.229   4.144  0.2909 -0.3561  1.2493
 7852SOL    HW124455   6.624   6.132   4.141 -0.4995 -0.5867  1.1165
 7852SOL    HW224456   6.582   6.261   4.050  0.4482 -0.1396  1.3001
 7853SOL     OW24457   0.002   3.915   2.893  0.2581 -0.1048 -0.1674
 7853SOL    HW124458  -0.009   3.818   2.918 -0.4178  0.0394  0.1246
 7853SOL    HW224459   0.047   3.963   2.968  0.2628 -0.1194 -0.1606
 7854SOL     OW24460   2.384   1.374   0.124  0.1369 -0.0198 -0.4020
 7854SOL    HW124461   2.484   1.374   0.136  0.0699  1.4443  0.5290
 7854SOL    HW224462   2.361   1.412   0.035  0.4146 -1.7905 -1.2780
 7855SOL     OW24463   5.034   4.999   5.818 -0.1625 -1.0027  0.4615
 7855SOL    HW124464   4.967   4.995   5.892 -0.0448 -2.4056  0.5274
 7855SOL    HW224465   5.077   5.089   5.816 -1.2154 -0.4620  1.1520
 7856SOL     OW24466   2.488   0.670   3.510  0.4130 -0.2254  0.2988
 7856SOL    HW124467   2.498   0.571   3.503  1.8395 -0.0222 -1.0449
 7856SOL    HW224468   2.552   0.715   3.447 -0.5137  1.5447  0.5515
 7857SOL     OW24469   4.946   6.859   0.797 -0.1548 -0.1636  0.1706
 7857SOL    HW124470   4.855   6.836   0.831 -0.4383  0.2254 -0.3257
 7857SOL    HW224471   5.014   6.803   0.845 -0.3971  1.3388  2.3797
 7858SOL     OW24472   0.304   4.579   4.359  0.1785  0.1552  0.3288
 7858SOL    HW124473   0.274   4.532   4.442 -1.1976 -0.3952 -0.4463
 7858SOL    HW224474   0.297   4.678   4.372 -0.3674  0.0653  0.7604
 7859SOL     OW24475   4.184   3.465   1.568  0.1410 -0.0994  0.3641
 7859SOL    HW124476   4.153   3.447   1.475  1.2857  1.3634 -0.3310
 7859SOL    HW224477   4.252   3.539   1.568  0.8722 -0.6964  2.2513
 7860SOL     OW24478   3.716   2.938   4.429 -0.2380  0.0148 -0.6765
 7860SOL    HW124479   3.805   2.981   4.419 -0.1842 -0.1450 -0.8845
 7860SOL    HW224480   3.669   2.938   4.340 -1.2822  1.9251 -0.1961
 7861SOL     OW24481   3.970   6.426   3.225 -0.1137 -0.2715  0.2717
 7861SOL    HW124482   4.015   6.425   3.314  1.0464  0.5747 -0.2825
 7861SOL    HW224483   4.013   6.358   3.165 -0.8214 -0.7664  0.3171
 7862SOL     OW24484   0.932   1.686   0.462  0.5399  0.7358 -0.0441
 7862SOL    HW124485   0.862   1.624   0.499  0.8783  0.1928 -0.2955
 7862SOL    HW224486   0.928   1.684   0.362  1.4320  0.0844 -0.0810
 7863SOL     OW24487   2.219   4.614   6.243  0.3656 -0.6552  0.0408
 7863SOL    HW124488   2.271   4.642   6.162 -1.2084 -0.9323 -1.1210
 7863SOL    HW224489   2.179   4.694   6.287  1.1638 -0.5108  0.5228
 7864SOL     OW24490   6.741   4.108   3.085  0.1963 -0.2358 -0.2385
 7864SOL    HW124491   6.660   4.080   3.137  0.1114  0.0298 -0.2256
 7864SOL    HW224492   6.815   4.130   3.147  0.2586 -0.4242 -0.2480
 7865SOL     OW24493   1.763   3.817   2.891 -0.0834 -0.3910  0.3592
 7865SOL    HW124494   1.717   3.760   2.822  0.5662  0.1312 -0.5283
 7865SOL    HW224495   1.757   3.913   2.864  0.8374 -0.2479  0.6426
 7866SOL     OW24496   0.379   1.017   3.476 -0.1950  0.0452  0.0671
 7866SOL    HW124497   0.422   1.107   3.475 -0.3318  0.1302  1.1507
 7866SOL    HW224498   0.396   0.972   3.564 -1.2675 -0.4379  0.0492
 7867SOL     OW24499   6.041   5.453   5.087  0.1580  0.0465 -0.0352
 7867SOL    HW124500   6.097   5.413   5.015 -0.4784  0.0384 -0.5400
 7867SOL    HW224501   5.975   5.516   5.046  0.0666  0.3621  0.5880
 7868SOL     OW24502   0.168   0.703   0.086  0.4409 -0.6079 -0.1645
 7868SOL    HW124503   0.191   0.608   0.063  0.6233 -0.8319  0.9146
 7868SOL    HW224504   0.237   0.740   0.148 -0.1143 -0.0610  0.1327
 7869SOL     OW24505   3.605   0.972   6.788 -0.4670  0.0831 -0.0193
 7869SOL    HW124506   3.666   0.895   6.805  0.0023  0.4151 -0.1800
 7869SOL    HW224507   3.541   0.982   6.864 -0.1150 -0.0724  0.2965
 7870SOL     OW24508   3.776   3.328   1.259  0.7824 -0.8544  0.0641
 7870SOL    HW124509   3.755   3.294   1.167  0.1887  2.5351 -1.1845
 7870SOL    HW224510   3.871   3.305   1.282  0.8453 -2.0322 -1.2466
 7871SOL     OW24511   5.802   6.681   0.225  0.3477 -0.1130  0.5389
 7871SOL    HW124512   5.755   6.766   0.203 -0.6795 -0.6307  0.6993
 7871SOL    HW224513   5.740   6.604   0.210  1.6107 -0.9325 -0.7224
 7872SOL     OW24514   5.200   4.183   3.731 -0.1218 -0.1540 -0.1311
 7872SOL    HW124515   5.290   4.184   3.688 -1.3859 -0.6469 -2.9997
 7872SOL    HW224516   5.209   4.154   3.826  2.6605 -0.9093 -0.5384
 7873SOL     OW24517   4.512   0.979   1.459 -0.5447  0.1011  0.0891
 7873SOL    HW124518   4.468   0.890   1.471 -1.5286  0.4970 -0.5438
 7873SOL    HW224519   4.569   0.998   1.539 -1.4452 -0.4532  0.8893
 7874SOL     OW24520   1.816   6.853   3.794 -0.1513  0.1672 -0.0854
 7874SOL    HW124521   1.870   6.936   3.809 -2.0398  1.5701 -0.7386
 7874SOL    HW224522   1.857   6.801   3.719  1.2216  0.3295  0.5191
 7875SOL     OW24523   4.947   5.308   6.320  0.1166 -0.3572  0.5641
 7875SOL    HW124524   5.043   5.301   6.349  0.0346 -0.6162  0.7748
 7875SOL    HW224525   4.887   5.287   6.398 -0.1270  1.0550  0.7995
 7876SOL     OW24526   2.309   5.879   0.140 -0.1234 -0.2188 -0.6099
 7876SOL    HW124527   2.385   5.894   0.077 -1.1877  0.3119 -1.8211
 7876SOL    HW224528   2.332   5.917   0.229  0.9861  0.0156 -0.9786
 7877SOL     OW24529   3.779   6.973   3.538 -0.0881  0.5204  0.4438
 7877SOL    HW124530   3.716   6.959   3.461  0.0709  2.2733 -0.0520
 7877SOL    HW224531   3.873   6.965   3.506 -0.0215  0.0300  0.7412
 7878SOL     OW24532   4.025   5.162   4.160 -0.2931 -0.2076  0.9321
 7878SOL    HW124533   4.033   5.209   4.248 -2.3938  0.5683  0.7525
 7878SOL    HW224534   3.987   5.071   4.174  0.1847 -0.4210  0.8881
 7879SOL     OW24535   2.902   3.538   6.150 -0.3116 -0.0594  0.0268
 7879SOL    HW124536   2.811   3.508   6.120 -0.2568 -0.7107  0.4748
 7879SOL    HW224537   2.926   3.489   6.234  0.0236  0.8650  0.4854
 7880SOL     OW24538   6.885   2.493   0.824  0.9811 -0.1877  0.0956
 7880SOL    HW124539   6.935   2.509   0.909  1.5176 -0.2897 -0.1950
 7880SOL    HW224540   6.906   2.402   0.790  1.5761  0.2207 -0.6707
 7881SOL     OW24541   6.064   3.984   2.290  0.2913 -0.8345 -0.2383
 7881SOL    HW124542   5.993   4.053   2.276  3.0547  2.2397 -0.1727
 7881SOL    HW224543   6.112   3.968   2.204  0.1748 -2.1696 -0.0768
 7882SOL     OW24544   4.245   4.642   2.922  0.3561  0.0117 -0.2473
 7882SOL    HW124545   4.250   4.630   2.823  0.3719  0.9737 -0.3757
 7882SOL    HW224546   4.164   4.697   2.945 -0.0862 -0.8668  0.3450
 7883SOL     OW24547   4.575   4.895   4.744 -0.3352 -0.0205  0.0838
 7883SOL    HW124548   4.586   4.819   4.808 -0.1233  0.2934  0.4198
 7883SOL    HW224549   4.488   4.941   4.762  0.2065  0.7335  0.8634
 7884SOL     OW24550   0.804   5.696   0.358 -0.3359 -0.2212 -0.1775
 7884SOL    HW124551   0.852   5.768   0.408 -0.1332 -0.2230 -0.3652
 7884SOL    HW224552   0.861   5.666   0.280  1.3893 -3.2313  2.0172
 7885SOL     OW24553   0.350   2.286   0.479  0.3048 -0.1832  0.3506
 7885SOL    HW124554   0.358   2.195   0.521  1.2522 -0.2730  0.0011
 7885SOL    HW224555   0.315   2.276   0.386  0.4980 -0.2011  0.2793
 7886SOL     OW24556   1.219   3.039   4.887  0.1224  0.0040  0.1085
 7886SOL    HW124557   1.194   3.095   4.966  1.9496  0.3952  0.4680
 7886SOL    HW224558   1.142   2.980   4.861 -1.1270  1.1813  1.0198
 7887SOL     OW24559   6.849   5.889   1.476  0.2413 -0.1874 -0.3724
 7887SOL    HW124560   6.872   5.820   1.407 -0.4991 -0.3073 -0.5109
 7887SOL    HW224561   6.755   5.920   1.461 -0.3394 -1.0543  1.2593
 7888SOL     OW24562   4.048   0.174   3.325  0.0344  0.2690  0.4882
 7888SOL    HW124563   4.053   0.079   3.293  1.1382  0.5971 -0.3654
 7888SOL    HW224564   4.109   0.186   3.402  1.2543  0.6922 -0.5183
 7889SOL     OW24565   6.900   5.899   6.753  0.5795  0.3529  0.3440
 7889SOL    HW124566   6.961   5.889   6.832 -3.8618 -0.2281  4.1190
 7889SOL    HW224567   6.894   5.996   6.728  1.4515  0.6688  1.2998
 7890SOL     OW24568   2.296   6.215   6.989  0.1617 -0.4987  0.6537
 7890SOL    HW124569   2.382   6.168   6.971  0.0787 -0.3117 -0.2670
 7890SOL    HW224570   2.226   6.183   6.926 -0.3970 -0.4970  1.2587
 7891SOL     OW24571   2.256   3.818   1.109  0.4347 -0.4498  0.4762
 7891SOL    HW124572   2.307   3.805   1.024  0.7064  0.2817  0.5163
 7891SOL    HW224573   2.187   3.746   1.118  0.2667 -0.4271 -0.4606
 7892SOL     OW24574   4.652   2.357   3.341 -0.2824  0.4046 -0.5951
 7892SOL    HW124575   4.670   2.281   3.278  0.2924 -0.9623  1.1357
 7892SOL    HW224576   4.733   2.375   3.397 -0.9857  1.0893  0.2440
 7893SOL     OW24577   2.531   2.072   6.888  0.2644  0.6973 -0.6991
 7893SOL    HW124578   2.442   2.028   6.898  1.3550 -1.4804  0.1303
 7893SOL    HW224579   2.603   2.005   6.904  2.0724  2.7006  0.0695
 7894SOL     OW24580   6.660   1.164   0.110  0.3917  0.5791 -0.1208
 7894SOL    HW124581   6.737   1.130   0.057  0.4663  2.2595 -1.1834
 7894SOL    HW224582   6.691   1.241   0.167  0.4294 -1.4466  2.8359
 7895SOL     OW24583   6.125   2.585   2.407 -0.7637 -0.1340 -0.2873
 7895SOL    HW124584   6.038   2.633   2.423 -0.8292 -0.1108 -0.6940
 7895SOL    HW224585   6.159   2.608   2.316 -0.6392 -0.6192 -0.3670
 7896SOL     OW24586   3.569   6.719   2.717 -0.1382 -0.3355  0.5360
 7896SOL    HW124587   3.614   6.699   2.803 -1.2783 -1.6144  0.8739
 7896SOL    HW224588   3.618   6.676   2.642  1.0459  1.0574  0.4771
 7897SOL     OW24589   2.590   5.156   6.778 -0.5529  0.0194 -0.6146
 7897SOL    HW124590   2.539   5.123   6.698  1.8400 -3.7585 -0.8044
 7897SOL    HW224591   2.687   5.164   6.755  0.0341 -0.1131  1.5832
 7898SOL     OW24592   5.796   6.696   3.705  0.0463 -0.3502  0.5989
 7898SOL    HW124593   5.753   6.784   3.728 -1.9907 -1.0039 -0.5126
 7898SOL    HW224594   5.891   6.712   3.676 -0.3971  1.5125  0.0576
 7899SOL     OW24595   1.707   4.305   5.549 -0.6098 -0.2130 -0.5094
 7899SOL    HW124596   1.668   4.330   5.461 -1.4819  1.3106  0.2641
 7899SOL    HW224597   1.765   4.380   5.582 -1.0135 -0.3733  0.6037
 7900SOL     OW24598   0.554   6.457   5.144 -0.0600 -0.5474 -0.2159
 7900SOL    HW124599   0.629   6.457   5.078  1.7515  0.6479  1.7465
 7900SOL    HW224600   0.565   6.532   5.209 -1.9748 -1.4376  1.2570
 7901SOL     OW24601   5.114   6.238   4.946  0.5034  0.7511  0.3792
 7901SOL    HW124602   5.056   6.171   4.993  1.7705 -1.1580 -0.6461
 7901SOL    HW224603   5.062   6.279   4.871 -0.1177  0.4603  0.6415
 7902SOL     OW24604   1.235   5.653   3.977 -0.3506  0.3143  0.4619
 7902SOL    HW124605   1.230   5.697   3.888 -0.0298  0.5876  0.5751
 7902SOL    HW224606   1.322   5.603   3.985 -1.6397 -2.2338 -0.5271
 7903SOL     OW24607   1.188   5.571   3.509 -0.0800 -0.5765 -0.0259
 7903SOL    HW124608   1.178   5.612   3.600  0.6135 -0.7303  0.1206
 7903SOL    HW224609   1.232   5.636   3.448 -0.7464 -0.3912 -0.3180
 7904SOL     OW24610   5.741   6.275   4.088  0.2932  0.0401 -0.7641
 7904SOL    HW124611   5.751   6.334   4.009 -0.9484  1.7859  0.3142
 7904SOL    HW224612   5.794   6.312   4.165 -0.6803 -0.0892 -0.0074
 7905SOL     OW24613   6.036   0.045   2.427 -0.5700  0.6806 -0.1814
 7905SOL    HW124614   6.101  -0.023   2.394  0.0212  0.6911  0.9218
 7905SOL    HW224615   5.969   0.000   2.487  0.0135  1.0992  0.8093
 7906SOL     OW24616   2.915   6.051   6.749 -0.4212  0.6424 -0.0513
 7906SOL    HW124617   2.998   6.056   6.693  0.2197  1.9269  0.9486
 7906SOL    HW224618   2.842   6.009   6.696  1.1440 -1.5919 -0.5958
 7907SOL     OW24619   2.367   4.402   3.844 -0.6702 -0.1967  0.2346
 7907SOL    HW124620   2.444   4.453   3.806 -0.1274 -1.1979 -0.0301
 7907SOL    HW224621   2.340   4.330   3.781 -1.6089 -0.0709  0.4799
 7908SOL     OW24622   1.509   6.219   4.437  0.0016 -0.1756 -0.1619
 7908SOL    HW124623   1.443   6.274   4.385 -0.1990 -0.2336  0.0286
 7908SOL    HW224624   1.567   6.168   4.373  1.2863  1.4951 -0.4030
 7909SOL     OW24625   5.513   0.817   5.331 -0.3575 -0.3302  0.5534
 7909SOL    HW124626   5.510   0.787   5.426 -0.2900  0.1708  0.7160
 7909SOL    HW224627   5.506   0.737   5.271 -1.6218 -0.5535  0.9676
 7910SOL     OW24628   5.057   0.048   4.183 -0.9547 -0.3455 -0.4859
 7910SOL    HW124629   5.102   0.082   4.266  0.7554 -0.1715 -1.4443
 7910SOL    HW224630   5.055  -0.052   4.185 -3.4601 -0.3514  1.0205
 7911SOL     OW24631   0.205   3.901   6.606  0.4152 -0.3064  0.1472
 7911SOL    HW124632   0.142   3.867   6.675 -1.3320 -0.0768 -1.2506
 7911SOL    HW224633   0.230   3.826   6.544  0.7489 -0.1831  0.1295
 7912SOL     OW24634   2.203   2.356   0.266  0.0114  0.1931  0.2573
 7912SOL    HW124635   2.283   2.411   0.290  0.0252  1.0938 -1.6056
 7912SOL    HW224636   2.164   2.391   0.180 -2.3351 -0.2596  1.0636
 7913SOL     OW24637   0.174   5.365   1.665 -0.9088 -0.8876  0.2589
 7913SOL    HW124638   0.238   5.437   1.692 -0.3484 -1.0279 -0.6554
 7913SOL    HW224639   0.084   5.383   1.705 -0.6018 -0.0405  0.5777
 7914SOL     OW24640   0.999   3.541   2.192  0.0956 -0.8019  0.5066
 7914SOL    HW124641   1.091   3.576   2.209 -0.1637  0.6818 -0.8985
 7914SOL    HW224642   0.964   3.498   2.275  0.6908  1.7564  2.1922
 7915SOL     OW24643   1.471   3.597   6.861  0.8909  0.1260 -0.5368
 7915SOL    HW124644   1.545   3.663   6.850  0.4890  0.4191 -1.5994
 7915SOL    HW224645   1.416   3.595   6.778 -0.0636 -0.3795  0.0956
 7916SOL     OW24646   5.930   6.404   3.021  0.1631  0.5726 -0.0142
 7916SOL    HW124647   5.841   6.449   3.021  0.2577  0.8414 -2.1422
 7916SOL    HW224648   6.002   6.472   3.008  0.4852  0.0853 -0.8298
 7917SOL     OW24649   2.841   3.537   2.770 -0.0139  0.3572  0.4291
 7917SOL    HW124650   2.891   3.548   2.684  0.5752 -1.7177  0.4511
 7917SOL    HW224651   2.778   3.614   2.783  1.4014  1.7724 -0.8048
 7918SOL     OW24652   1.847   4.107   1.090 -0.3029  0.0590  0.0756
 7918SOL    HW124653   1.945   4.086   1.082 -0.0889  0.8209  0.6628
 7918SOL    HW224654   1.808   4.055   1.166 -0.3858 -0.3273 -0.2255
 7919SOL     OW24655   5.243   6.737   3.035  0.0764 -0.4046 -0.0620
 7919SOL    HW124656   5.307   6.682   3.089 -1.1826 -1.4817  0.3698
 7919SOL    HW224657   5.201   6.680   2.965 -0.0495  0.4203 -0.6782
 7920SOL     OW24658   2.356   5.508   0.820  0.5254  0.0087 -0.5351
 7920SOL    HW124659   2.334   5.497   0.724  1.8499 -0.5273 -0.8067
 7920SOL    HW224660   2.402   5.596   0.834 -1.2996  0.9259 -0.0520
 7921SOL     OW24661   0.417   1.151   6.990  0.6881 -0.4898 -0.6411
 7921SOL    HW124662   0.475   1.079   7.028  0.9772 -0.4376 -0.9788
 7921SOL    HW224663   0.446   1.240   7.026  1.3525 -0.3742 -1.4393
 7922SOL     OW24664   1.195   0.020   6.855 -0.2123 -0.5684  0.4593
 7922SOL    HW124665   1.234   0.020   6.947 -0.3544 -0.9613  0.5184
 7922SOL    HW224666   1.099   0.047   6.860 -0.2083 -0.5455  0.4177
 7923SOL     OW24667   5.317   1.583   4.181  0.8494  0.2244  0.5770
 7923SOL    HW124668   5.282   1.604   4.090 -1.1743 -1.5875  0.8622
 7923SOL    HW224669   5.315   1.665   4.237  3.1982  1.6716 -1.2310
 7924SOL     OW24670   6.961   6.313   4.590  0.0656 -0.0590  0.5162
 7924SOL    HW124671   6.982   6.300   4.493 -1.6891 -0.4028  0.1446
 7924SOL    HW224672   6.909   6.397   4.602  1.8334  0.9652  1.4451
 7925SOL     OW24673   3.842   4.988   0.896  0.5137  0.1409  0.4339
 7925SOL    HW124674   3.871   5.050   0.823  0.6787  0.7853  1.0387
 7925SOL    HW224675   3.793   4.911   0.856  2.2656 -0.5200 -0.5361
 7926SOL     OW24676   4.589   4.360   3.816  0.5259 -0.3609  0.2649
 7926SOL    HW124677   4.602   4.369   3.717  0.6061 -1.0886  0.2042
 7926SOL    HW224678   4.527   4.431   3.848  1.1983  0.4427 -0.1595
 7927SOL     OW24679   0.245   1.098   0.623 -0.5126 -0.3445 -0.2676
 7927SOL    HW124680   0.339   1.116   0.595 -1.1197  2.5357 -0.7428
 7927SOL    HW224681   0.234   1.000   0.641  2.9087 -0.6031  1.2156
 7928SOL     OW24682   2.082   3.755   0.445 -0.1168 -0.3414 -0.6025
 7928SOL    HW124683   2.014   3.681   0.441 -0.6978  0.2309 -1.8931
 7928SOL    HW224684   2.057   3.827   0.380  0.3989  1.0455  0.6882
 7929SOL     OW24685   0.263   5.015   3.618  0.4271 -0.2960 -0.0364
 7929SOL    HW124686   0.169   5.008   3.586  0.9944 -1.9046 -1.4585
 7929SOL    HW224687   0.288   4.932   3.666  2.1467 -1.4307 -2.6873
 7930SOL     OW24688   1.832   3.560   3.699 -0.1057  0.5817 -0.5065
 7930SOL    HW124689   1.924   3.600   3.693  0.0306  0.1945 -1.0916
 7930SOL    HW224690   1.783   3.577   3.613  0.8205 -2.5593 -1.7965
 7931SOL     OW24691   5.463   4.985   4.950  0.3898  0.2983  0.2884
 7931SOL    HW124692   5.402   4.941   5.017 -2.5008  0.9648 -1.7296
 7931SOL    HW224693   5.478   4.923   4.873  0.2181  1.0566 -0.3690
 7932SOL     OW24694   3.340   3.802   6.974 -0.1080  0.1759 -0.2744
 7932SOL    HW124695   3.283   3.885   6.974 -0.8838 -0.3472  0.3435
 7932SOL    HW224696   3.283   3.722   6.991  0.9498 -0.2664  1.3788
 7933SOL     OW24697   4.835   5.043   0.578  0.4326 -0.0921 -0.3021
 7933SOL    HW124698   4.805   5.096   0.657  1.1534 -0.4983  0.2513
 7933SOL    HW224699   4.891   4.966   0.608  3.9701  1.8396 -1.3755
 7934SOL     OW24700   6.709   4.979   4.136 -0.0617  0.1820 -0.4485
 7934SOL    HW124701   6.749   5.045   4.072  1.6339 -0.8314 -0.4826
 7934SOL    HW224702   6.717   4.887   4.099 -0.9188 -0.2268  0.3366
 7935SOL     OW24703   0.946   1.158   1.240 -0.6464  0.1452  0.2503
 7935SOL    HW124704   0.905   1.249   1.249 -0.8515  0.1689 -0.8740
 7935SOL    HW224705   0.875   1.092   1.217  0.0898  0.4555 -3.3920
 7936SOL     OW24706   1.405   2.538   4.786  0.1621 -0.0805  0.1639
 7936SOL    HW124707   1.418   2.637   4.777 -1.4918  0.2298  0.8503
 7936SOL    HW224708   1.329   2.509   4.727  0.8111 -1.0104 -0.2467
 7937SOL     OW24709   1.535   0.590   5.216 -0.2043  0.0157  0.3272
 7937SOL    HW124710   1.556   0.654   5.289  1.0102 -0.9797  0.8842
 7937SOL    HW224711   1.455   0.622   5.166 -0.9550  0.8090  1.9645
 7938SOL     OW24712   1.804   6.418   0.369 -0.2600  0.5061 -0.1471
 7938SOL    HW124713   1.820   6.511   0.335  0.9532  0.3693  0.0230
 7938SOL    HW224714   1.820   6.352   0.296 -1.1695  0.4113 -0.2810
 7939SOL     OW24715   4.546   0.833   1.959 -0.1107 -0.0638 -0.0717
 7939SOL    HW124716   4.626   0.835   1.900 -0.1810 -1.8886 -0.3031
 7939SOL    HW224717   4.572   0.803   2.051 -0.5389 -0.9751 -0.2304
 7940SOL     OW24718   4.852   2.060   3.501 -0.3072 -0.7341 -0.5399
 7940SOL    HW124719   4.856   2.159   3.489  0.3060 -0.9060 -1.9081
 7940SOL    HW224720   4.759   2.029   3.482  0.5955 -1.0297 -6.0610
 7941SOL     OW24721   5.284   5.416   1.424  0.3670 -0.1354  0.0346
 7941SOL    HW124722   5.290   5.327   1.469 -1.8947 -0.4064 -0.0730
 7941SOL    HW224723   5.257   5.486   1.491 -1.6297 -0.2896 -0.5240
 7942SOL     OW24724   6.565   1.576   2.318 -0.4045 -0.2265  0.4773
 7942SOL    HW124725   6.525   1.496   2.362 -3.4639  1.0434  0.2830
 7942SOL    HW224726   6.660   1.587   2.347 -0.9951 -1.8582  3.3660
 7943SOL     OW24727   0.083   4.230   6.599  0.3321 -0.3316 -0.2390
 7943SOL    HW124728   0.064   4.133   6.616  0.5682 -0.0468  1.8741
 7943SOL    HW224729   0.147   4.238   6.522  1.8550 -1.9771  0.7845
 7944SOL     OW24730   4.528   5.824   0.471 -0.4107  0.3932 -1.0544
 7944SOL    HW124731   4.572   5.886   0.406  1.3317  0.8814  0.5255
 7944SOL    HW224732   4.483   5.877   0.542  3.0453  0.0588  1.6348
 7945SOL     OW24733   2.688   6.887   0.073 -0.7011 -0.3105  0.4612
 7945SOL    HW124734   2.674   6.798   0.030 -0.7548 -0.2901  0.4360
 7945SOL    HW224735   2.635   6.956   0.023  1.1304  0.1421 -0.9552
 7946SOL     OW24736   0.208   0.755   4.016  0.5672  0.2303  0.3022
 7946SOL    HW124737   0.189   0.694   3.939  0.8829 -0.2239  0.5804
 7946SOL    HW224738   0.167   0.718   4.099 -2.6301  2.3299 -0.1631
 7947SOL     OW24739   0.215   4.856   5.581  0.0089 -0.0071 -0.4349
 7947SOL    HW124740   0.125   4.812   5.581 -0.9554  1.8573  0.0053
 7947SOL    HW224741   0.263   4.833   5.666 -1.2163  1.1212  0.6231
 7948SOL     OW24742   6.805   4.427   4.350 -0.0719  0.6625 -0.1270
 7948SOL    HW124743   6.723   4.388   4.391  0.1618  1.4862  1.1966
 7948SOL    HW224744   6.886   4.379   4.385  0.0664  0.4551 -0.7177
 7949SOL     OW24745   3.932   3.767   6.663  0.1562  0.1104  0.0027
 7949SOL    HW124746   3.883   3.828   6.602  0.7133  0.7271  0.1569
 7949SOL    HW224747   4.021   3.807   6.686  0.1773 -0.3594  0.7856
 7950SOL     OW24748   5.673   5.508   5.311 -0.1878 -0.1938 -0.1686
 7950SOL    HW124749   5.581   5.467   5.307 -0.5335  0.6366 -2.5319
 7950SOL    HW224750   5.741   5.436   5.321 -1.0075 -1.0085 -0.3003
 7951SOL     OW24751   3.725   0.859   0.152  0.1906  0.2866 -0.6053
 7951SOL    HW124752   3.674   0.872   0.067  2.5040  1.6058 -1.8811
 7951SOL    HW224753   3.773   0.943   0.175  0.6258 -0.4561  1.3408
 7952SOL     OW24754   0.185   3.631   4.802  0.2002  0.1512 -0.0340
 7952SOL    HW124755   0.224   3.719   4.829  0.4687  0.1865 -0.5258
 7952SOL    HW224756   0.153   3.583   4.883  2.8848 -0.6620  0.6406
 7953SOL     OW24757   4.627   1.161   1.264  0.1330 -0.4831 -0.2757
 7953SOL    HW124758   4.565   1.101   1.315 -0.1967  0.7118  0.7724
 7953SOL    HW224759   4.680   1.217   1.327 -0.0645  0.8358 -1.2288
 7954SOL     OW24760   4.205   3.857   6.655 -0.2215  0.0839 -0.5822
 7954SOL    HW124761   4.222   3.881   6.559  0.1735  0.8276 -0.3303
 7954SOL    HW224762   4.288   3.873   6.709  0.1028 -1.9253 -0.4016
 7955SOL     OW24763   0.079   2.359   6.177  0.3250  0.1984 -0.1275
 7955SOL    HW124764   0.003   2.396   6.124 -2.2320 -1.4113  2.1065
 7955SOL    HW224765   0.113   2.428   6.240 -1.2306  0.1933  0.7696
 7956SOL     OW24766   4.918   4.904   4.812 -0.7371 -0.6455 -0.3812
 7956SOL    HW124767   5.014   4.897   4.841 -0.9415 -0.8788  0.2561
 7956SOL    HW224768   4.904   4.991   4.764 -0.6945  0.4172  1.4450
 7957SOL     OW24769   1.965   4.534   1.468  0.0241  0.3253 -0.1460
 7957SOL    HW124770   2.037   4.504   1.531 -0.0413 -1.3980 -0.8396
 7957SOL    HW224771   1.901   4.594   1.516  0.6267 -0.0072  1.1073
 7958SOL     OW24772   0.573   2.444   3.633 -0.1209  0.8083  0.1512
 7958SOL    HW124773   0.608   2.463   3.725  0.8305  3.6488 -0.6650
 7958SOL    HW224774   0.474   2.433   3.636 -0.0016  0.0175  1.6146
 7959SOL     OW24775   3.662   1.609   2.926 -0.0418  0.3722  0.0037
 7959SOL    HW124776   3.702   1.595   3.017  0.2649 -0.6608 -0.2762
 7959SOL    HW224777   3.570   1.646   2.935 -0.6439 -1.2487  0.7997
 7960SOL     OW24778   5.571   5.272   0.521 -0.3122  0.5581 -0.6155
 7960SOL    HW124779   5.493   5.210   0.510  0.4754 -0.6055  0.1061
 7960SOL    HW224780   5.638   5.231   0.583  0.7130  1.6964 -0.9213
 7961SOL     OW24781   6.828   6.029   4.462  0.2855 -0.3867 -0.1931
 7961SOL    HW124782   6.886   6.108   4.442  0.2327 -0.1205  0.6765
 7961SOL    HW224783   6.739   6.060   4.493  0.2903 -0.7824  0.2314
 7962SOL     OW24784   5.342   4.478   4.802 -0.0098  0.0266 -0.0027
 7962SOL    HW124785   5.407   4.412   4.765 -0.3925 -0.7210  0.6318
 7962SOL    HW224786   5.267   4.429   4.846  0.3210  0.9001  1.5834
 7963SOL     OW24787   2.012   3.709   6.353 -0.0954 -0.1116 -0.2541
 7963SOL    HW124788   1.960   3.757   6.424 -0.5182  0.5912 -1.0252
 7963SOL    HW224789   2.091   3.764   6.326  0.8987 -1.0391  0.6897
 7964SOL     OW24790   3.914   5.712   3.288  0.1689  0.0766  0.2315
 7964SOL    HW124791   3.868   5.801   3.290  1.0462  0.5518  0.0142
 7964SOL    HW224792   3.848   5.640   3.266 -0.4605  0.7401 -0.0824
 7965SOL     OW24793   5.932   5.354   0.769  0.1741 -0.1348 -0.2401
 7965SOL    HW124794   5.869   5.281   0.743 -0.7714  0.5003  0.1866
 7965SOL    HW224795   5.890   5.410   0.840  0.8074  0.9299 -0.6799
 7966SOL     OW24796   3.913   5.155   5.502  0.5821 -0.3475  0.1812
 7966SOL    HW124797   4.010   5.131   5.497  0.7345  0.2289  0.4053
 7966SOL    HW224798   3.860   5.072   5.520  0.6794 -1.3796 -3.4604
 7967SOL     OW24799   6.665   2.722   1.968 -0.3854  0.5984 -0.4498
 7967SOL    HW124800   6.687   2.792   2.036 -1.0766  0.3407  0.0622
 7967SOL    HW224801   6.580   2.676   1.995 -0.1793 -0.1329 -1.0117
 7968SOL     OW24802   1.851   2.827   0.324  0.1602 -0.4161  0.2561
 7968SOL    HW124803   1.940   2.782   0.331 -0.0102 -1.3467 -2.5620
 7968SOL    HW224804   1.791   2.793   0.396  1.9007 -0.0592  1.9716
 7969SOL     OW24805   4.081   4.739   1.570  0.6777 -0.0641  0.1434
 7969SOL    HW124806   4.049   4.644   1.570  0.0032  0.1493 -0.4804
 7969SOL    HW224807   4.164   4.747   1.625  0.4557 -0.9156  0.6133
 7970SOL     OW24808   5.766   2.233   0.319  0.0584 -0.7259 -0.5350
 7970SOL    HW124809   5.828   2.231   0.398 -1.2762  1.1356  0.6488
 7970SOL    HW224810   5.698   2.161   0.329 -1.6971  1.0568  1.5094
 7971SOL     OW24811   3.980   5.995   1.520  0.0357 -0.0525  0.1268
 7971SOL    HW124812   3.906   6.062   1.513  0.1140  0.2017  1.4661
 7971SOL    HW224813   3.986   5.943   1.434 -0.3932  1.2527 -0.7260
 7972SOL     OW24814   1.274   4.224   5.409  0.1344 -0.2932  0.4107
 7972SOL    HW124815   1.215   4.213   5.329  1.1152  1.4889 -0.6201
 7972SOL    HW224816   1.370   4.217   5.380  0.4945 -2.1249  1.8839
 7973SOL     OW24817   2.006   0.129   3.852 -0.2948 -0.5835  1.1996
 7973SOL    HW124818   1.965   0.133   3.760 -1.3275 -1.9513  1.5718
 7973SOL    HW224819   2.103   0.109   3.844 -0.7363 -2.6726  0.4201
 7974SOL     OW24820   2.143   6.815   2.224 -0.1506 -0.7277  0.1721
 7974SOL    HW124821   2.115   6.725   2.257  1.7752 -0.4515  2.9004
 7974SOL    HW224822   2.214   6.852   2.284  2.2490  0.8045 -3.2467
 7975SOL     OW24823   0.565   4.311   2.673 -0.0736 -0.3994 -0.0908
 7975SOL    HW124824   0.550   4.307   2.772 -0.1959  0.6121 -0.0592
 7975SOL    HW224825   0.629   4.239   2.647  0.2778 -0.4229  0.7820
 7976SOL     OW24826   5.098   4.926   1.299 -0.0255 -0.4689 -0.4323
 7976SOL    HW124827   5.074   5.015   1.337  0.7539  0.3126 -1.6910
 7976SOL    HW224828   5.018   4.866   1.301 -0.5825  0.2778  0.3574
 7977SOL     OW24829   5.049   5.118   2.388  0.6454  0.4323  0.2297
 7977SOL    HW124830   4.981   5.083   2.453 -0.4864 -0.2525 -1.2653
 7977SOL    HW224831   5.139   5.082   2.411  0.3899  0.7214  1.7795
 7978SOL     OW24832   0.878   1.356   3.885 -0.4368  0.4555  0.1258
 7978SOL    HW124833   0.791   1.370   3.932 -1.5097 -1.1029 -1.2708
 7978SOL    HW224834   0.908   1.442   3.844 -2.2823  0.6810 -0.8791
 7979SOL     OW24835   4.886   5.775   6.215  0.2556  0.0021  0.5484
 7979SOL    HW124836   4.891   5.707   6.141  1.0993  0.6061  0.0323
 7979SOL    HW224837   4.794   5.814   6.218  0.7939  1.6726 -1.7776
 7980SOL     OW24838   3.103   5.002   0.045 -0.1569  0.1411 -0.0208
 7980SOL    HW124839   3.013   5.044   0.057 -0.4834 -0.3042 -0.8573
 7980SOL    HW224840   3.164   5.066  -0.002 -0.5992 -0.2481 -1.1332
 7981SOL     OW24841   1.340   2.292   2.548 -0.2157 -0.0174 -0.0389
 7981SOL    HW124842   1.359   2.194   2.556  1.4873  0.1056 -1.8514
 7981SOL    HW224843   1.250   2.306   2.505 -0.3623 -0.7836  0.0125
 7982SOL     OW24844   1.266   4.506   0.191 -0.6072  0.2869  0.1633
 7982SOL    HW124845   1.339   4.471   0.132 -0.4244 -1.0293  1.1184
 7982SOL    HW224846   1.278   4.604   0.205  1.1784  0.0532  0.5270
 7983SOL     OW24847   0.155   1.867   4.904 -0.2296 -0.4726  0.4445
 7983SOL    HW124848   0.094   1.946   4.907 -0.5100 -0.6965  0.6548
 7983SOL    HW224849   0.218   1.877   4.827 -1.3349 -0.8263 -0.5437
 7984SOL     OW24850   1.781   0.418   4.512  0.5539 -0.0183 -0.0517
 7984SOL    HW124851   1.806   0.456   4.601 -0.8202 -1.0805  0.8403
 7984SOL    HW224852   1.849   0.351   4.483  1.1616  0.5476  0.0443
 7985SOL     OW24853   4.098   1.652   0.257 -0.3322  0.4304  0.2658
 7985SOL    HW124854   4.153   1.734   0.243 -1.2075  1.0467  0.3613
 7985SOL    HW224855   4.159   1.574   0.275  0.6456  0.4255 -2.6571
 7986SOL     OW24856   5.024   1.318   3.785  0.0455 -0.1719  0.2454
 7986SOL    HW124857   4.993   1.223   3.794 -1.1719 -0.0500 -2.0114
 7986SOL    HW224858   4.948   1.380   3.800  0.3362  0.3463 -0.3616
 7987SOL     OW24859   2.696   6.343   4.426 -0.1380 -0.5769  0.1997
 7987SOL    HW124860   2.726   6.310   4.516  1.6199  0.3530 -0.0091
 7987SOL    HW224861   2.704   6.442   4.422 -2.5155 -0.3479 -0.2004
 7988SOL     OW24862   5.346   6.949   2.630  0.0773 -0.0043 -0.0886
 7988SOL    HW124863   5.378   6.871   2.684  0.3707  0.4574  0.4077
 7988SOL    HW224864   5.414   6.969   2.559 -1.0632 -1.6806 -1.7816
 7989SOL     OW24865   3.846   5.710   0.486  0.1266  0.0728  0.2964
 7989SOL    HW124866   3.792   5.717   0.401 -2.9329  4.1097  2.1906
 7989SOL    HW224867   3.809   5.637   0.542  0.0607 -0.5425 -0.5239
 7990SOL     OW24868   4.887   2.348   3.457  0.0895  0.1873  0.0215
 7990SOL    HW124869   4.935   2.373   3.541  0.6566 -1.0394  0.0953
 7990SOL    HW224870   4.953   2.340   3.382 -0.3070  0.5543 -0.3662
 7991SOL     OW24871   0.559   2.454   5.907 -0.0835 -0.3200  0.2293
 7991SOL    HW124872   0.526   2.428   5.817  0.0997  0.4801 -0.0745
 7991SOL    HW224873   0.626   2.386   5.939 -0.8005 -1.0775  0.1571
 7992SOL     OW24874   4.189   1.958   0.772  0.1696  0.7190  0.2045
 7992SOL    HW124875   4.155   1.887   0.711 -0.2993 -0.8723  2.1776
 7992SOL    HW224876   4.153   2.047   0.745 -1.4784 -0.2031 -0.7347
 7993SOL     OW24877   3.608   3.498   4.579  0.0688 -0.0790 -0.8955
 7993SOL    HW124878   3.654   3.528   4.663 -0.0345  1.4884 -1.3681
 7993SOL    HW224879   3.593   3.399   4.583  1.8753 -0.3587  0.0422
 7994SOL     OW24880   2.998   2.159   2.293 -0.0810 -0.6087  0.3394
 7994SOL    HW124881   2.954   2.222   2.230 -1.0201 -0.7590  0.8324
 7994SOL    HW224882   3.030   2.078   2.243  1.0953  0.2121 -0.2865
 7995SOL     OW24883   6.225   5.637   3.028  0.3030 -0.5860  0.6452
 7995SOL    HW124884   6.157   5.685   3.084  1.3972 -0.3912  1.8715
 7995SOL    HW224885   6.262   5.560   3.081  1.5172 -0.2771  0.2624
 7996SOL     OW24886   3.181   6.481   0.187  0.0509  0.1299  0.3012
 7996SOL    HW124887   3.133   6.517   0.267  1.0276 -1.0293  1.4502
 7996SOL    HW224888   3.135   6.397   0.156  0.1191  0.1619  0.1129
 7997SOL     OW24889   1.834   5.505   2.640 -0.1459 -0.2584  0.0687
 7997SOL    HW124890   1.770   5.541   2.572 -0.4730 -0.1641  0.4192
 7997SOL    HW224891   1.785   5.444   2.703  0.1289 -0.2653  0.2790
 7998SOL     OW24892   6.718   5.704   5.577  0.0853 -0.0556 -0.4372
 7998SOL    HW124893   6.649   5.774   5.597  0.5673  0.3337 -0.1289
 7998SOL    HW224894   6.809   5.742   5.591  0.3381 -1.3133  1.6281
 7999SOL     OW24895   2.370   2.734   4.671  0.0909  0.2904 -0.4293
 7999SOL    HW124896   2.333   2.758   4.761  1.7141  1.5269 -0.0516
 7999SOL    HW224897   2.399   2.816   4.623  5.0328 -0.6077  0.5503
 8000SOL     OW24898   3.123   1.128   1.185 -0.1373 -0.0601 -0.4299
 8000SOL    HW124899   3.178   1.130   1.102  0.6910  1.5303  0.1107
 8000SOL    HW224900   3.181   1.154   1.263 -1.6162  1.5722  0.1774
 8001SOL     OW24901   3.436   1.852   4.563  0.4153 -0.1204 -0.4169
 8001SOL    HW124902   3.450   1.892   4.472 -0.3445  1.1697  0.0046
 8001SOL    HW224903   3.362   1.785   4.559  0.5039 -0.1999 -0.7771
 8002SOL     OW24904   2.618   3.966   0.013 -0.2089 -0.0461  0.1065
 8002SOL    HW124905   2.585   3.958  -0.081  1.2181  0.8255 -0.5091
 8002SOL    HW224906   2.644   3.876   0.048  0.2134 -0.2532 -0.7165
 8003SOL     OW24907   3.180   4.052   1.587  0.5333  0.6453 -0.5391
 8003SOL    HW124908   3.114   4.037   1.513  0.7191 -0.4079 -0.5042
 8003SOL    HW224909   3.272   4.053   1.549  0.5522  1.4447 -0.4936
 8004SOL     OW24910   0.198   6.894   0.653 -0.3822 -0.1882 -0.0634
 8004SOL    HW124911   0.165   6.949   0.577 -0.2884  2.2626  1.5473
 8004SOL    HW224912   0.261   6.824   0.619 -0.5033  0.6875 -2.2399
 8005SOL     OW24913   3.592   1.988   4.742 -0.3253  0.1096  0.7314
 8005SOL    HW124914   3.538   1.915   4.700  0.4525  0.1331 -0.3678
 8005SOL    HW224915   3.603   2.063   4.677 -0.6217  0.9639  1.6438
 8006SOL     OW24916   0.431   4.022   1.843  0.7238  0.5842 -0.3619
 8006SOL    HW124917   0.360   3.987   1.904  1.3511  1.7680  1.1133
 8006SOL    HW224918   0.412   3.992   1.749  0.7331 -2.8642  0.6154
 8007SOL     OW24919   6.376   4.698   7.015 -0.4811 -0.3927  0.2117
 8007SOL    HW124920   6.339   4.742   7.097 -0.5461 -0.8742  0.4437
 8007SOL    HW224921   6.420   4.767   6.957 -0.4571 -0.0449  0.6383
 8008SOL     OW24922   4.696   5.927   4.246 -0.4342  0.8744  0.0951
 8008SOL    HW124923   4.765   5.907   4.315 -1.5399 -0.3962  0.8875
 8008SOL    HW224924   4.675   6.025   4.247  1.1283  1.2364  0.0099
 8009SOL     OW24925   3.702   1.730   1.880  0.1202 -0.0564 -0.3773
 8009SOL    HW124926   3.711   1.692   1.788 -1.5578  0.4234 -0.7794
 8009SOL    HW224927   3.773   1.798   1.895  1.0313 -0.8648 -0.9276
 8010SOL     OW24928   0.093   0.641   4.231  0.2445 -0.1121 -0.6958
 8010SOL    HW124929   0.096   0.547   4.265  0.7479 -0.5781 -1.9814
 8010SOL    HW224930   0.040   0.698   4.294 -0.3381 -1.3199 -0.0754
 8011SOL     OW24931   0.750   0.106   3.392  0.1108  0.2228 -0.4378
 8011SOL    HW124932   0.791   0.194   3.369  1.3598  0.2624  1.7134
 8011SOL    HW224933   0.761   0.043   3.315  0.7693  1.3987 -1.3426
 8012SOL     OW24934   6.961   4.012   2.179  0.7261 -0.1115 -0.3386
 8012SOL    HW124935   6.942   4.110   2.189  1.4567 -0.0160  0.2651
 8012SOL    HW224936   7.030   3.985   2.247 -0.1182 -1.2357  0.1014
 8013SOL     OW24937   4.110   1.885   2.298 -0.6218  0.4606 -0.2712
 8013SOL    HW124938   4.177   1.811   2.293 -3.1879 -2.0787  0.3236
 8013SOL    HW224939   4.133   1.955   2.230  1.3249 -1.4271 -1.7037
 8014SOL     OW24940   1.694   0.987   0.625 -0.0368  0.1904 -0.3459
 8014SOL    HW124941   1.695   1.062   0.560  0.7151  0.7000  0.2405
 8014SOL    HW224942   1.783   0.941   0.625 -0.9070 -1.6380 -1.7414
 8015SOL     OW24943   5.337   1.562   6.273  0.0761 -0.0968  0.1361
 8015SOL    HW124944   5.404   1.525   6.208  0.0743  2.5494 -1.5416
 8015SOL    HW224945   5.382   1.624   6.336 -0.5650  0.7682 -0.2273
 8016SOL     OW24946   6.990   6.946   4.411 -0.7005  0.2204 -0.2120
 8016SOL    HW124947   6.995   6.847   4.428 -2.9611 -0.0455 -0.7781
 8016SOL    HW224948   6.970   6.963   4.315  0.0149  1.2601 -0.1929
 8017SOL     OW24949   4.656   6.660   5.039 -0.0881  0.3674 -0.7137
 8017SOL    HW124950   4.627   6.577   5.086 -1.2401  0.5445 -1.0918
 8017SOL    HW224951   4.755   6.657   5.024  0.0114 -0.5229  0.0643
 8018SOL     OW24952   6.828   6.006   3.807 -0.1218  0.0624 -0.3095
 8018SOL    HW124953   6.908   6.052   3.846  1.2810 -2.5339  0.1133
 8018SOL    HW224954   6.774   5.965   3.881 -1.6066  1.3342 -0.6356
 8019SOL     OW24955   6.052   1.201   1.165  0.0352 -0.3256 -0.1159
 8019SOL    HW124956   6.146   1.229   1.185 -0.3826 -0.2761  2.0111
 8019SOL    HW224957   6.033   1.213   1.068  1.6141  1.5310 -0.2439
 8020SOL     OW24958   2.403   1.565   6.636 -0.4132  0.1306 -0.1452
 8020SOL    HW124959   2.349   1.492   6.593 -1.1907  1.1303 -0.9295
 8020SOL    HW224960   2.500   1.544   6.627 -0.6201 -0.8007 -0.3593
 8021SOL     OW24961   4.338   0.076   3.456  0.2630  0.4801  0.1137
 8021SOL    HW124962   4.260   0.118   3.504 -0.1902  1.4299 -1.3965
 8021SOL    HW224963   4.405   0.146   3.433  0.7680 -0.0639 -0.1010
 8022SOL     OW24964   0.324   0.168   2.616  0.6791 -0.6771 -0.0021
 8022SOL    HW124965   0.243   0.109   2.617  1.2860 -1.5254  0.2670
 8022SOL    HW224966   0.406   0.111   2.605  1.2370  0.1696 -0.2634
 8023SOL     OW24967   6.231   3.296   2.918  0.1802  0.3872  0.3971
 8023SOL    HW124968   6.308   3.244   2.881 -0.6324 -0.2853 -0.3861
 8023SOL    HW224969   6.227   3.386   2.874  0.6819  0.5385  0.6531
 8024SOL     OW24970   3.541   1.372   6.886  0.6909 -0.4430  0.1153
 8024SOL    HW124971   3.441   1.363   6.889  0.7175 -0.4891  3.0016
 8024SOL    HW224972   3.569   1.395   6.792 -2.2282  1.9861 -0.3383
 8025SOL     OW24973   4.949   0.555   3.379  0.2143  0.1619 -0.4553
 8025SOL    HW124974   4.949   0.550   3.280  2.0173  0.5080 -0.5014
 8025SOL    HW224975   4.898   0.636   3.409 -0.4356 -0.0108 -1.0817
 8026SOL     OW24976   5.502   2.576   4.549 -0.3120  0.4448 -0.0358
 8026SOL    HW124977   5.410   2.600   4.580 -0.1626 -0.3750  1.0893
 8026SOL    HW224978   5.566   2.582   4.625  0.6424  1.3144 -0.8790
 8027SOL     OW24979   0.139   1.473   4.569 -0.3323 -0.4625  0.0969
 8027SOL    HW124980   0.217   1.437   4.621  0.7824  0.0716 -1.1474
 8027SOL    HW224981   0.160   1.566   4.538 -1.9633  0.1601  0.7281
 8028SOL     OW24982   3.656   6.148   0.449 -0.0569 -0.2432  0.1888
 8028SOL    HW124983   3.623   6.079   0.384 -0.3018  1.3057 -1.4138
 8028SOL    HW224984   3.604   6.142   0.534 -1.3606 -0.8245 -0.6212
 8029SOL     OW24985   6.757   5.301   6.715  0.2011 -0.7592 -0.3162
 8029SOL    HW124986   6.811   5.338   6.640  0.7481 -1.0569 -0.0707
 8029SOL    HW224987   6.663   5.335   6.708 -0.3552 -2.5267 -2.4179
 8030SOL     OW24988   6.618   3.973   2.829  0.3872  0.4119 -0.3493
 8030SOL    HW124989   6.670   4.028   2.894  4.9417 -1.4413 -1.9691
 8030SOL    HW224990   6.626   3.876   2.852  0.8528 -0.1904 -2.7047
 8031SOL     OW24991   2.529   4.958   2.446 -0.9426 -0.3625  0.2865
 8031SOL    HW124992   2.566   5.023   2.512  0.2024 -1.5215  0.8255
 8031SOL    HW224993   2.596   4.885   2.430 -0.6870  0.4031 -2.9702
 8032SOL     OW24994   1.865   0.223   2.967  0.0882 -0.3226  0.2040
 8032SOL    HW124995   1.794   0.268   2.913  2.1056  0.3628 -2.0229
 8032SOL    HW224996   1.868   0.263   3.059 -1.0386  1.0196 -0.3185
 8033SOL     OW24997   0.906   2.409   2.262  0.0432  0.1639  0.0569
 8033SOL    HW124998   0.901   2.509   2.262  2.9974  0.4736  2.8906
 8033SOL    HW224999   0.826   2.371   2.308 -0.6566  1.2489 -0.2306
 8034SOL     OW25000   4.058   0.746   3.549  0.6739  0.1544 -0.2935
 8034SOL    HW125001   4.147   0.716   3.584 -0.8863 -1.0485  3.1508
 8034SOL    HW225002   3.994   0.669   3.552 -1.4231  1.8523  0.9806
 8035SOL     OW25003   5.325   4.258   6.600  0.8899 -0.3865  0.2711
 8035SOL    HW125004   5.401   4.324   6.598  0.5435  0.0165  0.3147
 8035SOL    HW225005   5.241   4.303   6.570  0.5385 -0.6597  0.8326
 8036SOL     OW25006   2.411   0.503   0.041 -0.3999  0.4558  0.0058
 8036SOL    HW125007   2.433   0.545  -0.047  1.2882 -1.2720 -0.4750
 8036SOL    HW225008   2.314   0.515   0.061 -0.5008  2.2183 -1.3302
 8037SOL     OW25009   5.411   0.853   4.812  0.2066 -0.1044 -0.3772
 8037SOL    HW125010   5.415   0.768   4.759  0.2208 -0.0609 -0.4467
 8037SOL    HW225011   5.495   0.905   4.798  1.4505 -1.3688  1.8470
 8038SOL     OW25012   0.728   6.893   3.209 -0.4776 -0.5867 -0.2574
 8038SOL    HW125013   0.669   6.865   3.285 -1.4974  0.8491 -0.4826
 8038SOL    HW225014   0.672   6.928   3.134  0.5929 -0.6508 -1.1128
 8039SOL     OW25015   0.238   6.090   3.635 -0.0275  0.6578  0.4119
 8039SOL    HW125016   0.269   6.000   3.604  0.2266  1.1105 -0.7210
 8039SOL    HW225017   0.288   6.116   3.717 -1.4078 -1.0104  1.8607
 8040SOL     OW25018   5.139   3.694   2.145 -0.0960 -0.2816  0.5076
 8040SOL    HW125019   5.050   3.736   2.126  0.2720  0.3507  0.1186
 8040SOL    HW225020   5.211   3.757   2.116  0.4764 -1.0610  0.2164
 8041SOL     OW25021   6.505   3.486   2.286 -0.5247  0.2971 -0.0066
 8041SOL    HW125022   6.463   3.482   2.377  1.1738  1.2277  0.8706
 8041SOL    HW225023   6.459   3.555   2.231 -2.9361 -1.6830 -0.6664
 8042SOL     OW25024   1.770   0.465   5.141  0.1571  0.1911 -0.1785
 8042SOL    HW125025   1.673   0.491   5.149 -0.0885 -1.2555  3.0373
 8042SOL    HW225026   1.827   0.537   5.178 -0.0803 -0.7860  2.2703
 8043SOL     OW25027   2.189   3.968   6.830  0.1971 -0.1136 -0.1906
 8043SOL    HW125028   2.229   3.950   6.740 -0.5217  1.6362 -0.8894
 8043SOL    HW225029   2.173   3.881   6.877 -0.5320 -1.1324 -2.2259
 8044SOL     OW25030   2.788   2.724   0.922  0.1000  0.3070  0.3470
 8044SOL    HW125031   2.817   2.692   1.012 -1.6632 -1.7204  0.2649
 8044SOL    HW225032   2.692   2.750   0.926  0.0827  0.4733 -0.8975
 8045SOL     OW25033   3.201   0.198   4.431 -0.0031  0.5918  0.1883
 8045SOL    HW125034   3.214   0.212   4.332 -0.7508  0.5003  0.0682
 8045SOL    HW225035   3.179   0.102   4.448  2.9025 -0.0612  0.7715
 8046SOL     OW25036   5.056   1.158   4.493  0.3587 -0.1884 -0.2754
 8046SOL    HW125037   5.100   1.180   4.406  1.8578  0.4747  0.6255
 8046SOL    HW225038   4.999   1.076   4.481  0.2134  0.1090 -1.9572
 8047SOL     OW25039   6.953   5.701   4.885  0.1571  0.1628  0.0838
 8047SOL    HW125040   6.889   5.682   4.959  0.0977  0.9538  0.2532
 8047SOL    HW225041   6.905   5.747   4.810 -0.0020 -1.5540 -0.9059
 8048SOL     OW25042   4.934   5.735   2.756 -0.0828  0.4046  0.2410
 8048SOL    HW125043   4.926   5.657   2.819 -0.0495  1.1151  1.1421
 8048SOL    HW225044   4.849   5.787   2.755  0.7978  1.9764  1.8447
 8049SOL     OW25045   0.509   6.803   6.642 -0.3404  0.0189  0.5986
 8049SOL    HW125046   0.538   6.795   6.737  0.1265 -0.1482  0.4412
 8049SOL    HW225047   0.483   6.898   6.624 -0.3128  0.0778  0.8586
 8050SOL     OW25048   5.976   1.733   4.554  0.1130 -0.2725  0.0304
 8050SOL    HW125049   5.889   1.700   4.591  0.8239 -1.1177  1.0134
 8050SOL    HW225050   5.987   1.701   4.460 -0.1632 -1.0950  0.2677
 8051SOL     OW25051   3.467   5.317   0.206  0.1365  0.0498  0.3276
 8051SOL    HW125052   3.468   5.399   0.262  0.9925 -0.8676  1.7285
 8051SOL    HW225053   3.446   5.238   0.264 -1.7910 -0.6125 -1.1779
 8052SOL     OW25054   1.217   2.012   4.421 -0.4211  0.2396 -0.4871
 8052SOL    HW125055   1.177   1.930   4.463  0.0492 -0.5388 -1.5164
 8052SOL    HW225056   1.276   1.985   4.345 -1.3320  1.6066 -1.7333
 8053SOL     OW25057   6.633   5.942   4.049  0.0090 -0.9156 -0.0800
 8053SOL    HW125058   6.569   5.925   3.975  2.5631 -1.5674 -2.2820
 8053SOL    HW225059   6.663   5.854   4.088 -0.6420 -0.6088  1.1657
 8054SOL     OW25060   1.497   4.883   2.665  0.0572 -0.5029  0.0785
 8054SOL    HW125061   1.453   4.794   2.656  2.7035 -1.7885 -1.4179
 8054SOL    HW225062   1.526   4.915   2.575  3.9461 -0.8344  1.0323
 8055SOL     OW25063   5.339   0.281   1.065  0.3254  0.8834  0.2815
 8055SOL    HW125064   5.321   0.377   1.044  2.0385  0.9133 -1.2995
 8055SOL    HW225065   5.368   0.273   1.161  0.8028  2.0503  0.2537
 8056SOL     OW25066   0.487   5.111   5.908 -0.3675  0.6001  0.1627
 8056SOL    HW125067   0.491   5.019   5.946  0.5006  0.3758 -0.4312
 8056SOL    HW225068   0.442   5.108   5.819 -1.1035  0.8933  0.5188
 8057SOL     OW25069   0.828   4.036   4.176 -0.0647  0.2806  0.3048
 8057SOL    HW125070   0.741   4.084   4.190  0.1737  0.2425  2.0798
 8057SOL    HW225071   0.825   3.947   4.222  0.1650 -0.6534 -1.4146
 8058SOL     OW25072   1.163   4.517   3.662 -0.1047  0.2606 -0.4572
 8058SOL    HW125073   1.211   4.494   3.578  1.3407  2.6199 -0.3503
 8058SOL    HW225074   1.081   4.459   3.671  1.0151 -1.7070 -2.2001
 8059SOL     OW25075   2.807   6.129   1.611  0.0265 -0.1026 -0.2096
 8059SOL    HW125076   2.747   6.208   1.629 -0.0365  0.2865 -1.9696
 8059SOL    HW225077   2.758   6.063   1.554  1.0395 -0.0676 -1.1451
 8060SOL     OW25078   5.596   0.383   3.782 -0.2251 -0.1513 -0.3899
 8060SOL    HW125079   5.589   0.393   3.881  0.2962 -0.5814 -0.3014
 8060SOL    HW225080   5.505   0.372   3.742 -0.4748  0.5674 -0.0211
 8061SOL     OW25081   1.425   6.467   1.441 -0.3965 -0.0201  0.2362
 8061SOL    HW125082   1.495   6.538   1.450 -0.1175 -0.2960  0.2984
 8061SOL    HW225083   1.358   6.493   1.372  0.3623 -0.2326 -0.5917
 8062SOL     OW25084   1.339   0.005   1.262 -0.9097  0.0177 -0.0424
 8062SOL    HW125085   1.346   0.096   1.305 -3.4401  0.2546 -0.0195
 8062SOL    HW225086   1.377   0.009   1.170 -1.3697  1.2209 -0.1937
 8063SOL     OW25087   5.294   7.015   5.768 -0.1969  0.3711  0.4486
 8063SOL    HW125088   5.252   6.935   5.811 -1.9909  0.9118 -0.2296
 8063SOL    HW225089   5.283   7.009   5.669  3.3719 -0.5703 -0.0337
 8064SOL     OW25090   6.436   4.720   3.823 -0.0644  0.0132 -0.0774
 8064SOL    HW125091   6.478   4.714   3.732 -0.0352 -0.0953 -0.0567
 8064SOL    HW225092   6.502   4.692   3.893 -0.3329 -0.6545 -0.0883
 8065SOL     OW25093   6.486   1.496   5.380 -0.2833 -0.4202 -0.2763
 8065SOL    HW125094   6.416   1.559   5.347  0.6305 -0.8795 -3.4550
 8065SOL    HW225095   6.488   1.497   5.480 -1.1148  3.6461 -0.1198
 8066SOL     OW25096   6.531   2.221   6.413 -0.3391 -0.0934  0.0273
 8066SOL    HW125097   6.556   2.208   6.317 -1.2337  1.9713 -0.5469
 8066SOL    HW225098   6.499   2.315   6.427 -1.1150 -0.6065  2.1662
 8067SOL     OW25099   4.908   3.548   6.160 -0.4815  0.1261 -0.1390
 8067SOL    HW125100   4.900   3.565   6.062  1.5038 -0.5126 -0.4565
 8067SOL    HW225101   4.910   3.635   6.209  2.4284  0.6753 -1.0714
 8068SOL     OW25102   5.245   4.292   4.032 -0.1303  0.5820 -0.2819
 8068SOL    HW125103   5.266   4.202   4.071 -1.1070  0.8995  1.0148
 8068SOL    HW225104   5.320   4.319   3.971  0.1957 -1.0820 -0.6738
 8069SOL     OW25105   3.435   2.029   3.042  0.4775  0.5455 -0.5892
 8069SOL    HW125106   3.479   2.038   2.953  1.0936  0.8935 -0.2481
 8069SOL    HW225107   3.401   2.118   3.072  0.7764  0.5289 -0.2099
 8070SOL     OW25108   5.033   6.805   4.321  0.5996 -0.1712 -0.2144
 8070SOL    HW125109   4.957   6.867   4.341  1.6929  1.3619 -0.5996
 8070SOL    HW225110   5.094   6.800   4.400 -0.6005 -2.5741  0.6590
 8071SOL     OW25111   3.928   6.872   6.336 -0.0353  0.0595 -0.8158
 8071SOL    HW125112   3.992   6.895   6.263 -0.8782 -1.0457 -1.9294
 8071SOL    HW225113   3.848   6.826   6.298 -2.4719  3.0197  0.2384
 8072SOL     OW25114   3.726   0.655   1.269 -0.3519 -0.4245  0.4384
 8072SOL    HW125115   3.675   0.700   1.196 -0.7185 -3.3949 -1.2784
 8072SOL    HW225116   3.821   0.644   1.241 -0.0788 -0.0258  1.1837
 8073SOL     OW25117   5.221   5.247   4.865  0.3135  0.4110 -0.3567
 8073SOL    HW125118   5.180   5.293   4.786  1.4953  3.0248  0.4397
 8073SOL    HW225119   5.149   5.212   4.924 -0.6284  0.2227 -1.5855
 8074SOL     OW25120   4.773   4.461   4.004 -0.1266  0.7091 -0.2882
 8074SOL    HW125121   4.732   4.455   4.095  2.1442 -1.3977  0.7053
 8074SOL    HW225122   4.711   4.419   3.938 -2.1796  3.0024  0.0465
 8075SOL     OW25123   3.638   5.509   4.939 -0.2023  0.1407 -0.2559
 8075SOL    HW125124   3.671   5.507   4.844 -0.6990 -0.8622 -0.4253
 8075SOL    HW225125   3.717   5.515   5.001  0.0691  2.2617 -0.7318
 8076SOL     OW25126   2.740   1.149   6.461 -0.6343  0.1717 -0.3584
 8076SOL    HW125127   2.807   1.075   6.463  0.4578  1.1491  0.5042
 8076SOL    HW225128   2.779   1.229   6.413 -1.7621  0.2452 -1.2129
 8077SOL     OW25129   0.283   2.261   0.169 -0.2600  0.2412 -0.5219
 8077SOL    HW125130   0.316   2.170   0.143  2.8932  1.0883  0.0768
 8077SOL    HW225131   0.337   2.330   0.121 -1.8896  1.8426 -0.1436
 8078SOL     OW25132   2.965   0.137   6.577  0.1746 -0.0077  0.1652
 8078SOL    HW125133   3.024   0.211   6.544 -0.0444 -0.0373 -0.3089
 8078SOL    HW225134   3.018   0.075   6.634  0.6358 -0.1049 -0.3621
 8079SOL     OW25135   0.541   3.318   4.660  0.1984  0.8187  0.1839
 8079SOL    HW125136   0.488   3.352   4.737 -0.0546  1.7420 -0.3838
 8079SOL    HW225137   0.482   3.264   4.600 -0.7347  3.5715 -1.5709
 8080SOL     OW25138   0.577   1.252   6.422  0.1654 -0.2236 -0.1131
 8080SOL    HW125139   0.631   1.336   6.424 -0.2558  0.0942 -1.1093
 8080SOL    HW225140   0.567   1.222   6.327 -1.0376 -0.5196  0.0918
 8081SOL     OW25141   4.242   6.049   0.312  0.7391 -0.1020 -0.1967
 8081SOL    HW125142   4.228   6.040   0.411  0.9529 -1.2976 -0.2538
 8081SOL    HW225143   4.173   6.111   0.274  0.4720  0.1382  0.6592
 8082SOL     OW25144   0.345   6.131   3.187 -0.4894 -0.2383 -0.3123
 8082SOL    HW125145   0.365   6.036   3.162 -1.1388 -0.1884 -1.0833
 8082SOL    HW225146   0.312   6.180   3.106  2.0890  1.3078 -0.5482
 8083SOL     OW25147   2.424   5.241   2.782 -0.2581  0.1342  0.9633
 8083SOL    HW125148   2.496   5.208   2.721 -0.3632  0.1995  0.8060
 8083SOL    HW225149   2.420   5.340   2.779 -0.1011  0.1501  1.2601
 8084SOL     OW25150   4.811   1.117   2.626  0.3153 -0.2055  0.3860
 8084SOL    HW125151   4.907   1.089   2.629 -0.0863 -1.6659  0.1640
 8084SOL    HW225152   4.776   1.105   2.533  0.6436  2.9570 -0.2529
 8085SOL     OW25153   3.637   4.409   6.199 -0.0429  0.4621  0.1024
 8085SOL    HW125154   3.585   4.492   6.179 -0.0818  0.5188  0.4341
 8085SOL    HW225155   3.662   4.364   6.114  0.2095  0.9553 -0.0830
 8086SOL     OW25156   2.145   2.496   1.220 -0.3337  0.2242  0.3770
 8086SOL    HW125157   2.059   2.532   1.184 -0.0939 -0.7488 -1.2756
 8086SOL    HW225158   2.163   2.537   1.310 -0.4949  3.5343 -0.9533
 8087SOL     OW25159   6.404   3.058   0.321  0.1106 -0.5761 -0.2491
 8087SOL    HW125160   6.473   3.028   0.255  0.8733 -1.0199  0.7248
 8087SOL    HW225161   6.331   3.107   0.273 -0.4876 -2.7778 -1.7322
 8088SOL     OW25162   5.158   4.185   2.372 -0.0280 -0.3596  0.2247
 8088SOL    HW125163   5.166   4.086   2.364  0.5525 -0.3386  0.5327
 8088SOL    HW225164   5.173   4.212   2.467 -1.1892 -0.0687  0.3407
 8089SOL     OW25165   5.118   1.269   3.474 -0.4150  0.4669 -0.2027
 8089SOL    HW125166   5.142   1.176   3.503 -0.5746  0.1305 -1.1247
 8089SOL    HW225167   5.073   1.317   3.549 -2.3779 -0.9639 -0.3963
 8090SOL     OW25168   5.990   7.008   3.983 -0.3539  0.2137  0.1367
 8090SOL    HW125169   5.911   6.984   3.927 -0.3381 -0.8082  0.5298
 8090SOL    HW225170   6.052   6.929   3.989 -0.4465  0.2226  1.7261
 8091SOL     OW25171   2.805   0.524   5.804 -0.2000 -0.4032  0.8967
 8091SOL    HW125172   2.861   0.456   5.757 -0.8929 -1.1250  1.0741
 8091SOL    HW225173   2.781   0.490   5.894 -1.4292 -0.4015  0.5924
 8092SOL     OW25174   4.534   2.398   1.667  0.0131 -0.2406  0.3201
 8092SOL    HW125175   4.524   2.412   1.765  0.7751 -2.5588  0.7826
 8092SOL    HW225176   4.485   2.316   1.639  1.6155 -0.8611 -0.8177
 8093SOL     OW25177   4.725   6.944   6.877 -0.8266 -0.1859 -0.3017
 8093SOL    HW125178   4.776   6.876   6.929  0.1616  0.2038 -0.7365
 8093SOL    HW225179   4.787   7.015   6.844 -2.0771  2.2261  2.0630
 8094SOL     OW25180   0.583   6.139   4.912  0.4489 -0.2725 -0.1670
 8094SOL    HW125181   0.670   6.157   4.958  0.4197 -2.7010  1.0310
 8094SOL    HW225182   0.580   6.042   4.886 -0.6774  0.4263 -2.9440
 8095SOL     OW25183   6.894   1.835   0.985  0.7021 -0.0594 -0.0719
 8095SOL    HW125184   6.837   1.888   0.922  2.0018  0.1530 -1.1231
 8095SOL    HW225185   6.901   1.883   1.073 -0.7405 -0.1106  0.0866
 8096SOL     OW25186   1.949   6.423   4.670  0.7491 -0.1454 -0.6991
 8096SOL    HW125187   1.872   6.362   4.649  1.5999 -1.4398 -0.1634
 8096SOL    HW225188   1.932   6.512   4.628 -2.4539  0.6159  1.8114
 8097SOL     OW25189   0.570   4.230   4.933 -0.1925  0.2981  0.4264
 8097SOL    HW125190   0.503   4.214   5.005 -1.4775  1.2007 -0.5330
 8097SOL    HW225191   0.569   4.327   4.907  1.6539  0.3856  0.5412
 8098SOL     OW25192   4.364   1.669   4.650 -0.2029 -0.3246  0.2870
 8098SOL    HW125193   4.320   1.753   4.679  0.9060  0.7057 -0.8790
 8098SOL    HW225194   4.335   1.593   4.709  0.6457  1.2978  2.9695
 8099SOL     OW25195   4.412   4.906   6.465 -0.1755  0.5036 -0.3308
 8099SOL    HW125196   4.418   4.883   6.562  1.3495 -2.9749 -1.1089
 8099SOL    HW225197   4.488   4.965   6.440  0.9888 -0.7524  0.1389
 8100SOL     OW25198   0.731   3.218   2.869  0.0912  0.3159  0.4046
 8100SOL    HW125199   0.780   3.189   2.952  0.0859  0.1911  0.3642
 8100SOL    HW225200   0.675   3.298   2.890 -1.2301 -0.7226  0.9506
 8101SOL     OW25201   3.884   5.093   3.026  0.1523  0.2851  0.6451
 8101SOL    HW125202   3.948   5.053   3.092 -1.5780  0.6505  2.6715
 8101SOL    HW225203   3.799   5.041   3.026  0.3451 -0.1701 -1.9697
 8102SOL     OW25204   6.148   0.319   3.747 -0.2928 -0.8432 -0.3101
 8102SOL    HW125205   6.072   0.382   3.763  0.5375 -0.0370  0.5916
 8102SOL    HW225206   6.140   0.279   3.655 -1.4066 -0.2316 -0.4882
 8103SOL     OW25207   4.286   4.086   0.083  0.1049  0.4924 -0.0208
 8103SOL    HW125208   4.300   3.989   0.105 -1.2388  0.7519  2.4436
 8103SOL    HW225209   4.353   4.115   0.015  1.1153 -1.9368 -0.1772
 8104SOL     OW25210   1.963   0.654   0.729 -0.3100 -0.0180  0.6243
 8104SOL    HW125211   1.992   0.688   0.818 -2.3349  0.5014  1.1370
 8104SOL    HW225212   1.888   0.589   0.742 -0.2383 -0.3766 -0.6788
 8105SOL     OW25213   2.667   1.891   5.071  0.3911  0.4542 -0.0251
 8105SOL    HW125214   2.598   1.949   5.028 -0.6733 -1.0999 -0.5219
 8105SOL    HW225215   2.729   1.947   5.126 -1.3201  1.8996  0.5076
 8106SOL     OW25216   3.274   4.118   1.000  0.3489  0.3774  0.0195
 8106SOL    HW125217   3.339   4.136   0.927 -0.0865 -0.9803 -0.7276
 8106SOL    HW225218   3.184   4.101   0.961  0.6081 -2.9210  0.6148
 8107SOL     OW25219   0.760   2.012   5.030  0.4975 -0.6010  0.4815
 8107SOL    HW125220   0.700   2.027   4.951  0.3804  0.9095  0.8349
 8107SOL    HW225221   0.854   2.033   5.005  0.7062 -1.6457  0.3221
 8108SOL     OW25222   5.160   5.791   1.721  0.5679 -0.0384  0.0335
 8108SOL    HW125223   5.148   5.776   1.819  0.8859  1.4359  0.3351
 8108SOL    HW225224   5.257   5.807   1.702  0.2190  2.4723 -0.0304
 8109SOL     OW25225   4.716   0.523   4.219 -0.2241  0.4928  0.2307
 8109SOL    HW125226   4.798   0.508   4.275 -1.0410 -0.1521  1.2997
 8109SOL    HW225227   4.711   0.453   4.148 -0.6059 -0.3749  1.0934
 8110SOL     OW25228   0.138   3.016   1.450 -0.2828  0.5860 -0.5700
 8110SOL    HW125229   0.125   3.098   1.506  0.2236  1.8510 -2.2119
 8110SOL    HW225230   0.235   2.993   1.448  0.1575  2.2387 -3.0538
 8111SOL     OW25231   2.541   0.680   4.318 -0.2835 -0.4260 -0.5454
 8111SOL    HW125232   2.485   0.747   4.365 -1.5523 -1.6432 -0.2446
 8111SOL    HW225233   2.486   0.635   4.247  0.1629 -1.9718  0.0562
 8112SOL     OW25234   1.870   2.355   2.443 -0.0360  0.2015  0.2039
 8112SOL    HW125235   1.813   2.274   2.459 -1.7244  1.3672  0.3537
 8112SOL    HW225236   1.861   2.418   2.520 -1.5487  2.0660 -1.3885
 8113SOL     OW25237   2.989   6.502   4.355  0.1429  0.4479 -0.3911
 8113SOL    HW125238   2.965   6.410   4.386 -0.8737  0.6162 -0.6301
 8113SOL    HW225239   3.089   6.512   4.353  0.3059  0.3014  2.4303
 8114SOL     OW25240   2.827   1.222   6.903  0.2987 -0.5528 -0.7056
 8114SOL    HW125241   2.903   1.173   6.859  0.2453 -1.2424 -0.0576
 8114SOL    HW225242   2.764   1.255   6.833  1.9286  1.3252 -1.3833
 8115SOL     OW25243   5.897   0.622   5.506  0.0170 -0.7554 -0.4044
 8115SOL    HW125244   5.810   0.572   5.498  0.0035 -0.5709 -1.4416
 8115SOL    HW225245   5.904   0.689   5.433  1.8007 -1.9115 -1.3564
 8116SOL     OW25246   2.002   1.761   6.550 -0.0069  0.1098  0.3396
 8116SOL    HW125247   2.061   1.686   6.580 -0.2355 -0.0295  0.4482
 8116SOL    HW225248   1.952   1.797   6.629 -0.2732  0.0442  0.2000
 8117SOL     OW25249   6.470   5.468   2.925 -0.4542  0.4666 -0.2280
 8117SOL    HW125250   6.441   5.478   3.020  0.5570  2.4662 -0.0553
 8117SOL    HW225251   6.471   5.558   2.881 -1.0372 -0.4295 -2.1955
 8118SOL     OW25252   3.009   3.190   4.280  0.2712 -0.0065  0.2969
 8118SOL    HW125253   2.912   3.187   4.256  0.1312  3.1392  0.0407
 8118SOL    HW225254   3.019   3.219   4.375  1.0008 -1.5169  0.7148
 8119SOL     OW25255   2.452   1.387   5.367 -0.4686 -0.0632  0.3825
 8119SOL    HW125256   2.535   1.331   5.373 -0.1130  0.4865  0.6497
 8119SOL    HW225257   2.386   1.342   5.305  0.5637  0.1702 -0.9322
 8120SOL     OW25258   5.835   5.933   4.504 -0.0910 -0.3393 -0.2307
 8120SOL    HW125259   5.914   5.875   4.488 -0.1242 -0.9794  1.6836
 8120SOL    HW225260   5.756   5.877   4.530 -0.9890  0.3396 -1.3966
 8121SOL     OW25261   6.689   1.660   4.511  0.0940  0.0524  0.0595
 8121SOL    HW125262   6.697   1.680   4.414 -1.6321  0.6557  0.0028
 8121SOL    HW225263   6.773   1.685   4.558  0.7627  0.2212 -1.2041
 8122SOL     OW25264   6.382   0.006   0.188  0.5446 -0.4717 -0.0653
 8122SOL    HW125265   6.463   0.006   0.129  0.0629 -1.2215 -0.7241
 8122SOL    HW225266   6.386   0.086   0.248  0.4602  0.9637 -1.8991
 8123SOL     OW25267   5.390   0.580   0.387 -0.1183 -0.3826  0.1082
 8123SOL    HW125268   5.401   0.658   0.326  1.7493  1.7006  2.8871
 8123SOL    HW225269   5.448   0.505   0.355  0.4107  0.4506 -0.9442
 8124SOL     OW25270   3.682   2.002   3.156 -0.0339  0.2434 -0.6337
 8124SOL    HW125271   3.755   1.981   3.090 -0.4583 -0.4602 -0.8897
 8124SOL    HW225272   3.593   1.997   3.110 -0.2828  0.5851 -0.2012
 8125SOL     OW25273   6.359   0.837   0.765  0.3004  0.1134 -0.1299
 8125SOL    HW125274   6.301   0.851   0.685  0.4025  0.9763 -0.0637
 8125SOL    HW225275   6.428   0.910   0.770  0.8903 -0.4532  0.2286
 8126SOL     OW25276   3.889   0.080   1.647  0.3998  0.5462 -0.4661
 8126SOL    HW125277   3.834   0.028   1.712  2.1648 -0.1864  0.5290
 8126SOL    HW225278   3.842   0.165   1.624  0.1091  1.3373  2.5812
 8127SOL     OW25279   5.043   3.959   0.363  0.2217  0.2872  0.1418
 8127SOL    HW125280   5.017   3.998   0.274  0.6891  0.3307  0.0228
 8127SOL    HW225281   4.962   3.954   0.422 -0.0001  0.7009 -0.1213
 8128SOL     OW25282   0.883   1.719   4.278 -0.0669  0.2492 -0.0241
 8128SOL    HW125283   0.974   1.730   4.238  0.2062  1.6899  0.9272
 8128SOL    HW225284   0.825   1.796   4.251 -0.4601  0.2510  0.7990
 8129SOL     OW25285   6.515   2.367   3.980  0.6338  0.2019  0.0510
 8129SOL    HW125286   6.533   2.272   4.006  0.2683  0.3124  0.7437
 8129SOL    HW225287   6.516   2.375   3.880  3.5294  0.0526  0.0063
 8130SOL     OW25288   3.908   0.764   1.898 -0.2521 -0.2443  0.0126
 8130SOL    HW125289   3.920   0.778   1.800 -0.5768 -0.6603 -0.0877
 8130SOL    HW225290   3.998   0.759   1.941 -0.1116  0.8927 -0.1184
 8131SOL     OW25291   1.475   2.598   6.946 -0.0343  0.2730 -0.1671
 8131SOL    HW125292   1.456   2.659   7.023 -1.0350 -0.0724 -0.1228
 8131SOL    HW225293   1.548   2.637   6.890 -0.1991  1.1802  0.2275
 8132SOL     OW25294   4.502   2.823   5.512  0.2958 -0.5983 -0.4315
 8132SOL    HW125295   4.522   2.733   5.553  0.9030  0.2800  1.3280
 8132SOL    HW225296   4.555   2.893   5.560 -1.0569  0.8590 -0.9823
 8133SOL     OW25297   2.439   1.513   3.850  0.7220  0.1328 -0.5770
 8133SOL    HW125298   2.377   1.464   3.911  0.2266  0.3820 -0.8707
 8133SOL    HW225299   2.408   1.502   3.755  0.9399  0.5280 -0.6969
 8134SOL     OW25300   0.206   0.715   5.752  0.0940 -0.2455  0.0218
 8134SOL    HW125301   0.267   0.750   5.681  0.0753 -1.1393 -0.4545
 8134SOL    HW225302   0.111   0.735   5.727  0.1210  0.0606  0.1539
 8135SOL     OW25303   4.379   1.073   6.175 -0.1312  0.0868 -0.5633
 8135SOL    HW125304   4.463   1.108   6.217  1.3843 -1.9439 -1.6897
 8135SOL    HW225305   4.399   0.987   6.128 -2.9861 -0.7244 -0.4785
 8136SOL     OW25306   4.768   2.073   1.884  0.2822 -0.6867  0.3902
 8136SOL    HW125307   4.805   2.067   1.976 -0.3519 -0.9268  0.6345
 8136SOL    HW225308   4.843   2.070   1.818  0.6785 -1.4293  0.8621
 8137SOL     OW25309   2.682   0.741   0.509  0.0295 -0.6841 -0.1814
 8137SOL    HW125310   2.754   0.673   0.496 -0.4163 -1.5689  1.5823
 8137SOL    HW225311   2.595   0.703   0.478  0.0108 -0.3603 -0.5257
 8138SOL     OW25312   2.500   3.239   5.414 -0.3079  0.2195 -0.0925
 8138SOL    HW125313   2.495   3.176   5.337  0.6221  0.2917 -0.2139
 8138SOL    HW225314   2.492   3.333   5.381 -1.6748  0.1927  0.0863
 8139SOL     OW25315   6.547   6.257   2.287 -0.1421  0.1321 -0.1401
 8139SOL    HW125316   6.539   6.281   2.190 -1.1017 -0.6113 -0.2545
 8139SOL    HW225317   6.546   6.341   2.342 -0.1232  0.5277 -0.7352
 8140SOL     OW25318   3.658   0.104   1.309  0.4899  0.1193 -0.5254
 8140SOL    HW125319   3.573   0.055   1.291  1.1349 -1.0262 -0.5798
 8140SOL    HW225320   3.644   0.171   1.382 -0.1302 -0.9744  0.3805
 8141SOL     OW25321   6.209   0.410   4.445  0.2807  0.4259 -0.1338
 8141SOL    HW125322   6.229   0.371   4.535  0.7533 -1.0213 -0.8363
 8141SOL    HW225323   6.151   0.491   4.456 -1.4699 -0.9398  1.3585
 8142SOL     OW25324   5.914   6.025   2.352 -0.0448 -0.3240  0.1661
 8142SOL    HW125325   5.945   5.943   2.399 -2.9336 -1.2620  0.6020
 8142SOL    HW225326   5.870   6.087   2.417  0.4505  0.7557 -0.4872
 8143SOL     OW25327   1.613   3.686   5.058  0.2400  0.0820  0.3262
 8143SOL    HW125328   1.650   3.653   5.145 -0.0396  0.9562  0.7907
 8143SOL    HW225329   1.516   3.664   5.053  0.2748 -0.0401  0.2021
 8144SOL     OW25330   0.033   0.351   4.561  0.7257 -0.1471 -0.0354
 8144SOL    HW125331  -0.005   0.275   4.614 -1.3118 -0.3747 -1.6908
 8144SOL    HW225332   0.020   0.436   4.611 -1.6583 -0.2778 -0.3145
 8145SOL     OW25333   6.851   0.764   6.501 -0.3397  0.1021  0.9215
 8145SOL    HW125334   6.924   0.807   6.447 -1.1093  1.2334  0.7574
 8145SOL    HW225335   6.771   0.749   6.443 -0.5860 -0.2363  1.3455
 8146SOL     OW25336   1.386   3.200   4.709 -0.2396  0.0414  0.2996
 8146SOL    HW125337   1.322   3.173   4.781  0.0212  1.6222  1.1659
 8146SOL    HW225338   1.335   3.228   4.628 -0.5280 -2.7828 -0.6177
 8147SOL     OW25339   4.012   3.126   4.150 -0.1872 -0.1675  0.4254
 8147SOL    HW125340   4.039   3.145   4.056 -1.9310 -0.3701 -0.1432
 8147SOL    HW225341   4.036   3.203   4.208 -1.4956  1.1286 -0.6943
 8148SOL     OW25342   1.790   0.630   4.768  0.1407 -0.0952  0.5643
 8148SOL    HW125343   1.802   0.707   4.832  0.8655  0.7607 -0.5646
 8148SOL    HW225344   1.879   0.593   4.743 -0.1394 -0.4540  0.0850
 8149SOL     OW25345   4.334   2.331   3.938 -0.4327  0.3947 -0.5480
 8149SOL    HW125346   4.255   2.319   3.879 -0.4220 -1.7064 -0.2048
 8149SOL    HW225347   4.364   2.242   3.973  0.4156  1.4037  1.4980
 8150SOL     OW25348   1.436   6.248   0.022 -0.2940 -0.0280  0.4802
 8150SOL    HW125349   1.367   6.317   0.001 -1.9153 -1.7784 -0.3165
 8150SOL    HW225350   1.474   6.212  -0.064  0.8098  0.1305  0.8883
 8151SOL     OW25351   0.176   4.078   0.259 -0.2626 -0.0803 -0.3132
 8151SOL    HW125352   0.114   4.003   0.235  0.8925 -1.2266  0.1036
 8151SOL    HW225353   0.270   4.046   0.250  0.2449  0.6713  1.8320
 8152SOL     OW25354   4.613   5.594   5.873 -0.4527 -0.3883  0.2797
 8152SOL    HW125355   4.514   5.604   5.884 -0.3300  1.1526  0.2341
 8152SOL    HW225356   4.658   5.609   5.961 -0.3196 -2.7236  0.6698
 8153SOL     OW25357   3.554   5.360   2.358 -0.1343  0.4556 -0.4127
 8153SOL    HW125358   3.523   5.353   2.453  0.5978  0.2541 -0.1859
 8153SOL    HW225359   3.652   5.342   2.353  1.0902  5.5844 -0.4272
 8154SOL     OW25360   6.676   3.464   4.152  0.1373 -0.5952  0.2321
 8154SOL    HW125361   6.645   3.380   4.108  0.2731 -0.6119  0.1654
 8154SOL    HW225362   6.746   3.442   4.220  2.3920 -0.3065 -1.8484
 8155SOL     OW25363   2.392   5.958   3.063 -0.1941  0.0433 -0.1322
 8155SOL    HW125364   2.307   5.955   3.116 -0.1180 -0.6518 -0.0412
 8155SOL    HW225365   2.416   5.866   3.033  0.2802  0.2992 -0.5594
 8156SOL     OW25366   3.662   5.664   0.253  0.8080 -0.1157 -0.4205
 8156SOL    HW125367   3.579   5.662   0.197  1.0103  0.1651 -0.7427
 8156SOL    HW225368   3.739   5.631   0.198  1.2125  1.2074 -0.6722
 8157SOL     OW25369   6.146   0.273   3.473 -0.0097 -0.3303  1.0976
 8157SOL    HW125370   6.138   0.363   3.431  1.0448 -1.1816 -1.1707
 8157SOL    HW225371   6.114   0.204   3.408  1.0236 -1.7074  1.9947
 8158SOL     OW25372   1.939   3.817   0.770  0.3922  0.4745 -0.3807
 8158SOL    HW125373   1.862   3.868   0.809  1.4957  1.3147  0.7981
 8158SOL    HW225374   2.011   3.881   0.743  0.7938 -0.3090 -1.2012
 8159SOL     OW25375   2.621   5.555   3.163 -0.3701  0.2341 -0.0815
 8159SOL    HW125376   2.666   5.584   3.248  1.7054 -0.3028 -0.9242
 8159SOL    HW225377   2.586   5.462   3.175  1.8614 -0.7243 -0.3907
 8160SOL     OW25378   2.553   2.260   3.143  0.0928 -0.1605  0.0738
 8160SOL    HW125379   2.537   2.209   3.058  0.3698 -1.1966  0.6297
 8160SOL    HW225380   2.547   2.358   3.124  1.3584 -0.3238 -1.3878
 8161SOL     OW25381   3.540   3.300   0.150  0.1560 -0.1954 -0.0755
 8161SOL    HW125382   3.575   3.384   0.190  0.5099 -0.5474  0.3741
 8161SOL    HW225383   3.532   3.230   0.222 -0.2093 -0.5214 -0.4255
 8162SOL     OW25384   1.645   5.984   5.871 -0.1425 -0.1062 -0.3617
 8162SOL    HW125385   1.620   6.080   5.865  0.9498  0.1647 -0.8031
 8162SOL    HW225386   1.647   5.944   5.779 -0.7849 -0.6124 -0.1660
 8163SOL     OW25387   2.240   7.016   4.438 -0.4701 -0.2732  0.5506
 8163SOL    HW125388   2.321   6.976   4.395 -1.6748 -1.2565 -0.9583
 8163SOL    HW225389   2.212   6.959   4.515 -0.3635 -0.5769  0.3687
 8164SOL     OW25390   2.383   6.422   1.139  0.3013  0.3831 -0.3669
 8164SOL    HW125391   2.305   6.361   1.151  0.8182  0.0258  1.5322
 8164SOL    HW225392   2.361   6.491   1.070 -1.3784 -0.1842 -0.4434
 8165SOL     OW25393   6.582   2.687   1.267 -0.0683 -0.6749 -0.0659
 8165SOL    HW125394   6.582   2.718   1.172  1.5442 -0.8537 -0.1629
 8165SOL    HW225395   6.642   2.746   1.322  2.1922 -2.8243 -0.0320
 8166SOL     OW25396   4.788   4.745   2.522 -0.5672 -0.0588  0.2754
 8166SOL    HW125397   4.760   4.727   2.428 -2.7002 -0.1970  0.9056
 8166SOL    HW225398   4.828   4.662   2.562  1.1059  0.2209 -0.7180
 8167SOL     OW25399   3.930   1.708   5.067 -1.1894 -0.2357 -0.0821
 8167SOL    HW125400   3.833   1.693   5.050 -1.3414 -0.4447  0.9345
 8167SOL    HW225401   3.952   1.805   5.053 -1.5112 -0.2168 -0.4589
 8168SOL     OW25402   0.453   5.299   6.866  0.2429  0.1055  0.7762
 8168SOL    HW125403   0.438   5.200   6.865 -0.5448  0.2189  0.2524
 8168SOL    HW225404   0.548   5.319   6.838 -0.0242 -0.4466 -0.6240
 8169SOL     OW25405   5.209   6.963   6.979 -0.1483  0.3341  0.0145
 8169SOL    HW125406   5.136   7.016   7.021 -1.8283 -3.0499  1.8354
 8169SOL    HW225407   5.264   6.920   7.051  0.4329 -1.2179 -1.2924
 8170SOL     OW25408   5.565   5.959   5.071  0.5004  0.4631 -0.8173
 8170SOL    HW125409   5.575   5.860   5.066 -0.5654 -0.0049  2.8162
 8170SOL    HW225410   5.468   5.982   5.079  0.8467  1.5353  0.7559
 8171SOL     OW25411   3.446   6.834   1.405  0.5529  0.3321 -0.5484
 8171SOL    HW125412   3.495   6.748   1.416 -0.6032 -0.3322 -0.3803
 8171SOL    HW225413   3.467   6.874   1.316  2.4549  0.7878  0.0689
 8172SOL     OW25414   3.855   1.742   3.762  0.4576  0.0650 -0.0302
 8172SOL    HW125415   3.849   1.764   3.860 -1.3237 -0.6667  0.0555
 8172SOL    HW225416   3.922   1.668   3.749  0.0627 -0.4411  0.7528
 8173SOL     OW25417   6.367   0.997   2.716 -0.0694  0.0779  0.0799
 8173SOL    HW125418   6.295   0.961   2.775 -0.0663  1.0388  0.6928
 8173SOL    HW225419   6.453   0.951   2.737  0.1966  1.2316  1.7074
 8174SOL     OW25420   2.555   6.961   2.344  0.4070  0.1409  0.3715
 8174SOL    HW125421   2.558   6.882   2.283 -2.2488 -0.8072  1.3318
 8174SOL    HW225422   2.647   6.980   2.379  1.3896 -1.4246 -1.1942
 8175SOL     OW25423   3.582   3.527   1.237  0.0395 -0.0889  0.4319
 8175SOL    HW125424   3.618   3.620   1.247  1.0473 -0.4370  0.1214
 8175SOL    HW225425   3.635   3.464   1.294  1.5291 -1.0030 -1.8279
 8176SOL     OW25426   2.385   4.269   0.624 -0.5079  0.0746 -0.0756
 8176SOL    HW125427   2.373   4.347   0.564 -1.7668 -1.5048 -2.0042
 8176SOL    HW225428   2.428   4.298   0.709  1.7014  2.3291 -1.8553
 8177SOL     OW25429   1.941   6.723   0.651 -0.4415  0.6929  0.1191
 8177SOL    HW125430   1.959   6.786   0.575  1.4577  0.3658  0.2584
 8177SOL    HW225431   2.024   6.671   0.671 -1.9299 -1.8685  0.0318
 8178SOL     OW25432   1.004   2.856   0.231  0.2913 -0.2354  0.4094
 8178SOL    HW125433   0.956   2.939   0.259  0.1184  0.8523 -2.7194
 8178SOL    HW225434   0.940   2.779   0.230 -0.1530  0.1149  0.9576
 8179SOL     OW25435   5.563   5.999   1.160  0.3500 -0.4777 -0.4356
 8179SOL    HW125436   5.485   6.053   1.128  0.4459 -1.3201 -2.1942
 8179SOL    HW225437   5.603   5.950   1.083  1.3391 -1.6987  0.8161
 8180SOL     OW25438   2.008   3.025   2.951  0.2340 -0.6528  0.5328
 8180SOL    HW125439   1.969   2.933   2.959  0.0974 -0.9091 -2.2630
 8180SOL    HW225440   2.107   3.020   2.954  0.2502 -1.0088 -0.4111
 8181SOL     OW25441   2.758   1.715   4.140  0.4666 -0.0726 -0.6082
 8181SOL    HW125442   2.777   1.705   4.043  0.8288 -0.7406 -0.4783
 8181SOL    HW225443   2.785   1.807   4.170  3.5191 -0.8792 -0.4769
 8182SOL     OW25444   3.386   3.285   3.250 -0.3815 -0.6127  0.0165
 8182SOL    HW125445   3.365   3.373   3.208  1.4497 -0.8113 -1.4032
 8182SOL    HW225446   3.468   3.247   3.210 -1.2241 -3.0904  0.4564
 8183SOL     OW25447   6.269   5.432   4.484 -0.1039 -0.5908  0.4562
 8183SOL    HW125448   6.346   5.379   4.520  0.5399  0.8079  1.2093
 8183SOL    HW225449   6.199   5.441   4.555  0.7415  1.3475  1.1067
 8184SOL     OW25450   0.755   6.879   0.013 -0.3750  0.6561 -0.3775
 8184SOL    HW125451   0.806   6.909   0.094  0.9320 -0.5220 -0.7212
 8184SOL    HW225452   0.764   6.780   0.003 -2.1680  0.5095 -0.8829
 8185SOL     OW25453   3.298   5.048   6.655  0.0610  0.5130  0.4897
 8185SOL    HW125454   3.232   5.092   6.594 -2.3977 -2.3190  0.9124
 8185SOL    HW225455   3.342   4.972   6.607 -1.2264 -1.1742  1.8751
 8186SOL     OW25456   5.925   0.534   6.763 -0.3785  0.2564  0.0714
 8186SOL    HW125457   5.988   0.611   6.753  0.6238 -0.6049 -0.4555
 8186SOL    HW225458   5.977   0.451   6.783 -1.3311 -0.5020 -0.5120
 8187SOL     OW25459   2.513   0.517   4.896 -0.3766 -0.3647  0.5603
 8187SOL    HW125460   2.499   0.613   4.872 -0.5541 -1.0904 -2.7325
 8187SOL    HW225461   2.592   0.509   4.958  0.2921  1.8167  0.0785
 8188SOL     OW25462   0.055   5.539   4.373 -0.0990  0.1485 -0.2067
 8188SOL    HW125463   0.088   5.526   4.280 -0.5547 -1.4388 -0.1776
 8188SOL    HW225464  -0.044   5.554   4.371 -0.4040 -1.5672  0.0814
 8189SOL     OW25465   4.895   5.747   6.830  0.0533 -0.2470 -0.6346
 8189SOL    HW125466   4.832   5.753   6.908  0.0551  0.3990 -0.6746
 8189SOL    HW225467   4.858   5.798   6.753  1.4356  1.7239 -0.0821
 8190SOL     OW25468   3.378   1.341   4.032  0.4780  0.0522 -0.0828
 8190SOL    HW125469   3.345   1.321   4.125  0.1803 -0.5594 -0.3121
 8190SOL    HW225470   3.423   1.430   4.031 -0.7444  0.7101  0.3562
 8191SOL     OW25471   4.406   6.261   4.944  0.1118 -0.0793  0.3313
 8191SOL    HW125472   4.490   6.261   4.890  0.8060 -0.6651  1.3747
 8191SOL    HW225473   4.336   6.316   4.897  1.0083  0.2738 -0.6354
 8192SOL     OW25474   5.244   4.380   0.940 -0.0554 -0.0857 -0.4846
 8192SOL    HW125475   5.172   4.448   0.926 -1.2266 -0.9763  0.8817
 8192SOL    HW225476   5.243   4.349   1.035  0.8323 -1.5734 -0.9216
 8193SOL     OW25477   2.216   2.303   5.075 -0.2648  0.2812  0.2236
 8193SOL    HW125478   2.169   2.273   4.993  1.0863 -0.6961 -0.2394
 8193SOL    HW225479   2.151   2.311   5.151 -1.2879 -0.1575 -0.5927
 8194SOL     OW25480   5.559   6.295   0.581 -0.1335 -0.0342  0.0026
 8194SOL    HW125481   5.572   6.390   0.610 -1.7415  0.8324 -1.8105
 8194SOL    HW225482   5.634   6.239   0.614  1.1678  1.9826  0.6654
 8195SOL     OW25483   3.805   1.127   0.164 -0.0560  0.2067 -0.1419
 8195SOL    HW125484   3.796   1.122   0.064  2.3861  2.3740 -0.5790
 8195SOL    HW225485   3.760   1.209   0.197 -2.2799 -1.3181  0.8635
 8196SOL     OW25486   3.184   5.979   4.496 -0.6092  0.1753  0.3572
 8196SOL    HW125487   3.101   5.942   4.456 -1.6617  0.1883  2.3812
 8196SOL    HW225488   3.163   6.021   4.585  1.8803 -2.0216  2.1596
 8197SOL     OW25489   5.109   0.060   1.545 -0.6098 -0.6721 -0.0523
 8197SOL    HW125490   5.208   0.058   1.558 -0.5169 -1.1380 -0.8164
 8197SOL    HW225491   5.073  -0.033   1.541 -0.9227 -0.5237 -0.9062
 8198SOL     OW25492   6.966   6.816   0.108 -0.1407  0.0004 -0.0982
 8198SOL    HW125493   7.032   6.850   0.175  0.5142  0.3008 -0.8730
 8198SOL    HW225494   7.006   6.740   0.057  0.0680  0.9000 -1.3362
 8199SOL     OW25495   1.807   4.784   1.579  0.4968  0.0992 -0.0929
 8199SOL    HW125496   1.793   4.786   1.481  2.2667 -1.6864 -0.4568
 8199SOL    HW225497   1.818   4.877   1.614 -1.2677  0.8161 -1.3609
 8200SOL     OW25498   3.913   0.835   6.200 -0.0652  0.5569  0.7167
 8200SOL    HW125499   3.970   0.916   6.208 -0.3043  0.6296  1.8783
 8200SOL    HW225500   3.893   0.799   6.291 -0.0511 -0.7528  0.2249
 8201SOL     OW25501   2.765   3.524   6.521  0.5977 -0.3683  0.1558
 8201SOL    HW125502   2.861   3.507   6.498  0.3589 -3.2423  0.9413
 8201SOL    HW225503   2.707   3.499   6.444  0.4414  2.3650 -0.7211
 8202SOL     OW25504   1.260   5.766   0.967  0.7575  0.4704  0.6185
 8202SOL    HW125505   1.350   5.794   1.000  0.9573 -0.0228  0.4957
 8202SOL    HW225506   1.262   5.759   0.867  0.7174  0.0019  0.6488
 8203SOL     OW25507   4.260   1.311   6.070  0.2548  0.2557 -0.0966
 8203SOL    HW125508   4.297   1.223   6.100  0.1746 -0.5595 -2.1667
 8203SOL    HW225509   4.199   1.296   5.992  0.7788  2.2013 -0.9557
 8204SOL     OW25510   1.244   6.816   6.308  0.0943 -0.2528  0.3442
 8204SOL    HW125511   1.203   6.812   6.400 -0.1359  1.7210  0.3694
 8204SOL    HW225512   1.225   6.906   6.267 -1.8834 -1.8353 -2.6163
 8205SOL     OW25513   1.501   5.467   1.517  0.3273  0.9544 -0.2209
 8205SOL    HW125514   1.591   5.491   1.554  0.1855  3.6004 -1.3832
 8205SOL    HW225515   1.430   5.510   1.573 -0.0676  1.2626 -0.9420
 8206SOL     OW25516   1.784   2.184   6.183 -0.3308 -0.3668  0.3544
 8206SOL    HW125517   1.883   2.195   6.194  0.1953 -1.0586 -2.8400
 8206SOL    HW225518   1.738   2.267   6.214  1.4786  0.9398 -0.2792
 8207SOL     OW25519   6.430   6.361   6.631  0.1329 -0.2866  0.2670
 8207SOL    HW125520   6.446   6.365   6.730  0.1659  0.1311  0.2456
 8207SOL    HW225521   6.491   6.425   6.585  0.3755 -0.7477 -0.0574
 8208SOL     OW25522   4.260   2.471   6.673  0.1598 -0.0137  0.1698
 8208SOL    HW125523   4.269   2.390   6.615  0.3107  1.4846 -2.0139
 8208SOL    HW225524   4.167   2.476   6.708 -0.9424  0.6914 -2.6334
 8209SOL     OW25525   5.939   3.983   3.335  0.0475 -0.7890 -0.0067
 8209SOL    HW125526   5.847   3.997   3.301  0.7576 -0.1646 -1.7869
 8209SOL    HW225527   5.999   3.956   3.260  1.9531  1.8036  0.4200
 8210SOL     OW25528   6.235   6.318   1.985  0.1464 -0.4145 -0.0795
 8210SOL    HW125529   6.293   6.272   1.917 -1.4110 -1.6351 -0.6486
 8210SOL    HW225530   6.219   6.256   2.062 -0.1415  0.0342  0.2264
 8211SOL     OW25531   3.768   6.143   4.850  0.2941  0.2044  0.2079
 8211SOL    HW125532   3.733   6.232   4.820 -0.0133  0.1661  0.4515
 8211SOL    HW225533   3.866   6.151   4.867  0.1190  0.7193  1.0331
 8212SOL     OW25534   0.841   0.741   4.565 -0.0622 -0.9806  0.8356
 8212SOL    HW125535   0.855   0.805   4.490  2.1722  0.1711  2.1269
 8212SOL    HW225536   0.866   0.649   4.536 -0.7880 -0.8371 -0.2802
 8213SOL     OW25537   3.301   3.229   4.774 -0.2292  0.4440  0.0069
 8213SOL    HW125538   3.354   3.230   4.689 -1.2713  0.7547 -0.6494
 8213SOL    HW225539   3.326   3.308   4.829  0.4890  0.2143  0.0248
 8214SOL     OW25540   4.151   6.822   3.900  0.2299  0.0115 -0.2156
 8214SOL    HW125541   4.112   6.812   3.809  1.6333  0.3113 -0.8645
 8214SOL    HW225542   4.251   6.826   3.894  0.4668 -1.8237  1.4975
 8215SOL     OW25543   1.644   1.054   5.485 -0.4820  0.3572 -0.2581
 8215SOL    HW125544   1.700   1.009   5.554 -0.4191  0.5527 -0.1811
 8215SOL    HW225545   1.573   0.991   5.453  0.1214 -0.0779 -0.7531
 8216SOL     OW25546   3.578   6.908   3.380  0.9508 -0.0788  0.0876
 8216SOL    HW125547   3.490   6.897   3.334  1.9303 -1.5470 -1.5633
 8216SOL    HW225548   3.568   6.889   3.478 -0.3398 -1.3326 -0.2723
 8217SOL     OW25549   1.191   4.987   6.706  0.1940  0.3167 -0.6297
 8217SOL    HW125550   1.262   5.057   6.708  0.6982 -0.1992  0.4700
 8217SOL    HW225551   1.234   4.897   6.692 -0.2754  0.0528 -0.3849
 8218SOL     OW25552   2.740   3.914   1.691  0.0345 -0.4210  0.0473
 8218SOL    HW125553   2.648   3.945   1.717 -0.1889 -1.6019  0.7233
 8218SOL    HW225554   2.742   3.897   1.593 -0.1037  0.8017 -0.1828
 8219SOL     OW25555   1.900   6.909   3.207  0.3879 -0.3913 -0.9870
 8219SOL    HW125556   1.891   6.992   3.262  1.6717  0.0351 -1.3906
 8219SOL    HW225557   1.811   6.883   3.170 -0.4359 -0.4376  0.8970
 8220SOL     OW25558   3.041   1.830   5.160  0.4274  0.0910 -0.1545
 8220SOL    HW125559   2.981   1.911   5.167  0.8108  0.2807  1.1799
 8220SOL    HW225560   3.008   1.759   5.223  2.0187  0.4856  1.1809
 8221SOL     OW25561   2.196   2.015   6.449 -0.3299 -0.0381 -0.1680
 8221SOL    HW125562   2.272   2.079   6.436 -1.6297  1.5857 -0.0604
 8221SOL    HW225563   2.222   1.948   6.518  1.3246 -0.0691 -0.7594
 8222SOL     OW25564   0.532   5.635   0.357  1.0270 -0.5038 -0.6485
 8222SOL    HW125565   0.629   5.653   0.339  0.7376 -0.1837 -1.9876
 8222SOL    HW225566   0.514   5.537   0.351  1.3949 -0.6427  0.3367
 8223SOL     OW25567   0.186   5.486   5.244 -0.4290  0.3564 -0.3893
 8223SOL    HW125568   0.098   5.503   5.289 -1.9060 -2.8086 -1.8009
 8223SOL    HW225569   0.176   5.499   5.146 -0.0043 -2.0970 -0.8161
 8224SOL     OW25570   6.257   5.203   6.342 -0.3111  0.1817 -0.1676
 8224SOL    HW125571   6.206   5.244   6.418 -0.3080  1.2628 -0.7223
 8224SOL    HW225572   6.221   5.238   6.256 -1.0543 -1.8653 -0.7476
 8225SOL     OW25573   3.227   6.266   4.364 -0.1128  0.0290 -0.2725
 8225SOL    HW125574   3.252   6.183   4.413 -1.0669 -0.7667 -1.0749
 8225SOL    HW225575   3.176   6.242   4.281 -0.4294  1.4140 -0.5140
 8226SOL     OW25576   3.648   2.951   5.868 -0.1497 -0.2424 -0.2645
 8226SOL    HW125577   3.655   3.036   5.921  0.7532 -0.7374  0.4508
 8226SOL    HW225578   3.562   2.950   5.817 -1.5819 -0.2141  2.0260
 8227SOL     OW25579   4.803   3.822   5.281  0.0070  0.2813 -0.2654
 8227SOL    HW125580   4.829   3.884   5.207 -1.7642  1.4927  0.0868
 8227SOL    HW225581   4.744   3.749   5.244  0.3104  0.0434 -0.2876
 8228SOL     OW25582   0.553   5.714   5.261  0.3787  0.1992  0.2715
 8228SOL    HW125583   0.470   5.760   5.230 -0.0699 -0.0459  1.0772
 8228SOL    HW225584   0.595   5.667   5.184  0.6719  1.6715 -0.4997
 8229SOL     OW25585   3.936   3.969   3.350  0.0964 -0.9343 -0.1522
 8229SOL    HW125586   3.872   3.925   3.413 -1.0869 -1.2307 -1.5078
 8229SOL    HW225587   3.903   4.060   3.328  0.2835 -0.9832 -0.6408
 8230SOL     OW25588   1.317   1.034   3.682  0.1686  0.1636  0.0532
 8230SOL    HW125589   1.271   0.976   3.749 -0.4656  0.5693 -0.0174
 8230SOL    HW225590   1.269   1.028   3.595 -0.0880  1.0178  0.1251
 8231SOL     OW25591   1.853   1.239   0.026  0.2209  0.4272  0.1595
 8231SOL    HW125592   1.940   1.211  -0.014  0.3879  0.7119  0.3237
 8231SOL    HW225593   1.810   1.309  -0.031 -0.0888  0.0046 -0.1300
 8232SOL     OW25594   3.782   4.894   4.097  0.5915 -0.3728  0.0628
 8232SOL    HW125595   3.854   4.873   4.163 -0.2529 -3.9684  0.0769
 8232SOL    HW225596   3.692   4.885   4.141  0.0552 -0.6518 -1.0389
 8233SOL     OW25597   2.554   6.571   2.762  0.0897  0.1864 -0.1700
 8233SOL    HW125598   2.485   6.537   2.698 -2.7016  1.2463  2.0761
 8233SOL    HW225599   2.552   6.515   2.845  0.7300  1.3291  0.6317
 8234SOL     OW25600   3.577   3.767   1.838 -0.3646 -0.2433 -0.2708
 8234SOL    HW125601   3.610   3.830   1.767 -0.4857  0.0178 -0.0968
 8234SOL    HW225602   3.544   3.819   1.916 -0.7880 -0.5165 -0.2645
 8235SOL     OW25603   6.006   2.371   4.654  0.4091 -0.2518  0.2005
 8235SOL    HW125604   6.055   2.388   4.739  2.4798  1.6096 -1.2496
 8235SOL    HW225605   6.071   2.356   4.579 -1.2763 -0.0595 -1.3857
 8236SOL     OW25606   4.153   0.343   6.805 -0.3651  0.0426 -0.2255
 8236SOL    HW125607   4.183   0.377   6.893 -0.3865 -0.4056 -0.0406
 8236SOL    HW225608   4.101   0.258   6.818 -1.5166  0.6706 -0.5470
 8237SOL     OW25609   1.431   0.807   5.112 -0.0034 -0.7624  0.4380
 8237SOL    HW125610   1.331   0.816   5.113 -0.2306 -1.9991 -2.3403
 8237SOL    HW225611   1.471   0.882   5.059  0.2703 -1.7633 -0.8100
 8238SOL     OW25612   6.647   6.123   5.040 -0.5485  0.0416 -0.2136
 8238SOL    HW125613   6.565   6.108   4.985 -1.1740  0.2812  0.6393
 8238SOL    HW225614   6.722   6.155   4.981 -1.4693  1.2176 -0.7826
 8239SOL     OW25615   2.261   5.777   0.624 -0.0199 -0.1741  0.2689
 8239SOL    HW125616   2.301   5.734   0.705  2.0409  0.0711 -0.5593
 8239SOL    HW225617   2.271   5.716   0.546  2.4612  1.4270 -0.8105
 8240SOL     OW25618   2.881   6.978   6.388 -0.5081 -0.0402 -0.2636
 8240SOL    HW125619   2.898   7.040   6.464 -2.7114  0.0038  0.2444
 8240SOL    HW225620   2.950   6.905   6.389 -1.4052 -1.0247  2.8736
 8241SOL     OW25621   3.385   4.289   5.940  0.0756  0.0383 -0.7186
 8241SOL    HW125622   3.306   4.332   5.985 -0.1502  0.3015 -1.3612
 8241SOL    HW225623   3.411   4.207   5.991 -0.2196  0.2925 -0.1426
 8242SOL     OW25624   4.992   4.458   1.956 -0.6872  0.2385  0.1658
 8242SOL    HW125625   4.938   4.415   2.029 -0.5888  1.4676  0.9882
 8242SOL    HW225626   4.952   4.547   1.933 -1.0949 -0.3954 -1.7500
 8243SOL     OW25627   3.276   4.060   2.975  0.8578  0.6997 -0.1750
 8243SOL    HW125628   3.374   4.053   2.994  0.9633 -0.3922 -1.0319
 8243SOL    HW225629   3.260   4.050   2.877 -0.1867 -0.0052  0.0454
 8244SOL     OW25630   3.432   5.628   0.118 -0.0330 -0.5187  0.0051
 8244SOL    HW125631   3.383   5.541   0.124  0.9657 -1.5213 -3.6247
 8244SOL    HW225632   3.367   5.702   0.105 -0.7738 -1.2148 -0.3347
 8245SOL     OW25633   6.358   2.652   4.729 -0.3897  0.0619 -0.1346
 8245SOL    HW125634   6.328   2.671   4.636  1.1743  1.0155 -0.4847
 8245SOL    HW225635   6.430   2.583   4.728  0.7989  1.2405  0.1510
 8246SOL     OW25636   2.775   0.117   2.893 -0.7078  0.0212 -0.1729
 8246SOL    HW125637   2.776   0.172   2.977  0.2831  1.1136 -0.8604
 8246SOL    HW225638   2.685   0.075   2.881 -1.0779  0.4311  1.0636
 8247SOL     OW25639   1.707   3.571   0.059 -0.2557 -0.3225  0.1161
 8247SOL    HW125640   1.711   3.671   0.065 -0.0962 -0.3110 -0.1464
 8247SOL    HW225641   1.694   3.544  -0.037 -0.4001 -0.5500  0.1998
 8248SOL     OW25642   2.426   4.650   6.529  0.0681 -1.0918 -0.2454
 8248SOL    HW125643   2.495   4.579   6.514 -0.6656 -1.7671 -0.5185
 8248SOL    HW225644   2.361   4.619   6.599 -0.8174 -1.1086 -1.0574
 8249SOL     OW25645   2.334   4.141   6.105  0.1500 -0.4172 -0.0001
 8249SOL    HW125646   2.275   4.214   6.071  1.2163  1.4684  1.9195
 8249SOL    HW225647   2.346   4.071   6.035 -2.6208  0.1764 -1.1672
 8250SOL     OW25648   3.108   3.985   4.093  0.4267 -0.2007  0.1437
 8250SOL    HW125649   3.146   3.998   4.001  0.2446  1.0928  0.2218
 8250SOL    HW225650   3.064   3.896   4.099  1.4968 -0.8028 -0.6410
 8251SOL     OW25651   5.115   6.897   6.051 -0.1834 -0.6050  0.3010
 8251SOL    HW125652   5.059   6.820   6.019 -0.2903 -1.1365  1.7017
 8251SOL    HW225653   5.073   6.983   6.022  1.3202 -1.0155 -3.6072
 8252SOL     OW25654   1.811   1.648   6.317 -0.0663  0.1462  0.4379
 8252SOL    HW125655   1.838   1.604   6.232  0.5648  0.1865  0.6176
 8252SOL    HW225656   1.880   1.715   6.343 -1.0254  1.2960  0.1393
 8253SOL     OW25657   0.558   3.295   5.619  0.4774 -0.2532 -0.0526
 8253SOL    HW125658   0.597   3.338   5.700  0.7683 -0.2971 -0.1705
 8253SOL    HW225659   0.576   3.197   5.621 -0.3142 -0.4022  0.2905
 8254SOL     OW25660   4.570   4.132   0.393  0.0437 -0.2541  0.6245
 8254SOL    HW125661   4.478   4.117   0.429 -0.3782 -0.3772 -0.4504
 8254SOL    HW225662   4.594   4.229   0.402 -1.1052  0.2392 -1.0625
 8255SOL     OW25663   6.935   1.076   4.098  0.1067  0.2126  0.0405
 8255SOL    HW125664   7.023   1.054   4.056  0.3483  0.7974  0.2367
 8255SOL    HW225665   6.861   1.036   4.043  0.4980 -0.5271  0.0324
 8256SOL     OW25666   0.788   4.658   3.974  0.2818  0.3796 -0.2102
 8256SOL    HW125667   0.870   4.626   3.926  0.2217  0.3974 -0.3234
 8256SOL    HW225668   0.815   4.722   4.046  0.2875  1.2217 -0.9451
 8257SOL     OW25669   4.426   5.857   3.832  0.0111  0.3931 -0.2365
 8257SOL    HW125670   4.328   5.846   3.817 -0.1338  1.2571  0.0050
 8257SOL    HW225671   4.470   5.888   3.747  0.1818 -0.5875 -0.5152
 8258SOL     OW25672   5.848   1.911   0.170 -0.0383 -0.1379 -0.1239
 8258SOL    HW125673   5.853   1.841   0.099 -0.1691 -1.4103  1.0735
 8258SOL    HW225674   5.934   1.914   0.221  0.2320  1.1064 -0.6294
 8259SOL     OW25675   3.460   4.138   4.970 -0.1312 -0.1358 -0.5556
 8259SOL    HW125676   3.504   4.128   4.881  0.5306 -0.7088 -0.1760
 8259SOL    HW225677   3.362   4.119   4.961 -0.2728  0.9101 -1.3626
 8260SOL     OW25678   0.367   5.753   2.872  0.6581  0.2953 -0.4978
 8260SOL    HW125679   0.291   5.806   2.835 -0.7023  0.2318  1.9615
 8260SOL    HW225680   0.378   5.668   2.820 -1.0231  0.2818 -0.8708
 8261SOL     OW25681   1.189   2.173   0.896 -0.0638 -0.5370 -0.5480
 8261SOL    HW125682   1.095   2.192   0.867  0.3384  2.5580 -0.1875
 8261SOL    HW225683   1.253   2.223   0.837  1.1907 -0.5599  0.7412
 8262SOL     OW25684   5.887   5.228   4.823  0.6941  0.8525 -0.1733
 8262SOL    HW125685   5.987   5.230   4.825  0.6991  0.1907  2.0537
 8262SOL    HW225686   5.857   5.200   4.731  2.5449  0.5806 -0.7460
 8263SOL     OW25687   6.757   5.175   4.371  0.2379 -0.1730 -0.5474
 8263SOL    HW125688   6.748   5.269   4.339 -0.6168 -0.6469 -1.8179
 8263SOL    HW225689   6.722   5.113   4.301  2.4513 -1.5639 -0.5253
 8264SOL     OW25690   0.688   6.389   6.846  0.1088  0.2690 -0.5633
 8264SOL    HW125691   0.596   6.368   6.879  0.9997 -2.0289  0.7207
 8264SOL    HW225692   0.714   6.482   6.875 -1.7262  0.9090 -0.8720
 8265SOL     OW25693   1.780   3.807   1.422 -0.5830 -0.0540  0.3957
 8265SOL    HW125694   1.854   3.785   1.485  0.0096 -0.0348 -0.2774
 8265SOL    HW225695   1.806   3.778   1.329 -1.9596 -1.2464  0.3499
 8266SOL     OW25696   3.872   0.165   6.613  0.3088 -0.3285 -0.1154
 8266SOL    HW125697   3.801   0.104   6.578  0.9447 -0.6428 -0.9075
 8266SOL    HW225698   3.834   0.256   6.627 -1.0091 -1.1883  2.4081
 8267SOL     OW25699   3.362   2.572   7.010 -0.1453 -0.7794  0.0429
 8267SOL    HW125700   3.272   2.560   7.051 -0.1770 -1.7011 -0.2733
 8267SOL    HW225701   3.353   2.601   6.915 -0.0781  0.6089  0.4349
 8268SOL     OW25702   5.300   2.371   6.243  0.3676 -0.0915 -0.1106
 8268SOL    HW125703   5.368   2.423   6.295  1.2011 -0.7769 -0.4881
 8268SOL    HW225704   5.208   2.394   6.275  0.7809  0.7494  0.5046
 8269SOL     OW25705   2.770   4.100   1.171  0.1358 -0.2336  0.3497
 8269SOL    HW125706   2.808   4.144   1.252 -1.2716  0.4870  0.6521
 8269SOL    HW225707   2.738   4.008   1.196  1.2408 -0.6699  0.1958
 8270SOL     OW25708   4.843   6.085   3.022 -0.0175  0.0685 -0.5712
 8270SOL    HW125709   4.851   6.001   3.074 -0.3069  0.0453 -0.5627
 8270SOL    HW225710   4.813   6.159   3.082 -0.1518  0.0882 -0.6623
 8271SOL     OW25711   2.867   2.967   0.828  0.5355 -0.7515  0.2474
 8271SOL    HW125712   2.862   2.872   0.858  0.8063 -0.6596  0.5918
 8271SOL    HW225713   2.878   3.026   0.907  1.0070 -0.4854 -0.0088
 8272SOL     OW25714   5.714   3.717   5.186  0.5121  0.3374 -0.1961
 8272SOL    HW125715   5.631   3.715   5.131 -0.0548  2.5877  0.4393
 8272SOL    HW225716   5.713   3.642   5.252 -0.6345 -0.1122 -0.7019
 8273SOL     OW25717   3.365   0.288   4.643  0.4890  0.8239  0.6410
 8273SOL    HW125718   3.320   0.261   4.558  0.8959  0.8867  0.4048
 8273SOL    HW225719   3.464   0.293   4.629  0.6404  0.0366  1.3224
 8274SOL     OW25720   1.953   3.339   1.349  0.2564 -0.2586 -0.5755
 8274SOL    HW125721   1.922   3.345   1.444  1.3012  0.1402 -0.2413
 8274SOL    HW225722   1.891   3.280   1.297 -2.1913  2.0478 -0.4616
 8275SOL     OW25723   0.585   0.472   4.545 -0.3595 -0.1425  0.4303
 8275SOL    HW125724   0.579   0.372   4.555 -0.6828 -0.1834 -0.1699
 8275SOL    HW225725   0.566   0.497   4.451 -1.3776  0.5792  0.8205
 8276SOL     OW25726   0.387   2.628   4.269 -0.2915 -0.2593  0.0033
 8276SOL    HW125727   0.419   2.717   4.302 -0.2973  0.5904 -2.1505
 8276SOL    HW225728   0.389   2.562   4.345  1.6713  1.0319  1.1723
 8277SOL     OW25729   6.495   3.204   2.639 -0.9120  0.0928 -0.5939
 8277SOL    HW125730   6.490   3.182   2.736  0.4399 -0.0995 -0.5568
 8277SOL    HW225731   6.461   3.127   2.585  0.0191 -0.5232 -0.3207
 8278SOL     OW25732   1.047   2.759   0.746  0.0554 -0.6562  0.0896
 8278SOL    HW125733   1.114   2.833   0.741 -1.0654  0.3878 -0.2248
 8278SOL    HW225734   0.980   2.780   0.817 -0.5583 -1.1219 -0.3357
 8279SOL     OW25735   3.110   6.546   6.668  0.8157  0.3528 -0.1060
 8279SOL    HW125736   3.033   6.593   6.712  0.7308  0.8690 -0.7993
 8279SOL    HW225737   3.077   6.497   6.587  1.5995  2.6229 -1.8649
 8280SOL     OW25738   0.970   3.534   1.410 -0.0340 -0.5555  0.4610
 8280SOL    HW125739   0.919   3.449   1.415 -0.3808 -0.3609  0.2788
 8280SOL    HW225740   0.921   3.599   1.352 -0.4797  0.2343  1.6796
 8281SOL     OW25741   4.409   4.005   5.441 -0.0776  0.2911  0.1621
 8281SOL    HW125742   4.434   4.076   5.375  1.0871  1.2973  1.6032
 8281SOL    HW225743   4.325   4.031   5.487 -0.1223  0.3084  0.0705
 8282SOL     OW25744   4.516   1.441   5.974 -0.5251  0.3507  0.4183
 8282SOL    HW125745   4.430   1.399   6.004 -1.1298  0.6480 -0.8581
 8282SOL    HW225746   4.538   1.517   6.036 -0.8201 -0.1419  1.1516
 8283SOL     OW25747   1.612   5.914   4.252  0.7397 -0.4619 -0.0945
 8283SOL    HW125748   1.567   5.924   4.163  1.1964 -0.0554 -0.2894
 8283SOL    HW225749   1.625   5.817   4.272 -0.6603 -0.6079  0.2063
 8284SOL     OW25750   3.554   1.149   6.586 -0.3750 -0.0590  0.8355
 8284SOL    HW125751   3.513   1.111   6.503  0.4686 -1.0875  0.8644
 8284SOL    HW225752   3.553   1.080   6.658  0.0244  0.4114  1.2948
 8285SOL     OW25753   1.494   2.240   4.879  0.3336 -0.0013 -0.1625
 8285SOL    HW125754   1.429   2.315   4.873 -0.1610 -0.2804  1.3463
 8285SOL    HW225755   1.445   2.153   4.888  0.9108 -0.3841 -0.5987
 8286SOL     OW25756   0.188   1.909   0.631  0.0545  0.5900  0.6920
 8286SOL    HW125757   0.116   1.928   0.564  0.0613 -0.9990  0.1783
 8286SOL    HW225758   0.155   1.841   0.696  0.7319  0.6471  1.0993
 8287SOL     OW25759   4.820   2.582   4.526  0.2704 -0.4259 -0.5883
 8287SOL    HW125760   4.720   2.574   4.525  0.2654 -1.0326  1.2600
 8287SOL    HW225761   4.849   2.630   4.609  1.5521 -0.7545 -0.8262
 8288SOL     OW25762   5.989   3.169   3.597 -0.2268 -0.1742  0.0463
 8288SOL    HW125763   5.908   3.227   3.597 -1.6353 -2.0081  1.4765
 8288SOL    HW225764   5.966   3.079   3.562  1.6486 -0.2538 -1.1383
 8289SOL     OW25765   6.031   5.749   3.176  0.2091  0.3169  0.0950
 8289SOL    HW125766   5.940   5.776   3.145  0.9004  0.8637 -1.5373
 8289SOL    HW225767   6.070   5.822   3.232  0.3256  0.8220 -0.6405
 8290SOL     OW25768   2.061   5.247   4.846 -0.2295  0.1971 -0.3819
 8290SOL    HW125769   2.058   5.318   4.776  2.2012  0.5510 -0.2000
 8290SOL    HW225770   1.968   5.217   4.867 -1.6915  4.7568  0.9814
 8291SOL     OW25771   0.402   6.458   0.427  0.0761  0.2012  0.2989
 8291SOL    HW125772   0.441   6.371   0.397  0.3973  0.8593 -1.2861
 8291SOL    HW225773   0.337   6.491   0.358 -0.6711  0.8188  1.2756
 8292SOL     OW25774   2.937   1.775   6.190  0.1504  0.2054  0.2532
 8292SOL    HW125775   2.870   1.757   6.118 -0.3811 -0.4814  0.9020
 8292SOL    HW225776   2.986   1.860   6.170 -0.0083  0.0414 -0.8917
 8293SOL     OW25777   2.342   1.431   3.577  0.8434  0.4501 -0.7987
 8293SOL    HW125778   2.294   1.360   3.628  1.8769 -0.5187 -1.1343
 8293SOL    HW225779   2.276   1.486   3.525  0.0034 -0.0565 -0.2814
 8294SOL     OW25780   4.250   1.455   3.285 -0.4335  0.5298 -0.1211
 8294SOL    HW125781   4.248   1.477   3.382 -0.0938  2.3432 -0.4941
 8294SOL    HW225782   4.343   1.466   3.250 -0.6416  0.3519 -0.7519
 8295SOL     OW25783   1.104   5.201   2.114 -0.0086  0.0530 -0.4067
 8295SOL    HW125784   1.154   5.136   2.171  0.2539 -0.1566 -0.8763
 8295SOL    HW225785   1.013   5.217   2.153 -0.0833 -0.6139 -0.3077
 8296SOL     OW25786   2.643   1.064   6.125  0.2741  0.2219  0.3657
 8296SOL    HW125787   2.628   1.162   6.117  0.7652  0.3356  0.7437
 8296SOL    HW225788   2.739   1.047   6.149  0.4843 -0.4054 -0.8270
 8297SOL     OW25789   5.592   0.438   3.361 -0.0495  0.1325 -0.8217
 8297SOL    HW125790   5.577   0.537   3.360  2.9440  0.6878 -0.4519
 8297SOL    HW225791   5.690   0.419   3.352 -0.6717 -2.8864 -2.6234
 8298SOL     OW25792   6.848   6.851   2.361  0.6814  0.2710 -0.0153
 8298SOL    HW125793   6.921   6.920   2.356 -0.0944  1.0063 -2.4089
 8298SOL    HW225794   6.869   6.776   2.299  1.2983 -1.5274  2.2497
 8299SOL     OW25795   5.152   5.003   4.557  0.0163  0.1714 -0.1053
 8299SOL    HW125796   5.213   5.082   4.548  0.9446 -0.4589  0.4434
 8299SOL    HW225797   5.187   4.942   4.629 -0.4631 -0.9183 -0.7670
 8300SOL     OW25798   3.824   1.457   0.828  0.0548  0.3132  0.0950
 8300SOL    HW125799   3.832   1.484   0.924  4.5466 -1.6471  0.5239
 8300SOL    HW225800   3.872   1.524   0.771  1.3123 -0.7754 -0.1686
 8301SOL     OW25801   2.115   0.362   2.830 -0.3725  0.2160  0.2916
 8301SOL    HW125802   2.047   0.291   2.811  0.4500 -0.2063 -1.1992
 8301SOL    HW225803   2.070   0.441   2.871 -1.8533  0.1133 -1.0519
 8302SOL     OW25804   5.503   0.805   5.619  0.4205 -0.3959  0.4243
 8302SOL    HW125805   5.534   0.759   5.702 -2.2800 -0.5063  1.4745
 8302SOL    HW225806   5.409   0.780   5.600  1.1542 -0.9970 -3.1964
 8303SOL     OW25807   5.852   2.829   3.285  0.0128 -0.1844 -0.0516
 8303SOL    HW125808   5.845   2.929   3.286 -0.5616 -0.2261  0.5982
 8303SOL    HW225809   5.783   2.791   3.224 -0.2297 -0.2194  0.2455
 8304SOL     OW25810   5.862   2.852   5.289 -0.0777  0.1418 -0.1065
 8304SOL    HW125811   5.841   2.948   5.275 -0.4428  0.0205 -0.3970
 8304SOL    HW225812   5.777   2.800   5.300  0.1389  0.1227  1.8932
 8305SOL     OW25813   4.939   1.054   3.718  0.0500 -0.0479 -0.3943
 8305SOL    HW125814   4.889   1.104   3.647  2.0097  1.6345 -0.6898
 8305SOL    HW225815   4.884   1.050   3.801  0.1750  3.6523  0.0125
 8306SOL     OW25816   5.960   6.258   6.115  0.2196  0.8990  0.3571
 8306SOL    HW125817   5.865   6.283   6.132  0.5760  1.6172  1.3835
 8306SOL    HW225818   5.988   6.186   6.179 -0.4776 -1.5054 -1.8695
 8307SOL     OW25819   3.135   0.880   0.385 -0.0294  0.0613 -0.5798
 8307SOL    HW125820   3.119   0.853   0.480  0.4829 -0.1946 -0.5589
 8307SOL    HW225821   3.202   0.954   0.382  0.6619 -0.5548 -0.7813
 8308SOL     OW25822   0.613   1.126   3.700 -0.2806  0.2275  0.1770
 8308SOL    HW125823   0.601   1.225   3.706 -1.4210  0.1109  0.0548
 8308SOL    HW225824   0.701   1.101   3.740  0.4000  1.3702 -0.5347
 8309SOL     OW25825   1.818   1.161   5.039 -0.3059  0.1072  0.0826
 8309SOL    HW125826   1.906   1.188   4.999 -0.3805 -1.0484 -0.9264
 8309SOL    HW225827   1.833   1.089   5.106 -0.4122  0.4768  0.5084
 8310SOL     OW25828   5.441   1.453   3.334 -0.2534  0.0657 -0.6059
 8310SOL    HW125829   5.369   1.428   3.269 -1.3362  0.8664  0.2406
 8310SOL    HW225830   5.434   1.551   3.355  0.4191 -0.0667  0.2869
 8311SOL     OW25831   2.518   3.530   0.093 -0.0182  0.5059  0.1319
 8311SOL    HW125832   2.506   3.439   0.054  0.3457 -0.3059  1.8318
 8311SOL    HW225833   2.431   3.561   0.132 -0.0256  0.7188 -0.0447
 8312SOL     OW25834   0.707   3.755   5.586  0.0934 -0.4480 -1.0513
 8312SOL    HW125835   0.739   3.662   5.605 -0.8486 -0.6616 -0.4214
 8312SOL    HW225836   0.738   3.784   5.496 -1.0796 -2.0611 -2.0358
 8313SOL     OW25837   4.770   1.138   0.293  0.5386 -0.0519  0.1591
 8313SOL    HW125838   4.749   1.112   0.198  0.8190  0.7152 -0.1279
 8313SOL    HW225839   4.853   1.193   0.294  0.4982  0.0028  0.8487
 8314SOL     OW25840   2.045   3.402   5.033 -0.4388 -0.5249  0.1962
 8314SOL    HW125841   2.068   3.309   5.005  1.3575 -0.2965  0.7936
 8314SOL    HW225842   1.947   3.407   5.055 -1.0180 -1.7198 -1.8717
 8315SOL     OW25843   4.972   5.590   3.271 -0.0243  0.0198 -0.6344
 8315SOL    HW125844   5.056   5.600   3.325 -0.5157 -0.2177  0.1877
 8315SOL    HW225845   4.927   5.504   3.295 -1.1998  0.7742 -0.0947
 8316SOL     OW25846   2.469   5.417   6.659  0.3412  0.3165  0.2109
 8316SOL    HW125847   2.528   5.336   6.662  0.6461  0.5129 -0.4420
 8316SOL    HW225848   2.374   5.388   6.646  0.3347  0.0194  0.8738
 8317SOL     OW25849   6.226   0.662   4.006 -0.2218 -0.9137  0.5411
 8317SOL    HW125850   6.136   0.694   4.036  0.0979 -0.5646  1.1696
 8317SOL    HW225851   6.293   0.682   4.078  0.0823 -2.6150  0.7724
 8318SOL     OW25852   2.962   5.325   1.666  0.0273 -0.5207  0.0618
 8318SOL    HW125853   3.053   5.298   1.634  0.9601 -1.0155  2.9057
 8318SOL    HW225854   2.965   5.343   1.764 -2.3130  2.4333 -0.2826
 8319SOL     OW25855   0.558   5.593   4.115 -0.4627  0.3512  0.6479
 8319SOL    HW125856   0.560   5.676   4.059  0.2338 -0.0061  0.1228
 8319SOL    HW225857   0.526   5.516   4.059  0.1118  0.0168  0.7760
 8320SOL     OW25858   4.115   2.745   5.292 -0.3824 -0.1215  0.3663
 8320SOL    HW125859   4.091   2.744   5.389 -1.1499 -0.2826  0.1781
 8320SOL    HW225860   4.105   2.653   5.254 -0.0850 -0.0574  0.1308
 8321SOL     OW25861   2.917   6.928   5.441  0.2473 -0.1269 -0.6437
 8321SOL    HW125862   2.932   6.829   5.440  0.3629 -0.1737  1.6685
 8321SOL    HW225863   2.835   6.949   5.387 -1.1708 -1.7759  0.7589
 8322SOL     OW25864   6.749   6.585   5.757  0.6146 -0.4271  0.2445
 8322SOL    HW125865   6.758   6.551   5.663 -0.0786 -1.4017  0.5102
 8322SOL    HW225866   6.832   6.636   5.782  1.0999 -0.7454 -0.6573
 8323SOL     OW25867   0.528   5.899   2.228  0.0566  0.1358  0.0631
 8323SOL    HW125868   0.510   5.992   2.262 -1.9053  0.4538 -1.6560
 8323SOL    HW225869   0.622   5.894   2.194  0.2818  1.4234  0.4398
 8324SOL     OW25870   2.118   5.945   2.141 -0.2567  0.0538  0.6645
 8324SOL    HW125871   2.174   6.023   2.170  0.8181  0.1796 -1.5277
 8324SOL    HW225872   2.142   5.864   2.195 -1.4256  1.1657  3.0179
 8325SOL     OW25873   4.122   3.235   6.660 -0.1355 -0.2580  0.1585
 8325SOL    HW125874   4.169   3.179   6.592 -0.3992  0.2477 -0.4519
 8325SOL    HW225875   4.139   3.331   6.642 -1.4132 -0.0525 -0.1078
 8326SOL     OW25876   1.451   3.252   2.801 -0.1853  0.0387 -0.1732
 8326SOL    HW125877   1.475   3.224   2.894 -1.4878  0.5279  0.3451
 8326SOL    HW225878   1.443   3.352   2.798 -1.9642 -0.0815 -0.3127
 8327SOL     OW25879   3.525   0.244   3.160 -0.4491 -0.5450  0.1453
 8327SOL    HW125880   3.603   0.250   3.222 -0.9970  1.6085  0.6884
 8327SOL    HW225881   3.538   0.167   3.098  1.3296 -1.1958  1.2599
 8328SOL     OW25882   0.380   1.688   6.095  0.2007  0.2404  0.1423
 8328SOL    HW125883   0.398   1.590   6.088 -0.7600 -0.1280  2.1461
 8328SOL    HW225884   0.444   1.737   6.037  0.2081 -1.5947 -1.5031
 8329SOL     OW25885   6.418   3.173   6.287  0.4679 -0.1811 -0.1070
 8329SOL    HW125886   6.394   3.268   6.303  0.8156 -0.6024  3.6843
 8329SOL    HW225887   6.517   3.160   6.296  0.3668 -0.9945 -0.0323
 8330SOL     OW25888   1.259   4.844   4.623  0.4042  0.1002  0.3728
 8330SOL    HW125889   1.174   4.828   4.674 -0.5920  0.5235 -1.0795
 8330SOL    HW225890   1.248   4.926   4.566  1.5419 -0.2445 -0.3749
 8331SOL     OW25891   2.256   0.608   5.111  0.2741 -0.0641 -0.3940
 8331SOL    HW125892   2.283   0.704   5.110  0.7116 -0.1891 -0.9298
 8331SOL    HW225893   2.311   0.559   5.178  0.4027 -0.0383 -0.4796
 8332SOL     OW25894   5.892   4.901   1.476  0.5342  0.6313 -0.0779
 8332SOL    HW125895   5.805   4.886   1.428  0.5429  0.2509  0.0223
 8332SOL    HW225896   5.964   4.848   1.430 -0.0702 -2.5987  2.3147
 8333SOL     OW25897   3.134   1.338   1.859  0.2591  0.0829  0.1339
 8333SOL    HW125898   3.125   1.413   1.795  1.7089  0.8683  0.7951
 8333SOL    HW225899   3.171   1.257   1.812 -1.1471 -0.1919 -0.5397
 8334SOL     OW25900   1.619   6.423   1.992  0.4682  0.3016  0.0635
 8334SOL    HW125901   1.661   6.470   2.070 -0.5402 -0.4920  1.1342
 8334SOL    HW225902   1.562   6.347   2.026 -0.9118  0.6451 -1.3762
 8335SOL     OW25903   0.499   0.138   6.703  0.2246 -0.1304  0.0244
 8335SOL    HW125904   0.526   0.199   6.629 -0.2195 -0.4134 -0.3764
 8335SOL    HW225905   0.434   0.070   6.669 -1.0029  0.5326  0.9576
 8336SOL     OW25906   1.652   2.526   5.183  0.1056 -0.0887  0.2603
 8336SOL    HW125907   1.656   2.453   5.115  0.4493  0.8230 -0.7386
 8336SOL    HW225908   1.631   2.488   5.273 -1.1716 -1.2274 -0.4967
 8337SOL     OW25909   3.206   0.527   6.380  0.1164 -0.1591 -0.0777
 8337SOL    HW125910   3.231   0.524   6.477 -2.6488 -1.9155  0.6891
 8337SOL    HW225911   3.189   0.622   6.354  1.8346  0.4494  0.8361
 8338SOL     OW25912   6.990   3.735   0.524  0.1617  0.0940  0.0941
 8338SOL    HW125913   6.930   3.809   0.493  0.1972  0.5139  0.9742
 8338SOL    HW225914   6.942   3.680   0.593 -0.0979 -1.1228 -1.0331
 8339SOL     OW25915   2.761   1.089   1.375 -0.0972 -0.6168 -0.3979
 8339SOL    HW125916   2.805   1.027   1.309  0.0309  1.1834 -2.0816
 8339SOL    HW225917   2.783   1.183   1.352  0.1012  0.1020  2.3953
 8340SOL     OW25918   2.792   4.610   5.648 -0.2718  0.2947 -0.5325
 8340SOL    HW125919   2.864   4.547   5.676 -3.2217 -2.3682  1.8432
 8340SOL    HW225920   2.762   4.587   5.556 -0.8685 -1.5056  0.0582
 8341SOL     OW25921   6.833   2.846   1.024 -0.3032  0.0599  0.2745
 8341SOL    HW125922   6.906   2.783   1.051  1.3948  2.1747  0.9269
 8341SOL    HW225923   6.747   2.795   1.013  1.1343 -2.4521 -0.0967
 8342SOL     OW25924   1.196   0.259   4.725 -0.3660 -0.2324 -0.2475
 8342SOL    HW125925   1.114   0.307   4.757 -1.0306 -1.7078  0.3250
 8342SOL    HW225926   1.169   0.181   4.669  0.7364  1.0435 -2.7395
 8343SOL     OW25927   5.183   0.326   6.449  0.2289  0.1182  0.4208
 8343SOL    HW125928   5.087   0.301   6.441  0.4992 -0.8152  0.0599
 8343SOL    HW225929   5.189   0.419   6.485 -0.8229  0.6196 -0.6270
 8344SOL     OW25930   6.762   2.167   4.776 -0.1457 -0.1462 -0.3578
 8344SOL    HW125931   6.693   2.097   4.795 -0.9296  0.3809 -1.2072
 8344SOL    HW225932   6.763   2.234   4.850 -0.5793 -0.1268 -0.3692
 8345SOL     OW25933   6.954   3.257   2.980  0.2115  0.4450 -0.4837
 8345SOL    HW125934   6.981   3.221   2.890 -0.1173 -0.7623 -0.1261
 8345SOL    HW225935   6.964   3.185   3.049 -0.0388  1.1987  0.3598
 8346SOL     OW25936   6.731   1.232   2.949 -0.1437  0.4553  0.2127
 8346SOL    HW125937   6.770   1.263   3.036  1.2095 -0.2817 -0.1055
 8346SOL    HW225938   6.780   1.151   2.917 -0.9286  0.4330 -1.0128
 8347SOL     OW25939   5.351   3.112   4.278  0.4193 -0.6444 -0.1635
 8347SOL    HW125940   5.412   3.189   4.294 -0.1736 -0.3333  0.6279
 8347SOL    HW225941   5.291   3.133   4.201 -0.4278  0.1137  0.6848
 8348SOL     OW25942   2.138   0.293   6.771  0.0134  0.2855  0.3291
 8348SOL    HW125943   2.212   0.258   6.828 -0.1367 -1.2095 -0.3437
 8348SOL    HW225944   2.083   0.216   6.738 -0.9332  1.2594 -0.4139
 8349SOL     OW25945   3.071   4.088   6.191 -0.3951  0.3419 -0.1218
 8349SOL    HW125946   2.977   4.095   6.222 -0.2237 -2.0717  1.2402
 8349SOL    HW225947   3.128   4.154   6.240 -1.3290  1.8641 -1.0095
 8350SOL     OW25948   1.667   6.829   3.060 -0.8166 -0.9970 -0.1813
 8350SOL    HW125949   1.605   6.871   3.127 -3.3890 -3.8743 -0.4975
 8350SOL    HW225950   1.679   6.891   2.982 -1.1325  0.7279  1.0819
 8351SOL     OW25951   1.350   6.817   5.956  0.3577  0.6099 -0.1590
 8351SOL    HW125952   1.423   6.875   5.920 -0.2022  0.8771 -0.9049
 8351SOL    HW225953   1.269   6.874   5.974  0.3873  0.3468  0.8237
 8352SOL     OW25954   3.306   5.365   4.083  0.0537  0.6014  0.3229
 8352SOL    HW125955   3.251   5.312   4.018  0.1388  0.4060  0.4099
 8352SOL    HW225956   3.376   5.416   4.033  2.3885 -2.1851  0.4609
 8353SOL     OW25957   2.223   2.097   6.020  0.4343  0.4097 -0.1619
 8353SOL    HW125958   2.287   2.170   6.041  1.3924  0.3418 -2.5627
 8353SOL    HW225959   2.198   2.100   5.923  0.7804 -2.6294 -0.4597
 8354SOL     OW25960   3.218   0.557   6.658 -0.6346 -0.0633  0.0174
 8354SOL    HW125961   3.274   0.494   6.712  0.3499  0.4144 -0.4251
 8354SOL    HW225962   3.165   0.616   6.720 -1.9636 -1.6270  0.4368
 8355SOL     OW25963   2.483   1.683   3.415 -0.1552  0.2173  0.2272
 8355SOL    HW125964   2.559   1.625   3.386 -0.9969 -0.4056 -0.7978
 8355SOL    HW225965   2.510   1.736   3.495  2.0962  1.6059 -1.3335
 8356SOL     OW25966   5.734   6.795   6.655 -0.5514 -0.0269 -0.5063
 8356SOL    HW125967   5.731   6.722   6.587  0.4378 -1.0432  0.5030
 8356SOL    HW225968   5.826   6.801   6.693 -0.9043  1.0191  0.2317
 8357SOL     OW25969   1.677   3.792   6.868  0.4419 -0.0302  0.3089
 8357SOL    HW125970   1.777   3.784   6.865  0.3405 -2.7571  1.3018
 8357SOL    HW225971   1.651   3.865   6.930  1.8065  0.9993 -0.2810
 8358SOL     OW25972   6.979   4.126   4.877  0.1539 -0.1530 -0.1432
 8358SOL    HW125973   6.985   4.150   4.973  0.8551 -0.3488 -0.1349
 8358SOL    HW225974   6.963   4.028   4.868  1.7508 -0.4341 -0.2346
 8359SOL     OW25975   4.899   3.885   3.776  0.3966 -0.3334 -0.7161
 8359SOL    HW125976   4.848   3.963   3.811  3.0611  1.3487 -0.2782
 8359SOL    HW225977   4.873   3.803   3.826 -0.3884  0.8399  0.8927
 8360SOL     OW25978   3.844   0.637   5.726 -0.0664  0.4141  0.0357
 8360SOL    HW125979   3.923   0.638   5.664  0.2944  1.4420  0.4899
 8360SOL    HW225980   3.876   0.622   5.819 -0.4901  0.0774  0.1269
 8361SOL     OW25981   6.636   0.562   6.003 -0.1602  0.2202 -0.5491
 8361SOL    HW125982   6.638   0.608   5.914 -0.1296  0.0026 -0.6625
 8361SOL    HW225983   6.596   0.471   5.992 -2.3314  1.0512  0.0686
 8362SOL     OW25984   5.727   6.286   2.786 -0.3225  0.2041 -0.6822
 8362SOL    HW125985   5.781   6.235   2.853 -3.1645 -0.5196  1.2183
 8362SOL    HW225986   5.733   6.384   2.805  0.0318  0.1112 -0.2968
 8363SOL     OW25987   5.269   0.889   1.552 -0.6090  0.5508  0.6848
 8363SOL    HW125988   5.277   0.984   1.521 -0.5122 -0.0732 -1.3693
 8363SOL    HW225989   5.188   0.880   1.610 -1.6757  1.5755 -0.5625
 8364SOL     OW25990   2.479   2.852   5.857  0.2737 -0.5325  0.5857
 8364SOL    HW125991   2.497   2.886   5.949 -1.0793 -0.2972  0.7897
 8364SOL    HW225992   2.560   2.865   5.800  0.2452  1.9255  0.9953
 8365SOL     OW25993   6.499   6.900   3.286 -0.5415 -0.3609 -0.3029
 8365SOL    HW125994   6.534   6.873   3.197 -1.8245 -0.2921 -0.8463
 8365SOL    HW225995   6.454   6.823   3.330 -1.6644  0.0985 -0.6014
 8366SOL     OW25996   3.103   1.423   0.079  0.3918  0.3068 -0.3988
 8366SOL    HW125997   3.061   1.447  -0.009  0.2233 -0.9761 -0.6864
 8366SOL    HW225998   3.034   1.428   0.151  0.4221  0.9192 -0.4068
 8367SOL     OW25999   1.865   1.349   2.346  0.3066  0.2345 -0.4415
 8367SOL    HW126000   1.869   1.443   2.313 -0.9085  0.5558  0.2820
 8367SOL    HW226001   1.787   1.302   2.305  0.5497 -0.2789 -0.3317
 8368SOL     OW26002   6.095   3.097   0.604 -0.1449  0.1610  0.4047
 8368SOL    HW126003   6.087   3.003   0.571 -2.4483 -0.4464  2.3964
 8368SOL    HW226004   6.006   3.142   0.599  0.7192  1.9490  0.3389
 8369SOL     OW26005   3.352   3.021   1.553  0.5154  0.0915 -0.3288
 8369SOL    HW126006   3.406   3.090   1.505 -0.3986  1.0890  0.0329
 8369SOL    HW226007   3.281   2.985   1.491  1.1577 -0.7335 -0.5998
 8370SOL     OW26008   0.360   2.033   5.106  0.0482 -0.3352  0.4317
 8370SOL    HW126009   0.364   2.083   5.020  1.4142 -0.1616  0.5671
 8370SOL    HW226010   0.453   2.019   5.141 -0.3202 -2.4125  0.7265
 8371SOL     OW26011   1.905   6.921   1.537  0.0115 -0.4329  0.1390
 8371SOL    HW126012   1.962   6.846   1.503  1.2675  0.7779 -0.5560
 8371SOL    HW226013   1.853   6.961   1.461 -0.3296 -0.3318  0.4244
 8372SOL     OW26014   0.171   5.100   1.744 -0.4930  0.6690 -0.1556
 8372SOL    HW126015   0.081   5.076   1.708 -0.2049 -0.9269  0.1297
 8372SOL    HW226016   0.192   5.195   1.719 -2.3671  1.1801  0.0324
 8373SOL     OW26017   5.061   2.633   0.978 -0.0538  0.1320  0.6583
 8373SOL    HW126018   5.052   2.686   0.893  3.1905 -0.9890 -0.5281
 8373SOL    HW226019   5.134   2.673   1.034 -0.2766 -0.7883  1.6322
 8374SOL     OW26020   0.426   4.039   6.946 -0.0199  0.6412  0.2391
 8374SOL    HW126021   0.469   4.069   6.861  2.1761 -2.0711  0.2740
 8374SOL    HW226022   0.384   3.950   6.932  0.3789  0.1494  1.9721
 8375SOL     OW26023   6.260   0.331   5.679 -0.6332 -0.3356 -0.9626
 8375SOL    HW126024   6.179   0.353   5.624  0.7779  0.0477 -2.9861
 8375SOL    HW226025   6.341   0.334   5.621  0.9812  0.2897  1.2241
 8376SOL     OW26026   0.970   5.789   5.511  0.4053  0.1940  0.2001
 8376SOL    HW126027   0.994   5.863   5.448  0.1728  0.9218  0.9445
 8376SOL    HW226028   1.044   5.778   5.579 -0.5188  1.2443  1.4222
 8377SOL     OW26029   5.039   4.061   1.639  0.1430 -0.5230  0.1260
 8377SOL    HW126030   5.055   3.970   1.680 -0.7303 -0.4883  0.5513
 8377SOL    HW226031   5.083   4.130   1.696  1.1215 -0.6938 -0.3903
 8378SOL     OW26032   4.851   1.386   1.358 -0.5312  0.5372  0.3879
 8378SOL    HW126033   4.794   1.425   1.431 -0.7862  1.3868 -0.2346
 8378SOL    HW226034   4.804   1.399   1.270  0.3346  0.6821 -0.0642
 8379SOL     OW26035   5.284   5.047   0.927  1.0024  0.1410  0.4292
 8379SOL    HW126036   5.306   4.978   0.996  2.7034  1.8824  1.7129
 8379SOL    HW226037   5.367   5.096   0.900 -0.4541  3.8595  1.9931
 8380SOL     OW26038   2.917   6.749   2.150  0.4011 -0.0431 -0.0550
 8380SOL    HW126039   2.933   6.743   2.249  0.1107  1.9975  0.1612
 8380SOL    HW226040   2.818   6.748   2.133  0.3661  1.8291 -0.1005
 8381SOL     OW26041   1.702   3.203   3.358  0.6860  0.3352  0.2563
 8381SOL    HW126042   1.700   3.165   3.451  0.3318 -2.2326 -0.7284
 8381SOL    HW226043   1.775   3.159   3.306 -0.0814  0.6511 -1.1240
 8382SOL     OW26044   2.918   0.728   6.815 -0.4188 -0.4337 -0.1533
 8382SOL    HW126045   2.981   0.692   6.883 -1.3918 -1.9786 -0.0014
 8382SOL    HW226046   2.826   0.732   6.853 -0.7517 -0.0754 -0.9637
 8383SOL     OW26047   0.904   3.818   0.333 -0.0866 -0.7600 -0.6356
 8383SOL    HW126048   0.855   3.731   0.322  1.2126 -1.5168 -0.7501
 8383SOL    HW226049   0.972   3.808   0.406 -0.2380  0.3231 -0.3327
 8384SOL     OW26050   4.613   0.041   2.022  0.4184 -0.2498 -0.3146
 8384SOL    HW126051   4.576  -0.052   2.034  0.8250 -0.5850 -1.5137
 8384SOL    HW226052   4.658   0.047   1.933  3.7692 -0.0378  1.2366
 8385SOL     OW26053   3.772   5.516   4.719 -1.1732  0.2418  0.1197
 8385SOL    HW126054   3.838   5.586   4.689  1.8156 -2.7773 -1.0637
 8385SOL    HW226055   3.754   5.453   4.643 -0.4086 -2.5967  2.1166
 8386SOL     OW26056   0.975   0.347   2.412  0.4998  0.0461  0.5606
 8386SOL    HW126057   0.996   0.331   2.315  0.2507 -0.2206  0.5508
 8386SOL    HW226058   0.879   0.325   2.429  0.9239 -1.4143  1.2062
 8387SOL     OW26059   1.477   5.082   4.661 -0.4655  0.0345  0.3523
 8387SOL    HW126060   1.476   5.141   4.741 -0.3755  0.0727  0.3249
 8387SOL    HW226061   1.442   5.133   4.582  0.3831  0.3122  0.1448
 8388SOL     OW26062   2.536   3.250   5.924  0.8735 -0.1972 -0.3241
 8388SOL    HW126063   2.449   3.263   5.876  0.0456  2.9013  1.7386
 8388SOL    HW226064   2.569   3.157   5.908 -2.4967 -1.3141 -1.6499
 8389SOL     OW26065   2.263   1.911   4.628  0.1913 -0.1074 -0.2694
 8389SOL    HW126066   2.285   1.915   4.726 -2.0273  1.0791  0.2352
 8389SOL    HW226067   2.334   1.958   4.576  0.2777  1.2378  1.0087
 8390SOL     OW26068   1.955   5.016   2.939 -0.2523  0.5561 -0.3814
 8390SOL    HW126069   1.872   5.051   2.894  0.5395  0.3397 -2.0883
 8390SOL    HW226070   1.941   5.015   3.038 -3.4028 -2.2162 -0.6862
 8391SOL     OW26071   3.294   0.802   3.328 -0.4291  0.0993  0.7784
 8391SOL    HW126072   3.220   0.865   3.353  0.0600  0.7414  0.6533
 8391SOL    HW226073   3.355   0.848   3.263  1.6569  0.6179  2.9620
 8392SOL     OW26074   6.259   5.953   2.214  0.1501  0.6916  0.1718
 8392SOL    HW126075   6.296   5.985   2.302 -0.4723  1.6384  0.1049
 8392SOL    HW226076   6.169   5.993   2.200  0.0164  0.1127 -0.6603
 8393SOL     OW26077   1.534   0.490   2.999  0.2966 -0.0735 -0.1820
 8393SOL    HW126078   1.488   0.577   3.015 -1.3968 -1.1527  1.2679
 8393SOL    HW226079   1.479   0.416   3.038  2.0532 -1.7261 -0.6853
 8394SOL     OW26080   5.905   4.634   2.073  0.2760  0.2869 -0.1518
 8394SOL    HW126081   5.924   4.725   2.113 -0.7205  0.1004  0.7860
 8394SOL    HW226082   5.843   4.584   2.133 -0.3295 -0.4762 -1.3917
 8395SOL     OW26083   3.336   5.122   1.757 -0.2891  0.4031  0.2562
 8395SOL    HW126084   3.329   5.023   1.766 -3.6272  0.6884  2.1999
 8395SOL    HW226085   3.281   5.152   1.678 -1.6465  0.8720  1.3470
 8396SOL     OW26086   3.869   6.689   5.644  0.3320 -0.3393 -0.3965
 8396SOL    HW126087   3.938   6.617   5.640  0.2770 -0.3390 -1.7752
 8396SOL    HW226088   3.780   6.650   5.618  0.2826  0.1841 -1.0470
 8397SOL     OW26089   0.695   0.590   5.826  0.6666 -0.1996 -0.0448
 8397SOL    HW126090   0.637   0.661   5.786  0.9398  0.5430  0.8505
 8397SOL    HW226091   0.770   0.632   5.877  0.6657 -1.1203  0.7510
 8398SOL     OW26092   0.912   3.403   1.955 -0.4506  0.0316 -0.0481
 8398SOL    HW126093   0.934   3.463   2.031 -0.7910 -0.4485  0.4432
 8398SOL    HW226094   0.987   3.402   1.889  0.1146 -0.0393  0.5939
 8399SOL     OW26095   4.394   4.827   3.081  0.1816  0.4529  0.2478
 8399SOL    HW126096   4.354   4.747   3.036  0.3216  1.0610 -1.0254
 8399SOL    HW226097   4.479   4.852   3.035  0.3306  1.1057  0.8638
 8400SOL     OW26098   2.492   2.190   6.089 -0.4106  0.7453 -0.2878
 8400SOL    HW126099   2.440   2.266   6.126 -0.5408 -0.1878  1.5625
 8400SOL    HW226100   2.540   2.142   6.163 -0.7611 -1.2842 -1.2786
 8401SOL     OW26101   2.343   4.336   3.233  0.0080  0.0171  0.2812
 8401SOL    HW126102   2.297   4.249   3.214 -0.3808  0.3325 -0.2470
 8401SOL    HW226103   2.360   4.384   3.147 -0.8158  0.9837  0.6348
 8402SOL     OW26104   5.081   2.365   0.994  0.2186 -0.0465 -0.3300
 8402SOL    HW126105   5.141   2.354   1.074 -0.6150  0.1790  0.3410
 8402SOL    HW226106   5.061   2.462   0.981  0.0001 -0.1215 -0.5514
 8403SOL     OW26107   5.187   5.910   6.652  0.5300  0.3954 -0.0871
 8403SOL    HW126108   5.170   5.814   6.676  0.1549  0.4315 -0.2096
 8403SOL    HW226109   5.105   5.950   6.612  1.2250  0.2288 -1.7676
 8404SOL     OW26110   5.343   0.694   5.025  0.3404  0.0296 -0.6865
 8404SOL    HW126111   5.369   0.763   4.957  0.5287  1.3005  0.6183
 8404SOL    HW226112   5.426   0.650   5.060  0.3383  0.2564 -0.3947
 8405SOL     OW26113   2.088   4.839   4.632  0.2502 -0.3766 -0.8822
 8405SOL    HW126114   2.137   4.905   4.688 -0.3160 -1.4190  0.9084
 8405SOL    HW226115   2.003   4.812   4.678  0.0141 -1.6599 -1.9929
 8406SOL     OW26116   6.219   2.395   2.083 -0.3000 -0.4791  0.1846
 8406SOL    HW126117   6.122   2.403   2.106  0.1438  0.0527  2.0864
 8406SOL    HW226118   6.273   2.391   2.167  1.2876 -1.6479 -0.8209
 8407SOL     OW26119   6.172   3.266   5.571  0.8324  0.5650  1.3026
 8407SOL    HW126120   6.237   3.339   5.547  3.4308 -1.7061  0.9122
 8407SOL    HW226121   6.192   3.234   5.664 -0.5943  0.6095  1.6511
 8408SOL     OW26122   6.681   1.938   3.529  0.2975 -0.2459  0.0488
 8408SOL    HW126123   6.692   2.037   3.520 -0.2129 -0.3175 -1.5657
 8408SOL    HW226124   6.590   1.912   3.500  0.2643 -1.1626  0.9235
 8409SOL     OW26125   6.282   3.053   6.637  0.2218  0.2720  0.2134
 8409SOL    HW126126   6.288   3.152   6.647 -1.9197  0.3869  0.7776
 8409SOL    HW226127   6.223   3.015   6.708  1.9200 -1.5866  0.7182
 8410SOL     OW26128   4.425   3.467   0.883 -1.1227 -0.3561 -0.1928
 8410SOL    HW126129   4.520   3.490   0.903 -1.1322  1.1303 -1.6265
 8410SOL    HW226130   4.422   3.396   0.813 -1.0747 -0.8516  0.3058
 8411SOL     OW26131   1.210   5.538   1.094  0.2415 -0.7404 -0.2209
 8411SOL    HW126132   1.298   5.524   1.139  1.4647 -0.6348 -2.4684
 8411SOL    HW226133   1.213   5.620   1.038 -0.9836 -1.2256 -1.0443
 8412SOL     OW26134   2.079   4.242   4.754  0.2731 -0.4417  0.3685
 8412SOL    HW126135   2.062   4.276   4.846 -1.5824 -1.1895  0.3588
 8412SOL    HW226136   2.118   4.315   4.697  0.1494  0.4266  1.3742
 8413SOL     OW26137   6.330   5.740   3.519 -0.5363 -0.5206 -0.1636
 8413SOL    HW126138   6.404   5.748   3.586  0.3951  1.6208 -1.3695
 8413SOL    HW226139   6.365   5.698   3.435 -1.0888 -0.8978 -0.2126
 8414SOL     OW26140   6.881   6.265   0.814  0.1492  0.9673 -0.2566
 8414SOL    HW126141   6.784   6.239   0.814  0.3951  0.0420 -0.0759
 8414SOL    HW226142   6.915   6.268   0.720  0.7644 -1.8783 -0.2128
 8415SOL     OW26143   0.106   1.188   3.614  0.5334  0.7236  0.0991
 8415SOL    HW126144   0.027   1.220   3.667 -0.2413 -0.6910 -0.1413
 8415SOL    HW226145   0.093   1.212   3.517  1.0667  1.6854  0.2554
 8416SOL     OW26146   4.560   5.647   3.509  0.5363 -0.9253  0.3975
 8416SOL    HW126147   4.509   5.574   3.554 -0.4750  0.7310  2.0863
 8416SOL    HW226148   4.509   5.680   3.430 -0.3206 -0.3177  1.1765
 8417SOL     OW26149   0.973   3.675   0.915  0.6616 -0.0177 -1.0643
 8417SOL    HW126150   0.951   3.733   0.836  0.5808 -0.5933 -1.4747
 8417SOL    HW226151   1.042   3.608   0.889  1.1005  0.1917 -0.4614
 8418SOL     OW26152   1.262   4.765   5.931  0.2450 -0.3408  0.1049
 8418SOL    HW126153   1.286   4.679   5.976  1.0714  0.0472  0.4289
 8418SOL    HW226154   1.297   4.842   5.985 -2.1151  0.3102  0.8301
 8419SOL     OW26155   5.999   1.017   2.832 -0.4286 -0.1705 -0.6674
 8419SOL    HW126156   5.925   0.970   2.881 -1.0125 -0.0317 -1.4085
 8419SOL    HW226157   6.079   0.956   2.827 -0.0142  0.1600  1.2770
 8420SOL     OW26158   3.611   3.265   1.907 -0.0806  0.0513  0.2144
 8420SOL    HW126159   3.589   3.224   1.818  0.9034 -0.3598  0.1501
 8420SOL    HW226160   3.625   3.363   1.895 -1.3493  0.2528  0.1785
 8421SOL     OW26161   3.654   2.031   6.936 -0.7375  0.4805  0.1485
 8421SOL    HW126162   3.566   1.985   6.943  1.0210 -3.4145 -0.8412
 8421SOL    HW226163   3.716   1.997   7.007  0.2392  2.6035  0.3923
 8422SOL     OW26164   6.324   6.585   1.828 -0.4193  0.2761  0.3197
 8422SOL    HW126165   6.248   6.631   1.874 -0.7347 -0.9561  1.0911
 8422SOL    HW226166   6.322   6.488   1.850  1.2746  0.1806  0.1896
 8423SOL     OW26167   4.891   3.769   4.129 -0.1263  0.4055 -0.0234
 8423SOL    HW126168   4.934   3.771   4.219  0.1432  0.7324 -0.1536
 8423SOL    HW226169   4.826   3.844   4.121 -0.4094  0.1669  0.0208
 8424SOL     OW26170   2.608   2.500   0.198 -0.2790 -0.5643  0.8490
 8424SOL    HW126171   2.571   2.533   0.111 -1.2918 -0.5214  1.2808
 8424SOL    HW226172   2.610   2.400   0.198 -0.1276 -0.5625  0.7227
 8425SOL     OW26173   4.408   3.907   1.472  0.4405  0.1106 -0.0681
 8425SOL    HW126174   4.316   3.932   1.503  0.7326  0.2284  0.7161
 8425SOL    HW226175   4.471   3.906   1.550  0.7748 -1.5148 -0.3179
 8426SOL     OW26176   6.143   6.478   6.889  0.0549  0.0249  0.0076
 8426SOL    HW126177   6.168   6.416   6.814 -0.9164 -1.2007  0.6407
 8426SOL    HW226178   6.137   6.571   6.855  2.0018 -0.1301 -0.8834
 8427SOL     OW26179   4.265   1.814   0.112 -0.1289  0.2149 -0.3047
 8427SOL    HW126180   4.237   1.874   0.037 -0.8560  0.5669  0.2396
 8427SOL    HW226181   4.309   1.869   0.183  4.7069 -0.5478 -2.2704
 8428SOL     OW26182   3.462   5.678   5.083  0.6064 -0.2935  0.1374
 8428SOL    HW126183   3.393   5.711   5.019  0.3205  1.4604  1.2752
 8428SOL    HW226184   3.525   5.616   5.036 -0.5599 -0.3593 -1.4016
 8429SOL     OW26185   3.701   2.788   6.819 -0.3582 -0.2053 -0.6154
 8429SOL    HW126186   3.638   2.830   6.753  0.4453  1.4484 -0.3878
 8429SOL    HW226187   3.793   2.824   6.804  0.1180 -0.9482  0.4522
 8430SOL     OW26188   0.619   3.885   3.689 -0.5588  0.1269 -0.3653
 8430SOL    HW126189   0.632   3.941   3.607  0.8760 -1.9136 -1.6182
 8430SOL    HW226190   0.699   3.827   3.702 -1.8452 -1.4039  1.0481
 8431SOL     OW26191   3.376   5.682   5.736  0.1186  0.0047 -0.4933
 8431SOL    HW126192   3.344   5.773   5.760  2.8775  0.9913 -0.2192
 8431SOL    HW226193   3.310   5.638   5.675 -2.5399  1.0889  1.4304
 8432SOL     OW26194   3.961   0.132   6.372 -0.0810 -0.6110 -0.0684
 8432SOL    HW126195   3.905   0.144   6.454  1.1227 -0.3165  0.7419
 8432SOL    HW226196   3.952   0.038   6.339 -3.2848  0.1399 -1.7023
 8433SOL     OW26197   0.370   0.448   1.975  0.1108 -0.1942  0.8242
 8433SOL    HW126198   0.342   0.408   2.062 -1.1790 -0.2012  0.4222
 8433SOL    HW226199   0.396   0.543   1.989 -0.3220 -0.1255  1.1829
 8434SOL     OW26200   4.079   3.381   3.083  0.0403 -0.1191 -0.4635
 8434SOL    HW126201   4.075   3.287   3.049  0.1275 -0.3390  0.1115
 8434SOL    HW226202   4.075   3.445   3.007 -3.0740 -0.5154 -0.7772
 8435SOL     OW26203   4.412   1.672   1.815  0.0717 -0.1653 -0.3719
 8435SOL    HW126204   4.414   1.580   1.855  1.3558 -0.5283 -1.2159
 8435SOL    HW226205   4.368   1.735   1.879 -0.3549 -1.2552  0.4436
 8436SOL     OW26206   5.975   6.461   1.941 -0.2985  0.2219  0.1824
 8436SOL    HW126207   5.918   6.470   1.860  1.5963  1.1659 -1.1283
 8436SOL    HW226208   6.028   6.376   1.935  0.1901  0.5209  0.1898
 8437SOL     OW26209   1.336   2.671   1.337  0.5373 -0.3454  0.1236
 8437SOL    HW126210   1.258   2.655   1.278 -0.2921 -0.8110  1.3149
 8437SOL    HW226211   1.370   2.584   1.373 -0.5234  0.0356  2.2451
 8438SOL     OW26212   1.666   2.874   2.299  0.3383  0.0142 -0.0951
 8438SOL    HW126213   1.584   2.849   2.350  0.1611  3.2205  1.4859
 8438SOL    HW226214   1.747   2.845   2.351  0.1952 -0.4705 -0.1350
 8439SOL     OW26215   6.192   0.190   4.274 -0.0040 -0.6861  0.2125
 8439SOL    HW126216   6.183   0.268   4.336  0.0656 -0.2826 -0.2783
 8439SOL    HW226217   6.170   0.218   4.181  0.2800 -1.1881 -0.0145
 8440SOL     OW26218   4.676   2.017   1.237 -0.2327 -0.1350  0.3706
 8440SOL    HW126219   4.587   2.051   1.208 -0.4167 -0.2768  0.7574
 8440SOL    HW226220   4.696   1.931   1.190  0.1492  0.3943 -0.4680
 8441SOL     OW26221   0.813   6.227   3.466 -0.1254  0.1588 -0.1271
 8441SOL    HW126222   0.877   6.206   3.392 -0.0409  1.1807 -0.3538
 8441SOL    HW226223   0.726   6.181   3.448  0.9650 -2.5412  0.9726
 8442SOL     OW26224   5.025   2.635   4.321 -0.9324 -0.2711 -0.6803
 8442SOL    HW126225   4.946   2.647   4.381 -1.0791 -2.0584 -0.4400
 8442SOL    HW226226   5.004   2.672   4.230 -1.3728  0.8573 -0.1263
 8443SOL     OW26227   5.811   4.933   0.331 -0.3573  0.3961 -0.7471
 8443SOL    HW126228   5.842   5.026   0.312 -0.6115  0.5167 -0.5790
 8443SOL    HW226229   5.730   4.936   0.389  0.2771  0.0371  0.1747
 8444SOL     OW26230   6.113   1.700   3.205 -0.0593 -0.6762 -0.3045
 8444SOL    HW126231   6.117   1.654   3.116 -0.8363  0.1865 -0.8001
 8444SOL    HW226232   6.040   1.659   3.260 -0.7949 -0.0153 -0.7701
 8445SOL     OW26233   1.957   2.296   4.307 -0.3289 -0.2489 -0.2118
 8445SOL    HW126234   1.924   2.295   4.213  0.0550  0.0847 -0.3533
 8445SOL    HW226235   1.939   2.386   4.347 -2.0912 -0.9161  0.6210
 8446SOL     OW26236   5.779   0.143   5.215 -0.6510 -0.0897  0.4560
 8446SOL    HW126237   5.825   0.198   5.145 -1.0323  0.0515  0.3166
 8446SOL    HW226238   5.836   0.138   5.297 -0.0925 -0.4488  0.0539
 8447SOL     OW26239   2.716   6.415   1.339 -0.3082 -0.5514 -0.0534
 8447SOL    HW126240   2.772   6.433   1.420  0.4188 -2.3817 -0.0931
 8447SOL    HW226241   2.766   6.440   1.256 -0.9452  1.0619  0.0128
 8448SOL     OW26242   3.065   0.582   2.070  0.2162  0.3730  0.1407
 8448SOL    HW126243   2.968   0.583   2.044  0.1235  1.3345  0.4850
 8448SOL    HW226244   3.117   0.531   2.002 -0.6664 -1.0409  0.4735
 8449SOL     OW26245   4.820   2.431   4.071  0.0308  0.8134  0.4063
 8449SOL    HW126246   4.809   2.409   3.974 -2.3117  0.2107  0.7521
 8449SOL    HW226247   4.730   2.446   4.112  0.5491 -2.7514  3.3565
 8450SOL     OW26248   2.137   5.711   6.691  1.0268 -0.3020  0.2470
 8450SOL    HW126249   2.203   5.783   6.670 -0.2554  0.5096 -1.1937
 8450SOL    HW226250   2.088   5.686   6.608  0.2393 -1.6224  1.0802
 8451SOL     OW26251   1.645   5.307   1.098 -0.9633 -0.2574  0.2368
 8451SOL    HW126252   1.732   5.266   1.128 -0.1845  1.0282 -0.1793
 8451SOL    HW226253   1.599   5.244   1.035  0.4320 -0.3400 -0.7625
 8452SOL     OW26254   2.247   1.292   0.365 -0.3452 -0.5626  0.3982
 8452SOL    HW126255   2.287   1.229   0.432  1.3520 -0.2369 -0.2655
 8452SOL    HW226256   2.312   1.306   0.290  0.0274  3.1346  1.2430
 8453SOL     OW26257   2.108   2.278   1.588  0.0766  0.3686 -0.6897
 8453SOL    HW126258   2.113   2.264   1.687 -1.4493 -0.1091 -0.6603
 8453SOL    HW226259   2.188   2.331   1.558  1.0618 -0.2979  0.6344
 8454SOL     OW26260   1.503   6.968   0.150 -0.0519  0.1766  0.1078
 8454SOL    HW126261   1.497   6.876   0.189 -1.2153  0.8770  1.7143
 8454SOL    HW226262   1.415   6.993   0.109  0.8167 -0.1036 -2.0808
 8455SOL     OW26263   6.654   4.823   5.515 -0.4000  0.0296  0.0567
 8455SOL    HW126264   6.692   4.730   5.513 -0.0026  0.1554  1.1906
 8455SOL    HW226265   6.639   4.854   5.421 -0.5378 -1.1750 -0.3455
 8456SOL     OW26266   6.551   4.914   5.267 -0.1889  0.6039  1.1035
 8456SOL    HW126267   6.618   4.881   5.201 -0.4970  1.5098  0.3139
 8456SOL    HW226268   6.471   4.855   5.266 -0.4179  0.9221  0.2610
 8457SOL     OW26269   5.978   2.015   4.908  0.1413 -0.4328  0.2485
 8457SOL    HW126270   5.943   2.061   4.826  0.6015  0.1046  0.3512
 8457SOL    HW226271   5.925   1.932   4.924  0.3019 -0.7562 -0.8247
 8458SOL     OW26272   6.352   1.216   1.250  0.2010  0.2398 -0.5041
 8458SOL    HW126273   6.358   1.209   1.350 -2.2449 -1.2206 -0.3856
 8458SOL    HW226274   6.382   1.131   1.208  1.0287  0.7787 -1.0479
 8459SOL     OW26275   3.562   5.615   2.264  0.3032  0.4983 -0.5420
 8459SOL    HW126276   3.534   5.519   2.274 -0.7882  0.7915 -0.7070
 8459SOL    HW226277   3.661   5.622   2.279  0.7984 -0.9760 -2.6068
 8460SOL     OW26278   0.263   5.185   4.988  0.1541 -0.1890  0.0993
 8460SOL    HW126279   0.267   5.105   4.928 -0.1704 -2.0735  2.4241
 8460SOL    HW226280   0.189   5.174   5.055  2.5304  0.0616  3.0176
 8461SOL     OW26281   3.872   2.118   4.889  0.3672  0.9991  0.5256
 8461SOL    HW126282   3.833   2.056   4.957  1.0736  2.3096  2.2162
 8461SOL    HW226283   3.836   2.210   4.904  0.1826  1.2341 -1.2131
 8462SOL     OW26284   6.217   5.898   4.181 -0.8037 -0.0618  0.3064
 8462SOL    HW126285   6.310   5.922   4.207 -0.7219 -0.0733  0.0278
 8462SOL    HW226286   6.183   5.825   4.241  0.6386 -2.5749 -1.7118
 8463SOL     OW26287   1.815   2.767   5.384  0.0693  0.0426  0.3303
 8463SOL    HW126288   1.742   2.708   5.351  0.1529 -0.7818  1.5625
 8463SOL    HW226289   1.894   2.711   5.410  1.7566  0.9847 -2.3056
 8464SOL     OW26290   3.464   0.951   0.877 -0.4203  0.2206 -0.3290
 8464SOL    HW126291   3.512   1.038   0.889  0.3222 -0.1239 -0.7297
 8464SOL    HW226292   3.530   0.880   0.853 -1.2382 -0.0583 -1.8748
 8465SOL     OW26293   2.570   2.414   0.919 -0.3078 -0.2624 -0.5809
 8465SOL    HW126294   2.562   2.373   0.828  0.5182  0.4506 -0.9792
 8465SOL    HW226295   2.481   2.451   0.946 -0.3098  0.4654 -1.5522
 8466SOL     OW26296   4.755   6.545   2.628  0.2421 -0.1277  0.0904
 8466SOL    HW126297   4.776   6.449   2.608  0.4288 -0.3535  1.2867
 8466SOL    HW226298   4.809   6.605   2.569  1.2042 -0.7460  0.3337
 8467SOL     OW26299   5.076   3.157   5.013  0.5177 -0.3689  0.1238
 8467SOL    HW126300   5.077   3.142   4.914 -1.0878 -0.9141  0.1645
 8467SOL    HW226301   4.993   3.207   5.038 -0.2071 -2.1337  1.4268
 8468SOL     OW26302   5.041   4.229   4.259 -0.3534  0.2780 -0.3965
 8468SOL    HW126303   5.037   4.217   4.160 -3.3931 -1.9930 -0.1361
 8468SOL    HW226304   5.112   4.297   4.281  2.1321 -0.8732 -3.8714
 8469SOL     OW26305   0.062   6.075   5.561 -0.1605 -0.0960 -0.0063
 8469SOL    HW126306  -0.001   6.116   5.627  0.0591 -0.5274  0.4798
 8469SOL    HW226307   0.156   6.089   5.593 -0.1204 -3.0034  1.4335
 8470SOL     OW26308   2.009   2.063   4.633 -0.3377  0.6546  1.1827
 8470SOL    HW126309   2.100   2.024   4.622  0.3119  2.0521  1.3739
 8470SOL    HW226310   1.964   2.067   4.544 -0.1433  0.1201  1.0574
 8471SOL     OW26311   2.415   1.262   0.611 -0.0666 -0.1025  0.0544
 8471SOL    HW126312   2.498   1.251   0.556 -1.2648 -0.2778 -1.8148
 8471SOL    HW226313   2.411   1.356   0.646  0.9809 -0.1375  0.3248
 8472SOL     OW26314   0.503   6.408   0.046  0.1841  0.9484 -0.0552
 8472SOL    HW126315   0.407   6.434   0.054  0.7962  2.8764  2.0353
 8472SOL    HW226316   0.512   6.309   0.060 -1.2735  1.0859  2.4873
 8473SOL     OW26317   2.501   1.094   3.851 -0.0030  0.4249 -0.4518
 8473SOL    HW126318   2.485   1.008   3.802  1.0244 -0.5959  0.9031
 8473SOL    HW226319   2.588   1.133   3.821 -0.4285  0.9460 -1.0051
 8474SOL     OW26320   6.074   1.370   0.023  0.1465  0.7802 -0.4600
 8474SOL    HW126321   6.087   1.410  -0.068 -0.3401 -1.0922 -1.4020
 8474SOL    HW226322   6.040   1.276   0.014 -0.7551  0.8448  1.6890
 8475SOL     OW26323   1.537   2.071   0.922  0.0436 -0.1022 -0.5859
 8475SOL    HW126324   1.468   2.000   0.909  0.2031 -0.1563 -1.1437
 8475SOL    HW226325   1.529   2.108   1.015 -0.5827 -0.2662 -0.5686
 8476SOL     OW26326   4.484   5.327   5.075 -0.1162  0.0018 -0.2255
 8476SOL    HW126327   4.528   5.246   5.114 -2.4491 -0.3259  2.0102
 8476SOL    HW226328   4.501   5.406   5.134 -1.1972  0.1851 -0.1276
 8477SOL     OW26329   1.988   0.993   6.528 -0.0772  0.1939 -0.0250
 8477SOL    HW126330   1.932   1.058   6.476 -1.2462  0.8660  1.9440
 8477SOL    HW226331   2.069   1.040   6.562 -0.6452  0.5309  0.9290
 8478SOL     OW26332   1.314   6.950   4.887 -0.0209 -0.2339  0.5063
 8478SOL    HW126333   1.342   6.956   4.983  0.4488  1.7112  0.2965
 8478SOL    HW226334   1.245   6.878   4.876  0.0772 -0.6311  2.2478
 8479SOL     OW26335   4.505   3.126   0.023  0.3225 -0.2584  0.0978
 8479SOL    HW126336   4.602   3.111   0.005 -0.0676 -0.3357 -2.2494
 8479SOL    HW226337   4.453   3.114  -0.061 -1.8106 -0.7262  1.3987
 8480SOL     OW26338   1.582   0.610   3.634 -0.1288 -0.1296 -0.4840
 8480SOL    HW126339   1.591   0.693   3.578 -0.1733  0.5536  0.5003
 8480SOL    HW226340   1.614   0.629   3.727 -0.6280 -1.0676 -0.1107
 8481SOL     OW26341   6.450   4.032   5.132  0.0214 -0.8222 -0.1329
 8481SOL    HW126342   6.424   4.057   5.039  0.5008 -0.9674 -0.3089
 8481SOL    HW226343   6.549   4.044   5.144 -0.4122  2.3992  1.3414
 8482SOL     OW26344   2.125   5.642   5.185  0.0229 -0.1083  0.0591
 8482SOL    HW126345   2.106   5.718   5.123  1.5879  0.2452 -0.0298
 8482SOL    HW226346   2.077   5.560   5.154 -0.9444  0.6051 -0.3659
 8483SOL     OW26347   1.900   6.682   5.331 -0.6820  0.5064 -0.2713
 8483SOL    HW126348   1.871   6.777   5.322  0.3010  0.9174  0.6785
 8483SOL    HW226349   1.960   6.658   5.255 -0.4196  0.8367 -0.1659
 8484SOL     OW26350   6.946   0.990   1.702  0.0145 -0.0161 -0.0853
 8484SOL    HW126351   6.944   1.004   1.603 -0.9849  0.0684 -0.0610
 8484SOL    HW226352   6.910   1.071   1.747 -0.8962 -0.6207  0.2859
 8485SOL     OW26353   0.118   6.581   5.990  0.1133 -0.3374 -0.3421
 8485SOL    HW126354   0.118   6.581   6.090  1.1387  2.1423 -0.2459
 8485SOL    HW226355   0.108   6.488   5.956  0.1357 -1.2873  2.0627
 8486SOL     OW26356   0.854   1.567   5.803  0.2037  0.4168 -0.5272
 8486SOL    HW126357   0.778   1.506   5.825 -0.2042  0.7181 -1.1000
 8486SOL    HW226358   0.911   1.525   5.732  0.1061  0.5639 -0.6907
 8487SOL     OW26359   0.475   3.127   6.183  0.5179 -0.0623  0.1184
 8487SOL    HW126360   0.482   3.180   6.099  1.6205  1.1242  0.9286
 8487SOL    HW226361   0.546   3.057   6.184 -0.1931 -0.8219 -0.4077
 8488SOL     OW26362   1.690   4.162   4.873  0.2446 -0.2659 -0.0781
 8488SOL    HW126363   1.746   4.091   4.916  0.8599  1.0951  1.4959
 8488SOL    HW226364   1.723   4.252   4.903 -1.2248  0.6539 -1.1143
 8489SOL     OW26365   3.091   2.716   0.438  0.2124  0.0619 -0.0235
 8489SOL    HW126366   2.998   2.745   0.462  0.3114  0.9404 -0.6388
 8489SOL    HW226367   3.092   2.680   0.345  0.1816 -1.5667  0.5727
 8490SOL     OW26368   2.505   3.838   5.640 -0.0935  0.3554  0.2385
 8490SOL    HW126369   2.508   3.777   5.719 -0.9947  0.1657  0.1408
 8490SOL    HW226370   2.596   3.846   5.600  0.1889 -0.2747  0.7439
 8491SOL     OW26371   6.120   0.213   1.478  0.1859  0.5212 -0.7153
 8491SOL    HW126372   6.212   0.207   1.440  0.3297  0.3660 -0.3486
 8491SOL    HW226373   6.067   0.282   1.428  1.3346  2.5649  0.8030
 8492SOL     OW26374   0.826   1.453   6.138  0.2830  0.3429 -0.0049
 8492SOL    HW126375   0.778   1.452   6.226  0.3166 -2.1416  0.0544
 8492SOL    HW226376   0.921   1.481   6.152  0.2717  0.0319  0.7418
 8493SOL     OW26377   6.548   0.889   2.094  0.2181 -0.7028 -0.2657
 8493SOL    HW126378   6.586   0.948   2.165  2.7814 -1.2016 -1.1108
 8493SOL    HW226379   6.567   0.793   2.116  0.9001 -0.8791 -1.4562
 8494SOL     OW26380   6.076   2.801   4.403 -0.3633  0.7552  0.0066
 8494SOL    HW126381   5.999   2.764   4.455  0.4861 -0.5166  0.4109
 8494SOL    HW226382   6.042   2.863   4.333 -1.7193  0.5632  0.4636
 8495SOL     OW26383   2.431   1.937   0.218  0.1566 -0.5405 -0.5694
 8495SOL    HW126384   2.485   1.896   0.145  0.2451 -2.5550  0.5489
 8495SOL    HW226385   2.488   1.946   0.300 -0.4676 -0.1725 -0.1716
 8496SOL     OW26386   2.785   1.021   4.182 -0.3486 -0.0065  0.4230
 8496SOL    HW126387   2.716   1.080   4.223 -1.5737 -1.2759  0.2643
 8496SOL    HW226388   2.842   1.074   4.119 -0.5761  1.2515  1.2504
 8497SOL     OW26389   0.027   0.600   4.695  0.2106  0.1643  0.5269
 8497SOL    HW126390  -0.073   0.611   4.703  0.4726  1.8166  2.4994
 8497SOL    HW226391   0.069   0.617   4.784  2.2607 -0.8452 -0.1960
 8498SOL     OW26392   3.192   4.622   6.601 -0.0774  0.5063  0.6253
 8498SOL    HW126393   3.217   4.553   6.669  1.4232 -0.9720 -1.2707
 8498SOL    HW226394   3.100   4.603   6.566  0.0250 -0.1030  0.6678
 8499SOL     OW26395   4.775   5.206   6.512  0.0939  0.0035 -0.1923
 8499SOL    HW126396   4.688   5.161   6.493  0.7549 -1.2237 -0.3943
 8499SOL    HW226397   4.758   5.294   6.557 -1.2834  0.3371 -1.2976
 8500SOL     OW26398   2.946   6.167   5.283  0.0550 -0.3592 -0.3531
 8500SOL    HW126399   3.014   6.095   5.274 -1.8032 -2.2734  0.1210
 8500SOL    HW226400   2.862   6.130   5.324 -1.5834  1.6894 -1.5995
 8501SOL     OW26401   0.619   0.960   1.604 -0.2889 -0.1904  0.0639
 8501SOL    HW126402   0.691   1.005   1.657  0.6876 -0.5841 -0.8840
 8501SOL    HW226403   0.539   0.945   1.662 -0.0800  1.3624  0.8132
 8502SOL     OW26404   0.374   2.116   1.839  0.1563  0.5587  0.0140
 8502SOL    HW126405   0.410   2.177   1.768  0.1158  0.1354 -0.3791
 8502SOL    HW226406   0.439   2.111   1.915  1.1565 -0.5271 -0.8723
 8503SOL     OW26407   3.317   1.331   2.598  0.7232  0.4285  0.1414
 8503SOL    HW126408   3.228   1.372   2.617  0.8807 -0.0099  1.9834
 8503SOL    HW226409   3.352   1.286   2.680  2.4680  0.2306 -0.6519
 8504SOL     OW26410   3.436   0.188   6.774 -0.2781  0.0953  0.4636
 8504SOL    HW126411   3.399   0.165   6.684  0.1147 -0.3331  0.4079
 8504SOL    HW226412   3.380   0.145   6.845  0.7345 -1.4919  0.3476
 8505SOL     OW26413   5.484   5.971   2.434  0.4895  0.2948  0.5422
 8505SOL    HW126414   5.474   5.956   2.532 -0.6834  1.3938  0.6032
 8505SOL    HW226415   5.462   5.887   2.385  1.3110 -0.3291  1.2116
 8506SOL     OW26416   3.158   0.870   0.087 -0.0323  0.0168 -0.4159
 8506SOL    HW126417   3.162   0.843   0.183 -0.0067 -0.5997 -0.5907
 8506SOL    HW226418   3.241   0.921   0.064  0.5382 -0.8963 -0.4266
 8507SOL     OW26419   3.775   6.108   1.962 -0.0940 -0.0609  0.4165
 8507SOL    HW126420   3.840   6.049   1.913  0.1749 -0.1564  0.8862
 8507SOL    HW226421   3.682   6.078   1.943  0.0603 -2.4496  2.8458
 8508SOL     OW26422   1.400   0.067   2.513 -0.5435  0.0136 -0.5330
 8508SOL    HW126423   1.464   0.128   2.465 -1.0709  1.2775  0.2999
 8508SOL    HW226424   1.313   0.115   2.526 -0.5125 -0.3821  1.4249
 8509SOL     OW26425   0.314   7.017   6.569  0.1888 -0.1423 -0.3096
 8509SOL    HW126426   0.276   6.938   6.521 -0.0103 -0.8258  0.9463
 8509SOL    HW226427   0.299   7.099   6.514  1.5016 -1.1197 -2.2310
 8510SOL     OW26428   6.502   1.759   5.686 -0.1565  0.0537  0.8492
 8510SOL    HW126429   6.502   1.857   5.665  1.5307 -0.3867 -1.7354
 8510SOL    HW226430   6.414   1.720   5.660 -0.0281  0.5276 -0.3729
 8511SOL     OW26431   0.740   4.102   1.105 -0.7683 -0.0187 -0.3813
 8511SOL    HW126432   0.753   4.160   1.024 -1.7231  2.0199  0.8264
 8511SOL    HW226433   0.825   4.096   1.155 -0.6093  0.1908 -0.6209
 8512SOL     OW26434   4.002   1.501   1.762 -0.5411  0.0010  0.2223
 8512SOL    HW126435   4.075   1.551   1.808 -1.9051  0.6165  1.8142
 8512SOL    HW226436   4.023   1.403   1.763  0.3867  0.1937  0.3805
 8513SOL     OW26437   3.597   2.931   5.036 -0.2688  0.4540 -0.4926
 8513SOL    HW126438   3.518   2.898   4.984 -0.3717  0.2835 -0.2324
 8513SOL    HW226439   3.680   2.920   4.982 -0.5373  1.4936 -1.1322
 8514SOL     OW26440   6.477   3.963   2.310 -0.5698  0.3236  0.3904
 8514SOL    HW126441   6.468   4.023   2.230  0.3248 -0.5677 -0.4164
 8514SOL    HW226442   6.571   3.966   2.344 -0.8289  0.3294  1.1156
 8515SOL     OW26443   1.309   2.259   6.940 -0.2503 -0.3369 -0.3917
 8515SOL    HW126444   1.271   2.351   6.925  0.1012 -0.5313 -3.0877
 8515SOL    HW226445   1.390   2.265   6.997 -1.1287  0.7930  0.7957
 8516SOL     OW26446   1.724   1.421   5.298 -0.3865  0.1034 -0.2351
 8516SOL    HW126447   1.751   1.378   5.384 -2.2529 -0.0193  0.3320
 8516SOL    HW226448   1.672   1.356   5.243  0.5460  0.2737 -1.3365
 8517SOL     OW26449   1.734   3.007   3.139 -0.3518 -0.3866  0.1812
 8517SOL    HW126450   1.678   2.925   3.123 -0.1108 -0.4095 -0.5557
 8517SOL    HW226451   1.819   3.000   3.087 -0.6046  0.6186 -0.3828
 8518SOL     OW26452   3.563   0.373   4.982 -0.4561 -0.1314  0.1005
 8518SOL    HW126453   3.536   0.402   5.073  0.3277 -0.3246  0.3987
 8518SOL    HW226454   3.529   0.438   4.914  0.6832  1.1174  0.6962
 8519SOL     OW26455   0.405   5.718   6.264 -0.0984 -0.0227  0.2361
 8519SOL    HW126456   0.482   5.693   6.324  0.5643  0.4511 -0.3931
 8519SOL    HW226457   0.441   5.755   6.178 -0.9723  2.5878  0.8856
 8520SOL     OW26458   1.189   2.048   6.501  0.4930 -0.0310 -0.2765
 8520SOL    HW126459   1.244   2.083   6.578 -1.2017 -1.3405  1.6169
 8520SOL    HW226460   1.163   2.124   6.443 -2.7934  2.1362  3.5055
 8521SOL     OW26461   4.793   5.806   3.184 -0.3336 -0.0875 -0.0194
 8521SOL    HW126462   4.847   5.729   3.217 -0.5967  0.2274  1.2048
 8521SOL    HW226463   4.739   5.778   3.105 -1.2403 -1.4629  1.0641
 8522SOL     OW26464   4.910   3.304   4.101 -0.3798  0.6765  0.6845
 8522SOL    HW126465   4.964   3.327   4.182 -0.0953  1.5128  0.2666
 8522SOL    HW226466   4.892   3.206   4.101 -0.8193  0.7318  2.0187
 8523SOL     OW26467   6.393   6.222   4.931  0.4430  0.5063 -0.2316
 8523SOL    HW126468   6.332   6.227   5.010  0.4053  0.5115 -0.2611
 8523SOL    HW226469   6.389   6.130   4.892  0.2056  0.6009 -0.4318
 8524SOL     OW26470   4.964   2.441   1.390 -0.5605 -0.1774 -0.2059
 8524SOL    HW126471   4.993   2.359   1.341 -3.0123 -1.4980  0.3547
 8524SOL    HW226472   4.914   2.414   1.473  0.1399  1.9310  0.9720
 8525SOL     OW26473   1.546   4.497   2.435 -0.5333 -0.1768 -0.8255
 8525SOL    HW126474   1.633   4.453   2.413 -0.0601  0.4226 -0.1703
 8525SOL    HW226475   1.496   4.516   2.351  0.3283  0.2051 -1.2616
 8526SOL     OW26476   2.188   6.690   2.588  0.6405 -0.2113 -0.2226
 8526SOL    HW126477   2.264   6.627   2.572  0.6395 -0.9198  2.1578
 8526SOL    HW226478   2.102   6.645   2.567  0.6136 -1.2530  1.8279
 8527SOL     OW26479   6.380   4.340   5.028  0.2656 -0.4422 -0.5153
 8527SOL    HW126480   6.469   4.301   5.003  2.1203  1.8075  1.9146
 8527SOL    HW226481   6.380   4.438   5.007 -1.6179 -0.3957 -0.3963
 8528SOL     OW26482   6.342   6.797   2.943 -0.4616  0.2188 -0.2470
 8528SOL    HW126483   6.354   6.746   2.858 -0.6428 -1.6957  0.8066
 8528SOL    HW226484   6.431   6.820   2.981 -0.3778  0.8770 -0.8344
 8529SOL     OW26485   4.965   4.585   5.610 -0.0485  0.1401 -0.0300
 8529SOL    HW126486   5.059   4.597   5.641 -0.5369  1.8401  0.8746
 8529SOL    HW226487   4.919   4.518   5.668 -0.3290  1.7153  1.6374
 8530SOL     OW26488   5.645   3.642   0.082  0.1795  0.0062 -0.6623
 8530SOL    HW126489   5.722   3.665   0.142 -1.0613 -0.3466  1.1422
 8530SOL    HW226490   5.673   3.569   0.019  1.9988  1.4708 -1.6858
 8531SOL     OW26491   2.608   0.712   0.819 -0.3841 -0.1035  0.4203
 8531SOL    HW126492   2.571   0.678   0.733  0.7353  0.4562 -0.3118
 8531SOL    HW226493   2.704   0.686   0.826 -0.4200  0.0052  1.4339
 8532SOL     OW26494   2.713   0.822   3.764  0.9591 -0.5231 -0.5113
 8532SOL    HW126495   2.629   0.862   3.729  0.9578 -1.2505 -1.3926
 8532SOL    HW226496   2.707   0.813   3.864  0.1953 -0.1401 -0.5130
 8533SOL     OW26497   3.588   2.879   4.688 -0.3763 -0.5756 -0.0532
 8533SOL    HW126498   3.665   2.902   4.748 -0.7889 -0.8062  0.5849
 8533SOL    HW226499   3.622   2.839   4.603  0.2175 -0.3623  0.0750
 8534SOL     OW26500   3.171   0.508   2.486  0.1167 -0.5243 -0.7190
 8534SOL    HW126501   3.150   0.449   2.564  0.3506 -1.3766 -1.2962
 8534SOL    HW226502   3.266   0.493   2.457  0.3147  0.4317 -0.6283
 8535SOL     OW26503   0.174   6.532   0.720 -0.1189 -0.4381  0.0834
 8535SOL    HW126504   0.164   6.556   0.816  0.6428 -1.0302  0.3146
 8535SOL    HW226505   0.263   6.561   0.686 -1.0879  1.4940 -0.9817
 8536SOL     OW26506   2.957   6.009   3.698  0.1643 -0.0837  0.1363
 8536SOL    HW126507   3.019   5.935   3.674 -1.0886 -1.2400  0.3577
 8536SOL    HW226508   2.913   6.044   3.615 -1.2697 -1.4588  0.2782
 8537SOL     OW26509   2.432   2.686   3.936 -0.1037  0.2688 -0.0114
 8537SOL    HW126510   2.477   2.690   3.847 -1.6528 -0.1910 -0.8613
 8537SOL    HW226511   2.496   2.652   4.005  1.5046  1.8071 -0.6556
 8538SOL     OW26512   6.139   3.885   6.730  0.2767 -0.4409 -0.2601
 8538SOL    HW126513   6.081   3.877   6.650  1.1348 -0.2096 -0.9191
 8538SOL    HW226514   6.144   3.981   6.758  1.2862 -0.2728 -0.9460
 8539SOL     OW26515   6.701   0.139   0.263  0.5972  0.2432  0.2209
 8539SOL    HW126516   6.719   0.043   0.244 -1.4042  0.1986 -1.9073
 8539SOL    HW226517   6.782   0.181   0.303  1.8059 -2.1003  0.4020
 8540SOL     OW26518   1.922   2.691   2.901  0.3542 -1.2729 -0.4538
 8540SOL    HW126519   1.970   2.663   2.817  1.3365 -1.2643  0.0958
 8540SOL    HW226520   1.986   2.732   2.965 -0.5655 -0.3639 -0.0743
 8541SOL     OW26521   3.704   5.767   4.056 -0.2697 -0.1907 -0.0960
 8541SOL    HW126522   3.605   5.756   4.043 -0.2877 -0.0868 -0.0529
 8541SOL    HW226523   3.731   5.857   4.022 -0.0909 -0.4443 -0.6455
 8542SOL     OW26524   5.229   6.049   1.549 -0.1331  0.2181  0.4931
 8542SOL    HW126525   5.139   6.050   1.505 -0.7899  1.2638  1.8108
 8542SOL    HW226526   5.253   5.955   1.574 -1.1450  0.0052  0.6998
 8543SOL     OW26527   2.009   4.441   5.537  0.1924 -0.3002  0.4635
 8543SOL    HW126528   1.983   4.531   5.570  1.4462  0.0550  0.5084
 8543SOL    HW226529   2.076   4.400   5.599  1.4090 -0.2671 -0.7838
 8544SOL     OW26530   4.793   6.671   4.416  0.0255 -0.0406  0.5201
 8544SOL    HW126531   4.719   6.710   4.362  0.0444 -0.9644 -0.1996
 8544SOL    HW226532   4.881   6.697   4.375  0.0427 -2.5921 -1.3723
 8545SOL     OW26533   0.522   3.637   4.916 -0.0819  0.4250 -0.2909
 8545SOL    HW126534   0.454   3.707   4.896  0.1666  1.3291  1.7508
 8545SOL    HW226535   0.482   3.546   4.902 -1.8579  0.9220  1.1607
 8546SOL     OW26536   3.262   0.890   6.773 -0.0887  0.0693  0.4078
 8546SOL    HW126537   3.262   0.811   6.834 -1.0985 -0.5797 -0.4000
 8546SOL    HW226538   3.310   0.868   6.688  0.0805  0.5012  0.3860
 8547SOL     OW26539   6.955   5.178   1.922 -0.3488 -0.7921  0.2990
 8547SOL    HW126540   6.885   5.154   1.989  0.0471 -1.0982  0.6167
 8547SOL    HW226541   6.926   5.151   1.831  0.3313 -3.1391  0.7096
 8548SOL     OW26542   3.253   6.842   6.910  0.1681  0.1967  0.1717
 8548SOL    HW126543   3.304   6.791   6.841 -2.7929 -0.5695 -1.6032
 8548SOL    HW226544   3.198   6.779   6.965  0.1632  1.0988  1.2434
 8549SOL     OW26545   6.410   5.052   2.339 -0.2419 -0.0484 -0.5244
 8549SOL    HW126546   6.508   5.036   2.352 -0.4671  0.1777  1.7730
 8549SOL    HW226547   6.358   4.976   2.379 -1.0261 -0.0374 -1.4863
 8550SOL     OW26548   1.107   0.272   0.932 -0.2624 -0.0317  0.4408
 8550SOL    HW126549   1.017   0.312   0.949 -0.5830 -0.7213  0.4397
 8550SOL    HW226550   1.100   0.172   0.939  0.4279 -0.1106  0.0855
 8551SOL     OW26551   3.365   4.256   1.768  0.0633  0.2585 -0.1097
 8551SOL    HW126552   3.314   4.170   1.768  0.3824 -0.0135  2.7352
 8551SOL    HW226553   3.307   4.329   1.733 -1.3399 -0.5532  0.4615
 8552SOL     OW26554   2.127   0.571   6.236  0.2091  0.2441 -0.6540
 8552SOL    HW126555   2.170   0.653   6.196  0.7411  0.3980  0.2097
 8552SOL    HW226556   2.029   0.572   6.216  0.0702  1.5054 -0.0034
 8553SOL     OW26557   3.841   3.893   1.479  0.0001 -0.8028  0.4596
 8553SOL    HW126558   3.806   3.966   1.420  1.8055  0.9386  1.4403
 8553SOL    HW226559   3.800   3.902   1.570  1.3238 -0.0512  1.0058
 8554SOL     OW26560   1.539   1.102   6.682 -0.4963  0.3818 -0.4473
 8554SOL    HW126561   1.574   1.011   6.703  1.4732  0.8130 -1.5260
 8554SOL    HW226562   1.552   1.162   6.762 -0.2966  0.1013 -0.2687
 8555SOL     OW26563   3.432   1.145   2.176 -0.1338  0.0314 -0.0614
 8555SOL    HW126564   3.340   1.183   2.188  0.8051  1.8877  1.8860
 8555SOL    HW226565   3.440   1.059   2.226 -0.8256 -0.2231 -0.3718
 8556SOL     OW26566   6.849   5.756   3.321  0.2351 -0.1735 -0.5746
 8556SOL    HW126567   6.926   5.808   3.283  0.1557  1.0268  0.8216
 8556SOL    HW226568   6.884   5.692   3.390  0.1157 -0.6773 -0.9689
 8557SOL     OW26569   0.685   1.009   6.650  0.0927 -0.2108  0.1924
 8557SOL    HW126570   0.703   1.106   6.670  1.7027 -0.3502 -0.4942
 8557SOL    HW226571   0.696   0.956   6.734 -2.5325  0.3556  1.0090
 8558SOL     OW26572   1.374   2.770   6.632 -1.1051 -0.1001  0.2163
 8558SOL    HW126573   1.316   2.815   6.700 -1.6206  0.5647 -0.6498
 8558SOL    HW226574   1.373   2.822   6.547 -0.2544 -0.7783 -0.2245
 8559SOL     OW26575   5.496   3.780   2.758  0.3017 -0.2390  0.2229
 8559SOL    HW126576   5.537   3.752   2.845  0.6281 -1.1980 -0.2304
 8559SOL    HW226577   5.530   3.872   2.735 -0.5332  0.4435  1.5559
 8560SOL     OW26578   3.011   6.543   4.768 -0.1184  0.0286 -0.0772
 8560SOL    HW126579   3.033   6.576   4.860  1.1443  1.0533 -0.7073
 8560SOL    HW226580   2.919   6.572   4.743 -0.3682 -0.0156  0.7369
 8561SOL     OW26581   6.818   6.245   4.834 -0.3451  0.0302 -0.1151
 8561SOL    HW126582   6.734   6.277   4.789  1.2246  3.0589 -1.1976
 8561SOL    HW226583   6.897   6.286   4.789  1.5671  0.1585  3.0863
 8562SOL     OW26584   1.164   4.448   6.437  0.1622 -0.0466 -0.8986
 8562SOL    HW126585   1.161   4.540   6.396  0.4206 -0.8566 -2.8206
 8562SOL    HW226586   1.078   4.401   6.420  0.0443 -0.1930  0.0489
 8563SOL     OW26587   4.731   6.168   3.793 -0.2785  0.3123 -0.0224
 8563SOL    HW126588   4.679   6.096   3.748  0.4354 -0.0021 -0.3589
 8563SOL    HW226589   4.672   6.217   3.858 -0.7725 -0.5519  0.1900
 8564SOL     OW26590   6.440   3.272   4.412 -0.3751  0.1197  0.3779
 8564SOL    HW126591   6.409   3.187   4.370  0.2725  1.3837 -3.0031
 8564SOL    HW226592   6.534   3.261   4.445  0.6045  0.0681 -2.2272
 8565SOL     OW26593   4.031   1.455   5.289  0.0390 -0.6222  0.1115
 8565SOL    HW126594   4.021   1.403   5.204  1.3758 -1.4268  0.4300
 8565SOL    HW226595   4.071   1.396   5.360  1.1884  0.7149  0.6041
 8566SOL     OW26596   6.421   0.605   5.425 -0.3765  0.0274  0.1828
 8566SOL    HW126597   6.333   0.634   5.463  0.0177  1.3819  0.0797
 8566SOL    HW226598   6.428   0.505   5.432 -1.7919 -0.0759  0.4570
 8567SOL     OW26599   4.085   5.406   4.960  0.0259 -0.1800  0.2694
 8567SOL    HW126600   4.034   5.354   4.891  0.0861 -0.3308  0.3382
 8567SOL    HW226601   4.171   5.438   4.921  0.1921 -0.5134  0.3630
 8568SOL     OW26602   0.603   1.683   3.737 -0.2280  0.4366  0.1079
 8568SOL    HW126603   0.570   1.739   3.661  1.4993  1.1626 -0.1366
 8568SOL    HW226604   0.628   1.743   3.813  0.4495 -0.1071  0.3173
 8569SOL     OW26605   6.190   5.019   5.930 -0.8241 -0.0723 -0.1582
 8569SOL    HW126606   6.125   4.996   6.003 -0.7025 -0.7168 -0.2468
 8569SOL    HW226607   6.283   4.997   5.959 -0.4111  2.3917  0.6164
 8570SOL     OW26608   6.451   3.739   5.727  0.0522 -0.3623  0.0463
 8570SOL    HW126609   6.515   3.664   5.711 -1.3362 -1.6536  0.2770
 8570SOL    HW226610   6.396   3.754   5.645 -1.7076 -1.6723  0.9238
 8571SOL     OW26611   0.388   0.433   0.993  0.4201 -0.0097 -0.4061
 8571SOL    HW126612   0.358   0.359   0.933 -0.4856 -0.3858  0.4928
 8571SOL    HW226613   0.438   0.395   1.071 -1.1482  0.1932  0.7343
 8572SOL     OW26614   2.457   6.794   6.086 -0.2861 -0.1447  0.7832
 8572SOL    HW126615   2.485   6.833   6.173 -0.3320  0.6967  0.4329
 8572SOL    HW226616   2.449   6.694   6.094  0.4542 -0.1485  1.5232
 8573SOL     OW26617   4.857   2.137   0.274 -0.0749  0.0800  0.4739
 8573SOL    HW126618   4.811   2.216   0.314 -0.2554  1.0792 -1.5992
 8573SOL    HW226619   4.795   2.059   0.274 -0.3204  0.2601  1.4079
 8574SOL     OW26620   2.311   1.912   6.896  0.3620  0.3212  0.6909
 8574SOL    HW126621   2.233   1.938   6.839  0.1936 -0.5417  0.5064
 8574SOL    HW226622   2.279   1.849   6.968  1.1404 -1.4227 -0.4210
 8575SOL     OW26623   5.860   4.028   4.478  0.2185  0.2430  0.2272
 8575SOL    HW126624   5.778   4.038   4.421 -0.4163  1.7523  1.3396
 8575SOL    HW226625   5.906   3.942   4.455 -1.4339 -0.4377 -0.7169
 8576SOL     OW26626   1.242   2.615   0.909  0.3923 -0.3931 -0.2966
 8576SOL    HW126627   1.207   2.639   0.999  1.1277  0.2724 -0.1826
 8576SOL    HW226628   1.178   2.648   0.839 -0.9536 -2.2194 -0.0134
 8577SOL     OW26629   6.396   1.650   4.565 -0.3718 -0.2529 -0.4107
 8577SOL    HW126630   6.368   1.726   4.624 -0.9411 -0.2299 -0.6991
 8577SOL    HW226631   6.495   1.652   4.553  0.0572 -1.5628  2.3028
 8578SOL     OW26632   2.460   4.160   6.756 -0.2349  0.0291  0.6812
 8578SOL    HW126633   2.376   4.188   6.710  1.4686  0.8502 -2.2302
 8578SOL    HW226634   2.503   4.239   6.799 -0.5172 -0.2210  1.4350
 8579SOL     OW26635   4.350   0.597   4.251 -0.1101 -0.5587 -0.1676
 8579SOL    HW126636   4.333   0.541   4.332  1.6520  0.7298  1.1556
 8579SOL    HW226637   4.378   0.689   4.279 -1.1912  0.4839 -2.2796
 8580SOL     OW26638   4.808   6.505   5.321 -0.9188 -0.2469 -0.5700
 8580SOL    HW126639   4.770   6.538   5.407 -1.7274 -2.8960  0.1709
 8580SOL    HW226640   4.841   6.583   5.267  0.8426  1.4451  2.6476
 8581SOL     OW26641   0.327   4.661   2.167  0.1470 -0.2832 -0.1513
 8581SOL    HW126642   0.344   4.722   2.245 -1.7182  1.1290 -0.7709
 8581SOL    HW226643   0.367   4.702   2.085  2.3615 -1.9089  0.0364
 8582SOL     OW26644   1.995   5.217   1.713 -0.1233  0.1694 -0.1261
 8582SOL    HW126645   1.979   5.315   1.706 -1.6081 -0.1274 -1.4467
 8582SOL    HW226646   2.091   5.200   1.735  0.0846  1.9050  0.4369
 8583SOL     OW26647   5.477   4.339   5.058  0.2579  0.5360 -0.1452
 8583SOL    HW126648   5.419   4.308   5.134  0.2608 -1.7102 -0.9677
 8583SOL    HW226649   5.466   4.437   5.045 -1.4255  0.5981  1.3442
 8584SOL     OW26650   0.611   0.349   1.200  0.0154 -0.1063 -0.0318
 8584SOL    HW126651   0.594   0.355   1.299 -0.8989 -1.5611 -0.0644
 8584SOL    HW226652   0.655   0.432   1.169 -1.9992  1.5198  1.1582
 8585SOL     OW26653   3.183   4.945   1.563  0.0779  0.0335  0.0336
 8585SOL    HW126654   3.152   5.031   1.605  0.3809 -0.8756  2.2563
 8585SOL    HW226655   3.216   4.884   1.634 -0.0176 -1.9160 -1.5259
 8586SOL     OW26656   1.877   3.404   1.620  0.4071 -0.1747 -0.0422
 8586SOL    HW126657   1.787   3.447   1.610  0.7771  0.5269 -0.4344
 8586SOL    HW226658   1.867   3.318   1.669 -0.7346 -1.0216 -1.6590
 8587SOL     OW26659   1.606   5.026   2.168  0.1165  0.2821 -0.2696
 8587SOL    HW126660   1.587   5.008   2.264  0.0797  0.0414 -0.3233
 8587SOL    HW226661   1.705   5.020   2.152  0.1244  0.3401 -0.2438
 8588SOL     OW26662   6.632   1.199   4.404  0.3214 -0.2947  0.3585
 8588SOL    HW126663   6.588   1.180   4.492 -1.3264  1.9275  0.1136
 8588SOL    HW226664   6.643   1.114   4.353 -0.8691 -1.3407  1.7670
 8589SOL     OW26665   1.016   1.427   4.647  0.1187  0.2259 -0.3688
 8589SOL    HW126666   0.981   1.382   4.730  1.2898  0.6766  0.3979
 8589SOL    HW226667   0.993   1.524   4.650 -3.1978 -0.3380 -2.4538
 8590SOL     OW26668   1.013   4.752   1.369  0.0395  0.7884  0.1671
 8590SOL    HW126669   1.063   4.689   1.310  0.9363 -0.1218  1.8526
 8590SOL    HW226670   1.074   4.824   1.401 -0.0447  0.4357  1.1573
 8591SOL     OW26671   2.692   5.558   6.654  0.0597  0.1444  0.0843
 8591SOL    HW126672   2.714   5.561   6.556 -0.3217 -1.7568 -0.0965
 8591SOL    HW226673   2.598   5.526   6.666  0.0134  0.6231  1.0790
 8592SOL     OW26674   0.501   3.077   0.084 -0.3485 -0.4297  0.0210
 8592SOL    HW126675   0.531   3.051   0.176  1.4057 -0.4438 -0.5092
 8592SOL    HW226676   0.573   3.055   0.018 -2.3198 -2.2319 -1.6829
 8593SOL     OW26677   0.027   1.795   3.094  0.0710  0.8028  0.1469
 8593SOL    HW126678  -0.062   1.814   3.136  0.4759 -0.0560  1.4708
 8593SOL    HW226679   0.014   1.730   3.019 -0.5999  1.9412 -0.7532
 8594SOL     OW26680   4.186   6.000   2.900 -0.0668 -0.1914 -0.4196
 8594SOL    HW126681   4.228   5.932   2.840 -2.1746 -0.9066 -1.1505
 8594SOL    HW226682   4.257   6.060   2.936  1.4936 -0.9525 -2.0742
 8595SOL     OW26683   6.283   5.921   3.115  0.2992 -0.3291 -0.1135
 8595SOL    HW126684   6.262   5.833   3.073  1.7243 -0.4707 -0.5933
 8595SOL    HW226685   6.260   5.919   3.213 -0.3970 -0.9651 -0.2919
 8596SOL     OW26686   5.330   2.224   4.969  0.7251 -0.0664  0.4347
 8596SOL    HW126687   5.378   2.139   4.947 -0.2042 -0.3477 -0.6001
 8596SOL    HW226688   5.330   2.238   5.068  3.3615  0.2240  0.4541
 8597SOL     OW26689   6.325   0.085   4.488 -0.5779  0.2881  0.7487
 8597SOL    HW126690   6.300   0.125   4.400  0.7256  0.9694  0.6601
 8597SOL    HW226691   6.271   0.003   4.505 -0.2811 -0.3128 -1.0602
 8598SOL     OW26692   2.803   0.642   1.690 -0.0275  0.1880  0.5670
 8598SOL    HW126693   2.739   0.711   1.656  0.2585 -0.0840 -0.5333
 8598SOL    HW226694   2.879   0.631   1.627 -0.1368 -1.2332  0.6438
 8599SOL     OW26695   1.349   5.523   6.611  0.7783  0.4289 -0.1663
 8599SOL    HW126696   1.323   5.480   6.525 -1.1732  0.7822  0.2045
 8599SOL    HW226697   1.297   5.482   6.686  1.8604  0.6741  0.7537
 8600SOL     OW26698   3.205   1.748   0.039  0.3056  0.0159  0.5156
 8600SOL    HW126699   3.304   1.733   0.035  0.2690 -0.1021 -0.0350
 8600SOL    HW226700   3.167   1.701   0.119  0.4923 -1.1274 -0.0430
 8601SOL     OW26701   5.999   2.914   4.683 -0.3879  0.1935 -0.7738
 8601SOL    HW126702   5.923   2.973   4.656  1.1713  1.3838 -2.8078
 8601SOL    HW226703   5.991   2.826   4.637 -1.0525 -0.0699 -0.1756
 8602SOL     OW26704   5.907   5.998   6.826  0.1519  0.4244 -0.5287
 8602SOL    HW126705   5.833   6.060   6.796 -1.1491 -0.7437  0.1772
 8602SOL    HW226706   5.926   6.013   6.923  1.4834  1.3016 -0.8841
 8603SOL     OW26707   3.858   1.906   1.034  0.1935  0.3890 -0.5084
 8603SOL    HW126708   3.914   1.832   0.998 -0.6880 -0.1848 -0.7433
 8603SOL    HW226709   3.851   1.897   1.133 -0.2315 -0.0816 -0.5774
 8604SOL     OW26710   1.036   5.650   4.641  0.2524 -0.2864  0.0997
 8604SOL    HW126711   1.084   5.593   4.574  0.2405 -0.2202  0.0337
 8604SOL    HW226712   1.049   5.746   4.618  0.2947 -0.2616  0.2257
 8605SOL     OW26713   3.016   0.017   1.132  0.5824 -0.1974 -0.4470
 8605SOL    HW126714   3.003   0.051   1.039 -2.0577 -0.0569 -0.1092
 8605SOL    HW226715   2.938  -0.040   1.158  1.3695 -0.4343  1.6096
 8606SOL     OW26716   3.806   0.711   4.098  0.2896  0.1175  0.6860
 8606SOL    HW126717   3.897   0.730   4.135  0.3027  0.9341  0.2586
 8606SOL    HW226718   3.815   0.655   4.016  0.3548 -0.4814  1.1017
 8607SOL     OW26719   1.257   6.571   3.709 -0.4084  0.0104 -0.2941
 8607SOL    HW126720   1.269   6.481   3.751  1.1847  1.0050  1.5254
 8607SOL    HW226721   1.193   6.625   3.765 -1.8946 -0.1828 -1.7491
 8608SOL     OW26722   2.320   1.523   6.920 -0.3761 -0.2225  0.1602
 8608SOL    HW126723   2.311   1.540   6.822  0.3182 -0.2536  0.0911
 8608SOL    HW226724   2.270   1.594   6.970  1.4401  1.3720 -0.1524
 8609SOL     OW26725   1.113   0.079   5.077  0.1130  0.2416 -0.2455
 8609SOL    HW126726   1.028   0.132   5.079  0.7493  1.2676  1.1784
 8609SOL    HW226727   1.130   0.047   4.984 -2.0769 -0.4093 -0.4619
 8610SOL     OW26728   3.373   2.126   3.905 -0.6759  0.1521  0.1139
 8610SOL    HW126729   3.303   2.061   3.931  0.1617 -0.9233 -0.2253
 8610SOL    HW226730   3.352   2.164   3.815 -1.0644  0.1929  0.2234
 8611SOL     OW26731   4.236   4.779   2.642  0.7251  0.4144  0.1155
 8611SOL    HW126732   4.271   4.870   2.665 -0.8005  1.6360 -2.0442
 8611SOL    HW226733   4.312   4.719   2.618  1.7436  1.1165  1.4447
 8612SOL     OW26734   3.000   5.561   3.816 -0.0435  0.5867  0.7118
 8612SOL    HW126735   3.026   5.489   3.751  0.7682  0.1106  1.5358
 8612SOL    HW226736   2.923   5.529   3.871 -1.2284  1.2878 -0.5109
 8613SOL     OW26737   4.082   6.432   5.051  0.3794  0.6717  0.4136
 8613SOL    HW126738   4.097   6.522   5.010  2.4036  0.3502  0.3331
 8613SOL    HW226739   4.142   6.421   5.130 -1.1563  0.0467  1.5412
 8614SOL     OW26740   2.808   2.436   6.959 -0.4289  0.2389 -0.3795
 8614SOL    HW126741   2.864   2.462   7.038  0.0833  2.3644 -1.3859
 8614SOL    HW226742   2.725   2.493   6.957 -0.9387 -0.5018 -0.8416
 8615SOL     OW26743   2.071   4.031   5.155  0.4313 -0.7121  0.4441
 8615SOL    HW126744   2.167   4.017   5.130  0.7101  0.1486  0.9902
 8615SOL    HW226745   2.045   3.965   5.225  1.3140  0.4890  1.9641
 8616SOL     OW26746   6.774   6.311   5.828 -0.0216  0.1549 -0.1039
 8616SOL    HW126747   6.735   6.402   5.813 -0.1899  0.3008  1.1044
 8616SOL    HW226748   6.772   6.290   5.926  1.4641 -0.4941 -0.1874
 8617SOL     OW26749   5.778   6.972   4.556  0.6991 -0.4411 -0.3250
 8617SOL    HW126750   5.856   7.011   4.507  1.5190 -1.8269 -0.1745
 8617SOL    HW226751   5.717   6.927   4.491  0.4336 -0.0406 -0.3546
 8618SOL     OW26752   6.375   3.430   6.269  0.3962  0.1698 -0.2531
 8618SOL    HW126753   6.452   3.491   6.288  1.4818 -1.0957 -0.4360
 8618SOL    HW226754   6.300   3.450   6.333  0.7940  1.5380 -0.1912
 8619SOL     OW26755   3.198   4.425   1.648 -0.2207  0.1558  0.2505
 8619SOL    HW126756   3.131   4.487   1.689  1.0446  1.2660  0.6825
 8619SOL    HW226757   3.159   4.385   1.565 -1.1106  1.4127  0.0385
 8620SOL     OW26758   6.521   5.747   0.941 -0.3834 -0.2651  0.0313
 8620SOL    HW126759   6.582   5.764   1.018 -1.7543  2.4517  0.6265
 8620SOL    HW226760   6.427   5.766   0.968 -1.0748 -0.6910 -1.9187
 8621SOL     OW26761   3.161   5.068   6.346  0.6951 -0.1706  0.3698
 8621SOL    HW126762   3.072   5.048   6.387  1.0724 -0.7609  0.9136
 8621SOL    HW226763   3.161   5.039   6.251  0.2993 -0.1391  0.3591
 8622SOL     OW26764   5.955   0.174   1.716  0.4516  1.1053 -0.2710
 8622SOL    HW126765   6.013   0.112   1.769 -0.0831  1.7557  1.1500
 8622SOL    HW226766   5.985   0.176   1.621  2.9642  1.6295  0.4451
 8623SOL     OW26767   1.314   0.007   3.027  0.2988  0.4348 -0.0050
 8623SOL    HW126768   1.299  -0.045   3.111  1.2698 -0.9540 -0.6561
 8623SOL    HW226769   1.226   0.021   2.980 -0.0313 -0.2833  0.3815
 8624SOL     OW26770   0.092   4.022   3.131  0.1528 -0.2816  0.3932
 8624SOL    HW126771   0.052   3.955   3.194 -0.7125 -0.6999 -0.5648
 8624SOL    HW226772   0.074   4.115   3.165 -1.2584 -0.4744  0.2324
 8625SOL     OW26773   1.270   3.903   6.094  0.7867 -0.3742 -0.2361
 8625SOL    HW126774   1.191   3.933   6.041 -1.3046 -0.3306  2.6597
 8625SOL    HW226775   1.352   3.948   6.059 -0.4286 -0.2292 -3.2052
 8626SOL     OW26776   2.027   1.127   0.788 -0.2414 -0.2782  0.3513
 8626SOL    HW126777   2.077   1.208   0.817 -0.2197 -0.0685 -0.2436
 8626SOL    HW226778   1.934   1.154   0.760  0.4967 -0.0314 -2.1435
 8627SOL     OW26779   3.409   5.250   1.037 -0.0146 -0.0387  0.1612
 8627SOL    HW126780   3.464   5.167   1.031  0.0999  0.0108  0.5330
 8627SOL    HW226781   3.444   5.317   0.972 -0.0597 -0.2508 -0.0862
 8628SOL     OW26782   3.484   1.222   5.691 -0.0888  0.0056  0.2151
 8628SOL    HW126783   3.391   1.258   5.690  0.4150  1.3676 -1.2920
 8628SOL    HW226784   3.489   1.146   5.756 -1.7744  1.1094  1.7508
 8629SOL     OW26785   5.864   1.928   3.332  0.4150  0.2652 -0.4203
 8629SOL    HW126786   5.887   1.884   3.245  0.7232  0.0998 -0.2548
 8629SOL    HW226787   5.871   1.861   3.406 -0.5759  0.2071 -0.3571
 8630SOL     OW26788   5.577   2.076   4.972  0.1114  0.0981 -0.0953
 8630SOL    HW126789   5.605   1.995   4.922 -0.6835 -0.3083  0.0949
 8630SOL    HW226790   5.582   2.059   5.071 -2.9408 -0.8565  0.0202
 8631SOL     OW26791   1.806   4.598   0.447 -0.4349 -0.4852 -0.0698
 8631SOL    HW126792   1.756   4.645   0.375 -0.4884  1.6596  1.2646
 8631SOL    HW226793   1.756   4.516   0.475 -0.2069 -1.6140 -2.6504
 8632SOL     OW26794   0.606   0.742   0.172  0.0714 -0.1397  0.5733
 8632SOL    HW126795   0.705   0.742   0.186  0.0441 -0.4341  0.7802
 8632SOL    HW226796   0.586   0.744   0.074  0.2788  0.2495  0.5380
 8633SOL     OW26797   2.730   1.721   6.611 -0.3849  0.3942  0.2110
 8633SOL    HW126798   2.783   1.712   6.696  0.8770 -0.6467 -0.6503
 8633SOL    HW226799   2.790   1.705   6.533 -1.7876  0.1892 -0.8540
 8634SOL     OW26800   2.234   4.666   1.830 -0.2328 -0.3970  0.2888
 8634SOL    HW126801   2.172   4.743   1.818 -0.0263 -0.4313 -1.1991
 8634SOL    HW226802   2.193   4.599   1.891 -1.2883 -0.0428 -0.0117
 8635SOL     OW26803   6.857   1.459   1.772  0.1658  0.7246  0.2314
 8635SOL    HW126804   6.900   1.483   1.684 -0.3665 -0.1111 -0.2709
 8635SOL    HW226805   6.823   1.542   1.816 -1.8544  0.9286 -1.5700
 8636SOL     OW26806   6.104   4.089   0.602  0.8166 -1.1994  0.1315
 8636SOL    HW126807   6.195   4.099   0.562 -0.3449  0.6091 -2.2944
 8636SOL    HW226808   6.109   4.109   0.700  2.5836  1.9430 -0.4552
 8637SOL     OW26809   0.809   0.039   6.002 -0.4883 -0.2298 -0.6157
 8637SOL    HW126810   0.804   0.131   6.040 -2.4431 -0.0010 -1.2915
 8637SOL    HW226811   0.825  -0.027   6.075 -4.0943  0.1999  0.7581
 8638SOL     OW26812   0.194   3.279   5.020 -0.3275  0.1091 -0.4354
 8638SOL    HW126813   0.194   3.310   5.115 -0.9846 -0.9254 -0.0954
 8638SOL    HW226814   0.241   3.191   5.013 -1.8714 -0.7212 -0.7558
 8639SOL     OW26815   7.003   1.195   0.548  0.3602  0.3514  0.4979
 8639SOL    HW126816   6.980   1.284   0.588 -2.0628  0.4369 -0.8896
 8639SOL    HW226817   7.081   1.156   0.596  0.3609  2.4105  2.3185
 8640SOL     OW26818   2.985   3.856   1.802  0.2201  0.4041 -0.3707
 8640SOL    HW126819   2.886   3.847   1.795  0.0051  1.7174  0.4791
 8640SOL    HW226820   3.030   3.793   1.739 -1.1508 -0.1827 -0.7840
 8641SOL     OW26821   0.989   1.211   2.865 -0.7894  0.1792  0.0410
 8641SOL    HW126822   0.965   1.119   2.898  2.4350 -0.8803 -0.1907
 8641SOL    HW226823   1.043   1.203   2.781  0.0646  2.2598  0.3281
 8642SOL     OW26824   4.951   6.912   5.023 -0.2357 -0.5175 -0.2283
 8642SOL    HW126825   5.019   6.970   4.980 -0.0700  0.6224  1.4546
 8642SOL    HW226826   4.859   6.940   4.995 -0.0900 -0.7488 -0.9453
 8643SOL     OW26827   4.229   1.376   3.600  0.1666  0.1618  0.0764
 8643SOL    HW126828   4.234   1.471   3.630 -2.3141  0.4381 -0.1643
 8643SOL    HW226829   4.136   1.342   3.612  0.7068 -1.8654 -0.9736
 8644SOL     OW26830   2.189   2.181   3.466 -0.2200  0.2259 -0.5208
 8644SOL    HW126831   2.245   2.098   3.461  1.5051  1.3553 -0.5346
 8644SOL    HW226832   2.166   2.211   3.374 -0.9853 -0.2881 -0.5138
 8645SOL     OW26833   1.048   4.282   0.012 -0.9177 -0.2336 -0.4325
 8645SOL    HW126834   0.989   4.257   0.089 -1.1349  0.0010 -0.5207
 8645SOL    HW226835   1.027   4.376  -0.017 -1.3123 -0.5493 -1.2092
 8646SOL     OW26836   3.653   6.399   5.571  0.3183 -0.5037 -0.5693
 8646SOL    HW126837   3.645   6.305   5.538  1.7389 -0.5270 -0.8926
 8646SOL    HW226838   3.732   6.407   5.632 -0.4717  0.2362  0.4074
 8647SOL     OW26839   5.052   1.306   6.706  0.0395  0.3177  0.3445
 8647SOL    HW126840   5.127   1.360   6.669  1.3773 -0.9938  1.0109
 8647SOL    HW226841   5.083   1.211   6.719 -1.8697 -0.3611  0.2527
 8648SOL     OW26842   4.745   2.879   4.885  0.0012  0.2590  0.6724
 8648SOL    HW126843   4.780   2.805   4.827  0.0619  0.3749  0.5602
 8648SOL    HW226844   4.672   2.844   4.943 -1.1349  0.4814 -0.5727
 8649SOL     OW26845   3.697   3.789   0.462  0.3127 -0.3203  0.1418
 8649SOL    HW126846   3.789   3.771   0.498  0.8475 -0.4169 -1.2214
 8649SOL    HW226847   3.694   3.764   0.365 -0.7072  1.1310 -0.2283
 8650SOL     OW26848   1.614   1.719   0.401  0.2914 -0.0957 -0.1795
 8650SOL    HW126849   1.625   1.639   0.341  2.3371 -0.1393  0.1848
 8650SOL    HW226850   1.704   1.747   0.435 -0.7819 -0.2267  3.1079
 8651SOL     OW26851   6.598   1.286   5.623  0.2236 -0.6897  0.0072
 8651SOL    HW126852   6.654   1.336   5.557 -0.4983  0.2600  0.1035
 8651SOL    HW226853   6.657   1.227   5.678  0.8271 -1.7383 -1.6576
 8652SOL     OW26854   6.985   3.688   6.635 -0.3433 -0.0770  0.2552
 8652SOL    HW126855   6.913   3.645   6.691 -0.7058  0.4053  0.1620
 8652SOL    HW226856   7.033   3.617   6.584 -0.2035 -0.4929  0.9514
 8653SOL     OW26857   4.081   0.250   4.774  0.0063 -0.2103 -0.1894
 8653SOL    HW126858   4.023   0.170   4.790 -0.6756  0.3843  0.3770
 8653SOL    HW226859   4.073   0.313   4.851  1.1101  0.0728 -0.2884
 8654SOL     OW26860   5.566   3.487   1.457 -0.0598  0.3458  0.3118
 8654SOL    HW126861   5.552   3.428   1.377  0.2247  0.4457  0.1864
 8654SOL    HW226862   5.524   3.446   1.537 -0.8173  0.5030 -0.0006
 8655SOL     OW26863   0.323   3.686   3.539  0.0251  0.2118 -0.4016
 8655SOL    HW126864   0.345   3.595   3.575 -1.8466 -0.9323 -1.9609
 8655SOL    HW226865   0.381   3.705   3.460 -1.3751 -0.8758 -1.7589
 8656SOL     OW26866   2.628   1.942   0.417  0.3382 -0.1865  0.0169
 8656SOL    HW126867   2.642   1.986   0.506 -0.3571  1.2754 -0.5689
 8656SOL    HW226868   2.707   1.960   0.359  0.3037 -0.1945 -0.0322
 8657SOL     OW26869   4.876   6.019   3.980  0.3776 -0.0643  0.6863
 8657SOL    HW126870   4.855   6.063   3.893  0.2129  0.5336  1.0195
 8657SOL    HW226871   4.820   5.937   3.991 -0.6989  0.6769  0.8852
 8658SOL     OW26872   4.591   2.579   5.623  0.0496  0.2782 -0.1049
 8658SOL    HW126873   4.643   2.557   5.540 -0.2960 -0.2113 -0.1961
 8658SOL    HW226874   4.563   2.494   5.668 -0.4699  0.5427  0.0743
 8659SOL     OW26875   4.749   1.616   6.723  0.0717 -0.1354 -0.8872
 8659SOL    HW126876   4.728   1.640   6.628 -1.1613  1.0861 -0.3275
 8659SOL    HW226877   4.823   1.674   6.757  0.3830 -0.4448 -1.0235
 8660SOL     OW26878   4.846   6.723   2.370  0.0044 -0.1371  0.3150
 8660SOL    HW126879   4.869   6.754   2.278  0.6818 -0.5237  0.3436
 8660SOL    HW226880   4.801   6.796   2.420  1.2943  0.7201  0.2822
 8661SOL     OW26881   0.661   3.303   0.293 -0.3639 -0.3823  0.5853
 8661SOL    HW126882   0.664   3.256   0.381 -0.6282 -0.1233  0.7339
 8661SOL    HW226883   0.693   3.397   0.304  1.9214 -1.0077 -0.0470
 8662SOL     OW26884   1.314   6.661   5.147  0.0196  0.1331  0.2406
 8662SOL    HW126885   1.401   6.696   5.179 -0.2262 -0.2233  1.3351
 8662SOL    HW226886   1.273   6.603   5.218  0.0302 -1.6883 -1.1750
 8663SOL     OW26887   5.951   4.498   0.004  0.1771 -0.2029 -0.5447
 8663SOL    HW126888   5.950   4.436   0.083 -1.3460 -0.8555 -1.0544
 8663SOL    HW226889   6.022   4.468  -0.060  2.7263  1.3879  1.3172
 8664SOL     OW26890   1.667   4.093   3.356  0.2585  0.2203  0.3544
 8664SOL    HW126891   1.707   4.184   3.364 -0.3277  0.9029 -3.0265
 8664SOL    HW226892   1.592   4.083   3.422  0.2240  2.2544  0.6683
 8665SOL     OW26893   0.891   5.783   3.762  0.1070 -0.1314  0.7189
 8665SOL    HW126894   0.911   5.820   3.671 -0.6480 -0.3321  0.4653
 8665SOL    HW226895   0.920   5.848   3.832  1.1235 -0.1749  0.3503
 8666SOL     OW26896   1.521   1.966   1.524  0.0581  0.0890  0.1589
 8666SOL    HW126897   1.532   1.873   1.487  0.5788 -0.9531  2.7507
 8666SOL    HW226898   1.427   1.996   1.508 -0.7627 -1.7828  1.1425
 8667SOL     OW26899   1.122   6.230   1.489 -0.2247  0.3272 -0.0077
 8667SOL    HW126900   1.176   6.291   1.547 -1.1902  1.1986  0.0018
 8667SOL    HW226901   1.137   6.135   1.517  0.3278  0.6458  0.8049
 8668SOL     OW26902   6.845   0.517   5.152 -0.2478 -0.2553 -0.2583
 8668SOL    HW126903   6.773   0.573   5.194  1.3000  0.0759  2.1198
 8668SOL    HW226904   6.803   0.450   5.091 -2.9261 -1.8028  2.9474
 8669SOL     OW26905   2.245   2.619   6.877 -0.4441  0.1895  0.1316
 8669SOL    HW126906   2.238   2.609   6.777 -1.1397  0.6866  0.1163
 8669SOL    HW226907   2.175   2.684   6.908 -0.2683 -0.0061  0.9520
 8670SOL     OW26908   1.829   4.711   6.895 -0.3389 -0.6041  0.4789
 8670SOL    HW126909   1.925   4.682   6.894  0.6953  2.5290  0.2105
 8670SOL    HW226910   1.781   4.668   6.818  1.4638 -0.3549 -0.8522
 8671SOL     OW26911   3.600   5.462   4.112  0.1831 -0.4130 -0.5821
 8671SOL    HW126912   3.570   5.470   4.207 -0.8479 -2.5878 -0.6491
 8671SOL    HW226913   3.665   5.387   4.104 -0.0745 -0.5365 -1.6622
 8672SOL     OW26914   6.344   1.388   2.016  0.1517  0.8798 -0.0826
 8672SOL    HW126915   6.346   1.412   1.919  0.5291 -0.5807 -0.4529
 8672SOL    HW226916   6.427   1.419   2.060  0.5988  0.3470 -0.5361
 8673SOL     OW26917   4.668   1.755   5.053  0.1739 -0.3580 -0.1192
 8673SOL    HW126918   4.724   1.677   5.025 -1.6464 -1.5802 -0.5220
 8673SOL    HW226919   4.663   1.759   5.153  0.7499 -0.3960 -0.0881
 8674SOL     OW26920   1.643   2.276   5.106 -0.5297 -0.7817 -0.8816
 8674SOL    HW126921   1.613   2.254   5.013 -1.1726 -1.7220 -0.4624
 8674SOL    HW226922   1.666   2.191   5.154 -2.1511 -0.5056  0.4736
 8675SOL     OW26923   3.637   2.522   1.433 -0.1305  0.0046  0.0555
 8675SOL    HW126924   3.610   2.434   1.394 -0.5385 -0.3755  1.1342
 8675SOL    HW226925   3.562   2.587   1.422  0.3638  0.3897 -1.1996
 8676SOL     OW26926   1.642   0.036   5.481 -0.4683 -0.4305  0.1868
 8676SOL    HW126927   1.625   0.124   5.437  0.8594 -1.1204 -1.8231
 8676SOL    HW226928   1.715   0.046   5.549  1.2010 -0.2977 -1.5210
 8677SOL     OW26929   6.931   1.666   5.165 -0.0234 -0.0014  0.2587
 8677SOL    HW126930   6.954   1.717   5.082  0.7209  0.3427  0.6719
 8677SOL    HW226931   6.904   1.572   5.140  2.4613 -0.6570 -0.2281
 8678SOL     OW26932   2.985   6.920   4.292  0.1703  0.4485 -0.2640
 8678SOL    HW126933   3.020   6.862   4.218  0.2231 -2.0647  1.5693
 8678SOL    HW226934   3.056   6.931   4.362 -1.0345 -0.4976  1.1698
 8679SOL     OW26935   4.139   1.655   1.473 -0.3520  0.0905  0.1831
 8679SOL    HW126936   4.070   1.701   1.529  1.3307 -0.3215  2.7493
 8679SOL    HW226937   4.226   1.652   1.523  1.8025  1.1776 -3.1348
 8680SOL     OW26938   6.483   5.286   2.683  0.0157  0.2697 -0.0474
 8680SOL    HW126939   6.443   5.199   2.712 -1.7123  1.2025  0.5716
 8680SOL    HW226940   6.454   5.358   2.746  0.3874  1.4915 -1.2272
 8681SOL     OW26941   0.976   3.844   2.869  0.2457 -0.0938  0.3999
 8681SOL    HW126942   1.072   3.825   2.887  0.1664  0.0099  0.9633
 8681SOL    HW226943   0.920   3.772   2.912  0.0997 -0.5166 -0.4828
 8682SOL     OW26944   2.047   1.687   5.208 -0.0091 -0.0857 -0.3490
 8682SOL    HW126945   2.063   1.751   5.134  0.7205 -1.3598 -1.3323
 8682SOL    HW226946   1.993   1.609   5.175  0.5270 -0.7860  0.3706
 8683SOL     OW26947   5.579   0.729   1.678  0.2039 -0.1888 -0.1728
 8683SOL    HW126948   5.612   0.703   1.587 -1.0149 -0.6056 -0.5223
 8683SOL    HW226949   5.538   0.820   1.674  1.3229  0.3396  0.2616
 8684SOL     OW26950   1.150   5.639   6.187  0.2046 -0.5183 -0.4574
 8684SOL    HW126951   1.117   5.723   6.144  1.3502 -0.0101 -0.3803
 8684SOL    HW226952   1.074   5.593   6.234 -1.2132 -1.3361 -3.3182
 8685SOL     OW26953   2.245   5.761   1.764  0.0845 -1.1383 -0.2281
 8685SOL    HW126954   2.158   5.732   1.803 -0.0159 -1.1669 -0.4723
 8685SOL    HW226955   2.274   5.846   1.807 -0.6323 -0.5135 -0.9338
 8686SOL     OW26956   2.575   3.265   0.023  0.0776 -0.8552 -0.0210
 8686SOL    HW126957   2.649   3.217   0.072 -0.0727 -0.7005  0.3644
 8686SOL    HW226958   2.604   3.283  -0.071  1.1295  0.4980  0.5270
 8687SOL     OW26959   2.687   0.911   1.875 -0.1933  0.0422 -0.1641
 8687SOL    HW126960   2.661   0.855   1.796  0.9009 -1.3941  0.4408
 8687SOL    HW226961   2.650   0.870   1.958  2.0926 -0.8816  0.4859
 8688SOL     OW26962   0.882   6.993   1.784 -0.2356  0.1685  0.2053
 8688SOL    HW126963   0.910   6.912   1.733  1.8508  0.9646  0.0047
 8688SOL    HW226964   0.907   6.981   1.881 -0.1221  0.4838  0.2153
 8689SOL     OW26965   1.310   1.199   5.502 -1.0267 -0.5580  0.3919
 8689SOL    HW126966   1.338   1.182   5.408 -0.7389  0.1606  0.3388
 8689SOL    HW226967   1.326   1.295   5.524 -0.4559 -0.8710  1.3914
 8690SOL     OW26968   6.342   4.612   5.657 -0.2810  0.1900 -0.0191
 8690SOL    HW126969   6.323   4.709   5.642 -0.5172  0.3510  1.2240
 8690SOL    HW226970   6.383   4.599   5.748 -1.7355 -1.0396  0.5077
 8691SOL     OW26971   4.212   6.448   0.624 -0.2390  0.2647  0.3775
 8691SOL    HW126972   4.138   6.458   0.691  0.3125  1.6786  0.8093
 8691SOL    HW226973   4.256   6.359   0.636 -1.4232 -0.3188  0.5543
 8692SOL     OW26974   3.407   3.838   1.228 -0.1710 -0.6985  0.2397
 8692SOL    HW126975   3.354   3.819   1.146 -0.4899  0.5772  0.1245
 8692SOL    HW226976   3.504   3.839   1.206 -0.2657 -0.1131 -0.1981
 8693SOL     OW26977   4.870   6.179   2.111 -0.5039 -0.1201  0.4117
 8693SOL    HW126978   4.913   6.269   2.104  0.6021 -0.6615  0.1612
 8693SOL    HW226979   4.872   6.147   2.206  0.4368 -0.5192  0.2645
 8694SOL     OW26980   2.371   6.874   1.186 -0.2006 -0.6065 -0.4766
 8694SOL    HW126981   2.346   6.805   1.254  2.4547 -1.8852 -0.6922
 8694SOL    HW226982   2.401   6.829   1.102  0.6398  0.8505 -0.9936
 8695SOL     OW26983   5.443   1.801   0.071  0.3818  0.3334 -0.0640
 8695SOL    HW126984   5.471   1.705   0.076 -0.4995  0.1157  1.0748
 8695SOL    HW226985   5.439   1.829  -0.025  1.6734 -0.4439 -0.3771
 8696SOL     OW26986   5.471   3.012   7.000 -0.0844 -0.1118  0.4774
 8696SOL    HW126987   5.383   2.970   7.022 -0.8863  1.0329 -0.3976
 8696SOL    HW226988   5.470   3.042   6.904  1.0209  0.5261  0.6511
 8697SOL     OW26989   2.165   0.608   3.215 -0.2645 -0.5199  0.0513
 8697SOL    HW126990   2.068   0.589   3.232 -0.5655  0.6470 -0.2260
 8697SOL    HW226991   2.194   0.683   3.275 -0.5249  1.6098 -2.3270
 8698SOL     OW26992   4.562   4.510   4.727 -0.5037 -0.7227  0.2303
 8698SOL    HW126993   4.476   4.464   4.751 -1.0107 -0.2306 -0.5956
 8698SOL    HW226994   4.573   4.592   4.783 -0.5060 -0.8593  0.4306
 8699SOL     OW26995   4.130   3.665   1.254 -0.6553  0.3840  0.1611
 8699SOL    HW126996   4.088   3.637   1.168 -0.7946  0.4263  0.2158
 8699SOL    HW226997   4.060   3.675   1.324 -0.4949 -0.0336  0.3838
 8700SOL     OW26998   5.104   3.748   0.030 -0.2925 -0.4493  0.0990
 8700SOL    HW126999   5.013   3.705   0.030  0.0456 -1.1806  0.5387
 8700SOL    HW227000   5.153   3.723   0.113  0.3357 -0.1046 -0.1610
 8701SOL     OW27001   0.452   6.299   1.584  0.8111  0.9975 -0.0377
 8701SOL    HW127002   0.371   6.241   1.587  1.0548  0.6288 -0.5117
 8701SOL    HW227003   0.426   6.395   1.599  0.1697  0.9993 -1.1089
 8702SOL     OW27004   6.508   5.272   4.039 -0.3173 -0.0286  0.1749
 8702SOL    HW127005   6.576   5.208   4.003  0.1839  0.8135 -0.3964
 8702SOL    HW227006   6.461   5.317   3.964  0.4317  1.4183  0.5347
 8703SOL     OW27007   3.840   5.661   6.646  0.4588 -0.4400 -0.2848
 8703SOL    HW127008   3.863   5.755   6.621 -0.5657 -0.1526 -0.2077
 8703SOL    HW227009   3.872   5.599   6.574  1.7647 -0.1167  0.0032
 8704SOL     OW27010   3.086   6.081   6.540 -0.4604 -0.7899 -0.9466
 8704SOL    HW127011   3.048   6.100   6.449 -1.1438 -2.8301 -1.1220
 8704SOL    HW227012   3.184   6.063   6.531 -0.3947 -0.3497 -1.1744
 8705SOL     OW27013   0.666   6.944   5.536  0.4315 -0.0769 -0.1897
 8705SOL    HW127014   0.593   6.990   5.586 -0.8080  0.6119 -2.5241
 8705SOL    HW227015   0.702   6.869   5.592 -1.3657  0.1742  1.4035
 8706SOL     OW27016   5.397   5.986   0.559 -0.8523  0.4907  0.3140
 8706SOL    HW127017   5.378   5.892   0.588  0.7962  0.8271  2.8335
 8706SOL    HW227018   5.370   5.998   0.464  1.1997 -3.2890 -0.9597
 8707SOL     OW27019   3.105   3.970   3.803  0.0027 -0.2445 -1.0397
 8707SOL    HW127020   3.005   3.974   3.798 -0.0295 -0.5927 -0.6959
 8707SOL    HW227021   3.144   4.006   3.718 -0.3641  2.3865 -0.1882
 8708SOL     OW27022   2.983   5.868   4.364 -0.0773 -0.5191 -0.5614
 8708SOL    HW127023   2.911   5.937   4.354 -0.8413 -1.1316  0.5249
 8708SOL    HW227024   2.963   5.789   4.306  0.1673 -0.3420 -0.8918
 8709SOL     OW27025   2.057   0.190   2.083  0.4169 -0.1078  0.1060
 8709SOL    HW127026   2.117   0.248   2.139 -0.3045  1.5113 -0.7632
 8709SOL    HW227027   2.090   0.188   1.989 -1.4768  1.7434 -0.6596
 8710SOL     OW27028   1.135   2.221   2.964  0.2258  0.3544  0.1793
 8710SOL    HW127029   1.161   2.126   2.982 -0.3576  0.4743  1.8672
 8710SOL    HW227030   1.049   2.223   2.912 -0.7334 -0.0989  1.6690
 8711SOL     OW27031   0.701   6.214   2.000 -0.0522 -0.0028 -0.6995
 8711SOL    HW127032   0.780   6.153   1.999 -0.1419 -0.1268 -1.8876
 8711SOL    HW227033   0.721   6.294   2.056  0.0958 -1.0535  0.8257
 8712SOL     OW27034   5.054   5.187   0.917 -0.1267 -0.2211  0.1343
 8712SOL    HW127035   5.059   5.266   0.978 -0.0267  0.4489 -0.7278
 8712SOL    HW227036   5.136   5.130   0.930  1.0945  1.1809 -1.0493
 8713SOL     OW27037   2.297   4.359   2.679 -0.4888  0.1771 -0.2173
 8713SOL    HW127038   2.355   4.430   2.719 -0.6716 -0.6490  1.6064
 8713SOL    HW227039   2.347   4.272   2.678 -0.9292 -0.0731 -0.6848
 8714SOL     OW27040   6.360   2.519   1.337 -0.0240  0.4941 -0.7991
 8714SOL    HW127041   6.294   2.552   1.270  0.3382 -1.2693 -2.0940
 8714SOL    HW227042   6.445   2.570   1.327  0.0947  0.1215 -1.8535
 8715SOL     OW27043   3.181   6.703   1.406  0.3489  0.5035 -0.4756
 8715SOL    HW127044   3.203   6.616   1.449 -1.2111  0.2741 -0.0718
 8715SOL    HW227045   3.157   6.770   1.476  2.2513  1.5184 -0.7279
 8716SOL     OW27046   6.298   5.900   1.076  0.3649 -0.2767  0.2974
 8716SOL    HW127047   6.223   5.857   1.127  2.1581 -2.6260  1.1372
 8716SOL    HW227048   6.357   5.950   1.139  1.6864 -1.8202  0.3340
 8717SOL     OW27049   3.328   3.898   0.723  0.3685  0.3667  0.2084
 8717SOL    HW127050   3.244   3.946   0.698  0.6994  0.6062 -0.4602
 8717SOL    HW227051   3.308   3.800   0.736 -0.0346  0.4439  0.1864
 8718SOL     OW27052   1.717   5.141   3.302  0.1842 -0.5702  0.9806
 8718SOL    HW127053   1.649   5.214   3.295 -2.5161 -3.0501 -2.1455
 8718SOL    HW227054   1.806   5.175   3.273 -0.9835  1.4700 -0.4222
 8719SOL     OW27055   4.615   1.194   5.687  0.1264 -0.2124  0.5822
 8719SOL    HW127056   4.555   1.170   5.763 -1.4207 -1.8810 -1.0550
 8719SOL    HW227057   4.646   1.289   5.697 -1.4802  0.1864  2.3199
 8720SOL     OW27058   4.937   6.996   1.918 -0.3879  0.1178 -0.7590
 8720SOL    HW127059   5.023   7.045   1.933 -1.4448  1.3149  1.9798
 8720SOL    HW227060   4.873   7.056   1.869 -0.0646 -0.4020 -1.8634
 8721SOL     OW27061   0.815   3.148   1.910 -0.6930  0.3011 -0.3769
 8721SOL    HW127062   0.812   3.246   1.929 -1.2840  0.8588 -2.8848
 8721SOL    HW227063   0.893   3.128   1.852 -0.5319 -0.7476  0.1855
 8722SOL     OW27064   2.630   4.992   5.252 -0.2301 -0.1788  0.3220
 8722SOL    HW127065   2.658   5.088   5.249  0.9587 -0.4958  0.7666
 8722SOL    HW227066   2.617   4.959   5.158  0.7841  0.0288  0.0916
 8723SOL     OW27067   5.834   0.568   0.663 -0.3733  0.4209  0.2171
 8723SOL    HW127068   5.859   0.480   0.704 -0.5969 -0.1687 -0.8808
 8723SOL    HW227069   5.892   0.640   0.702  0.3430 -0.3245  0.5700
 8724SOL     OW27070   4.639   5.114   2.544 -0.2685  0.0113 -0.1740
 8724SOL    HW127071   4.726   5.075   2.577 -1.7946 -1.3056  2.7397
 8724SOL    HW227072   4.623   5.201   2.590 -1.0112 -0.3414  0.2556
 8725SOL     OW27073   6.178   4.968   4.334  0.3094 -0.0830 -0.4190
 8725SOL    HW127074   6.200   4.874   4.308  0.2785 -0.6298  1.4041
 8725SOL    HW227075   6.241   5.030   4.288  2.7801 -1.2838  1.1413
 8726SOL     OW27076   1.785   1.949   1.893  0.1043  0.5173  0.1894
 8726SOL    HW127077   1.802   2.031   1.947 -0.0241  2.3823 -2.3932
 8726SOL    HW227078   1.707   1.965   1.832 -0.0762 -1.6259 -0.2049
 8727SOL     OW27079   2.868   5.311   2.986 -0.2991 -0.1596  0.0227
 8727SOL    HW127080   2.868   5.333   3.084 -1.6857  1.3968 -0.2862
 8727SOL    HW227081   2.863   5.395   2.933 -0.9249 -1.0325 -1.3611
 8728SOL     OW27082   5.250   3.417   6.122 -0.2444 -0.3769  0.3921
 8728SOL    HW127083   5.307   3.339   6.094  0.7835 -0.2458  1.9638
 8728SOL    HW227084   5.173   3.384   6.177 -1.4437 -0.5079 -1.3133
 8729SOL     OW27085   4.804   3.368   1.480  0.5081  0.6827 -0.8581
 8729SOL    HW127086   4.704   3.363   1.488  0.6077  1.0081  1.2193
 8729SOL    HW227087   4.843   3.277   1.493  0.5154  0.6707 -0.9640
 8730SOL     OW27088   6.897   3.958   5.781  0.4247  0.2770 -0.1621
 8730SOL    HW127089   6.862   3.952   5.688  0.8919  3.0756 -0.5999
 8730SOL    HW227090   6.822   3.943   5.846 -1.6642  4.9150 -1.0712
 8731SOL     OW27091   5.245   1.191   6.130  0.1453  0.0563 -0.0658
 8731SOL    HW127092   5.177   1.150   6.070  1.1132 -0.3781 -0.8953
 8731SOL    HW227093   5.203   1.264   6.183 -1.2235 -0.9420  0.2685
 8732SOL     OW27094   2.078   3.917   0.208 -0.2556 -0.3431  0.1204
 8732SOL    HW127095   2.045   4.007   0.182 -0.0857  0.1328  1.4443
 8732SOL    HW227096   2.176   3.910   0.191  0.1180  0.4333  1.7244
 8733SOL     OW27097   2.063   3.469   3.410 -0.1520  0.0642  0.3432
 8733SOL    HW127098   2.046   3.541   3.342  2.0161 -0.5203 -0.9441
 8733SOL    HW227099   2.048   3.505   3.502 -2.2780  1.1571 -0.3717
 8734SOL     OW27100   6.488   3.745   5.117  0.0132 -0.1822  0.2273
 8734SOL    HW127101   6.480   3.841   5.091 -0.2110 -0.3789 -0.4293
 8734SOL    HW227102   6.399   3.700   5.108 -0.0437 -0.2871  1.2076
 8735SOL     OW27103   0.763   2.674   0.120 -0.0970 -0.9294 -0.5689
 8735SOL    HW127104   0.796   2.620   0.197 -1.2574 -0.9185 -0.0490
 8735SOL    HW227105   0.668   2.651   0.101  0.0871 -0.7346 -1.8340
 8736SOL     OW27106   2.302   5.157   3.670  0.4616  0.1352 -0.4375
 8736SOL    HW127107   2.232   5.086   3.660 -3.1609  3.3189 -0.2879
 8736SOL    HW227108   2.370   5.148   3.598 -1.3610 -1.8880 -2.0319
 8737SOL     OW27109   3.897   6.549   4.531 -0.2670  0.3680  0.0840
 8737SOL    HW127110   3.908   6.457   4.569  1.9741  0.7594  0.5792
 8737SOL    HW227111   3.948   6.555   4.445  0.2119  1.3076  0.4152
 8738SOL     OW27112   2.625   5.699   4.879 -0.5416 -0.3927 -0.2387
 8738SOL    HW127113   2.644   5.733   4.787 -1.7148 -0.7889 -0.6474
 8738SOL    HW227114   2.527   5.681   4.888 -0.6228  0.7310  1.4615
 8739SOL     OW27115   6.968   6.372   5.056  0.0525  0.2505  0.0271
 8739SOL    HW127116   6.924   6.303   4.999 -0.8601 -0.1220  1.1552
 8739SOL    HW227117   7.058   6.339   5.086  0.0596 -0.0065 -0.2734
 8740SOL     OW27118   0.828   0.088   3.967  0.0126  0.1743 -0.2734
 8740SOL    HW127119   0.795   0.115   3.876 -0.4572 -0.3517 -0.2658
 8740SOL    HW227120   0.923   0.060   3.961  0.2085  0.8579 -0.4641
 8741SOL     OW27121   4.666   6.744   6.153  0.3057  0.2224  0.2530
 8741SOL    HW127122   4.599   6.781   6.217  0.1840 -0.7315  0.6942
 8741SOL    HW227123   4.620   6.681   6.091  1.0337 -1.7322  1.6090
 8742SOL     OW27124   3.062   4.440   0.780  0.1023 -0.1476 -0.0813
 8742SOL    HW127125   3.110   4.483   0.704  0.7904 -0.0835  0.3824
 8742SOL    HW227126   3.104   4.468   0.866 -0.4158 -0.5381  0.3040
 8743SOL     OW27127   6.254   1.510   4.192 -0.6486  0.0636  0.3091
 8743SOL    HW127128   6.331   1.448   4.206 -0.6251  0.1567  0.5923
 8743SOL    HW227129   6.184   1.465   4.136 -0.3455  0.0148 -0.0353
 8744SOL     OW27130   1.933   3.780   6.779 -0.2050 -0.7852 -0.6562
 8744SOL    HW127131   2.012   3.743   6.828 -0.0594 -1.6155 -1.4875
 8744SOL    HW227132   1.963   3.856   6.721  0.0033 -1.1604 -1.0416
 8745SOL     OW27133   3.370   4.162   5.697  0.6198  0.0564  0.4278
 8745SOL    HW127134   3.296   4.095   5.689 -0.5409  1.4162 -0.9848
 8745SOL    HW227135   3.365   4.209   5.785 -0.1607  0.0771  0.3738
 8746SOL     OW27136   4.308   5.458   2.819 -0.1458 -0.4586 -0.3293
 8746SOL    HW127137   4.333   5.370   2.779  1.5225 -0.3727  0.4248
 8746SOL    HW227138   4.272   5.443   2.911 -0.4042 -0.3983 -0.4215
 8747SOL     OW27139   1.572   4.251   4.633  0.1104  0.7768 -1.2857
 8747SOL    HW127140   1.491   4.303   4.661 -0.5921 -0.2029 -1.4277
 8747SOL    HW227141   1.619   4.216   4.714  0.0660  0.8713 -1.2191
 8748SOL     OW27142   4.310   1.441   0.267 -0.3670 -0.3224 -0.3946
 8748SOL    HW127143   4.333   1.443   0.170 -0.7993  0.1896 -0.4952
 8748SOL    HW227144   4.382   1.394   0.318  0.5915  0.6696 -0.7786
 8749SOL     OW27145   2.215   5.319   6.623  0.1667 -1.1086 -0.2172
 8749SOL    HW127146   2.206   5.342   6.526  0.9592 -0.0863 -0.0649
 8749SOL    HW227147   2.131   5.346   6.671 -0.1851 -1.5158 -0.5960
 8750SOL     OW27148   4.093   5.574   6.975 -0.3250  0.0965  0.6059
 8750SOL    HW127149   4.092   5.477   6.948  1.9467  0.7205 -2.0900
 8750SOL    HW227150   4.185   5.601   7.003 -1.0736  1.3878  2.0335
 8751SOL     OW27151   6.815   4.655   0.756 -0.0010  0.4251 -0.2840
 8751SOL    HW127152   6.784   4.564   0.729 -2.2100  1.0452 -0.0724
 8751SOL    HW227153   6.747   4.723   0.728  0.7100  1.7960  1.1373
 8752SOL     OW27154   5.786   1.304   1.037  0.2109  0.4577 -0.3865
 8752SOL    HW127155   5.837   1.306   0.951 -2.0851  1.5745 -1.8319
 8752SOL    HW227156   5.769   1.398   1.067  0.0339  0.0840  0.7315
 8753SOL     OW27157   6.513   6.647   1.988  0.4906  0.4981 -0.0144
 8753SOL    HW127158   6.591   6.659   1.925  0.3670  2.4797  0.1501
 8753SOL    HW227159   6.436   6.607   1.938  1.1986 -0.3426 -0.4761
 8754SOL     OW27160   0.927   2.002   6.299  0.0769  0.1579  0.0908
 8754SOL    HW127161   0.948   1.987   6.396  0.3465  0.8580  0.1466
 8754SOL    HW227162   0.844   1.953   6.275  1.0276 -1.5968  0.1978
 8755SOL     OW27163   1.091   3.856   3.741  0.3658 -0.1585  0.0926
 8755SOL    HW127164   1.121   3.944   3.705  0.9201  0.1324  1.2165
 8755SOL    HW227165   1.076   3.792   3.665 -0.2444  0.9534 -0.7476
 8756SOL     OW27166   3.634   2.008   2.094  0.1180 -0.3318  0.0796
 8756SOL    HW127167   3.628   2.001   1.994  0.5466 -0.3816  0.0563
 8756SOL    HW227168   3.697   2.081   2.119 -0.1561 -0.1775  0.3155
 8757SOL     OW27169   1.679   6.550   4.554  0.0167 -0.3328 -0.3974
 8757SOL    HW127170   1.608   6.500   4.603 -0.7202  2.1192  1.2505
 8757SOL    HW227171   1.720   6.491   4.485 -0.5995 -3.2091  1.5112
 8758SOL     OW27172   5.452   0.075   3.141  0.1783  0.1631 -0.7224
 8758SOL    HW127173   5.439   0.174   3.131  1.0895  0.3696 -0.0073
 8758SOL    HW227174   5.376   0.037   3.194  0.8579  0.8372  0.8085
 8759SOL     OW27175   3.620   4.131   2.176 -0.2335 -0.1783  0.2704
 8759SOL    HW127176   3.716   4.147   2.199  0.0334 -0.5684 -0.5520
 8759SOL    HW227177   3.611   4.046   2.124 -1.2344 -1.0505  1.7864
 8760SOL     OW27178   2.861   2.251   6.739 -0.2039 -0.2066 -0.2489
 8760SOL    HW127179   2.781   2.208   6.697  1.0623 -1.5590 -1.3572
 8760SOL    HW227180   2.830   2.315   6.810 -2.2451 -0.9698 -0.3715
 8761SOL     OW27181   0.848   3.876   1.479  0.0275 -0.7934  0.1334
 8761SOL    HW127182   0.941   3.912   1.485 -0.3183  0.1318  0.0286
 8761SOL    HW227183   0.785   3.936   1.528 -0.7497 -0.5601 -1.1041
 8762SOL     OW27184   5.436   0.172   2.267 -0.2629  0.1819 -0.2186
 8762SOL    HW127185   5.337   0.186   2.265 -0.3019 -0.0982 -2.6640
 8762SOL    HW227186   5.475   0.196   2.178  1.9103  0.4275  0.7398
 8763SOL     OW27187   3.838   2.119   3.396 -0.1423  0.4243  0.3790
 8763SOL    HW127188   3.927   2.165   3.400 -1.1291  2.5412 -0.1123
 8763SOL    HW227189   3.826   2.079   3.305 -0.0260  0.9207  0.1377
 8764SOL     OW27190   6.542   6.511   1.437  0.2894  0.5148 -0.2503
 8764SOL    HW127191   6.543   6.416   1.469 -0.4022  0.8434  0.8026
 8764SOL    HW227192   6.631   6.553   1.455  0.5786  0.0940 -0.6608
 8765SOL     OW27193   3.990   5.280   4.415  0.1414 -0.3130 -0.3984
 8765SOL    HW127194   4.018   5.374   4.398  0.8051 -0.7378 -1.7956
 8765SOL    HW227195   3.890   5.274   4.411  0.1445  0.0830 -1.8341
 8766SOL     OW27196   1.685   2.555   5.717  0.2709  0.3517 -0.2653
 8766SOL    HW127197   1.710   2.646   5.752 -0.1896  1.0912 -1.8012
 8766SOL    HW227198   1.754   2.524   5.652  0.3146 -0.3199  0.0906
 8767SOL     OW27199   4.554   4.823   2.660 -0.3511 -0.2673 -0.5984
 8767SOL    HW127200   4.496   4.860   2.588  0.1600  0.0113 -0.8728
 8767SOL    HW227201   4.636   4.782   2.620  0.9475  1.6900 -0.1027
 8768SOL     OW27202   0.574   0.772   3.946 -0.7995  0.0804  0.4682
 8768SOL    HW127203   0.502   0.704   3.961 -1.0297  0.2544  0.1498
 8768SOL    HW227204   0.596   0.778   3.849  0.8297 -1.1778  0.7049
 8769SOL     OW27205   5.164   0.169   1.889  0.3536  0.2698  0.3965
 8769SOL    HW127206   5.230   0.241   1.906 -0.0128  0.5099  0.8212
 8769SOL    HW227207   5.212   0.085   1.863  0.7586  0.7464 -0.3915
 8770SOL     OW27208   6.463   2.350   4.344  0.2062  0.1483 -0.2010
 8770SOL    HW127209   6.549   2.379   4.386 -0.1358 -1.2858  1.6321
 8770SOL    HW227210   6.388   2.359   4.410 -1.0418  1.0905 -1.6611
 8771SOL     OW27211   4.093   1.658   5.638  0.7778 -0.3070 -0.2808
 8771SOL    HW127212   4.152   1.578   5.633  1.2595 -0.2123  2.2899
 8771SOL    HW227213   4.077   1.694   5.546  0.3091 -3.4620 -1.5260
 8772SOL     OW27214   5.423   1.107   0.353 -0.1890 -0.3152  0.2791
 8772SOL    HW127215   5.487   1.180   0.331  0.0483 -0.0282  1.8470
 8772SOL    HW227216   5.463   1.046   0.421 -0.1385 -2.3086 -1.4256
 8773SOL     OW27217   6.967   4.797   2.823  0.9362  0.2151 -0.2538
 8773SOL    HW127218   6.998   4.749   2.905  0.2182  0.3297  0.0958
 8773SOL    HW227219   7.010   4.757   2.742 -0.1011 -1.4160 -0.0424
 8774SOL     OW27220   2.516   3.652   0.490  0.6180  0.0787 -0.2951
 8774SOL    HW127221   2.446   3.589   0.457  1.4722 -0.7596 -0.5374
 8774SOL    HW227222   2.605   3.606   0.491  0.8784  0.5227  1.7784
 8775SOL     OW27223   3.585   4.288   5.188 -0.4074  0.2081  0.4527
 8775SOL    HW127224   3.539   4.255   5.106  0.2182  0.3663  0.0300
 8775SOL    HW227225   3.675   4.245   5.195  0.1068  1.2351  0.3037
 8776SOL     OW27226   6.929   3.673   3.502 -0.8582 -0.0081 -0.4734
 8776SOL    HW127227   6.994   3.647   3.573 -1.3944 -1.8726 -0.6323
 8776SOL    HW227228   6.840   3.691   3.543 -0.8862  0.0297 -0.5498
 8777SOL     OW27229   6.980   1.351   0.936  0.5266 -0.2208  0.4915
 8777SOL    HW127230   6.898   1.342   0.878  0.4657  1.9236  0.1760
 8777SOL    HW227231   7.061   1.329   0.882  0.2896 -0.6243  0.2929
 8778SOL     OW27232   3.997   2.191   2.669  0.0273 -0.4170  1.3443
 8778SOL    HW127233   3.998   2.098   2.631 -1.2255 -0.3177  1.0131
 8778SOL    HW227234   4.091   2.223   2.681  0.5326 -0.5943 -1.3640
 8779SOL     OW27235   3.055   3.252   5.696  0.4023 -0.0635 -0.3349
 8779SOL    HW127236   2.994   3.305   5.755  0.1890 -0.8073  0.1232
 8779SOL    HW227237   3.149   3.285   5.709  0.0607  1.4389 -1.4398
 8780SOL     OW27238   5.527   2.999   3.312  0.3449  1.0356  0.2010
 8780SOL    HW127239   5.428   2.988   3.312  0.4847 -0.4796  0.9555
 8780SOL    HW227240   5.551   3.092   3.281 -1.2536  1.1320 -0.8325
 8781SOL     OW27241   1.571   2.084   6.026 -0.7289 -0.4792  0.3040
 8781SOL    HW127242   1.562   2.152   5.953  1.7451 -0.7443 -0.3311
 8781SOL    HW227243   1.614   2.127   6.106  1.2476 -1.3160 -0.2516
 8782SOL     OW27244   0.742   4.506   3.653 -0.7335  0.2443  0.3046
 8782SOL    HW127245   0.776   4.482   3.562 -0.7784  0.1877  0.3023
 8782SOL    HW227246   0.697   4.426   3.694  2.5147 -0.9393  1.9032
 8783SOL     OW27247   0.312   2.374   2.909 -0.2601 -0.0313 -0.3737
 8783SOL    HW127248   0.268   2.464   2.922 -0.5829 -0.2198 -0.1272
 8783SOL    HW227249   0.350   2.368   2.817 -1.5088 -0.1760 -0.9037
 8784SOL     OW27250   0.670   1.719   4.461 -0.0838  0.1214  0.0760
 8784SOL    HW127251   0.647   1.816   4.460 -0.8376 -0.0573 -0.4817
 8784SOL    HW227252   0.740   1.701   4.393 -1.5515 -0.0945 -1.4258
 8785SOL     OW27253   0.462   3.708   6.055 -0.0688  0.6342  0.1919
 8785SOL    HW127254   0.499   3.672   6.141 -0.8567 -0.5006  0.0838
 8785SOL    HW227255   0.524   3.685   5.980 -0.2137  0.1086  0.2266
 8786SOL     OW27256   2.768   1.439   1.527 -0.3605 -0.4965  0.7166
 8786SOL    HW127257   2.740   1.523   1.481 -2.6201 -0.8134  1.3646
 8786SOL    HW227258   2.838   1.393   1.473 -1.2321  0.3030 -1.1906
 8787SOL     OW27259   0.943   1.977   6.584  0.5513  0.7949  0.4775
 8787SOL    HW127260   1.034   2.002   6.551  1.8374 -4.1791 -0.6523
 8787SOL    HW227261   0.950   1.943   6.678  0.3718 -1.3332 -0.2204
 8788SOL     OW27262   5.322   1.994   2.680  0.1430 -0.2110  0.5093
 8788SOL    HW127263   5.275   1.939   2.749  0.0356 -0.6614  0.0813
 8788SOL    HW227264   5.405   2.034   2.720 -0.0465 -0.2714  0.9643
 8789SOL     OW27265   1.064   1.127   6.067 -0.4956  0.2573 -0.1852
 8789SOL    HW127266   1.139   1.065   6.086 -0.5380 -0.2766 -1.6104
 8789SOL    HW227267   1.082   1.216   6.109  1.3862  0.4259 -1.2469
 8790SOL     OW27268   1.822   4.716   4.706 -0.4415  0.2956 -0.2085
 8790SOL    HW127269   1.800   4.696   4.801  2.2397 -1.3567  0.1732
 8790SOL    HW227270   1.823   4.631   4.654 -0.1649  0.9561 -1.3100
 8791SOL     OW27271   0.246   0.844   4.388  0.6659  0.3423 -0.2733
 8791SOL    HW127272   0.240   0.944   4.395 -0.4263  0.2992 -0.4930
 8791SOL    HW227273   0.240   0.817   4.292 -0.3533  0.0018 -0.1246
 8792SOL     OW27274   6.751   0.046   3.364  0.0435  0.4874 -0.8526
 8792SOL    HW127275   6.653   0.025   3.359 -0.0325  0.3809  0.6679
 8792SOL    HW227276   6.790   0.045   3.272 -1.2316 -0.1800 -1.4085
 8793SOL     OW27277   1.187   0.446   0.717 -0.1747  0.7000  0.7939
 8793SOL    HW127278   1.169   0.370   0.780  1.6050 -0.3998  0.0530
 8793SOL    HW227279   1.100   0.482   0.682 -1.0605 -0.9127  1.2445
 8794SOL     OW27280   3.201   6.310   1.268 -0.1843  0.3387  0.4546
 8794SOL    HW127281   3.278   6.372   1.284 -1.2191  1.6733  0.4721
 8794SOL    HW227282   3.145   6.305   1.351 -2.0298  2.2061 -0.5743
 8795SOL     OW27283   1.967   5.448   4.707 -0.3052 -0.2935 -0.4759
 8795SOL    HW127284   2.001   5.533   4.746  1.0297  0.1808 -2.4924
 8795SOL    HW227285   1.942   5.463   4.611  0.1772 -2.1943 -0.9548
 8796SOL     OW27286   1.472   1.032   2.306  0.1372 -0.3348 -0.4274
 8796SOL    HW127287   1.421   0.946   2.308  2.3973 -1.7635 -0.6630
 8796SOL    HW227288   1.523   1.038   2.220  1.9408  0.0104  0.6229
 8797SOL     OW27289   1.668   6.303   1.595 -0.2156  0.0171  0.6218
 8797SOL    HW127290   1.745   6.258   1.548  0.1172  0.3137  0.8819
 8797SOL    HW227291   1.703   6.366   1.664 -0.6936  0.3053  0.6035
 8798SOL     OW27292   1.575   4.545   5.411 -0.4277 -0.0041  0.3258
 8798SOL    HW127293   1.512   4.605   5.361  0.4116  0.0872 -0.6649
 8798SOL    HW227294   1.545   4.450   5.401 -1.1473  0.1462  0.9827
 8799SOL     OW27295   3.685   1.144   3.419  0.3483  0.1335  0.3831
 8799SOL    HW127296   3.738   1.059   3.427 -0.4586 -0.5042 -0.7560
 8799SOL    HW227297   3.627   1.155   3.500  2.9108  1.3936  2.1867
 8800SOL     OW27298   3.837   0.802   2.834  0.8817  0.4022 -0.3607
 8800SOL    HW127299   3.780   0.879   2.861  0.9135  1.4908 -3.0981
 8800SOL    HW227300   3.880   0.763   2.915 -4.0636 -0.9091  2.0377
 8801SOL     OW27301   0.859   6.495   1.793  0.5392  0.0957 -0.1687
 8801SOL    HW127302   0.841   6.449   1.707 -0.6206 -1.6296  0.9544
 8801SOL    HW227303   0.917   6.437   1.851  0.2706  0.6814  0.7092
 8802SOL     OW27304   3.991   6.335   1.648  0.4970 -0.4455  0.6020
 8802SOL    HW127305   4.070   6.278   1.668  0.9740  0.2698  0.7897
 8802SOL    HW227306   3.940   6.352   1.732 -0.1131 -1.2530  0.4164
 8803SOL     OW27307   1.739   4.357   0.557  0.0205 -0.6290  0.5908
 8803SOL    HW127308   1.824   4.373   0.607 -0.3674 -0.1741  1.1105
 8803SOL    HW227309   1.666   4.335   0.621 -0.0533 -1.9660  0.0785
 8804SOL     OW27310   1.916   1.506   3.007 -0.0502  0.3840  0.2575
 8804SOL    HW127311   1.863   1.549   2.934  0.4842  0.0871 -0.3244
 8804SOL    HW227312   1.976   1.436   2.968 -0.1614 -0.1777  1.0605
 8805SOL     OW27313   5.380   2.672   6.355  0.5711  0.0260  0.0328
 8805SOL    HW127314   5.367   2.665   6.256  0.1195 -0.8773  0.1474
 8805SOL    HW227315   5.449   2.606   6.385  2.1383  1.5963  0.0840
 8806SOL     OW27316   3.735   1.942   0.214  0.5107 -0.3058  0.0353
 8806SOL    HW127317   3.640   1.969   0.229  0.7086  0.7007 -0.4152
 8806SOL    HW227318   3.795   1.993   0.276  0.6972 -1.5523  0.9067
 8807SOL     OW27319   4.486   2.550   4.902  0.0579 -0.4564 -0.0771
 8807SOL    HW127320   4.416   2.523   4.836  0.1293 -2.5391  0.6412
 8807SOL    HW227321   4.479   2.493   4.984  1.3377  0.6437  0.8463
 8808SOL     OW27322   0.897   0.721   2.048 -0.4227 -0.0366  0.4239
 8808SOL    HW127323   0.971   0.679   2.101  0.1728  1.3622  0.7375
 8808SOL    HW227324   0.838   0.649   2.011  0.8521 -1.1707  0.5048
 8809SOL     OW27325   6.052   4.380   2.719 -0.1945  0.0388 -0.4948
 8809SOL    HW127326   6.012   4.321   2.789  0.0198  0.8282  0.3059
 8809SOL    HW227327   6.151   4.368   2.718 -0.0608  0.9638  0.2370
 8810SOL     OW27328   0.709   2.378   1.142 -0.0129 -0.3897 -0.6322
 8810SOL    HW127329   0.609   2.378   1.136 -0.1301 -0.8177  0.8843
 8810SOL    HW227330   0.743   2.284   1.141  0.7501 -0.2816 -5.1191
 8811SOL     OW27331   1.680   5.297   5.961 -0.6688 -0.2034 -0.6570
 8811SOL    HW127332   1.770   5.290   5.918  0.4894  1.4481  1.2896
 8811SOL    HW227333   1.657   5.209   6.003  1.8017  0.2050  1.8974
 8812SOL     OW27334   2.989   4.975   5.869  0.7024 -0.0329  0.0445
 8812SOL    HW127335   3.046   4.920   5.808  1.4691 -0.1704  0.8687
 8812SOL    HW227336   2.972   5.064   5.826  1.9917  0.2151  0.0076
 8813SOL     OW27337   4.941   3.262   6.033 -0.1496  0.3346 -0.9740
 8813SOL    HW127338   4.897   3.341   6.076 -1.7082 -0.0918 -1.7187
 8813SOL    HW227339   4.892   3.178   6.057 -0.4325 -0.0365 -2.6657
 8814SOL     OW27340   2.251   7.016   3.239 -0.0374 -0.0273  0.3428
 8814SOL    HW127341   2.213   7.037   3.329 -2.3451 -0.5351 -0.4444
 8814SOL    HW227342   2.245   7.097   3.181  3.4913  1.0289  1.1533
 8815SOL     OW27343   5.168   5.297   5.260 -0.3248  0.0476 -0.1615
 8815SOL    HW127344   5.156   5.228   5.188 -0.3495  1.1592 -1.2521
 8815SOL    HW227345   5.173   5.252   5.349 -1.5328 -1.2619 -0.7322
 8816SOL     OW27346   1.370   0.757   2.261  0.2680 -0.0789  0.0171
 8816SOL    HW127347   1.328   0.697   2.329 -0.9668 -0.9014 -1.4107
 8816SOL    HW227348   1.469   0.746   2.264  0.2065 -0.4442  1.3515
 8817SOL     OW27349   4.713   4.370   0.058 -0.1479  0.5148 -0.2949
 8817SOL    HW127350   4.800   4.387   0.010 -0.2223  0.4766 -0.4455
 8817SOL    HW227351   4.701   4.272   0.073  0.4629  0.6120  0.9216
 8818SOL     OW27352   3.527   3.050   0.284 -0.4012  1.2095  0.5395
 8818SOL    HW127353   3.582   2.971   0.259 -0.9547  0.8238  0.5356
 8818SOL    HW227354   3.433   3.037   0.252 -0.8862  1.1512  1.9325
 8819SOL     OW27355   1.152   0.920   3.863 -0.1147  0.8876  0.4998
 8819SOL    HW127356   1.108   0.835   3.835 -0.7556  1.1249  0.7587
 8819SOL    HW227357   1.189   0.910   3.955  1.9704  0.1155 -0.3551
 8820SOL     OW27358   0.816   4.932   3.369 -0.0893 -0.3626 -0.4703
 8820SOL    HW127359   0.884   4.919   3.297  2.0625  2.4526  0.8234
 8820SOL    HW227360   0.749   5.000   3.340 -0.6738 -1.0074 -0.6633
 8821SOL     OW27361   2.464   6.834   5.201  0.1748  0.5761 -0.4927
 8821SOL    HW127362   2.433   6.898   5.271 -1.7417 -0.7897 -0.0285
 8821SOL    HW227363   2.465   6.880   5.112 -0.0856  1.5295 -0.0219
 8822SOL     OW27364   3.677   3.548   6.636 -0.0172  0.1524  0.5084
 8822SOL    HW127365   3.692   3.576   6.731  0.8502  0.7843  0.1954
 8822SOL    HW227366   3.583   3.569   6.610  0.2272  1.6131  0.6951
 8823SOL     OW27367   4.272   2.778   5.705 -0.0105 -0.0172 -0.6775
 8823SOL    HW127368   4.348   2.824   5.659  1.5404 -1.4511  0.3578
 8823SOL    HW227369   4.208   2.743   5.637  1.6885 -1.1695 -1.7653
 8824SOL     OW27370   3.700   5.085   5.757 -0.1164  0.1087 -1.0247
 8824SOL    HW127371   3.740   5.018   5.695 -0.6935 -0.6577 -0.5737
 8824SOL    HW227372   3.611   5.114   5.720 -1.4923 -1.9512  0.4601
 8825SOL     OW27373   3.843   3.399   0.272 -0.1042  0.3127 -0.1774
 8825SOL    HW127374   3.791   3.323   0.312 -0.6956 -0.7385 -2.7199
 8825SOL    HW227375   3.781   3.475   0.253 -0.2411  0.0398 -0.8647
 8826SOL     OW27376   1.178   2.042   1.136  0.1724  0.5349 -0.3392
 8826SOL    HW127377   1.207   2.093   1.055  0.2700  1.0855  0.0391
 8826SOL    HW227378   1.082   2.015   1.125 -0.2947  1.9775  0.0317
 8827SOL     OW27379   1.730   5.534   0.917  0.6817  0.0895 -0.1069
 8827SOL    HW127380   1.683   5.478   0.986 -1.7835 -0.4710 -2.0834
 8827SOL    HW227381   1.800   5.479   0.872  0.3436 -0.4627  0.0237
 8828SOL     OW27382   2.180   0.524   2.013  0.1026 -0.7280  0.0602
 8828SOL    HW127383   2.244   0.571   1.952  1.7194 -1.4075  1.1876
 8828SOL    HW227384   2.128   0.456   1.961 -0.7622  0.7871 -1.1485
 8829SOL     OW27385   5.071   3.115   4.730 -0.1504 -0.3345  0.0908
 8829SOL    HW127386   5.105   3.204   4.701 -0.8064 -0.1678 -0.1655
 8829SOL    HW227387   4.972   3.111   4.720 -0.0787 -1.2836 -0.4566
 8830SOL     OW27388   3.670   1.313   2.652  0.0164 -0.3443 -0.0832
 8830SOL    HW127389   3.743   1.333   2.718  0.2110  2.6238 -1.0787
 8830SOL    HW227390   3.621   1.397   2.630 -0.7981 -1.4612 -2.8789
 8831SOL     OW27391   4.182   0.997   1.233 -0.0917 -0.3022 -0.0579
 8831SOL    HW127392   4.086   0.975   1.211 -0.6078  0.8880  0.9125
 8831SOL    HW227393   4.222   1.050   1.159  0.1209 -1.5547 -0.8766
 8832SOL     OW27394   4.739   5.898   2.448 -0.1582 -0.0035 -0.2569
 8832SOL    HW127395   4.685   5.977   2.421 -1.0090 -0.6664 -0.5434
 8832SOL    HW227396   4.752   5.838   2.369 -1.7459 -1.4282  0.5070
 8833SOL     OW27397   0.419   0.540   0.449  0.6629  0.1246 -0.5146
 8833SOL    HW127398   0.443   0.464   0.388  0.3882 -0.3825 -0.0016
 8833SOL    HW227399   0.367   0.505   0.526 -0.1484  0.9625 -0.6731
 8834SOL     OW27400   1.972   6.558   2.481  0.4789  0.4624  0.3383
 8834SOL    HW127401   1.950   6.468   2.442 -0.6547  1.5206 -1.6393
 8834SOL    HW227402   1.895   6.591   2.535  1.3656 -0.2230  2.1055
 8835SOL     OW27403   0.461   1.850   6.325  0.2756  0.1446  0.3640
 8835SOL    HW127404   0.403   1.790   6.269 -0.1827 -0.9615  1.9503
 8835SOL    HW227405   0.403   1.915   6.375  0.2038 -1.4810  2.5714
 8836SOL     OW27406   6.733   5.436   3.483 -0.3524  0.1942 -0.0889
 8836SOL    HW127407   6.646   5.397   3.514 -1.7425  2.7361 -0.5170
 8836SOL    HW227408   6.754   5.401   3.392 -0.5495 -0.9508  0.2818
 8837SOL     OW27409   2.086   3.507   1.119  0.2410  0.2002  0.1552
 8837SOL    HW127410   2.094   3.475   1.025  3.5218  1.6899 -0.1913
 8837SOL    HW227411   2.091   3.429   1.181  0.5676 -0.5910 -0.8350
 8838SOL     OW27412   0.094   5.463   3.860  0.3369 -0.0935 -0.1784
 8838SOL    HW127413   0.026   5.501   3.797  1.6484  0.7143 -1.1517
 8838SOL    HW227414   0.138   5.384   3.818 -0.1018 -0.7323  0.5303
 8839SOL     OW27415   1.284   3.858   2.589  0.0975  0.1082 -0.2223
 8839SOL    HW127416   1.351   3.804   2.538  0.6461  2.4112 -2.1155
 8839SOL    HW227417   1.192   3.830   2.563  0.3683  1.0007 -2.3334
 8840SOL     OW27418   2.138   5.544   1.491 -0.4544 -0.6637 -0.2716
 8840SOL    HW127419   2.140   5.445   1.476 -1.2908 -0.8178  0.5739
 8840SOL    HW227420   2.121   5.563   1.588  0.5631  0.3151 -0.2656
 8841SOL     OW27421   3.180   1.542   2.060 -0.0555 -0.5208  0.0140
 8841SOL    HW127422   3.237   1.618   2.030 -0.3499 -0.0544  0.6243
 8841SOL    HW227423   3.170   1.476   1.985  0.4599 -0.1191 -0.4133
 8842SOL     OW27424   4.970   3.254   0.342  0.2158 -0.1849 -0.0489
 8842SOL    HW127425   4.941   3.348   0.327  0.9465 -0.1694 -1.6159
 8842SOL    HW227426   4.912   3.211   0.411 -1.5636  0.7501 -0.8929
 8843SOL     OW27427   6.830   0.889   4.907  0.5921 -0.6916 -0.3447
 8843SOL    HW127428   6.796   0.904   4.814 -0.1148  2.0177  0.2734
 8843SOL    HW227429   6.925   0.858   4.903  1.1143  0.9500 -1.9674
 8844SOL     OW27430   0.311   2.569   0.963  0.8248 -0.6101 -0.1279
 8844SOL    HW127431   0.378   2.501   0.993  0.7735  0.0123  1.4857
 8844SOL    HW227432   0.327   2.655   1.010 -0.3635 -0.0898 -0.6221
 8845SOL     OW27433   0.060   5.504   2.640 -0.1234  0.3089  0.3417
 8845SOL    HW127434  -0.004   5.579   2.656 -1.0674 -0.6768  1.4616
 8845SOL    HW227435   0.075   5.455   2.726 -1.7748 -2.5040 -0.8204
 8846SOL     OW27436   5.248   4.933   2.469 -0.4779 -0.1177  0.4976
 8846SOL    HW127437   5.304   4.966   2.545 -0.8538 -0.9746  1.1459
 8846SOL    HW227438   5.197   4.853   2.497 -1.1195 -0.0564 -0.4680
 8847SOL     OW27439   3.394   1.295   3.733  1.0186  0.3794 -0.0503
 8847SOL    HW127440   3.402   1.303   3.832  2.1962  0.5006 -0.1400
 8847SOL    HW227441   3.359   1.380   3.694 -1.3216 -0.3059  0.4171
 8848SOL     OW27442   5.516   4.072   3.907  0.2674 -0.6673  0.3481
 8848SOL    HW127443   5.498   4.170   3.902 -1.7468 -1.0566 -2.3479
 8848SOL    HW227444   5.595   4.050   3.850 -1.6481 -0.9699 -2.3669
 8849SOL     OW27445   4.434   5.746   3.239 -0.2085  0.2105 -0.1503
 8849SOL    HW127446   4.503   5.813   3.211 -0.9179  0.3124 -1.7060
 8849SOL    HW227447   4.343   5.778   3.214 -0.8676  0.0802  1.8997
 8850SOL     OW27448   6.384   4.663   4.357 -0.1405  0.7920  0.3624
 8850SOL    HW127449   6.474   4.643   4.318  0.0304  0.0254  1.1334
 8850SOL    HW227450   6.314   4.653   4.286  0.2064 -0.2635  0.1613
 8851SOL     OW27451   3.194   0.512   2.848  0.7316 -0.0657  0.9892
 8851SOL    HW127452   3.202   0.610   2.867  4.5345 -0.5492  2.9327
 8851SOL    HW227453   3.117   0.474   2.899 -0.0541  1.6849  1.1765
 8852SOL     OW27454   3.068   6.998   0.141  0.4242 -0.2591  0.1024
 8852SOL    HW127455   2.975   7.000   0.177  0.5323  0.9245  0.3562
 8852SOL    HW227456   3.133   6.994   0.217  0.6105  0.4156 -0.0169
 8853SOL     OW27457   4.365   0.703   1.780 -0.3642  0.0867  0.4583
 8853SOL    HW127458   4.411   0.749   1.856  1.6246 -0.6366 -0.2410
 8853SOL    HW227459   4.303   0.634   1.816 -1.4144  1.4921  1.4477
 8854SOL     OW27460   6.947   1.814   4.604 -0.3077  0.2357 -0.7966
 8854SOL    HW127461   6.943   1.905   4.564  0.4706 -0.0468 -1.5342
 8854SOL    HW227462   6.905   1.816   4.695 -1.5929  0.9969 -1.3831
 8855SOL     OW27463   0.810   5.170   1.374 -0.1139  0.1128  0.0635
 8855SOL    HW127464   0.840   5.089   1.324 -0.2275 -0.5714  1.0684
 8855SOL    HW227465   0.824   5.251   1.318  1.7938 -0.3829 -0.2557
 8856SOL     OW27466   1.983   6.376   4.946  0.2085 -0.3806  0.2534
 8856SOL    HW127467   1.993   6.403   4.850  1.5507 -1.4130  0.0745
 8856SOL    HW227468   1.886   6.367   4.968 -0.2939  2.7123 -0.1588
 8857SOL     OW27469   0.776   5.763   2.791  0.5880  0.2437 -0.5033
 8857SOL    HW127470   0.701   5.747   2.855  0.0020  2.5421 -0.5494
 8857SOL    HW227471   0.739   5.785   2.701  1.3885 -1.2280 -1.2352
 8858SOL     OW27472   2.657   2.686   6.763 -0.0322 -0.1075 -0.2645
 8858SOL    HW127473   2.612   2.775   6.768 -1.0087 -0.6778  2.1666
 8858SOL    HW227474   2.754   2.697   6.783  0.6311  0.8166 -3.3932
 8859SOL     OW27475   3.793   5.480   3.877  0.2991  0.4683  0.3968
 8859SOL    HW127476   3.738   5.551   3.921  1.2812  1.3344  0.2612
 8859SOL    HW227477   3.823   5.414   3.946 -0.3048  0.3857  0.5858
 8860SOL     OW27478   4.522   3.689   5.613 -0.0573 -0.1746 -0.1328
 8860SOL    HW127479   4.609   3.734   5.595  1.3346 -2.6453  0.0583
 8860SOL    HW227480   4.483   3.656   5.527  0.3886 -1.1072  0.0113
 8861SOL     OW27481   1.821   4.949   5.501  0.3285 -0.0054  0.2864
 8861SOL    HW127482   1.816   5.037   5.549  0.9948  0.7413 -0.9512
 8861SOL    HW227483   1.750   4.888   5.536 -2.1854  2.0636 -0.8599
 8862SOL     OW27484   0.563   0.540   2.562 -0.1466 -0.1083 -0.4505
 8862SOL    HW127485   0.466   0.560   2.573 -0.2590 -0.4608 -0.7867
 8862SOL    HW227486   0.608   0.546   2.652 -0.7711 -1.4522 -0.0221
 8863SOL     OW27487   3.040   4.663   1.777 -0.0046  0.1537  0.4983
 8863SOL    HW127488   3.107   4.709   1.834 -1.4744  2.7251  0.3285
 8863SOL    HW227489   2.955   4.650   1.829  0.0972 -1.6758  0.2645
 8864SOL     OW27490   4.062   1.320   0.939 -0.0310  0.0401  0.3645
 8864SOL    HW127491   4.032   1.315   1.034 -0.3966  2.6825  0.4577
 8864SOL    HW227492   3.982   1.332   0.880  0.3495  0.4195 -0.0764
 8865SOL     OW27493   5.052   4.317   0.597  0.0028 -0.1122 -0.4464
 8865SOL    HW127494   5.002   4.283   0.517  0.1433 -0.1213 -0.5316
 8865SOL    HW227495   5.060   4.417   0.590  0.5557 -0.1712 -0.7629
 8866SOL     OW27496   0.707   5.461   2.053  0.7588  0.0993 -0.2546
 8866SOL    HW127497   0.676   5.387   1.994  1.1783 -1.1913  1.0944
 8866SOL    HW227498   0.804   5.480   2.034  0.6226  0.3933 -0.6759
 8867SOL     OW27499   0.797   6.274   5.496  0.1422 -0.1855 -0.2789
 8867SOL    HW127500   0.707   6.236   5.474  0.8159 -2.6366  0.8528
 8867SOL    HW227501   0.823   6.247   5.588  0.9707  2.6949  0.4260
 8868SOL     OW27502   0.559   2.039   6.778 -0.5021 -0.4398 -0.1104
 8868SOL    HW127503   0.477   1.989   6.751 -0.5000  0.2656 -1.4672
 8868SOL    HW227504   0.620   2.048   6.700 -0.6609  1.9883 -0.0236
 8869SOL     OW27505   3.524   2.428   5.832  0.4172  0.6142 -0.2032
 8869SOL    HW127506   3.485   2.511   5.793  1.0243  1.1773  0.3754
 8869SOL    HW227507   3.554   2.445   5.926  1.5900  0.0587 -0.4567
 8870SOL     OW27508   2.713   2.311   2.290 -0.9347  0.0905 -0.1775
 8870SOL    HW127509   2.766   2.298   2.206 -0.9738  0.3939 -0.2483
 8870SOL    HW227510   2.673   2.224   2.318 -1.0470  0.0216 -0.5580
 8871SOL     OW27511   4.900   5.022   4.426 -0.2935 -0.9181  0.6672
 8871SOL    HW127512   4.993   5.016   4.462 -0.2152  1.2799  0.9883
 8871SOL    HW227513   4.866   5.116   4.436 -2.1251 -1.3909 -0.4994
 8872SOL     OW27514   6.891   2.375   5.762  0.2365 -0.0577 -0.0916
 8872SOL    HW127515   6.824   2.301   5.760 -1.7366  1.5977  0.7480
 8872SOL    HW227516   6.957   2.362   5.689 -1.0908 -1.7015 -1.0809
 8873SOL     OW27517   6.937   3.530   2.689  0.3348  0.1368 -0.1734
 8873SOL    HW127518   6.852   3.479   2.700  0.3337  0.3406  0.8815
 8873SOL    HW227519   6.951   3.552   2.593  0.0702 -1.3809 -0.5824
 8874SOL     OW27520   5.810   4.490   2.993 -0.4746  0.9754 -0.4966
 8874SOL    HW127521   5.764   4.512   3.079  0.1451 -0.7038  0.3151
 8874SOL    HW227522   5.744   4.451   2.929 -0.4673 -0.2901  0.2252
 8875SOL     OW27523   6.984   3.698   3.878  0.4211 -0.1515  0.2858
 8875SOL    HW127524   7.061   3.649   3.918  0.3605 -0.7093 -0.2486
 8875SOL    HW227525   6.989   3.795   3.901  0.5230 -0.4103  1.4109
 8876SOL     OW27526   1.212   0.577   5.728 -0.3619  0.1004  0.0488
 8876SOL    HW127527   1.202   0.551   5.632  0.9330  3.7330 -1.2324
 8876SOL    HW227528   1.310   0.581   5.750 -0.6454 -0.4773  1.4987
 8877SOL     OW27529   6.228   2.427   0.931  0.0090  0.1491  0.6899
 8877SOL    HW127530   6.163   2.358   0.901  0.4946  0.4058 -1.0728
 8877SOL    HW227531   6.270   2.471   0.851  3.2415 -0.8169  1.6940
 8878SOL     OW27532   1.442   3.191   5.922  0.2718 -0.5100 -0.0356
 8878SOL    HW127533   1.536   3.156   5.923  0.1512 -0.8424 -0.3291
 8878SOL    HW227534   1.441   3.284   5.960  0.7244 -0.4881 -0.0705
 8879SOL     OW27535   6.682   0.683   0.051 -0.0410 -0.0073 -0.1922
 8879SOL    HW127536   6.655   0.736  -0.029  0.3478  0.0442 -0.2913
 8879SOL    HW227537   6.769   0.718   0.087  1.3978 -1.9686 -1.5926
 8880SOL     OW27538   5.222   3.553   3.895  0.5246  0.2476  0.7102
 8880SOL    HW127539   5.130   3.536   3.930  0.3460  0.0757  0.1638
 8880SOL    HW227540   5.231   3.650   3.871  0.5597  0.3095  0.9670
 8881SOL     OW27541   3.659   4.902   0.130 -0.7167 -0.3363 -0.1592
 8881SOL    HW127542   3.672   4.972   0.059 -0.5791 -1.5074 -1.3292
 8881SOL    HW227543   3.736   4.838   0.129 -0.1932  0.1980  1.7663
 8882SOL     OW27544   0.534   2.506   0.466 -0.0347 -0.0689 -0.5302
 8882SOL    HW127545   0.590   2.509   0.384  0.1990  1.4394 -0.3424
 8882SOL    HW227546   0.472   2.427   0.461  1.4030 -1.2096 -1.1749
 8883SOL     OW27547   1.589   1.036   2.063 -0.3965  0.4193  0.0211
 8883SOL    HW127548   1.566   0.961   2.001  0.9896  0.5048 -0.6149
 8883SOL    HW227549   1.686   1.032   2.086 -0.9236  0.2135  2.4449
 8884SOL     OW27550   2.539   1.999   5.338  0.4818  0.0981  0.2558
 8884SOL    HW127551   2.468   2.000   5.409  0.8441  0.0680  0.6227
 8884SOL    HW227552   2.581   1.908   5.335  0.9307  0.2978  0.4702
 8885SOL     OW27553   3.220   0.024   1.965  0.5591 -0.0316  0.1673
 8885SOL    HW127554   3.148  -0.046   1.962 -0.5068  0.9843  1.0630
 8885SOL    HW227555   3.291  -0.004   2.029 -0.0385 -0.1386  0.7884
 8886SOL     OW27556   4.745   2.041   5.196  0.0116 -0.5373  0.1522
 8886SOL    HW127557   4.845   2.031   5.199  0.0617  0.0675  0.7302
 8886SOL    HW227558   4.718   2.071   5.105  0.5754  1.3094  0.5452
 8887SOL     OW27559   0.483   3.345   3.235  0.0650  0.5803 -0.3631
 8887SOL    HW127560   0.449   3.253   3.215 -0.6091  0.3993  1.4743
 8887SOL    HW227561   0.484   3.399   3.150  1.2992 -1.3353 -1.6595
 8888SOL     OW27562   4.547   4.455   5.447 -0.3230 -0.0358  0.0580
 8888SOL    HW127563   4.461   4.407   5.464 -0.4812  0.5522  1.0101
 8888SOL    HW227564   4.595   4.467   5.534  1.8007 -2.3182 -0.6735
 8889SOL     OW27565   1.431   0.471   7.003 -0.1007  0.1275 -0.0071
 8889SOL    HW127566   1.432   0.570   7.015  3.0328  0.2824 -0.7119
 8889SOL    HW227567   1.497   0.445   6.933 -2.0882 -2.3930 -1.1165
 8890SOL     OW27568   1.669   1.879   2.423  0.8738  0.4421 -0.4283
 8890SOL    HW127569   1.761   1.840   2.416  1.1321  1.2819 -2.1943
 8890SOL    HW227570   1.604   1.818   2.377  0.2858 -0.7773  1.8748
 8891SOL     OW27571   3.737   3.436   3.661  0.1382  0.3711 -0.3939
 8891SOL    HW127572   3.668   3.388   3.716 -0.9469  0.9996 -1.1613
 8891SOL    HW227573   3.772   3.374   3.592 -1.1218  0.5825 -1.2608
 8892SOL     OW27574   2.864   6.892   0.373 -0.2122  0.4719 -0.2709
 8892SOL    HW127575   2.901   6.807   0.335  0.0785  0.2779  0.4298
 8892SOL    HW227576   2.802   6.934   0.307  1.4837  0.9737 -1.6124
 8893SOL     OW27577   5.995   3.165   5.119  0.1879  0.5847 -0.5140
 8893SOL    HW127578   5.908   3.205   5.090 -0.6301 -0.2149  0.7110
 8893SOL    HW227579   6.013   3.082   5.066  0.1047  0.6524 -0.6482
 8894SOL     OW27580   1.281   0.658   6.363 -0.1072 -0.1098 -0.3238
 8894SOL    HW127581   1.202   0.718   6.379  1.1802  1.2007  1.6387
 8894SOL    HW227582   1.250   0.572   6.324 -2.3680  0.7667 -0.6355
 8895SOL     OW27583   0.712   2.819   4.774  0.3110 -0.1369 -0.1394
 8895SOL    HW127584   0.787   2.814   4.840 -0.2160 -0.0741  0.4775
 8895SOL    HW227585   0.718   2.904   4.722 -0.5855  0.9579  1.4612
 8896SOL     OW27586   5.984   5.772   2.432  0.2466  0.1312 -0.2453
 8896SOL    HW127587   5.984   5.739   2.527 -0.5568  1.4038  0.2249
 8896SOL    HW227588   5.917   5.721   2.379 -0.1237  0.1910  0.1615
 8897SOL     OW27589   1.811   2.101   3.053  0.1640  0.0933  0.0534
 8897SOL    HW127590   1.891   2.042   3.046 -0.2878 -0.4477 -0.7048
 8897SOL    HW227591   1.728   2.044   3.058 -0.2296  0.6550  0.0220
 8898SOL     OW27592   5.263   6.729   5.653  0.2133 -0.0309 -0.4259
 8898SOL    HW127593   5.313   6.709   5.737  1.8611  1.0776 -1.1053
 8898SOL    HW227594   5.286   6.660   5.584 -0.6733 -0.5931 -0.1752
 8899SOL     OW27595   5.603   4.239   0.393 -0.3801  0.3073 -0.4742
 8899SOL    HW127596   5.505   4.252   0.377 -1.1476 -1.1872  2.2491
 8899SOL    HW227597   5.635   4.161   0.339 -0.8760  0.3510 -0.8376
 8900SOL     OW27598   5.921   3.238   6.141  0.3483 -0.2365 -0.2612
 8900SOL    HW127599   5.868   3.304   6.086 -0.9512 -1.2927 -0.3297
 8900SOL    HW227600   5.956   3.166   6.082  2.0498  0.5344 -0.2367
 8901SOL     OW27601   2.786   3.409   1.136 -0.0714 -0.0054 -0.3649
 8901SOL    HW127602   2.807   3.445   1.227  1.8508 -2.7902  0.4348
 8901SOL    HW227603   2.693   3.373   1.135  1.3012 -4.4368  2.3350
 8902SOL     OW27604   2.100   0.833   2.705  0.4199  0.3060 -0.1370
 8902SOL    HW127605   2.015   0.798   2.743  0.0841  0.4623 -0.7350
 8902SOL    HW227606   2.173   0.824   2.773  0.3710 -1.5833 -0.2775
 8903SOL     OW27607   0.648   1.500   1.030 -0.0211  0.1075 -0.3166
 8903SOL    HW127608   0.719   1.486   0.961  2.5439  0.0407  2.1204
 8903SOL    HW227609   0.663   1.587   1.077 -1.3279 -0.0845  0.5170
 8904SOL     OW27610   1.205   1.231   2.354  0.2730 -0.3442 -0.0096
 8904SOL    HW127611   1.197   1.225   2.255 -0.7271 -2.0531  0.1362
 8904SOL    HW227612   1.300   1.216   2.381  0.4137 -0.6211 -0.6580
 8905SOL     OW27613   4.944   3.215   1.831  0.6254 -0.1930 -0.1854
 8905SOL    HW127614   4.865   3.268   1.865  0.4820 -0.0140 -0.7942
 8905SOL    HW227615   4.957   3.135   1.889 -0.9497 -1.0547 -0.9650
 8906SOL     OW27616   5.316   0.303   5.462  0.8812 -0.9477  0.5334
 8906SOL    HW127617   5.234   0.349   5.426 -0.0929 -1.0020  2.5447
 8906SOL    HW227618   5.298   0.205   5.468  1.1853 -0.9888  0.7529
 8907SOL     OW27619   3.943   4.965   5.005  0.2493  0.3310  0.2820
 8907SOL    HW127620   4.017   4.899   4.992 -2.5892 -2.9555 -0.6086
 8907SOL    HW227621   3.913   4.964   5.101 -0.1996 -0.1905  0.1414
 8908SOL     OW27622   5.519   0.793   2.549  0.1545  0.4645 -0.1153
 8908SOL    HW127623   5.561   0.763   2.463  0.3073  0.9419 -0.2133
 8908SOL    HW227624   5.583   0.778   2.624 -0.7817 -2.0172  0.2855
 8909SOL     OW27625   5.661   1.285   5.743  0.3505  0.1671 -0.3887
 8909SOL    HW127626   5.650   1.191   5.710 -1.9885  0.5603 -0.8804
 8909SOL    HW227627   5.669   1.347   5.666  2.2529  0.3881 -0.0621
 8910SOL     OW27628   6.405   6.781   1.349 -0.2650  0.2460  0.2261
 8910SOL    HW127629   6.428   6.704   1.409  0.1063  0.6644  0.6253
 8910SOL    HW227630   6.471   6.854   1.362 -1.1986  1.0384  0.6025
 8911SOL     OW27631   0.858   4.434   6.779  0.7618  0.5257 -0.3793
 8911SOL    HW127632   0.898   4.493   6.849  0.4741  0.8854 -0.5125
 8911SOL    HW227633   0.786   4.485   6.731 -1.2208 -0.6939  1.1419
 8912SOL     OW27634   3.618   5.679   2.544 -0.2973  0.3173 -0.9130
 8912SOL    HW127635   3.555   5.754   2.564 -0.4153  0.0120 -0.0714
 8912SOL    HW227636   3.596   5.639   2.455 -0.7341  0.7805 -1.0175
 8913SOL     OW27637   1.380   6.218   5.505  0.0675  0.5683  0.6946
 8913SOL    HW127638   1.317   6.290   5.476  0.5983  1.7113  2.2494
 8913SOL    HW227639   1.473   6.242   5.479  0.0112 -0.6754 -0.7761
 8914SOL     OW27640   2.134   2.579   3.638 -0.1071  0.6723  0.0555
 8914SOL    HW127641   2.072   2.540   3.570  0.3137 -0.8915  0.5364
 8914SOL    HW227642   2.161   2.671   3.609  0.5677 -0.1842 -2.2313
 8915SOL     OW27643   0.870   3.013   3.999  0.3951  0.1269 -0.0537
 8915SOL    HW127644   0.916   3.077   3.937 -1.4490  1.2394 -0.3573
 8915SOL    HW227645   0.801   2.961   3.949 -0.3760  0.2599  0.8400
 8916SOL     OW27646   2.776   1.689   1.420 -0.1146  0.1623  0.4387
 8916SOL    HW127647   2.763   1.772   1.366  3.2022  0.0190 -0.7878
 8916SOL    HW227648   2.823   1.711   1.505  0.3928 -0.3962  0.3091
 8917SOL     OW27649   1.648   5.194   3.836  0.1831 -0.5111 -0.0678
 8917SOL    HW127650   1.596   5.158   3.759  0.4974 -0.6921 -0.1984
 8917SOL    HW227651   1.668   5.119   3.900 -1.3494 -0.1027  0.9417
 8918SOL     OW27652   3.363   1.496   5.159  0.1140  0.1508 -0.0304
 8918SOL    HW127653   3.272   1.460   5.178  0.0394  0.2808 -0.1465
 8918SOL    HW227654   3.358   1.564   5.086  0.3606 -0.1400 -0.3204
 8919SOL     OW27655   5.870   2.184   0.563  0.3578 -0.2968 -0.4859
 8919SOL    HW127656   5.784   2.154   0.605  0.0649 -0.9604 -1.5397
 8919SOL    HW227657   5.943   2.120   0.589  0.1131 -0.8832 -1.2304
 8920SOL     OW27658   6.714   1.636   0.703 -0.0513 -0.0729  0.2746
 8920SOL    HW127659   6.698   1.608   0.608 -0.2398 -0.3104  0.3731
 8920SOL    HW227660   6.638   1.605   0.759 -0.0286  0.2289  0.4729
 8921SOL     OW27661   5.529   5.824   1.355 -0.1369 -0.2127  0.8569
 8921SOL    HW127662   5.541   5.897   1.288 -0.5403 -0.0938  0.9113
 8921SOL    HW227663   5.465   5.854   1.426  1.1880  0.1029  1.9489
 8922SOL     OW27664   3.033   3.849   2.870 -0.0156 -0.1652  0.0280
 8922SOL    HW127665   3.089   3.930   2.884  0.3160 -0.6141  1.4539
 8922SOL    HW227666   3.019   3.835   2.772 -0.9476  2.1723 -0.2355
 8923SOL     OW27667   2.889   1.180   1.928 -0.2362  0.6062  0.4270
 8923SOL    HW127668   2.966   1.238   1.952  0.4951  0.5128 -1.5699
 8923SOL    HW227669   2.922   1.090   1.898 -1.1400  0.4296 -0.0937
 8924SOL     OW27670   0.545   3.658   6.312  0.3289 -0.5520  0.2328
 8924SOL    HW127671   0.562   3.560   6.308  0.2767 -0.5676  0.4001
 8924SOL    HW227672   0.561   3.692   6.405 -1.4165 -0.7316  0.6307
 8925SOL     OW27673   4.469   2.204   6.922  0.1829  0.1891 -0.0783
 8925SOL    HW127674   4.459   2.301   6.899 -0.2658  1.0080  3.1370
 8925SOL    HW227675   4.566   2.181   6.930  0.3565 -0.0982 -2.3067
 8926SOL     OW27676   1.070   3.399   3.496  0.3038 -0.1417  0.1984
 8926SOL    HW127677   1.011   3.320   3.479 -1.7719  1.7408 -2.1787
 8926SOL    HW227678   1.163   3.368   3.514 -0.6982 -3.1262  0.8603
 8927SOL     OW27679   5.377   6.633   6.737  0.0285  0.7698  0.2585
 8927SOL    HW127680   5.464   6.649   6.782  1.0624  1.3215 -1.8302
 8927SOL    HW227681   5.315   6.710   6.754 -0.2776  0.1768  2.1045
 8928SOL     OW27682   6.396   5.494   5.598 -0.1719 -0.5287 -0.0733
 8928SOL    HW127683   6.299   5.470   5.608 -0.7990  2.0831  1.0144
 8928SOL    HW227684   6.436   5.513   5.688  0.1648  2.2924 -0.7090
 8929SOL     OW27685   5.743   4.435   4.046 -0.4701  0.6639  0.4401
 8929SOL    HW127686   5.724   4.502   4.117 -1.5826  0.5403  0.2704
 8929SOL    HW227687   5.774   4.349   4.088  2.3428  1.6543  0.6146
 8930SOL     OW27688   0.796   4.602   4.601 -0.3894  0.0355  0.4930
 8930SOL    HW127689   0.733   4.632   4.672 -0.4042 -0.8951  0.8835
 8930SOL    HW227690   0.809   4.503   4.606  0.5225  0.1050 -0.0567
 8931SOL     OW27691   2.463   5.561   4.234 -0.3693  0.2347 -1.0177
 8931SOL    HW127692   2.403   5.547   4.156  1.5184 -3.2314 -2.0952
 8931SOL    HW227693   2.470   5.475   4.286  2.9045  0.6833 -0.5119
 8932SOL     OW27694   1.301   4.118   5.669 -0.0160 -0.8154 -0.3862
 8932SOL    HW127695   1.394   4.115   5.707 -0.9305  0.4353  2.2163
 8932SOL    HW227696   1.304   4.160   5.578  1.8371  0.4124  0.1799
 8933SOL     OW27697   2.928   1.061   6.150  0.4875  0.1252  0.3926
 8933SOL    HW127698   3.015   1.085   6.194 -0.1665  0.5616  1.4716
 8933SOL    HW227699   2.924   0.962   6.138  0.1166 -0.1832  2.6062
 8934SOL     OW27700   6.143   2.462   4.910  0.5905 -0.5929 -0.3163
 8934SOL    HW127701   6.194   2.542   4.942  2.6051 -1.7430 -0.4224
 8934SOL    HW227702   6.056   2.455   4.958  0.9063  0.9978  0.5283
 8935SOL     OW27703   0.500   2.587   2.786 -0.0020  0.2777  0.2909
 8935SOL    HW127704   0.564   2.637   2.728 -1.4320  2.0494  0.1358
 8935SOL    HW227705   0.534   2.585   2.880  0.6409  0.5382  0.0659
 8936SOL     OW27706   3.056   3.475   5.175  0.0990  0.2842 -0.1812
 8936SOL    HW127707   3.053   3.427   5.087  2.8136 -0.5882  0.1172
 8936SOL    HW227708   3.081   3.410   5.247 -0.8113  1.2499  1.0454
 8937SOL     OW27709   6.332   3.522   1.440  0.5710  0.6264 -0.1845
 8937SOL    HW127710   6.275   3.458   1.491 -0.6514  0.5824 -1.5358
 8937SOL    HW227711   6.367   3.477   1.358 -2.0364  2.1733 -2.2971
 8938SOL     OW27712   1.267   0.517   4.457 -0.2398  0.6319  0.4163
 8938SOL    HW127713   1.252   0.593   4.393  0.0085  0.8138  0.5678
 8938SOL    HW227714   1.302   0.438   4.407  0.5660  0.9777  0.4111
 8939SOL     OW27715   5.410   1.187   5.260 -0.6513 -0.5900  0.3825
 8939SOL    HW127716   5.489   1.243   5.284 -0.4022 -0.4190 -0.7799
 8939SOL    HW227717   5.341   1.244   5.215 -1.9127 -0.5134  2.3057
 8940SOL     OW27718   1.208   5.420   6.866  0.0244  0.1653  0.0713
 8940SOL    HW127719   1.214   5.519   6.872 -0.9332  0.2029  0.5888
 8940SOL    HW227720   1.252   5.379   6.947  0.9116  0.1302 -0.4073
 8941SOL     OW27721   2.270   2.887   3.862  0.0155 -0.3351  0.2442
 8941SOL    HW127722   2.314   2.807   3.903 -1.2874 -0.9711  0.4568
 8941SOL    HW227723   2.308   2.904   3.771  1.2036 -0.3947  0.7071
 8942SOL     OW27724   2.296   0.163   1.662  0.3942 -0.0479 -0.3455
 8942SOL    HW127725   2.390   0.132   1.657  0.0007 -1.0697 -2.8515
 8942SOL    HW227726   2.273   0.215   1.579 -1.4555 -0.5220 -0.1821
 8943SOL     OW27727   2.946   3.916   4.673 -1.0897  0.7912  0.2656
 8943SOL    HW127728   2.899   3.972   4.741 -2.0466  1.7406 -1.1243
 8943SOL    HW227729   3.004   3.975   4.616 -0.4550  0.0461  0.1279
 8944SOL     OW27730   6.332   1.226   4.026  0.0534  0.4380  0.3509
 8944SOL    HW127731   6.264   1.238   4.098  0.2266 -0.1857  0.6265
 8944SOL    HW227732   6.294   1.257   3.938 -0.7547 -0.3288  0.4144
 8945SOL     OW27733   4.381   1.596   0.545  0.2954  0.0822  0.1077
 8945SOL    HW127734   4.294   1.601   0.595 -0.3421 -3.4832 -0.3705
 8945SOL    HW227735   4.373   1.648   0.459 -0.9899  0.6520  0.5496
 8946SOL     OW27736   0.181   5.562   6.346  0.0081  0.4643  0.3162
 8946SOL    HW127737   0.143   5.587   6.435 -0.6614  1.8814 -0.3450
 8946SOL    HW227738   0.265   5.612   6.330  0.7383 -0.6286  0.6001
 8947SOL     OW27739   6.146   4.722   1.614 -0.5268  0.1481 -0.4453
 8947SOL    HW127740   6.050   4.696   1.605 -1.2816  2.0467  1.1421
 8947SOL    HW227741   6.152   4.813   1.657  1.9491  0.8620 -2.0538
 8948SOL     OW27742   6.947   2.620   1.286  0.4948 -0.2897  0.1758
 8948SOL    HW127743   6.904   2.567   1.359 -0.2448 -1.2378 -0.9243
 8948SOL    HW227744   6.960   2.714   1.317 -3.0310  0.2649  0.3798
 8949SOL     OW27745   4.247   2.264   1.448 -0.2066  0.0004 -0.2720
 8949SOL    HW127746   4.271   2.312   1.364 -1.5068  0.0935 -0.6180
 8949SOL    HW227747   4.186   2.321   1.503 -0.4760 -0.6009  0.0685
 8950SOL     OW27748   5.455   1.422   3.685 -0.3198  0.4280  0.2545
 8950SOL    HW127749   5.494   1.369   3.609 -0.4698  0.2887  0.2761
 8950SOL    HW227750   5.529   1.465   3.736 -0.0672 -1.2198  1.3322
 8951SOL     OW27751   1.341   3.847   0.195  0.0663  0.0709  0.2975
 8951SOL    HW127752   1.246   3.866   0.171 -0.3282 -0.9571  0.9750
 8951SOL    HW227753   1.353   3.749   0.211  1.4383  0.0571 -0.5956
 8952SOL     OW27754   1.264   2.174   0.330  0.0603  0.9059  0.6228
 8952SOL    HW127755   1.352   2.187   0.375 -1.1571  0.8482  3.1865
 8952SOL    HW227756   1.245   2.076   0.321  0.9045  0.8901 -1.3793
 8953SOL     OW27757   2.940   0.478   0.588  0.2228 -0.5844 -0.0463
 8953SOL    HW127758   2.848   0.482   0.626  0.7515  0.2853  1.2074
 8953SOL    HW227759   2.950   0.395   0.533 -1.1761 -0.8751  0.1074
 8954SOL     OW27760   1.398   0.630   1.638 -0.1218  0.4905  0.5105
 8954SOL    HW127761   1.422   0.713   1.587  1.6227  0.3948  1.0991
 8954SOL    HW227762   1.340   0.572   1.581  1.3206  0.6326 -1.2225
 8955SOL     OW27763   0.775   1.037   4.744  0.3006 -0.1604  0.5076
 8955SOL    HW127764   0.733   0.953   4.778  0.1704 -0.9518 -1.4460
 8955SOL    HW227765   0.778   1.034   4.644  0.4729  2.0907  0.3972
 8956SOL     OW27766   4.722   4.222   2.189 -0.1869 -0.0213  0.1805
 8956SOL    HW127767   4.640   4.262   2.148 -0.5916  2.1639  2.8174
 8956SOL    HW227768   4.776   4.295   2.233  1.8495 -1.7546  0.7271
 8957SOL     OW27769   1.213   5.270   4.056  0.4759 -0.0304  0.4480
 8957SOL    HW127770   1.294   5.317   4.022  0.5499  0.0525  0.7343
 8957SOL    HW227771   1.152   5.248   3.980  1.2686 -1.0709  0.0814
 8958SOL     OW27772   6.328   0.471   1.988 -0.2608  0.1035 -0.1851
 8958SOL    HW127773   6.346   0.376   2.013  1.1502  0.5858  0.7550
 8958SOL    HW227774   6.392   0.500   1.917 -2.3673 -0.3729 -2.4028
 8959SOL     OW27775   0.939   6.206   3.792 -0.0716  0.3299 -0.7098
 8959SOL    HW127776   0.854   6.193   3.742  0.6624 -2.6118 -1.4243
 8959SOL    HW227777   0.969   6.118   3.829  1.8365  1.5812  0.9238
 8960SOL     OW27778   4.091   3.150   0.874 -0.5351 -0.5100  0.0212
 8960SOL    HW127779   4.139   3.139   0.787 -1.2737 -0.0240 -0.4523
 8960SOL    HW227780   4.003   3.194   0.859  0.3298  1.8484  1.2863
 8961SOL     OW27781   3.783   3.891   6.485 -0.3808 -0.1982 -0.3832
 8961SOL    HW127782   3.752   3.981   6.454 -0.5378 -0.5767 -1.3906
 8961SOL    HW227783   3.813   3.837   6.405 -1.3002 -1.4215  0.0591
 8962SOL     OW27784   3.333   5.106   3.526  0.1585 -0.0628  0.1467
 8962SOL    HW127785   3.308   5.048   3.603  0.9241 -1.3396 -0.5361
 8962SOL    HW227786   3.427   5.086   3.498 -0.1897  0.1791 -1.2834
 8963SOL     OW27787   1.787   4.812   1.887 -0.6644 -0.4873  0.1507
 8963SOL    HW127788   1.801   4.765   1.800 -2.0581  0.8843 -0.8756
 8963SOL    HW227789   1.816   4.908   1.878 -0.4386 -0.4375  1.3240
 8964SOL     OW27790   1.784   4.157   0.335  0.2255  0.1187  0.0623
 8964SOL    HW127791   1.764   4.247   0.375 -0.8214 -0.9813  2.1749
 8964SOL    HW227792   1.833   4.101   0.402  0.5458 -1.0468 -1.0925
 8965SOL     OW27793   4.258   0.804   0.642 -0.5665 -0.2269 -0.1815
 8965SOL    HW127794   4.333   0.785   0.705 -0.4209 -0.1914 -0.3436
 8965SOL    HW227795   4.258   0.901   0.617  0.7872 -0.6343 -2.0190
 8966SOL     OW27796   0.592   0.087   6.957 -0.4510 -0.1313  0.4642
 8966SOL    HW127797   0.651   0.007   6.957 -0.6396 -0.3329 -1.9808
 8966SOL    HW227798   0.547   0.096   6.868 -0.9168  2.3290  0.8672
 8967SOL     OW27799   0.719   1.851   6.244  0.1955 -0.3346  0.3753
 8967SOL    HW127800   0.621   1.863   6.259 -0.3613 -1.9869 -1.5810
 8967SOL    HW227801   0.735   1.809   6.155  2.6958 -0.3215  0.7349
 8968SOL     OW27802   3.527   6.551   3.657 -0.1824 -0.3095  0.2951
 8968SOL    HW127803   3.525   6.650   3.648 -1.5787 -0.4536 -1.8737
 8968SOL    HW227804   3.440   6.519   3.694 -0.3681 -0.7995 -0.5344
 8969SOL     OW27805   0.506   4.044   1.223  0.2407  0.0902  0.1669
 8969SOL    HW127806   0.506   4.015   1.319 -0.4112 -1.9492 -0.3889
 8969SOL    HW227807   0.594   4.085   1.200  0.2774  0.9293  1.7136
 8970SOL     OW27808   2.661   3.243   6.743 -0.3803 -0.2907 -0.0562
 8970SOL    HW127809   2.600   3.281   6.674 -0.6210 -1.9683 -0.8242
 8970SOL    HW227810   2.751   3.226   6.702 -0.0883  0.0426  0.4407
 8971SOL     OW27811   5.216   4.650   5.723  0.2757  0.5660 -0.2253
 8971SOL    HW127812   5.217   4.722   5.793 -1.3937  0.9645 -0.5627
 8971SOL    HW227813   5.310   4.626   5.699  0.8887  2.2524  0.2955
 8972SOL     OW27814   1.689   1.729   4.979 -0.2166 -0.2900 -0.1213
 8972SOL    HW127815   1.749   1.793   4.931  0.9788 -0.1074  1.5261
 8972SOL    HW227816   1.632   1.778   5.044  0.0309 -0.7693  0.4744
 8973SOL     OW27817   0.404   3.657   3.267 -0.0389 -0.4421 -0.0402
 8973SOL    HW127818   0.452   3.614   3.191 -0.6383  1.6827 -1.7035
 8973SOL    HW227819   0.306   3.656   3.250 -0.2037 -0.1883  0.8440
 8974SOL     OW27820   3.775   0.765   6.806 -0.1637 -0.1918  0.8922
 8974SOL    HW127821   3.852   0.733   6.750  0.6345  0.1384  1.7859
 8974SOL    HW227822   3.707   0.692   6.814 -0.4747 -0.1349 -0.7939
 8975SOL     OW27823   6.240   1.836   4.017  0.2889 -0.2803  0.1406
 8975SOL    HW127824   6.281   1.783   4.091 -0.1725 -0.3857  0.3261
 8975SOL    HW227825   6.218   1.776   3.941 -0.7681 -0.4768  0.5769
 8976SOL     OW27826   1.723   3.652   3.423  0.1064  0.6748 -0.5515
 8976SOL    HW127827   1.799   3.717   3.417 -0.2735  1.1706 -0.1923
 8976SOL    HW227828   1.673   3.652   3.337 -0.2680  1.3541 -0.3498
 8977SOL     OW27829   4.598   0.446   1.624 -0.4517  0.3372 -0.0525
 8977SOL    HW127830   4.527   0.508   1.591 -1.0427 -0.7664 -0.9293
 8977SOL    HW227831   4.603   0.366   1.564  0.2341 -0.5017  1.0727
 8978SOL     OW27832   3.415   5.541   3.886  0.1374 -0.2651 -0.3320
 8978SOL    HW127833   3.490   5.541   3.952  0.1596  0.2316 -0.3550
 8978SOL    HW227834   3.332   5.576   3.930  0.4837  1.3874 -0.9339
 8979SOL     OW27835   1.366   1.202   4.009 -0.1808 -0.3075 -0.6856
 8979SOL    HW127836   1.357   1.241   3.918  1.9360 -0.4220 -0.9951
 8979SOL    HW227837   1.277   1.168   4.040 -1.2010  0.9079 -2.1420
 8980SOL     OW27838   6.770   5.673   5.098  0.4401 -0.0395  0.4187
 8980SOL    HW127839   6.723   5.757   5.127 -1.3433 -0.9446  0.3191
 8980SOL    HW227840   6.766   5.606   5.173  3.0309  0.3721  1.0031
 8981SOL     OW27841   0.502   3.208   5.099  0.9065 -0.2205 -0.2578
 8981SOL    HW127842   0.553   3.253   5.026  0.6881 -0.8218 -0.7964
 8981SOL    HW227843   0.513   3.258   5.184  1.4158  0.3215 -0.6397
 8982SOL     OW27844   5.035   3.628   1.572 -0.5669  0.3515  0.2342
 8982SOL    HW127845   5.128   3.654   1.546 -0.7518  1.4545  0.6042
 8982SOL    HW227846   4.970   3.687   1.526 -0.9377  1.7430  2.3997
 8983SOL     OW27847   0.164   2.508   0.023  0.1989 -0.3487 -0.4441
 8983SOL    HW127848   0.157   2.510  -0.077 -1.9508  1.9690 -0.3297
 8983SOL    HW227849   0.084   2.462   0.061 -0.9750  2.1102  0.2474
 8984SOL     OW27850   3.008   2.134   0.412  0.9896  0.6519  0.4460
 8984SOL    HW127851   2.948   2.109   0.335  0.3915 -0.8725  1.3468
 8984SOL    HW227852   3.092   2.081   0.406  1.1651  0.9201  0.5597
 8985SOL     OW27853   2.963   4.269   5.927  0.5269 -0.1166  0.3634
 8985SOL    HW127854   2.939   4.172   5.923 -1.0834  0.2278  1.0351
 8985SOL    HW227855   3.062   4.278   5.941  0.4809 -1.7129  2.1637
 8986SOL     OW27856   2.104   3.488   4.277 -0.1166 -0.4601  0.3815
 8986SOL    HW127857   2.146   3.413   4.226 -0.7536  0.2884 -1.3251
 8986SOL    HW227858   2.043   3.450   4.346 -0.9273 -1.5560 -0.8759
 8987SOL     OW27859   5.845   5.637   5.016 -0.1467  0.4892 -0.2823
 8987SOL    HW127860   5.756   5.663   5.054 -0.0389  0.4949 -0.0314
 8987SOL    HW227861   5.848   5.659   4.919 -0.6512 -0.0935 -0.4339
 8988SOL     OW27862   6.612   0.935   4.284 -0.2470 -0.4134 -0.0517
 8988SOL    HW127863   6.661   0.890   4.359 -0.3370 -2.7773 -1.3245
 8988SOL    HW227864   6.662   0.922   4.199 -2.1473 -1.3558 -1.0854
 8989SOL     OW27865   2.367   2.382   2.905 -0.1355  0.0101  0.4811
 8989SOL    HW127866   2.361   2.282   2.902  1.2589 -0.1908  2.4340
 8989SOL    HW227867   2.367   2.419   2.812  0.2571 -1.8716 -0.3044
 8990SOL     OW27868   6.219   4.999   0.652  0.3765  0.3581 -0.2130
 8990SOL    HW127869   6.200   5.080   0.707  0.2247  1.2939 -1.6021
 8990SOL    HW227870   6.227   4.919   0.712 -1.3158  1.0542  1.0154
 8991SOL     OW27871   1.186   5.049   5.451  0.6815 -0.2695  0.2074
 8991SOL    HW127872   1.136   5.131   5.422  1.3512  0.4457  1.0230
 8991SOL    HW227873   1.271   5.077   5.496  2.1785 -1.4540 -1.7441
 8992SOL     OW27874   2.718   3.726   0.772 -0.3220 -0.1648 -0.0174
 8992SOL    HW127875   2.745   3.689   0.683  3.0606  0.7393  0.4901
 8992SOL    HW227876   2.664   3.809   0.759  1.1043  0.6047 -1.3109
 8993SOL     OW27877   4.347   1.559   2.716 -0.1162  0.1103  0.5062
 8993SOL    HW127878   4.317   1.563   2.812  0.3891  0.5981  0.6451
 8993SOL    HW227879   4.319   1.471   2.677  0.0737 -0.2822  1.2347
 8994SOL     OW27880   4.009   3.009   5.209 -0.5727 -0.4618 -0.1514
 8994SOL    HW127881   4.044   2.915   5.210  0.3360 -0.1406 -0.4314
 8994SOL    HW227882   4.028   3.051   5.120  0.6415  0.5567  0.5496
 8995SOL     OW27883   4.328   0.455   6.425 -0.0061  0.6051 -0.2981
 8995SOL    HW127884   4.373   0.368   6.403 -0.3631 -0.0177  1.2680
 8995SOL    HW227885   4.231   0.449   6.401 -0.3806 -0.0492  1.2415
 8996SOL     OW27886   5.495   1.524   0.053 -0.2009  0.2992 -0.7523
 8996SOL    HW127887   5.434   1.480   0.119 -1.2136  1.7018 -0.7060
 8996SOL    HW227888   5.567   1.460   0.027 -0.2735 -0.5891  1.0363
 8997SOL     OW27889   1.777   6.213   6.742 -0.3814  0.2649 -0.2632
 8997SOL    HW127890   1.784   6.277   6.819 -0.1086  1.7794 -1.4949
 8997SOL    HW227891   1.721   6.254   6.670  0.5517 -0.5063 -1.4587
 8998SOL     OW27892   1.744   3.182   5.669 -0.1074  0.4118  0.2279
 8998SOL    HW127893   1.740   3.183   5.768 -1.6153  1.3266  0.1896
 8998SOL    HW227894   1.796   3.102   5.638  0.2726  0.0495  1.7288
 8999SOL     OW27895   4.469   6.410   1.370 -0.2636 -0.4007  0.5690
 8999SOL    HW127896   4.461   6.507   1.347 -1.4457 -0.1935  1.7078
 8999SOL    HW227897   4.553   6.395   1.422  0.1285 -0.0694  0.0429
 9000SOL     OW27898   1.412   4.810   1.400 -0.3263 -0.3651  0.1108
 9000SOL    HW127899   1.390   4.717   1.430 -1.2308 -0.0247  0.5387
 9000SOL    HW227900   1.486   4.806   1.332  0.0632 -1.3402  0.5651
 9001SOL     OW27901   5.333   0.415   1.929  0.1368  0.6444 -0.1850
 9001SOL    HW127902   5.358   0.468   1.848  0.8590  2.9594  1.4437
 9001SOL    HW227903   5.259   0.462   1.978 -0.9322 -1.1936  0.0586
 9002SOL     OW27904   3.939   5.674   2.948  0.4362  0.1843  0.0158
 9002SOL    HW127905   3.880   5.640   2.875 -2.4517 -0.4136  2.4324
 9002SOL    HW227906   3.980   5.597   2.997  0.2233  0.4551  0.6331
 9003SOL     OW27907   3.072   4.707   1.498 -0.2604  0.1647  0.4372
 9003SOL    HW127908   3.112   4.798   1.488 -0.0920  0.1422  0.8762
 9003SOL    HW227909   3.100   4.668   1.586  0.0384 -0.4983  0.0537
 9004SOL     OW27910   3.762   4.910   5.555  0.3415 -0.4438 -0.8229
 9004SOL    HW127911   3.813   4.846   5.613 -0.8253 -1.1209 -0.5086
 9004SOL    HW227912   3.694   4.860   5.502 -0.3896  0.5033 -0.7993
 9005SOL     OW27913   0.839   5.076   5.337  0.3964 -0.4886 -0.3563
 9005SOL    HW127914   0.794   5.138   5.272 -1.6067  0.7060  1.9758
 9005SOL    HW227915   0.772   5.008   5.369  1.2465 -0.8902  0.6217
 9006SOL     OW27916   2.202   4.582   4.689  0.4221 -0.5989 -0.3694
 9006SOL    HW127917   2.222   4.678   4.668  0.1713 -0.3878  0.3504
 9006SOL    HW227918   2.153   4.541   4.612 -1.1324  0.3744  0.0707
 9007SOL     OW27919   3.940   1.496   6.314 -0.2810 -0.7548 -0.1890
 9007SOL    HW127920   3.883   1.553   6.372 -0.1809  0.8881 -1.6085
 9007SOL    HW227921   3.884   1.452   6.244 -0.1320 -1.1287 -0.0782
 9008SOL     OW27922   3.937   3.715   0.590 -0.0127 -0.3808  0.1001
 9008SOL    HW127923   4.034   3.695   0.599  0.4263  2.2316  2.6140
 9008SOL    HW227924   3.886   3.667   0.661 -0.7032 -2.0440 -1.4372
 9009SOL     OW27925   1.983   5.651   1.253  0.6199 -0.3962 -0.2220
 9009SOL    HW127926   1.988   5.575   1.318  0.5250 -0.7872 -0.6636
 9009SOL    HW227927   2.075   5.672   1.219  0.5518 -0.8972 -0.7490
 9010SOL     OW27928   6.113   3.795   5.862 -0.2564  0.3915  0.2805
 9010SOL    HW127929   6.016   3.806   5.887 -0.2251 -0.5161  0.8534
 9010SOL    HW227930   6.120   3.776   5.765 -0.4488  3.0935 -0.3526
 9011SOL     OW27931   4.897   2.972   2.996 -0.6056  0.3684  0.5072
 9011SOL    HW127932   4.802   2.942   3.011 -0.9197  1.3340  0.4856
 9011SOL    HW227933   4.932   3.014   3.080  0.2627 -1.1503  0.9394
 9012SOL     OW27934   2.951   0.181   3.388 -0.8154 -0.5324 -0.0000
 9012SOL    HW127935   2.930   0.260   3.445 -0.3778 -0.5776  0.2275
 9012SOL    HW227936   2.907   0.100   3.426 -1.7349 -0.3058 -0.5497
 9013SOL     OW27937   0.047   0.188   3.264  0.0354 -0.7837  0.1743
 9013SOL    HW127938  -0.031   0.243   3.295 -1.2233 -1.3050 -1.8707
 9013SOL    HW227939   0.058   0.109   3.324 -0.2764 -0.0909  1.1692
 9014SOL     OW27940   0.121   6.996   5.815  0.3179  0.2034 -0.6345
 9014SOL    HW127941   0.068   6.935   5.874  0.2737  2.4750  1.8225
 9014SOL    HW227942   0.217   6.995   5.843  0.1209  2.0796  0.2795
 9015SOL     OW27943   0.768   4.797   1.567  0.4440 -0.0890  0.2519
 9015SOL    HW127944   0.814   4.759   1.486  0.4017 -1.2161  0.7339
 9015SOL    HW227945   0.835   4.811   1.640  0.1972 -0.7833  0.6189
 9016SOL     OW27946   4.541   1.743   5.831  0.4096  0.3551  0.3750
 9016SOL    HW127947   4.571   1.770   5.923 -1.6045 -0.3898  1.3192
 9016SOL    HW227948   4.449   1.703   5.837  0.4528 -0.1997 -1.9144
 9017SOL     OW27949   5.019   4.787   3.194  0.0769 -0.0267 -0.3655
 9017SOL    HW127950   5.076   4.744   3.264 -2.1972 -0.7886  1.1447
 9017SOL    HW227951   4.949   4.722   3.164 -2.5961  2.0225  0.9491
 9018SOL     OW27952   3.570   0.686   0.808 -0.3316 -0.8135 -0.7806
 9018SOL    HW127953   3.504   0.618   0.840 -0.8277  0.2610  0.5543
 9018SOL    HW227954   3.636   0.642   0.747  0.1165 -2.7654  0.9960
 9019SOL     OW27955   5.080   6.259   0.252  0.6676  0.5906  0.4494
 9019SOL    HW127956   4.985   6.232   0.235  0.9592  0.7550 -1.8799
 9019SOL    HW227957   5.119   6.295   0.167  3.1026 -0.3352  1.1128
 9020SOL     OW27958   6.919   3.142   3.566  0.6595 -0.1201  0.4668
 9020SOL    HW127959   6.910   3.205   3.489  0.5121  1.2133  1.5317
 9020SOL    HW227960   6.921   3.048   3.532 -1.6491  0.2776 -1.0314
 9021SOL     OW27961   2.599   0.182   4.809  0.1558  0.2418 -0.6661
 9021SOL    HW127962   2.637   0.244   4.741  1.2428 -0.4326 -0.7076
 9021SOL    HW227963   2.622   0.215   4.901  0.1749  0.2445 -0.6719
 9022SOL     OW27964   3.762   3.156   3.829  0.5290 -0.3292  0.2487
 9022SOL    HW127965   3.759   3.093   3.907  2.6619  0.6867  1.2171
 9022SOL    HW227966   3.672   3.197   3.817  0.3271  0.1093  2.7362
 9023SOL     OW27967   2.330   5.973   0.419 -0.0351 -0.6910  0.1469
 9023SOL    HW127968   2.318   5.934   0.510  1.5117  0.2399  0.7871
 9023SOL    HW227969   2.427   5.971   0.395 -0.4052 -0.8359 -1.4557
 9024SOL     OW27970   1.232   5.976   5.468 -0.4849  0.6641 -0.0468
 9024SOL    HW127971   1.315   6.025   5.441  0.6366  0.1428  2.2502
 9024SOL    HW227972   1.152   6.027   5.435  0.6457  0.3745 -3.6867
 9025SOL     OW27973   1.880   0.986   2.167  0.0995  0.0540  0.0121
 9025SOL    HW127974   1.894   0.916   2.097  0.4007 -0.2934  0.4103
 9025SOL    HW227975   1.962   1.042   2.176 -0.3511  0.8504 -0.7204
 9026SOL     OW27976   3.158   1.608   1.690  0.5181 -0.3395 -0.6339
 9026SOL    HW127977   3.256   1.617   1.706  0.3951  0.7073 -0.3764
 9026SOL    HW227978   3.142   1.569   1.599  1.1825  3.6802 -2.6793
 9027SOL     OW27979   4.130   1.711   6.778 -0.2660  0.6727 -0.8150
 9027SOL    HW127980   4.059   1.762   6.828 -0.2816 -0.2718  0.1796
 9027SOL    HW227981   4.161   1.634   6.834 -0.0867 -0.2892 -2.1776
 9028SOL     OW27982   5.036   2.274   3.130 -0.3038 -0.0957 -0.0517
 9028SOL    HW127983   5.129   2.295   3.160  0.4859 -1.7783 -1.1593
 9028SOL    HW227984   5.003   2.349   3.072  0.1149  0.7776  0.8035
 9029SOL     OW27985   2.015   6.455   6.800  0.2729  0.1592 -0.5120
 9029SOL    HW127986   1.936   6.443   6.860  0.0858 -0.6175 -0.8976
 9029SOL    HW227987   2.030   6.370   6.749  0.4149  0.8111 -1.5696
 9030SOL     OW27988   3.171   3.144   3.268 -0.0657 -0.8000 -0.0577
 9030SOL    HW127989   3.189   3.070   3.203 -0.9759 -0.5710 -0.5797
 9030SOL    HW227990   3.248   3.208   3.268  0.5754 -1.5535  0.1463
 9031SOL     OW27991   6.149   4.686   2.560  0.2253  0.5485 -0.6119
 9031SOL    HW127992   6.092   4.705   2.640  1.5828 -2.6202  1.2965
 9031SOL    HW227993   6.244   4.706   2.580  0.7809 -1.6222 -0.8490
 9032SOL     OW27994   1.033   2.000   2.482 -0.1044 -0.6195 -0.0704
 9032SOL    HW127995   0.996   1.971   2.570 -0.2561 -1.3846 -0.3772
 9032SOL    HW227996   1.120   1.953   2.466 -0.1990 -0.6686 -0.4371
 9033SOL     OW27997   4.404   1.037   2.032 -0.3159 -0.5207 -0.2269
 9033SOL    HW127998   4.472   0.975   1.993 -0.2357 -0.8886  0.4798
 9033SOL    HW227999   4.342   0.985   2.091  0.9830  0.3327  2.0260
 9034SOL     OW28000   2.168   6.887   5.691 -0.1111 -0.0345 -0.2332
 9034SOL    HW128001   2.265   6.865   5.677 -0.5787 -1.7927 -1.0101
 9034SOL    HW228002   2.125   6.815   5.744 -1.3924 -0.2569 -1.5136
 9035SOL     OW28003   3.837   4.087   3.661  0.2030  0.1954 -0.3975
 9035SOL    HW128004   3.902   4.014   3.644 -0.6364 -0.5709 -0.3751
 9035SOL    HW228005   3.828   4.103   3.759 -0.3431 -0.3474 -0.3573
 9036SOL     OW28006   3.922   0.011   4.795  0.1190 -0.5800  0.5991
 9036SOL    HW128007   3.922  -0.045   4.877  0.5147  1.0584  1.7642
 9036SOL    HW228008   3.847   0.077   4.800  2.5365  2.3296  1.7250
 9037SOL     OW28009   3.512   0.591   0.116 -0.2189 -0.7967 -0.2383
 9037SOL    HW128010   3.555   0.627   0.198  1.4314 -1.0204 -0.9820
 9037SOL    HW228011   3.515   0.660   0.044  0.7118 -1.5257 -0.9089
 9038SOL     OW28012   5.567   6.267   4.734 -0.0038  0.0006  0.4413
 9038SOL    HW128013   5.524   6.180   4.710 -1.1839  0.5540  0.5151
 9038SOL    HW228014   5.526   6.303   4.818 -0.4388  1.2528 -0.2838
 9039SOL     OW28015   0.756   3.550   0.309  0.1953 -0.1310 -0.0486
 9039SOL    HW128016   0.667   3.580   0.273  0.1768 -0.9336 -0.7049
 9039SOL    HW228017   0.754   3.552   0.409 -0.4366  0.2217 -0.0649
 9040SOL     OW28018   6.509   1.145   4.642  0.2948 -0.5939  0.6847
 9040SOL    HW128019   6.425   1.094   4.663  1.1968 -1.9706  1.1123
 9040SOL    HW228020   6.542   1.190   4.724 -1.0645  1.6425  0.0841
 9041SOL     OW28021   5.144   5.339   4.139 -0.3372 -0.0792  0.3013
 9041SOL    HW128022   5.218   5.396   4.105 -0.3223  0.0292  0.5170
 9041SOL    HW228023   5.104   5.381   4.220  0.8036 -1.2217  1.5032
 9042SOL     OW28024   6.859   1.534   2.116  0.4535 -0.1415  0.3290
 9042SOL    HW128025   6.840   1.590   2.197  0.4514 -0.2090  0.3744
 9042SOL    HW228026   6.859   1.593   2.035 -0.8099 -0.2714  0.2114
 9043SOL     OW28027   2.111   2.228   1.857  0.1898  0.1504 -0.4038
 9043SOL    HW128028   2.071   2.158   1.916 -0.1513 -0.0979 -0.9174
 9043SOL    HW228029   2.183   2.277   1.906  0.6435 -0.7714 -0.1392
 9044SOL     OW28030   0.706   3.541   6.690  0.8278  0.8572  1.1624
 9044SOL    HW128031   0.632   3.595   6.731 -2.2328 -0.2460 -2.3521
 9044SOL    HW228032   0.765   3.602   6.637 -0.6607  1.2467 -0.1313
 9045SOL     OW28033   3.660   4.491   0.191  0.1358  0.7525 -0.5337
 9045SOL    HW128034   3.732   4.422   0.195  0.4866  0.9402 -2.3878
 9045SOL    HW228035   3.573   4.449   0.218  1.0661  0.8996  3.1889
 9046SOL     OW28036   3.738   3.907   4.661 -0.0950  0.0746  0.3599
 9046SOL    HW128037   3.712   3.862   4.747  2.5450 -0.3943  0.9766
 9046SOL    HW228038   3.787   3.842   4.603  3.1635  1.7851  0.9664
 9047SOL     OW28039   3.075   5.573   1.041  0.0691  0.4408 -0.2315
 9047SOL    HW128040   3.040   5.584   1.134 -1.0658 -3.1220 -0.0638
 9047SOL    HW228041   2.999   5.547   0.981  1.4452 -1.9117 -1.0859
 9048SOL     OW28042   4.023   5.628   5.854 -0.1339  0.1598  0.3660
 9048SOL    HW128043   3.943   5.570   5.839 -0.3263 -0.0038  1.9066
 9048SOL    HW228044   4.084   5.585   5.920  2.1944 -0.6075 -2.1091
 9049SOL     OW28045   5.378   3.232   2.615 -0.1229 -0.7030 -0.4584
 9049SOL    HW128046   5.399   3.272   2.526  1.2323 -1.0597 -0.3162
 9049SOL    HW228047   5.392   3.133   2.611  0.6155 -0.6422  0.3160
 9050SOL     OW28048   5.984   1.985   1.119 -0.3655 -0.0517 -0.1023
 9050SOL    HW128049   6.075   1.946   1.133 -0.1974  0.6142  0.7485
 9050SOL    HW228050   5.988   2.053   1.045 -0.1910 -0.0921 -0.1312
 9051SOL     OW28051   4.668   5.141   2.253 -0.2803  0.4047 -0.6183
 9051SOL    HW128052   4.596   5.203   2.222  0.0056  1.3028  0.4583
 9051SOL    HW228053   4.660   5.126   2.351  0.6526  0.0474 -0.5824
 9052SOL     OW28054   3.445   6.171   1.913  0.1683 -0.3198 -0.1983
 9052SOL    HW128055   3.360   6.139   1.869 -0.5204  1.8702 -0.5941
 9052SOL    HW228056   3.449   6.137   2.007 -0.6848 -1.2084 -0.4647
 9053SOL     OW28057   5.164   4.999   3.068  0.4660  0.8417 -0.2119
 9053SOL    HW128058   5.110   4.944   3.132  0.9343 -0.0800 -0.5739
 9053SOL    HW228059   5.156   5.096   3.091 -1.0705  0.7039 -0.0709
 9054SOL     OW28060   5.244   3.879   2.779  0.1117  0.7116 -0.1651
 9054SOL    HW128061   5.341   3.856   2.782  0.2480  1.3115  2.5584
 9054SOL    HW228062   5.189   3.797   2.792  0.3002  0.5996 -0.0805
 9055SOL     OW28063   4.930   1.205   5.276 -0.1867  0.1020  0.0265
 9055SOL    HW128064   4.929   1.301   5.305  1.8205  0.6813 -1.6263
 9055SOL    HW228065   4.839   1.181   5.242 -0.0928  2.2932 -2.0679
 9056SOL     OW28066   5.212   3.650   2.405  0.0327  0.2395 -0.8795
 9056SOL    HW128067   5.169   3.572   2.450  1.8613 -1.3757 -1.8118
 9056SOL    HW228068   5.184   3.654   2.309  1.2409 -0.3331 -1.2779
 9057SOL     OW28069   0.527   6.612   6.182  0.3945 -0.2459  0.0242
 9057SOL    HW128070   0.540   6.705   6.148 -1.1491  0.4327  1.1676
 9057SOL    HW228071   0.534   6.612   6.281 -0.0655 -1.2738  0.0668
 9058SOL     OW28072   5.680   6.545   2.734  0.1857  0.5365 -0.5402
 9058SOL    HW128073   5.612   6.618   2.729 -0.1964  0.1398 -1.4099
 9058SOL    HW228074   5.684   6.498   2.646 -0.5589 -1.3675  0.4003
 9059SOL     OW28075   2.473   5.941   1.298  0.2329  0.3458  0.2492
 9059SOL    HW128076   2.489   6.032   1.261 -1.2729  0.3620 -0.4298
 9059SOL    HW228077   2.419   5.947   1.382  0.5627  0.0982  0.4853
 9060SOL     OW28078   4.061   6.214   3.060 -0.1543 -0.2628 -0.5002
 9060SOL    HW128079   4.127   6.173   3.123 -2.1060 -3.0651 -0.1253
 9060SOL    HW228080   4.082   6.185   2.967  0.2880  0.4858 -0.6403
 9061SOL     OW28081   2.113   2.411   6.179 -0.0523 -0.1048 -1.1425
 9061SOL    HW128082   2.207   2.444   6.170 -0.2729  0.5751 -0.9906
 9061SOL    HW228083   2.115   2.315   6.207  0.6120  0.2335  0.0762
 9062SOL     OW28084   1.836   2.822   0.052  0.5574 -0.3889 -0.6447
 9062SOL    HW128085   1.820   2.857   0.144  0.7996 -1.7160 -0.0808
 9062SOL    HW228086   1.762   2.852  -0.008  0.7449  1.0555 -0.2075
 9063SOL     OW28087   4.355   6.623   0.791 -0.6937 -0.5590  0.5441
 9063SOL    HW128088   4.294   6.567   0.734  0.0672 -0.9863  0.1335
 9063SOL    HW228089   4.300   6.677   0.855 -1.4999 -0.9700  0.2186
 9064SOL     OW28090   5.280   6.294   1.473 -0.0688  0.7244  0.8130
 9064SOL    HW128091   5.220   6.216   1.489 -0.6556  1.4167  2.1882
 9064SOL    HW228092   5.362   6.264   1.424 -1.0156 -0.4328 -0.1276
 9065SOL     OW28093   4.930   6.397   0.981 -0.0435  0.1826  0.0107
 9065SOL    HW128094   4.904   6.440   0.895 -1.5922 -1.9521 -0.6943
 9065SOL    HW228095   5.030   6.394   0.989  0.1286  0.3563 -1.7573
 9066SOL     OW28096   0.427   4.610   4.624 -0.1512  0.8559  0.4672
 9066SOL    HW128097   0.455   4.704   4.607  0.1168  0.6909 -0.0122
 9066SOL    HW228098   0.472   4.576   4.706  1.7578  0.3087 -0.7532
 9067SOL     OW28099   0.455   3.527   3.023 -0.1011 -0.2143  0.1864
 9067SOL    HW128100   0.377   3.485   2.978  0.0373 -1.3350  0.9558
 9067SOL    HW228101   0.529   3.540   2.957 -0.6282  0.0864 -0.3525
 9068SOL     OW28102   0.105   5.167   5.941  0.6000  0.3303  0.8047
 9068SOL    HW128103   0.046   5.231   5.990  0.9028  0.9869  0.3198
 9068SOL    HW228104   0.081   5.074   5.968  0.2995  0.6466  1.6746
 9069SOL     OW28105   2.913   3.132   1.502  0.1622 -0.2408  0.1818
 9069SOL    HW128106   2.921   3.230   1.483  1.1902 -0.4868 -0.7465
 9069SOL    HW228107   2.924   3.117   1.601 -0.9322  0.6470  0.4642
 9070SOL     OW28108   3.493   1.640   2.361  0.7046 -0.0907  0.2055
 9070SOL    HW128109   3.472   1.543   2.350 -0.3716  0.2378 -0.9807
 9070SOL    HW228110   3.532   1.676   2.275 -2.0567  1.2272 -0.6113
 9071SOL     OW28111   1.345   6.402   1.021  0.3305 -0.0784  0.0557
 9071SOL    HW128112   1.444   6.394   1.032  0.4407 -1.1314 -1.3632
 9071SOL    HW228113   1.299   6.346   1.090  0.7580 -0.3048  0.1632
 9072SOL     OW28114   0.980   0.415   4.816 -0.1638  0.6293  0.4252
 9072SOL    HW128115   1.016   0.463   4.896 -3.5872  1.8382  1.4193
 9072SOL    HW228116   0.880   0.416   4.819 -0.4124 -2.0024 -2.3343
 9073SOL     OW28117   5.829   0.545   3.046  0.3177  0.6038  0.0837
 9073SOL    HW128118   5.810   0.464   3.100  0.3116  0.2966 -0.3720
 9073SOL    HW228119   5.774   0.622   3.079 -1.5460 -0.1832 -1.0255
 9074SOL     OW28120   5.858   6.363   6.644 -0.0986  0.0644 -0.8074
 9074SOL    HW128121   5.951   6.328   6.657 -0.3663 -0.3192  0.1405
 9074SOL    HW228122   5.792   6.289   6.657 -0.7230  0.9569  1.9548
 9075SOL     OW28123   4.804   0.237   3.493  0.0368  0.1594 -0.4088
 9075SOL    HW128124   4.737   0.172   3.457  1.8789 -1.8119 -0.5346
 9075SOL    HW228125   4.803   0.320   3.438 -0.5304 -0.8676 -2.0341
 9076SOL     OW28126   3.430   6.789   4.605 -0.2210  0.1893  0.1948
 9076SOL    HW128127   3.360   6.724   4.633  0.3716  0.5265  2.6439
 9076SOL    HW228128   3.514   6.739   4.582 -0.2076  0.0078  0.6396
 9077SOL     OW28129   2.923   0.126   3.715 -0.1015 -0.5268  0.1820
 9077SOL    HW128130   2.860   0.113   3.792 -1.5938  0.8829 -0.7405
 9077SOL    HW228131   2.893   0.070   3.638  1.5688 -2.1731  0.6661
 9078SOL     OW28132   0.453   6.530   3.716  0.0224  0.2878  0.2160
 9078SOL    HW128133   0.358   6.516   3.744 -0.2496  0.2786 -0.6797
 9078SOL    HW228134   0.465   6.624   3.684 -0.2412 -0.3112 -1.7410
 9079SOL     OW28135   2.047   3.400   0.257 -0.0183  0.0746 -0.6442
 9079SOL    HW128136   2.120   3.334   0.243 -1.3797 -1.3989 -1.1478
 9079SOL    HW228137   2.010   3.428   0.169  0.1288  1.0367 -0.4057
 9080SOL     OW28138   5.253   6.218   2.522 -0.4294 -0.6251  0.0616
 9080SOL    HW128139   5.172   6.169   2.555 -1.2923 -0.6398 -1.9077
 9080SOL    HW228140   5.269   6.195   2.426  1.3331  0.1626  0.1315
 9081SOL     OW28141   5.123   2.995   1.704  0.0703 -0.5845 -0.2039
 9081SOL    HW128142   5.079   3.064   1.645  1.9467  0.9027  0.0304
 9081SOL    HW228143   5.064   2.975   1.781 -1.5077 -0.9589 -1.4640
 9082SOL     OW28144   4.077   5.603   0.860 -0.2011 -0.5122  0.7481
 9082SOL    HW128145   3.985   5.596   0.899  0.0890 -2.9771  1.1566
 9082SOL    HW228146   4.070   5.612   0.761 -0.8607  0.7848  0.8805
 9083SOL     OW28147   6.257   0.477   0.018  0.1415 -0.0463  0.5510
 9083SOL    HW128148   6.207   0.400  -0.022  0.7575  0.7755 -1.9807
 9083SOL    HW228149   6.352   0.474  -0.010  0.5363  0.7935  1.7266
 9084SOL     OW28150   0.291   4.366   2.454  0.5960  0.0589  0.7188
 9084SOL    HW128151   0.234   4.391   2.533 -1.5048  0.9376 -0.9700
 9084SOL    HW228152   0.319   4.271   2.462  1.0068  0.3060  2.8386
 9085SOL     OW28153   4.056   3.032   5.744  0.3815  0.2008  0.2659
 9085SOL    HW128154   4.056   3.052   5.646 -1.1751  0.9662  0.3904
 9085SOL    HW228155   4.062   2.933   5.758  0.2019  0.0623 -0.6150
 9086SOL     OW28156   3.909   2.253   5.710  0.3111 -0.4163  0.0124
 9086SOL    HW128157   3.970   2.174   5.718  1.5871  0.3293 -1.6591
 9086SOL    HW228158   3.935   2.307   5.630 -1.7509  0.6699  0.0064
 9087SOL     OW28159   1.134   5.326   1.499  0.1870 -0.0073  0.2472
 9087SOL    HW128160   1.076   5.253   1.536  0.0815  0.3129  0.7301
 9087SOL    HW228161   1.126   5.407   1.557  1.5037 -0.1187  0.6273
 9088SOL     OW28162   5.851   2.020   6.236  0.2040 -0.4378 -0.1740
 9088SOL    HW128163   5.774   1.997   6.176  0.7973 -1.9457 -0.3959
 9088SOL    HW228164   5.879   2.115   6.220 -0.4615 -0.4249 -1.3647
 9089SOL     OW28165   0.341   0.186   4.932 -0.2105  0.2791  0.4096
 9089SOL    HW128166   0.280   0.144   4.865  0.3114  0.5587 -0.2497
 9089SOL    HW228167   0.313   0.281   4.948  1.0647  0.9653 -1.2051
 9090SOL     OW28168   1.942   6.863   4.425 -0.2308 -0.2226  0.7007
 9090SOL    HW128169   1.842   6.873   4.427 -0.3132 -1.0358  0.7341
 9090SOL    HW228170   1.981   6.935   4.367 -0.8275  0.1266  0.7194
 9091SOL     OW28171   2.970   2.916   0.174  0.2958 -0.3767  0.5440
 9091SOL    HW128172   2.904   2.920   0.249 -0.1964  0.3703  0.0788
 9091SOL    HW228173   2.923   2.927   0.087  1.0810  0.5901  0.2310
 9092SOL     OW28174   4.968   2.043   4.631  0.5413 -0.4318 -0.0948
 9092SOL    HW128175   4.906   2.118   4.609  0.3103 -0.9256 -1.1703
 9092SOL    HW228176   5.061   2.079   4.645  1.2285 -0.2568 -4.0993
 9093SOL     OW28177   5.056   3.985   4.761 -0.2145  0.1782  0.2522
 9093SOL    HW128178   5.088   3.954   4.672 -1.5338  2.2193 -1.0182
 9093SOL    HW228179   5.116   4.058   4.794  0.8343 -1.2062  1.5635
 9094SOL     OW28180   5.400   3.665   0.961 -0.1655 -0.3226  0.6211
 9094SOL    HW128181   5.347   3.599   1.015  0.9798 -0.6253  1.4121
 9094SOL    HW228182   5.338   3.718   0.903 -1.1190 -2.1907 -0.1638
 9095SOL     OW28183   4.607   0.975   0.474  0.1906  0.2086  0.0712
 9095SOL    HW128184   4.664   1.040   0.424  0.8684 -0.4115  0.0170
 9095SOL    HW228185   4.529   0.948   0.418  0.7203 -0.1659 -0.4973
 9096SOL     OW28186   1.622   1.771   3.675 -0.2199 -0.2491 -0.1483
 9096SOL    HW128187   1.683   1.696   3.647 -1.0370 -0.2111 -2.2512
 9096SOL    HW228188   1.667   1.858   3.658  0.5214 -0.1952  1.8016
 9097SOL     OW28189   0.883   4.952   1.229 -0.4893 -0.0681 -0.2135
 9097SOL    HW128190   0.917   4.947   1.135 -1.2653  1.8704 -0.6384
 9097SOL    HW228191   0.933   4.886   1.286  0.4189 -0.8474 -1.8368
 9098SOL     OW28192   0.345   2.666   0.159 -0.3847 -0.2460  0.3306
 9098SOL    HW128193   0.337   2.764   0.140 -0.0972 -0.0118  1.3623
 9098SOL    HW228194   0.273   2.616   0.111 -0.4660  0.4565 -0.2861
 9099SOL     OW28195   5.046   5.243   3.155 -0.0974  0.0567  0.5995
 9099SOL    HW128196   4.971   5.274   3.213 -0.8931 -1.1701  0.2419
 9099SOL    HW228197   5.119   5.312   3.156 -0.7481  0.7561  1.8172
 9100SOL     OW28198   2.093   4.965   1.431 -0.0686 -0.6580 -0.5537
 9100SOL    HW128199   2.077   4.871   1.401  1.5528 -1.8244  1.9773
 9100SOL    HW228200   2.028   5.025   1.384  0.6392 -2.5408 -4.4061
 9101SOL     OW28201   5.635   0.498   5.395  0.2538 -0.8369  0.4586
 9101SOL    HW128202   5.580   0.470   5.474 -0.9751 -0.7690 -0.3344
 9101SOL    HW228203   5.628   0.428   5.324 -2.0293  0.8980 -1.1648
 9102SOL     OW28204   0.954   3.313   5.995 -0.5466 -0.1022  0.1610
 9102SOL    HW128205   0.947   3.294   5.897 -2.4641 -0.0893  0.2508
 9102SOL    HW228206   0.909   3.400   6.016  1.3168  0.7459  0.8484
 9103SOL     OW28207   3.324   2.693   1.293 -0.0500  0.9745 -0.1845
 9103SOL    HW128208   3.253   2.623   1.284  0.1533  0.6208  0.8600
 9103SOL    HW228209   3.346   2.706   1.390  1.2524  1.1434 -0.4881
 9104SOL     OW28210   2.045   0.710   2.200  0.5295 -0.0805  0.5248
 9104SOL    HW128211   2.076   0.767   2.276  0.4296 -0.5002  0.8803
 9104SOL    HW228212   2.123   0.662   2.160  0.6380  0.4221  0.1233
 9105SOL     OW28213   0.800   2.666   2.346  0.2286  0.3667 -0.2818
 9105SOL    HW128214   0.864   2.720   2.291 -1.0974  2.5804  0.1958
 9105SOL    HW228215   0.707   2.686   2.317 -0.3751 -0.5115  0.9768
 9106SOL     OW28216   5.841   5.622   6.035 -0.1701  0.1090 -0.0045
 9106SOL    HW128217   5.890   5.691   6.088 -0.6134 -0.1225  0.7276
 9106SOL    HW228218   5.857   5.532   6.075 -3.4486  0.2879  2.1232
 9107SOL     OW28219   1.301   1.197   5.203  0.1233 -0.0625  0.0949
 9107SOL    HW128220   1.313   1.236   5.112  0.1160  0.4152  0.2938
 9107SOL    HW228221   1.238   1.119   5.199  1.1466 -0.8782 -0.5181
 9108SOL     OW28222   2.929   4.358   5.287  0.3194 -0.3499  0.0751
 9108SOL    HW128223   2.908   4.446   5.244  1.0532 -0.3949 -0.4000
 9108SOL    HW228224   2.845   4.317   5.322 -0.1968  0.0171 -0.7092
 9109SOL     OW28225   6.384   0.683   4.610  0.0186  0.2165  0.4059
 9109SOL    HW128226   6.312   0.745   4.639 -0.9720  0.1508 -1.7062
 9109SOL    HW228227   6.357   0.589   4.629  1.1629  0.3127  2.8532
 9110SOL     OW28228   1.070   2.366   3.192  0.0166 -0.1378  0.5754
 9110SOL    HW128229   1.107   2.331   3.106 -1.5096 -0.1730 -0.1030
 9110SOL    HW228230   1.089   2.301   3.266 -1.1379 -1.5308 -0.3037
 9111SOL     OW28231   0.077   5.987   4.210 -0.4874 -0.0676 -0.1874
 9111SOL    HW128232  -0.009   5.946   4.239 -0.5842 -1.1724 -1.8728
 9111SOL    HW228233   0.153   5.934   4.245 -0.4193  1.1850  1.7112
 9112SOL     OW28234   5.990   3.312   5.331  0.2452 -0.0488  0.2455
 9112SOL    HW128235   6.046   3.296   5.413  0.4130  0.5221  0.2472
 9112SOL    HW228236   5.995   3.232   5.271 -1.0899 -1.0885  1.4783
 9113SOL     OW28237   3.817   0.166   6.983 -0.1774 -0.6790 -0.1942
 9113SOL    HW128238   3.783   0.259   6.997  1.2976 -0.4267  2.2770
 9113SOL    HW228239   3.905   0.169   6.937  0.2971 -0.7608  0.6872
 9114SOL     OW28240   2.235   1.797   2.925  0.2150 -0.3267 -0.1182
 9114SOL    HW128241   2.230   1.800   2.825 -1.0518 -0.0916 -0.0555
 9114SOL    HW228242   2.297   1.723   2.952 -1.3500 -2.0772 -1.0690
 9115SOL     OW28243   2.463   6.052   1.638 -0.2564  0.3119  0.4093
 9115SOL    HW128244   2.449   5.967   1.587  1.4276  1.4588 -2.1933
 9115SOL    HW228245   2.543   6.044   1.697  0.8218  0.5083 -0.9826
 9116SOL     OW28246   6.923   3.646   1.706  0.1134  0.3916 -0.3451
 9116SOL    HW128247   7.007   3.698   1.691 -0.2249  1.2490  0.5976
 9116SOL    HW228248   6.861   3.661   1.630  1.1901 -1.0840 -1.5734
 9117SOL     OW28249   5.205   0.505   5.779 -0.1858 -0.4668 -0.3407
 9117SOL    HW128250   5.213   0.532   5.683 -1.3136  0.4849 -0.1807
 9117SOL    HW228251   5.206   0.405   5.786  1.2532 -0.5414 -1.1976
 9118SOL     OW28252   1.199   5.199   1.230  0.3734  0.0412 -0.2972
 9118SOL    HW128253   1.164   5.279   1.181  0.2096 -1.2747 -2.4742
 9118SOL    HW228254   1.174   5.205   1.326 -1.3826  1.6240 -0.7941
 9119SOL     OW28255   4.201   5.394   5.715 -0.3392  0.6791  0.3609
 9119SOL    HW128256   4.188   5.300   5.684 -2.5773  1.1443 -0.2751
 9119SOL    HW228257   4.269   5.440   5.658  1.1893 -0.6649  1.0251
 9120SOL     OW28258   0.618   5.556   5.473  0.3515  0.6571  0.7004
 9120SOL    HW128259   0.591   5.601   5.387 -0.6905 -0.4290  0.4272
 9120SOL    HW228260   0.565   5.595   5.548 -1.1386 -0.5752  0.3508
 9121SOL     OW28261   3.352   0.541   0.907  0.5648 -0.6921 -0.5592
 9121SOL    HW128262   3.279   0.550   0.839  0.7529  0.4354 -0.6303
 9121SOL    HW228263   3.322   0.580   0.994  2.1538  2.9062 -1.4440
 9122SOL     OW28264   3.739   6.179   6.947 -0.0889 -0.0955  0.3450
 9122SOL    HW128265   3.701   6.090   6.972  2.3890 -0.9925  1.2086
 9122SOL    HW228266   3.758   6.180   6.849 -1.1928 -0.0431  0.1114
 9123SOL     OW28267   6.901   5.206   1.447 -0.2241 -0.6340 -0.3854
 9123SOL    HW128268   6.943   5.137   1.389 -3.2148 -2.8234 -0.2379
 9123SOL    HW228269   6.871   5.284   1.392 -0.6558 -1.4736 -1.3550
 9124SOL     OW28270   2.881   4.507   1.054 -0.6604 -0.5612  0.4431
 9124SOL    HW128271   2.935   4.553   1.124 -3.0407 -0.5460  2.4090
 9124SOL    HW228272   2.869   4.567   0.975 -0.7835  0.8230  1.4845
 9125SOL     OW28273   2.148   5.682   0.061  0.4703 -0.2226  0.4886
 9125SOL    HW128274   2.193   5.616   0.001  0.4730  1.0580 -0.9820
 9125SOL    HW228275   2.215   5.749   0.093  0.1130  0.2253  0.3228
 9126SOL     OW28276   0.371   7.000   5.914 -0.3172 -0.3787  0.3791
 9126SOL    HW128277   0.445   7.058   5.881 -1.1949 -0.3406 -1.6439
 9126SOL    HW228278   0.373   6.998   6.014  2.3391 -0.3453  0.3893
 9127SOL     OW28279   6.239   5.819   5.387 -0.2873 -0.0145 -0.2551
 9127SOL    HW128280   6.301   5.829   5.464 -0.4730  1.4264 -0.2530
 9127SOL    HW228281   6.285   5.849   5.303  0.2038 -2.3755 -0.8889
 9128SOL     OW28282   3.019   3.633   5.504  0.3945  0.1767 -0.7030
 9128SOL    HW128283   3.031   3.728   5.535  0.1851 -0.5096  1.6384
 9128SOL    HW228284   2.944   3.629   5.439 -1.6078  1.2325  1.4098
 9129SOL     OW28285   3.879   5.097   0.324 -0.6426 -0.8250  0.2530
 9129SOL    HW128286   3.955   5.076   0.385 -0.7538 -1.5723  0.1411
 9129SOL    HW228287   3.886   5.041   0.241  0.0118  0.8135 -0.8380
 9130SOL     OW28288   4.710   1.076   2.905 -0.0023  0.4415  0.2383
 9130SOL    HW128289   4.674   0.994   2.860  0.5145  1.0813 -1.3905
 9130SOL    HW228290   4.766   1.127   2.841  2.0477  0.6070  2.0548
 9131SOL     OW28291   4.807   5.125   1.607  0.5482 -0.2416 -0.0113
 9131SOL    HW128292   4.822   5.205   1.550  0.4229 -0.9916 -1.1153
 9131SOL    HW228293   4.726   5.140   1.665 -0.1962 -0.0389 -1.0788
 9132SOL     OW28294   0.174   3.375   5.277 -0.2357 -0.3930  0.3375
 9132SOL    HW128295   0.224   3.450   5.319  1.7502 -0.6377 -1.4162
 9132SOL    HW228296   0.123   3.326   5.348  0.9790  0.6603  2.0384
 9133SOL     OW28297   3.107   6.106   4.748 -0.2673 -0.0816  0.3483
 9133SOL    HW128298   3.196   6.061   4.753 -0.2604 -0.1101 -0.0014
 9133SOL    HW228299   3.094   6.163   4.829 -0.3346 -0.8194  0.8671
 9134SOL     OW28300   5.978   2.860   0.287  0.3647 -0.1781 -0.4006
 9134SOL    HW128301   6.070   2.857   0.247  1.0405 -1.7939  1.1595
 9134SOL    HW228302   5.985   2.877   0.385 -1.1870  2.2853 -0.6534
 9135SOL     OW28303   2.735   0.388   1.700  0.8857  0.1683 -0.0053
 9135SOL    HW128304   2.739   0.487   1.692  1.4018  0.0904 -0.8957
 9135SOL    HW228305   2.643   0.360   1.726  0.8136  0.8960  0.5317
 9136SOL     OW28306   3.751   2.426   1.084  0.6245 -0.1100  0.2346
 9136SOL    HW128307   3.836   2.468   1.117  0.5750 -0.0848  0.3302
 9136SOL    HW228308   3.674   2.487   1.103  0.4733 -0.4956  0.9001
 9137SOL     OW28309   3.906   2.285   6.701 -0.4833  0.6850 -0.2717
 9137SOL    HW128310   3.959   2.369   6.696 -0.2698  0.4967 -1.2382
 9137SOL    HW228311   3.815   2.305   6.739 -0.5177  1.3917 -0.7257
 9138SOL     OW28312   5.478   2.998   5.418  0.4913  0.0319  0.2228
 9138SOL    HW128313   5.433   3.069   5.472 -0.6687 -0.5795  0.0796
 9138SOL    HW228314   5.550   3.040   5.363  0.4980  0.9373  0.8868
 9139SOL     OW28315   2.081   0.599   5.461 -0.1350 -0.1558 -0.0519
 9139SOL    HW128316   2.167   0.643   5.486  0.7569 -0.5483 -2.1672
 9139SOL    HW228317   2.047   0.546   5.538  0.8692  0.9641  1.2215
 9140SOL     OW28318   4.920   4.472   6.954  0.3769  0.3300  0.5664
 9140SOL    HW128319   4.905   4.570   6.941  0.8981  0.2996 -0.3870
 9140SOL    HW228320   4.980   4.438   6.881  0.8389 -0.5391  1.3315
 9141SOL     OW28321   1.511   1.596   1.192 -0.2134 -0.5508  0.0146
 9141SOL    HW128322   1.413   1.611   1.202 -0.2169 -1.4258  1.4679
 9141SOL    HW228323   1.550   1.669   1.135 -1.5312  0.3564  0.2399
 9142SOL     OW28324   4.760   4.350   4.882  0.6620 -0.3130 -0.3932
 9142SOL    HW128325   4.762   4.364   4.980  2.5236 -0.9485 -0.3109
 9142SOL    HW228326   4.689   4.408   4.841 -0.0459  0.0495  1.2771
 9143SOL     OW28327   3.199   4.813   0.537  0.5661  0.2772  0.1229
 9143SOL    HW128328   3.216   4.848   0.445  1.0471  0.9047  0.4413
 9143SOL    HW228329   3.271   4.749   0.563  0.2935 -0.0971 -0.0265
 9144SOL     OW28330   3.508   1.121   6.119  0.3042  0.2153  0.0788
 9144SOL    HW128331   3.546   1.209   6.146  0.1814 -0.1630  1.5762
 9144SOL    HW228332   3.535   1.101   6.025 -0.6563  2.3788 -0.7225
 9145SOL     OW28333   6.394   1.253   2.844  0.9098  0.0204 -0.0698
 9145SOL    HW128334   6.489   1.264   2.814  1.1094 -1.3165 -0.0008
 9145SOL    HW228335   6.358   1.166   2.811  0.2975 -0.3151  1.4114
 9146SOL     OW28336   3.156   5.586   5.961  0.3351  0.1320  0.2889
 9146SOL    HW128337   3.120   5.673   5.927 -1.3762 -0.1261  1.2815
 9146SOL    HW228338   3.122   5.511   5.904  1.7166  0.0756 -0.4977
 9147SOL     OW28339   6.419   0.952   0.306 -0.0083 -0.1364 -0.2011
 9147SOL    HW128340   6.447   1.011   0.382  0.7459 -0.1089 -0.4964
 9147SOL    HW228341   6.468   0.865   0.311  0.6084  0.1511 -1.0785
 9148SOL     OW28342   1.098   5.571   3.254  0.3784  0.1417 -0.2842
 9148SOL    HW128343   1.117   5.526   3.342 -0.4915 -1.3193 -0.8124
 9148SOL    HW228344   1.010   5.617   3.259 -0.8142 -1.9188 -1.0625
 9149SOL     OW28345   0.542   0.705   6.913 -0.1753 -0.0461  0.6739
 9149SOL    HW128346   0.498   0.734   6.828  0.4799  0.7888  0.6160
 9149SOL    HW228347   0.494   0.624   6.949  0.4338 -1.3291 -1.2483
 9150SOL     OW28348   6.903   1.292   3.776 -0.7948 -0.3175  0.1686
 9150SOL    HW128349   6.863   1.373   3.733  0.1102 -0.2655 -0.6279
 9150SOL    HW228350   6.936   1.315   3.867 -0.8549  0.1230  0.0816
 9151SOL     OW28351   6.692   4.826   0.040 -0.4424 -0.2811  0.3169
 9151SOL    HW128352   6.744   4.893   0.092 -0.2169  0.0165 -0.2811
 9151SOL    HW228353   6.678   4.859  -0.053 -1.1560 -0.6419  0.2840
 9152SOL     OW28354   3.775   3.030   5.390  0.1428 -0.1274  0.1220
 9152SOL    HW128355   3.851   3.045   5.326 -0.3889  1.7798 -0.1198
 9152SOL    HW228356   3.699   2.988   5.341  1.0812 -2.2986  0.4220
 9153SOL     OW28357   2.668   0.830   6.841 -0.0451 -0.2784 -0.2603
 9153SOL    HW128358   2.673   0.840   6.940 -1.7217  0.1390 -0.1993
 9153SOL    HW228359   2.709   0.910   6.797 -0.1946 -0.0075  0.0984
 9154SOL     OW28360   3.924   5.365   3.096 -0.1495  0.8608  0.0041
 9154SOL    HW128361   4.015   5.391   3.065  0.6180 -0.4073  1.0685
 9154SOL    HW228362   3.899   5.277   3.055 -0.2936  0.5224  0.8081
 9155SOL     OW28363   4.970   2.159   6.781  0.4587  0.0055 -0.1128
 9155SOL    HW128364   5.000   2.167   6.875 -1.1873 -1.3334  0.5901
 9155SOL    HW228365   5.007   2.075   6.741 -1.6561 -1.3317  0.5628
 9156SOL     OW28366   5.575   2.931   1.832  0.3093 -0.0667  0.0274
 9156SOL    HW128367   5.497   2.966   1.780 -0.0236 -1.6136 -0.5850
 9156SOL    HW228368   5.599   2.995   1.904 -1.2353  0.6640 -0.0729
 9157SOL     OW28369   2.524   0.053   6.991 -0.4373  0.5111 -0.4739
 9157SOL    HW128370   2.518   0.099   6.903  0.8002  1.6665  0.0175
 9157SOL    HW228371   2.542   0.120   7.063 -0.1353 -0.5608  0.4809
 9158SOL     OW28372   5.252   5.437   3.187 -0.1409 -0.3381  0.1855
 9158SOL    HW128373   5.347   5.425   3.157 -0.1757 -0.9859  0.3356
 9158SOL    HW228374   5.250   5.502   3.263  0.5218 -2.3898  2.0378
 9159SOL     OW28375   5.738   3.089   6.996  0.4939  0.2009 -0.1633
 9159SOL    HW128376   5.642   3.062   6.993  0.7183 -0.5152 -1.3914
 9159SOL    HW228377   5.767   3.097   7.091 -0.5822 -0.2636  0.2200
 9160SOL     OW28378   6.717   4.416   3.904  0.5926 -0.2649  0.0031
 9160SOL    HW128379   6.683   4.328   3.872 -0.4870 -0.2661  1.0978
 9160SOL    HW228380   6.800   4.402   3.958  0.9202 -0.5202 -0.5635
 9161SOL     OW28381   3.397   1.632   6.455  0.5548 -0.1322 -0.0371
 9161SOL    HW128382   3.385   1.539   6.491 -0.3918  0.2542  0.6737
 9161SOL    HW228383   3.333   1.646   6.379  1.4039 -0.3864 -0.8234
 9162SOL     OW28384   6.862   6.452   6.936  0.6937 -0.2775 -0.3372
 9162SOL    HW128385   6.822   6.530   6.983 -2.3499 -1.6503 -0.4220
 9162SOL    HW228386   6.892   6.384   7.003  0.5118 -0.3293 -0.3082
 9163SOL     OW28387   5.369   6.145   4.091  0.3552 -0.2044  0.5509
 9163SOL    HW128388   5.392   6.083   4.016  1.2253  0.8814 -0.1189
 9163SOL    HW228389   5.426   6.124   4.171  3.2771  1.8611 -0.7895
 9164SOL     OW28390   5.086   0.557   0.110 -0.1995 -0.8344  0.1397
 9164SOL    HW128391   5.048   0.521   0.025  1.2333 -0.3648 -0.7350
 9164SOL    HW228392   5.108   0.482   0.171 -0.7795 -1.2030 -0.0939
 9165SOL     OW28393   6.980   6.526   0.202 -0.2063 -0.1623 -0.7676
 9165SOL    HW128394   7.060   6.493   0.151  0.5680  2.6487 -1.5920
 9165SOL    HW228395   6.998   6.519   0.300  0.1375 -1.5380 -0.9078
 9166SOL     OW28396   2.713   2.371   3.335 -0.2506  0.5528  0.1103
 9166SOL    HW128397   2.649   2.305   3.296 -2.0931  2.2758  0.0275
 9166SOL    HW228398   2.799   2.367   3.285 -0.0088 -2.2318  0.5843
 9167SOL     OW28399   1.998   1.836   3.514 -0.0341  0.0978  0.5490
 9167SOL    HW128400   2.092   1.863   3.495  0.1413  0.1159  1.4434
 9167SOL    HW228401   1.937   1.915   3.502  0.1331  0.2239  0.5346
 9168SOL     OW28402   0.508   2.355   3.921  0.0413 -0.2408 -0.7967
 9168SOL    HW128403   0.460   2.268   3.909 -1.4353  0.3524  0.4831
 9168SOL    HW228404   0.578   2.345   3.991  0.2604 -0.5458 -1.0588
 9169SOL     OW28405   3.967   3.076   3.451  0.1265 -0.5314  0.2394
 9169SOL    HW128406   3.899   3.014   3.412 -1.0210  0.6532  0.3347
 9169SOL    HW228407   3.964   3.070   3.551  0.3131 -0.6289  0.2399
 9170SOL     OW28408   1.347   4.557   1.420 -0.5125  0.3009  0.2173
 9170SOL    HW128409   1.382   4.464   1.430 -1.8252 -0.1834  0.5896
 9170SOL    HW228410   1.316   4.571   1.326  2.8199  1.5656 -0.8422
 9171SOL     OW28411   0.295   5.723   0.429  0.3305  0.2987 -0.2103
 9171SOL    HW128412   0.390   5.703   0.407 -0.0395  0.6919 -2.4706
 9171SOL    HW228413   0.243   5.637   0.432  0.6795  0.1127  0.6698
 9172SOL     OW28414   6.996   4.922   3.628  0.1362  0.1540 -0.1392
 9172SOL    HW128415   6.995   4.858   3.552  0.5011  1.7111 -1.5333
 9172SOL    HW228416   6.909   4.972   3.631  0.7131  1.2101 -0.5532
 9173SOL     OW28417   5.583   2.764   0.335 -0.1117 -0.1564 -0.0194
 9173SOL    HW128418   5.647   2.731   0.266  1.4896 -1.1117  1.8337
 9173SOL    HW228419   5.489   2.753   0.302  0.6003 -0.6556 -1.9822
 9174SOL     OW28420   0.723   0.094   2.155 -0.3951  0.0325  0.1240
 9174SOL    HW128421   0.744   0.003   2.120 -1.1024 -0.0171 -0.1934
 9174SOL    HW228422   0.768   0.108   2.243 -0.6870 -0.8095  0.4159
 9175SOL     OW28423   1.932   0.843   3.585 -0.2309  0.2667 -0.1646
 9175SOL    HW128424   2.024   0.877   3.569  0.7739 -1.4573  1.5341
 9175SOL    HW228425   1.931   0.788   3.669 -1.9542 -2.8320 -2.0333
 9176SOL     OW28426   4.383   0.514   5.184  0.0522  0.5558 -0.7568
 9176SOL    HW128427   4.287   0.530   5.163 -0.9139 -0.9235  2.0607
 9176SOL    HW228428   4.420   0.593   5.234 -0.3144  0.2966 -0.0651
 9177SOL     OW28429   1.644   2.859   5.727 -0.0586 -0.2202  0.1817
 9177SOL    HW128430   1.583   2.930   5.692  0.0010 -0.8276 -1.1926
 9177SOL    HW228431   1.739   2.887   5.715 -0.0377 -0.1063  0.5777
 9178SOL     OW28432   6.038   2.625   6.533 -0.1128  0.2815 -0.0053
 9178SOL    HW128433   6.049   2.716   6.494  0.6660  0.2408  0.1043
 9178SOL    HW228434   5.944   2.594   6.519 -0.3304  1.0145 -0.2209
 9179SOL     OW28435   3.874   0.939   3.464 -0.1962 -0.4460  0.4866
 9179SOL    HW128436   3.925   0.862   3.502  0.2537 -0.0156  0.7721
 9179SOL    HW228437   3.926   1.023   3.477 -0.0031 -0.2834 -1.1339
 9180SOL     OW28438   5.950   2.898   3.538 -0.1723  0.3293 -0.5050
 9180SOL    HW128439   5.854   2.921   3.558 -0.7188 -0.2541 -2.2801
 9180SOL    HW228440   5.958   2.868   3.443  1.7556  0.1490 -0.3234
 9181SOL     OW28441   0.092   0.048   1.250 -0.2245 -0.1206 -0.2096
 9181SOL    HW128442   0.189   0.070   1.240 -0.0419 -0.3857  0.8371
 9181SOL    HW228443   0.078  -0.049   1.231 -0.2355 -0.1482 -0.0586
 9182SOL     OW28444   5.430   5.396   4.996  0.2028 -0.1321  0.1171
 9182SOL    HW128445   5.379   5.322   4.952  2.2899 -0.8009 -1.3362
 9182SOL    HW228446   5.528   5.384   4.979  0.8223  1.5635  2.0583
 9183SOL     OW28447   0.347   1.259   3.701  0.4817  0.1612  0.0721
 9183SOL    HW128448   0.342   1.242   3.799 -0.8051 -0.1583 -0.0318
 9183SOL    HW228449   0.261   1.230   3.657  0.1505  2.2822 -0.8222
 9184SOL     OW28450   0.761   2.614   0.599  0.3035 -0.2599  0.7210
 9184SOL    HW128451   0.689   2.547   0.583  0.7654 -0.1964 -2.1429
 9184SOL    HW228452   0.849   2.576   0.572  0.5968  1.3842 -0.8194
 9185SOL     OW28453   1.724   6.261   5.787  0.4998 -0.2596 -0.1052
 9185SOL    HW128454   1.745   6.356   5.809  0.4915 -0.6599  1.8428
 9185SOL    HW228455   1.753   6.203   5.863  0.4020 -1.8111 -1.2146
 9186SOL     OW28456   1.788   2.911   3.760  0.4876 -0.0980 -0.7176
 9186SOL    HW128457   1.887   2.899   3.751  0.5578  0.4776 -0.7600
 9186SOL    HW228458   1.742   2.824   3.741  1.0151 -0.5341 -0.0625
 9187SOL     OW28459   0.462   3.749   2.777 -0.2178  0.4297 -0.4339
 9187SOL    HW128460   0.466   3.688   2.698 -2.1920 -0.2844 -0.0477
 9187SOL    HW228461   0.389   3.817   2.763 -0.0252  0.8250  0.4022
 9188SOL     OW28462   5.762   3.987   3.827 -0.2345 -0.3086  0.2463
 9188SOL    HW128463   5.815   3.994   3.911 -0.1341 -0.6483  0.2148
 9188SOL    HW228464   5.824   3.973   3.749 -0.2277  1.3075 -0.0732
 9189SOL     OW28465   6.939   6.285   0.546 -0.5576 -0.0434 -0.0610
 9189SOL    HW128466   6.935   6.370   0.493  2.4338  0.5735  0.5251
 9189SOL    HW228467   7.024   6.237   0.524 -2.2247 -3.0352 -0.4837
 9190SOL     OW28468   1.666   4.591   2.707 -0.6492 -0.5831  0.2691
 9190SOL    HW128469   1.720   4.643   2.773 -0.3173 -0.9871  0.3228
 9190SOL    HW228470   1.706   4.600   2.616 -1.3951  0.3807  0.0248
 9191SOL     OW28471   4.086   4.595   5.565  0.1973 -0.1490  0.5225
 9191SOL    HW128472   4.038   4.589   5.653 -1.6263  1.0188 -0.3441
 9191SOL    HW228473   4.036   4.655   5.503  0.9114 -1.6958 -1.6922
 9192SOL     OW28474   5.481   5.574   1.907 -0.1905 -0.1010 -0.0021
 9192SOL    HW128475   5.430   5.660   1.904 -0.7574 -0.3189  1.9870
 9192SOL    HW228476   5.578   5.592   1.890 -0.2445  0.9995  0.7714
 9193SOL     OW28477   3.750   3.713   3.577  0.0860  0.1404 -0.6117
 9193SOL    HW128478   3.755   3.616   3.601 -0.2042 -0.0034 -1.1087
 9193SOL    HW228479   3.660   3.733   3.537  0.5299  0.3674 -1.5350
 9194SOL     OW28480   2.524   0.607   6.820  0.6030  0.0607  0.3782
 9194SOL    HW128481   2.533   0.576   6.726  1.0660  0.6949  0.2048
 9194SOL    HW228482   2.585   0.685   6.835 -2.6452  2.9147 -0.0890
 9195SOL     OW28483   2.310   5.567   6.857  0.3276 -0.4588 -0.1157
 9195SOL    HW128484   2.350   5.509   6.787 -1.1863  0.0501 -1.4616
 9195SOL    HW228485   2.233   5.618   6.819  0.9332  1.6462  1.2980
 9196SOL     OW28486   0.975   2.136   4.899  0.0228 -0.2043  0.1960
 9196SOL    HW128487   0.947   2.185   4.816 -0.0191 -1.5328 -0.6006
 9196SOL    HW228488   1.001   2.202   4.969  1.2670  0.9429 -1.2814
 9197SOL     OW28489   5.040   4.400   4.867 -0.3053 -0.0821  0.0224
 9197SOL    HW128490   4.945   4.368   4.868 -0.2848 -0.1307  0.8569
 9197SOL    HW228491   5.062   4.435   4.776 -0.8270 -0.9397 -0.4477
 9198SOL     OW28492   3.205   4.038   1.901 -0.3044  0.5513 -0.0681
 9198SOL    HW128493   3.135   3.986   1.852 -1.0075  0.6999  0.7555
 9198SOL    HW228494   3.164   4.122   1.938  0.6458  1.3390 -0.7617
 9199SOL     OW28495   3.805   4.092   5.212  0.2065  0.4695  0.1201
 9199SOL    HW128496   3.753   4.080   5.297 -0.8983 -0.2088 -0.6180
 9199SOL    HW228497   3.903   4.087   5.231 -0.0420 -0.7788  1.1903
 9200SOL     OW28498   3.411   1.349   2.913  0.0108 -0.1109 -0.3527
 9200SOL    HW128499   3.336   1.403   2.951  1.3243  1.0676  0.6958
 9200SOL    HW228500   3.454   1.401   2.839  0.9769  0.1003  0.3349
 9201SOL     OW28501   6.195   6.896   4.591 -0.2650  0.4814 -0.1272
 9201SOL    HW128502   6.121   6.884   4.525  0.8124  1.8241 -1.6836
 9201SOL    HW228503   6.162   6.875   4.683 -1.8809 -1.3125 -1.0262
 9202SOL     OW28504   5.838   5.871   2.785 -0.6580 -0.2102  0.7326
 9202SOL    HW128505   5.926   5.829   2.764 -0.4665  0.3192  0.4665
 9202SOL    HW228506   5.767   5.831   2.727 -0.0567  1.6046 -1.3791
 9203SOL     OW28507   1.207   1.811   2.362 -0.2653  0.4256 -0.0644
 9203SOL    HW128508   1.152   1.728   2.357 -1.0456  0.8179  1.3508
 9203SOL    HW228509   1.221   1.848   2.270 -0.1306 -1.1136 -0.6796
 9204SOL     OW28510   2.327   2.847   1.322 -0.7335 -0.3330  0.2512
 9204SOL    HW128511   2.389   2.916   1.362  0.5837 -1.2566 -0.1144
 9204SOL    HW228512   2.237   2.888   1.309  0.4175  1.9109 -1.5119
 9205SOL     OW28513   5.031   2.930   6.407 -0.2102  0.2281  0.8907
 9205SOL    HW128514   5.090   2.862   6.452  0.1258 -0.2219 -0.1923
 9205SOL    HW228515   4.935   2.905   6.422 -0.0916 -0.5421  0.4553
 9206SOL     OW28516   5.676   4.637   5.231  0.2499  0.0289  0.1155
 9206SOL    HW128517   5.619   4.598   5.159  0.6393 -0.7581  0.2192
 9206SOL    HW228518   5.630   4.628   5.320  1.0611 -1.7999  0.3888
 9207SOL     OW28519   5.972   3.557   3.971  0.1762  0.4169  0.6003
 9207SOL    HW128520   5.949   3.630   3.907  0.7336  1.9520  2.0745
 9207SOL    HW228521   6.067   3.529   3.958 -0.1129 -0.2703 -0.1405
 9208SOL     OW28522   4.978   1.589   1.771  0.3308 -0.0280  0.4186
 9208SOL    HW128523   5.044   1.616   1.701  0.8405 -2.8405 -0.3054
 9208SOL    HW228524   4.921   1.667   1.795  1.0758  1.3808 -2.0755
 9209SOL     OW28525   1.826   3.054   5.243 -0.6460  0.1293 -0.5070
 9209SOL    HW128526   1.807   2.964   5.282 -0.9712 -0.1135 -1.2125
 9209SOL    HW228527   1.869   3.043   5.153 -0.0654  0.6809 -0.3057
 9210SOL     OW28528   0.448   4.733   0.980 -0.0714  0.0236 -0.4024
 9210SOL    HW128529   0.486   4.749   0.889 -1.0137  0.3008 -0.7610
 9210SOL    HW228530   0.513   4.681   1.034  0.1342 -0.9492 -1.5355
 9211SOL     OW28531   2.347   5.516   3.495 -0.2893  0.2584 -0.0119
 9211SOL    HW128532   2.289   5.435   3.503 -2.2734  1.6359  0.2078
 9211SOL    HW228533   2.302   5.583   3.436  0.8318  1.6100  0.6263
 9212SOL     OW28534   2.930   0.088   0.869 -0.1390 -0.6293  0.2314
 9212SOL    HW128535   2.867   0.054   0.799 -1.9766  1.7689  0.5732
 9212SOL    HW228536   3.005   0.138   0.826 -1.7476  1.6246 -0.1180
 9213SOL     OW28537   5.197   4.125   4.999  0.4039  0.7223  0.6007
 9213SOL    HW128538   5.120   4.137   5.062  0.5729  0.3887  0.8727
 9213SOL    HW228539   5.276   4.176   5.033  1.4994 -1.9990  2.4030
 9214SOL     OW28540   5.683   4.664   1.306 -0.0117  0.0458  0.0670
 9214SOL    HW128541   5.665   4.700   1.214  1.5092  1.4854  0.2947
 9214SOL    HW228542   5.621   4.708   1.371  0.9313  1.3267  0.1409
 9215SOL     OW28543   4.058   5.971   5.613  0.6371 -0.7460 -0.4734
 9215SOL    HW128544   4.082   5.874   5.605  1.2543 -0.5667 -0.8100
 9215SOL    HW228545   4.003   5.999   5.534  0.8832 -0.6982 -0.6288
 9216SOL     OW28546   0.119   0.736   0.434 -0.2286 -0.0368 -0.5916
 9216SOL    HW128547   0.076   0.823   0.408 -0.5684 -0.7010 -2.3848
 9216SOL    HW228548   0.218   0.742   0.419 -0.1237  0.3034  0.1427
 9217SOL     OW28549   2.859   1.325   4.409  0.1560  0.2762 -0.0692
 9217SOL    HW128550   2.889   1.244   4.461 -2.1764 -1.4466 -1.2311
 9217SOL    HW228551   2.815   1.390   4.470 -0.8276 -0.8425  0.4540
 9218SOL     OW28552   0.243   4.453   5.740 -0.3309 -0.7159  0.2545
 9218SOL    HW128553   0.303   4.494   5.808 -0.2918 -1.7418  0.8601
 9218SOL    HW228554   0.218   4.360   5.769 -1.2609 -0.7364 -0.5566
 9219SOL     OW28555   3.835   5.812   1.897 -0.4913 -0.1005  0.2219
 9219SOL    HW128556   3.760   5.841   1.838 -0.9665  0.4106  1.0488
 9219SOL    HW228557   3.920   5.807   1.845 -1.1081 -0.7418 -0.7413
 9220SOL     OW28558   0.750   3.869   5.295 -0.6069 -0.1338  0.2338
 9220SOL    HW128559   0.746   3.969   5.290  0.4373  0.0138  1.6025
 9220SOL    HW228560   0.792   3.833   5.212 -2.3902  0.4160 -0.9618
 9221SOL     OW28561   2.967   0.551   3.029 -0.4549  0.3620  0.0613
 9221SOL    HW128562   2.903   0.627   3.021 -0.6437  0.3710  1.3287
 9221SOL    HW228563   3.020   0.562   3.113 -0.1212 -0.6267 -0.0102
 9222SOL     OW28564   4.683   5.762   1.394 -0.0229  0.5467 -0.3976
 9222SOL    HW128565   4.742   5.690   1.359 -0.5991 -0.4999  0.6888
 9222SOL    HW228566   4.595   5.759   1.347 -0.2460  0.1650  0.0396
 9223SOL     OW28567   3.817   0.300   2.464 -0.3740  0.1505 -0.2684
 9223SOL    HW128568   3.869   0.225   2.507 -0.8001  0.1744  0.2981
 9223SOL    HW228569   3.875   0.381   2.459  0.0453 -0.1677 -0.7571
 9224SOL     OW28570   1.892   0.367   6.522 -0.2346 -0.3840  0.1309
 9224SOL    HW128571   1.964   0.311   6.481 -0.5451 -0.4180 -0.3835
 9224SOL    HW228572   1.870   0.443   6.461 -0.6659 -0.4027  0.2571
 9225SOL     OW28573   4.936   5.078   5.443  0.5745 -0.2314 -0.6125
 9225SOL    HW128574   4.972   5.000   5.493 -1.7638 -0.5196  0.7854
 9225SOL    HW228575   4.990   5.093   5.360  1.2680 -3.1495 -0.7938
 9226SOL     OW28576   5.912   4.176   4.907  0.3989 -0.1452 -0.2544
 9226SOL    HW128577   5.873   4.088   4.932 -0.7858  0.4115 -0.0355
 9226SOL    HW228578   5.853   4.220   4.839  0.7349  0.6565 -0.0432
 9227SOL     OW28579   0.912   1.898   1.028  0.3067 -0.1753 -0.2489
 9227SOL    HW128580   0.872   1.807   1.037 -0.4491 -0.2100 -3.0253
 9227SOL    HW228581   0.970   1.902   0.947  2.9195  1.0037  1.5117
 9228SOL     OW28582   2.125   2.659   0.362 -0.0444  0.4969  0.3288
 9228SOL    HW128583   2.213   2.614   0.380 -1.5191 -2.3350  0.9528
 9228SOL    HW228584   2.052   2.592   0.365 -2.2219  2.6633 -0.8094
 9229SOL     OW28585   6.348   2.282   0.068  0.0958  0.2577 -0.2838
 9229SOL    HW128586   6.296   2.201   0.094  0.9308 -0.6051 -1.2081
 9229SOL    HW228587   6.287   2.349   0.025 -0.1727 -1.0926 -2.1463
 9230SOL     OW28588   0.732   0.506   1.982  0.4665  0.1821 -0.4665
 9230SOL    HW128589   0.792   0.427   1.996 -1.9531 -1.6464  0.2624
 9230SOL    HW228590   0.688   0.499   1.892 -3.1366 -1.9237  1.2292
 9231SOL     OW28591   1.702   2.465   6.234  0.2630 -0.4630  0.6029
 9231SOL    HW128592   1.624   2.453   6.295  0.2838 -0.2809  0.6683
 9231SOL    HW228593   1.672   2.514   6.152  0.9786  3.0835  2.2424
 9232SOL     OW28594   0.541   4.306   0.789 -0.0831 -0.8459  0.0910
 9232SOL    HW128595   0.484   4.307   0.872  0.3935  0.5375  0.4272
 9232SOL    HW228596   0.483   4.293   0.709 -0.6056 -1.7376  0.5936
 9233SOL     OW28597   0.807   1.921   3.477 -0.3018 -0.5482  0.0087
 9233SOL    HW128598   0.755   2.007   3.471  1.0350  0.3363  0.6674
 9233SOL    HW228599   0.810   1.879   3.387 -0.9076  0.1384 -0.3500
 9234SOL     OW28600   0.399   1.170   1.368  0.4775 -0.1734 -0.0356
 9234SOL    HW128601   0.332   1.100   1.390 -2.5041  1.7079 -2.2367
 9234SOL    HW228602   0.392   1.245   1.434 -1.3002  0.9739 -1.4042
 9235SOL     OW28603   4.766   4.642   4.265  0.1002 -0.0116  0.0183
 9235SOL    HW128604   4.746   4.628   4.362  0.6989  0.1521  0.1686
 9235SOL    HW228605   4.862   4.668   4.254  0.0276  0.0027 -0.6155
 9236SOL     OW28606   5.774   4.903   5.360  0.2478  0.5033  0.3547
 9236SOL    HW128607   5.824   4.939   5.282 -1.3246  0.9364 -0.5048
 9236SOL    HW228608   5.724   4.821   5.333 -0.8011  0.9987  0.7134
 9237SOL     OW28609   2.106   6.791   0.290  0.0553  0.2720  0.7646
 9237SOL    HW128610   2.140   6.698   0.302  0.7823  0.0867 -2.0193
 9237SOL    HW228611   2.180   6.850   0.258 -1.1606  0.9351 -0.9976
 9238SOL     OW28612   4.159   4.779   6.890 -0.4247  0.2011 -0.2663
 9238SOL    HW128613   4.187   4.723   6.967 -1.3556  0.1299  0.0381
 9238SOL    HW228614   4.083   4.735   6.843  0.5743 -0.0947 -1.6558
 9239SOL     OW28615   5.708   2.967   5.642  0.9870 -0.0930 -0.2292
 9239SOL    HW128616   5.684   3.015   5.558  1.1331 -0.0689 -0.2570
 9239SOL    HW228617   5.806   2.975   5.658  0.7978  0.9031  0.5664
 9240SOL     OW28618   4.577   1.763   4.086  0.5221 -0.3919  0.3009
 9240SOL    HW128619   4.592   1.765   4.185 -0.0020  0.4962  0.3696
 9240SOL    HW228620   4.660   1.728   4.041  0.1170 -2.6653  1.1517
 9241SOL     OW28621   4.234   0.375   3.090 -0.1611 -0.0277 -0.2335
 9241SOL    HW128622   4.152   0.418   3.129 -0.1880 -0.2524 -0.0411
 9241SOL    HW228623   4.238   0.279   3.118  0.2170  0.0065 -0.1621
 9242SOL     OW28624   0.596   6.059   3.471  0.2724  0.2050 -0.2123
 9242SOL    HW128625   0.514   6.113   3.453  0.7191  0.7682 -0.6020
 9242SOL    HW228626   0.586   5.968   3.432  0.1296  0.5168 -0.9159
 9243SOL     OW28627   1.384   4.110   4.461 -0.2000 -0.2886  0.4345
 9243SOL    HW128628   1.442   4.145   4.535 -2.7937 -0.1582  2.5437
 9243SOL    HW228629   1.392   4.169   4.381  1.5839  0.4309  1.0930
 9244SOL     OW28630   3.474   4.975   2.801  0.5329 -0.1197  0.2416
 9244SOL    HW128631   3.445   4.913   2.729 -1.3315 -0.3036  1.0926
 9244SOL    HW228632   3.515   5.057   2.760 -1.3437  0.2175 -1.1255
 9245SOL     OW28633   5.214   2.019   1.798  0.2386  0.0104  0.3657
 9245SOL    HW128634   5.227   2.099   1.856 -0.5867 -0.3027  0.9954
 9245SOL    HW228635   5.229   1.936   1.852  3.5014 -0.3204 -0.8025
 9246SOL     OW28636   6.118   6.517   2.212  0.5689 -0.0917  0.0578
 9246SOL    HW128637   6.183   6.580   2.255 -0.2345 -0.6872  2.2473
 9246SOL    HW228638   6.165   6.466   2.140  1.2974  2.8066 -1.7133
 9247SOL     OW28639   6.908   2.351   6.778  0.2090 -0.4879 -0.2622
 9247SOL    HW128640   6.902   2.424   6.846  0.2855  0.3988 -1.1777
 9247SOL    HW228641   6.868   2.383   6.692  0.7373 -1.3389 -0.8372
 9248SOL     OW28642   4.892   1.423   0.557  0.2432 -0.0551  0.0948
 9248SOL    HW128643   4.837   1.500   0.524 -1.3442 -1.3743 -0.4906
 9248SOL    HW228644   4.929   1.373   0.479  0.9004 -0.1397  0.4596
 9249SOL     OW28645   2.299   1.592   3.182 -0.0298 -0.1291  0.5259
 9249SOL    HW128646   2.326   1.637   3.267  0.3132 -1.4204  1.1177
 9249SOL    HW228647   2.200   1.599   3.171 -0.4175 -2.0021  2.2906
 9250SOL     OW28648   4.879   4.435   3.098  0.5261 -0.2006  0.6410
 9250SOL    HW128649   4.806   4.439   3.029  2.2275  0.6838 -1.2279
 9250SOL    HW228650   4.860   4.502   3.170  0.9598  2.3963 -1.4780
 9251SOL     OW28651   6.968   2.128   6.251 -0.2608  0.3898  0.1840
 9251SOL    HW128652   7.021   2.214   6.250 -1.1568  0.9539  0.1499
 9251SOL    HW228653   6.945   2.104   6.345 -2.4701  1.7676  0.0679
 9252SOL     OW28654   4.818   5.245   5.870  0.1686 -0.2880  0.5130
 9252SOL    HW128655   4.719   5.260   5.863 -0.1093 -0.3911  3.2859
 9252SOL    HW228656   4.836   5.170   5.934  2.0625 -1.0367 -0.7780
 9253SOL     OW28657   3.523   6.455   6.586  0.4017  0.1664  0.2259
 9253SOL    HW128658   3.567   6.405   6.511  2.2958 -0.4958  1.7225
 9253SOL    HW228659   3.589   6.472   6.659 -1.3483  0.9545  1.7098
 9254SOL     OW28660   6.972   0.170   2.704  0.3825 -0.0358  0.3792
 9254SOL    HW128661   6.984   0.238   2.777 -1.7111 -1.0341  1.7652
 9254SOL    HW228662   6.879   0.176   2.669  1.3813  0.5064 -2.4011
 9255SOL     OW28663   2.252   3.538   6.532  0.1737  0.0101  0.2672
 9255SOL    HW128664   2.294   3.629   6.535  0.5247 -0.1478  0.2122
 9255SOL    HW228665   2.255   3.503   6.438  1.2836 -0.6274  0.5193
 9256SOL     OW28666   3.174   1.598   5.607 -0.0853 -0.1136 -0.2031
 9256SOL    HW128667   3.084   1.601   5.651  0.4672 -0.4102  0.9800
 9256SOL    HW228668   3.178   1.518   5.547 -0.6491 -0.0322 -0.3613
 9257SOL     OW28669   5.499   2.464   0.176 -0.4377 -0.5214  0.2388
 9257SOL    HW128670   5.427   2.429   0.116 -0.9447 -0.4748  0.8090
 9257SOL    HW228671   5.587   2.458   0.129 -0.8766 -0.1141 -0.6628
 9258SOL     OW28672   6.779   2.944   5.425 -0.3918 -0.0415  0.1662
 9258SOL    HW128673   6.736   2.955   5.335 -1.2871 -0.7271  0.4922
 9258SOL    HW228674   6.721   2.986   5.494 -0.8842 -1.5576  0.6981
 9259SOL     OW28675   1.525   2.351   0.094  0.2480  0.1766  0.4062
 9259SOL    HW128676   1.617   2.332   0.057  0.1333 -0.1427  0.2802
 9259SOL    HW228677   1.490   2.436   0.054  0.4794  0.2888  0.4390
 9260SOL     OW28678   6.209   0.620   2.650 -0.0800 -0.0419  0.2727
 9260SOL    HW128679   6.220   0.702   2.593 -1.0446 -0.8380 -1.1326
 9260SOL    HW228680   6.142   0.558   2.607  0.6168 -1.5676  1.2902
 9261SOL     OW28681   6.729   6.402   6.518 -0.3488  0.1097  0.4652
 9261SOL    HW128682   6.716   6.306   6.544 -0.2964  0.1143  0.5108
 9261SOL    HW228683   6.766   6.406   6.425  3.4332 -0.1038  1.7900
 9262SOL     OW28684   3.417   0.017   2.135  0.6360 -0.0853  0.3451
 9262SOL    HW128685   3.499  -0.009   2.185 -0.3451  0.2794  2.2193
 9262SOL    HW228686   3.398   0.114   2.149  0.2441 -0.0060 -0.6296
 9263SOL     OW28687   2.198   3.985   4.801  0.0031  0.4527 -0.6010
 9263SOL    HW128688   2.146   4.067   4.778  0.1964  0.6126 -0.4763
 9263SOL    HW228689   2.238   3.995   4.892  0.2501  0.3320 -0.6927
 9264SOL     OW28690   3.158   5.701   4.620  0.2520 -0.6070  0.3152
 9264SOL    HW128691   3.186   5.745   4.535  1.0890 -1.4013  0.1649
 9264SOL    HW228692   3.061   5.718   4.636  0.7221  2.1520  0.8030
 9265SOL     OW28693   6.679   3.674   5.344 -0.0795 -0.4666 -0.2349
 9265SOL    HW128694   6.606   3.718   5.291  0.7468  2.0828  0.5602
 9265SOL    HW228695   6.742   3.628   5.281  0.7929  2.3286 -1.6289
 9266SOL     OW28696   6.589   1.620   0.467 -0.9488 -0.3320  0.1816
 9266SOL    HW128697   6.558   1.526   0.448  0.6667 -1.3069  1.9480
 9266SOL    HW228698   6.658   1.646   0.400 -1.4059 -0.4044 -0.3224
 9267SOL     OW28699   5.425   1.330   4.152 -0.1716 -0.4464  0.4758
 9267SOL    HW128700   5.390   1.416   4.189  1.0011 -0.5390  1.8734
 9267SOL    HW228701   5.387   1.315   4.061  0.3704  2.0502 -0.2221
 9268SOL     OW28702   6.281   4.384   4.046  0.4466  0.1784 -0.4804
 9268SOL    HW128703   6.352   4.451   4.026  0.1429 -0.2311 -3.3312
 9268SOL    HW228704   6.311   4.324   4.120  2.7952  0.4669 -1.1247
 9269SOL     OW28705   3.707   1.374   0.244 -0.0430 -0.5592 -0.1287
 9269SOL    HW128706   3.768   1.447   0.214  1.7359 -1.9207  0.0240
 9269SOL    HW228707   3.612   1.407   0.242  0.6833  1.7275 -0.0495
 9270SOL     OW28708   4.746   0.141   1.771  0.0432  0.1797  0.2363
 9270SOL    HW128709   4.664   0.117   1.719  0.4703 -1.9307  0.4477
 9270SOL    HW228710   4.802   0.204   1.716 -1.1556  0.7292 -0.3890
 9271SOL     OW28711   1.454   5.463   5.232 -0.3094  0.1553 -0.3527
 9271SOL    HW128712   1.376   5.460   5.295  0.4753  0.8154  0.6957
 9271SOL    HW228713   1.500   5.374   5.233  0.1320  0.3716  0.6230
 9272SOL     OW28714   4.499   6.213   0.953  0.2330 -0.4515  0.8822
 9272SOL    HW128715   4.581   6.155   0.944 -1.7451 -3.2154 -1.2100
 9272SOL    HW228716   4.499   6.282   0.881 -0.1541 -1.7100 -0.3578
 9273SOL     OW28717   0.629   4.272   6.468 -0.0596 -0.0521  0.6803
 9273SOL    HW128718   0.575   4.195   6.502 -0.6874  0.6811  1.4071
 9273SOL    HW228719   0.568   4.349   6.451  0.0842 -0.5852 -2.9164
 9274SOL     OW28720   2.204   6.204   1.137  0.2904 -0.2854 -0.1853
 9274SOL    HW128721   2.206   6.153   1.223  0.6585  0.9051  0.5396
 9274SOL    HW228722   2.111   6.206   1.101 -0.1962  0.6004  1.0671
 9275SOL     OW28723   3.813   6.519   5.092 -0.4679  0.2649  0.2543
 9275SOL    HW128724   3.783   6.595   5.034 -2.4823 -1.6666 -1.4327
 9275SOL    HW228725   3.895   6.478   5.052 -1.4786 -0.6564 -0.9626
 9276SOL     OW28726   1.002   1.194   6.520  0.2850 -0.5353  0.1588
 9276SOL    HW128727   1.097   1.189   6.489 -0.3812 -4.5340 -1.9216
 9276SOL    HW228728   0.999   1.182   6.619  1.9305 -0.6849  0.2255
 9277SOL     OW28729   1.909   2.583   4.330  0.7550  0.1479 -0.2110
 9277SOL    HW128730   1.903   2.677   4.298  0.6617 -0.2323 -1.3379
 9277SOL    HW228731   1.828   2.532   4.302  1.2995 -0.5495 -0.5702
 9278SOL     OW28732   3.197   1.931   3.984 -0.2630 -0.2308  0.1038
 9278SOL    HW128733   3.121   1.990   4.012 -0.1850  0.0190 -0.1887
 9278SOL    HW228734   3.161   1.850   3.938 -0.3991 -0.7669  1.1318
 9279SOL     OW28735   5.944   1.725   0.006  0.1836 -0.0205 -0.0395
 9279SOL    HW128736   6.024   1.739  -0.052  0.2235 -0.9368 -0.2213
 9279SOL    HW228737   5.866   1.699  -0.051  0.4868 -1.9875  0.3739
 9280SOL     OW28738   4.133   4.211   6.262 -0.0136  0.4859 -0.1592
 9280SOL    HW128739   4.184   4.220   6.177 -0.1937 -1.1148 -0.4624
 9280SOL    HW228740   4.039   4.243   6.248 -0.7982 -2.0923 -1.3503
 9281SOL     OW28741   4.637   3.150   0.717 -0.4533 -0.0954  0.3737
 9281SOL    HW128742   4.623   3.243   0.682 -0.4108  0.6153  2.1031
 9281SOL    HW228743   4.657   3.088   0.642  0.5123  1.4927 -0.7335
 9282SOL     OW28744   4.396   6.800   1.879 -0.0808 -0.2461  0.1736
 9282SOL    HW128745   4.378   6.747   1.796  0.5956 -0.8846  0.4208
 9282SOL    HW228746   4.493   6.794   1.901  0.0232  1.1760  0.1718
 9283SOL     OW28747   0.519   4.089   4.693  0.1315 -0.6741  0.3259
 9283SOL    HW128748   0.486   4.183   4.683  0.6006 -0.5330  0.0543
 9283SOL    HW228749   0.550   4.074   4.786 -0.5369 -0.7578  0.5405
 9284SOL     OW28750   0.843   0.942   4.034  0.8347  0.1752 -0.2950
 9284SOL    HW128751   0.895   0.990   3.964  0.5663  0.3625 -0.3656
 9284SOL    HW228752   0.755   0.913   3.997  1.6389 -1.8441 -0.7900
 9285SOL     OW28753   1.891   0.621   3.318  0.4048  0.6881 -0.7228
 9285SOL    HW128754   1.806   0.675   3.311 -0.8772 -0.7354  2.2822
 9285SOL    HW228755   1.938   0.643   3.403  1.3531 -0.8390 -0.8133
 9286SOL     OW28756   5.436   2.960   2.614  0.0800  0.6371 -0.5119
 9286SOL    HW128757   5.478   2.924   2.531 -3.2239 -4.4310 -0.3903
 9286SOL    HW228758   5.485   2.925   2.694 -0.3563  0.3252 -0.3762
 9287SOL     OW28759   1.610   5.042   2.462 -0.1947  0.1828 -0.2663
 9287SOL    HW128760   1.627   5.130   2.417  0.4890  0.4778  0.5262
 9287SOL    HW228761   1.682   5.025   2.529 -0.5435 -0.8006 -0.1211
 9288SOL     OW28762   1.034   3.111   1.778 -0.5040  0.2852 -0.1959
 9288SOL    HW128763   1.100   3.169   1.825 -0.5827  1.2108 -1.1912
 9288SOL    HW228764   1.079   3.028   1.747 -0.4736 -0.4079  1.5631
 9289SOL     OW28765   3.749   4.829   2.830 -0.0376  0.0048 -0.3907
 9289SOL    HW128766   3.653   4.805   2.842 -0.0720  0.3027 -0.0305
 9289SOL    HW228767   3.760   4.884   2.747  0.0363 -1.1930 -1.1947
 9290SOL     OW28768   1.655   3.759   3.859  0.6669  0.1564 -0.2778
 9290SOL    HW128769   1.612   3.717   3.779  3.1192  0.8082 -2.0810
 9290SOL    HW228770   1.713   3.691   3.904 -2.3591 -0.8707  2.4424
 9291SOL     OW28771   2.525   2.522   2.395 -0.2080 -0.1230  0.8889
 9291SOL    HW128772   2.457   2.484   2.332  0.7696  1.6163 -1.3704
 9291SOL    HW228773   2.615   2.484   2.375 -0.1456 -1.0767  2.6915
 9292SOL     OW28774   5.394   0.211   6.554  0.6502 -0.5336  0.5566
 9292SOL    HW128775   5.431   0.140   6.494  2.0335  2.3763 -2.2774
 9292SOL    HW228776   5.310   0.248   6.515 -0.8326 -1.4077  2.7140
 9293SOL     OW28777   1.577   6.433   3.743  0.4538 -0.1886  0.0570
 9293SOL    HW128778   1.511   6.366   3.777  1.3684  0.0390  2.5012
 9293SOL    HW228779   1.546   6.525   3.766 -0.5287  0.2808 -2.8072
 9294SOL     OW28780   5.258   1.434   0.156 -0.3296 -0.3035 -0.2124
 9294SOL    HW128781   5.216   1.358   0.205 -0.6676 -0.7938 -1.2339
 9294SOL    HW228782   5.218   1.441   0.064 -1.5784  2.1806  0.4208
 9295SOL     OW28783   2.038   4.251   2.066 -0.0579 -0.0967 -0.6316
 9295SOL    HW128784   2.114   4.187   2.054  1.3973  1.2201  1.0421
 9295SOL    HW228785   1.983   4.223   2.145  0.2600  0.4071 -0.2283
 9296SOL     OW28786   4.714   2.484   0.796  0.4878 -0.2728  0.4721
 9296SOL    HW128787   4.659   2.406   0.827 -1.2355  0.7086 -0.0183
 9296SOL    HW228788   4.772   2.455   0.720  1.0773 -1.4539  1.3338
 9297SOL     OW28789   1.136   6.028   0.241  0.7572  0.1323  0.4252
 9297SOL    HW128790   1.112   6.082   0.322 -1.3372  0.2371 -0.2131
 9297SOL    HW228791   1.214   5.969   0.263  1.5730  1.6556  1.8539
 9298SOL     OW28792   4.557   0.775   6.442 -0.3985 -0.1082 -0.0332
 9298SOL    HW128793   4.556   0.719   6.525  0.4866  1.0298  0.7691
 9298SOL    HW228794   4.558   0.715   6.362 -1.4901 -1.2323  0.7469
 9299SOL     OW28795   6.338   4.485   0.421 -0.0884  0.1673  0.2271
 9299SOL    HW128796   6.423   4.460   0.374  0.5956  3.3708 -0.4743
 9299SOL    HW228797   6.263   4.485   0.355  0.3990  2.2373 -0.3939
 9300SOL     OW28798   6.492   1.071   0.529  0.6263  0.0562 -0.7469
 9300SOL    HW128799   6.450   1.153   0.568  0.8645  0.1938 -0.7761
 9300SOL    HW228800   6.584   1.060   0.567  0.3740 -0.5260 -0.2950
 9301SOL     OW28801   2.513   6.789   1.551 -0.0719  0.5299  0.1547
 9301SOL    HW128802   2.445   6.832   1.611 -0.5909  0.1296 -0.1433
 9301SOL    HW228803   2.573   6.859   1.513  1.5997  0.6445  2.7458
 9302SOL     OW28804   2.765   2.380   1.117 -0.2206  0.2018 -0.8053
 9302SOL    HW128805   2.731   2.310   1.180 -0.1440  1.1679  0.3573
 9302SOL    HW228806   2.692   2.408   1.055 -0.3298 -0.6889 -1.0956
 9303SOL     OW28807   0.329   2.414   5.021  0.2625 -0.3457  0.1118
 9303SOL    HW128808   0.380   2.379   5.099 -2.2974 -0.6708  1.7572
 9303SOL    HW228809   0.350   2.511   5.008  0.4766 -0.1980  1.4503
 9304SOL     OW28810   0.192   5.597   1.183  0.7977  0.5415  0.1065
 9304SOL    HW128811   0.152   5.674   1.233 -1.9802 -1.5359  1.4044
 9304SOL    HW228812   0.207   5.521   1.247 -0.6429 -1.4252 -1.7444
 9305SOL     OW28813   4.453   2.603   0.925  0.0891 -0.2275 -0.4543
 9305SOL    HW128814   4.542   2.567   0.895 -0.3470 -3.1920  1.3849
 9305SOL    HW228815   4.468   2.679   0.988  1.4665 -1.4670  0.8168
 9306SOL     OW28816   6.930   5.776   2.628 -0.1272  0.0832 -0.0282
 9306SOL    HW128817   6.939   5.857   2.570 -0.7831  0.3293  0.2032
 9306SOL    HW228818   6.846   5.728   2.605 -0.2369  0.0109  0.5057
 9307SOL     OW28819   6.758   1.643   5.696 -0.7298  0.0965  0.1185
 9307SOL    HW128820   6.663   1.671   5.711 -0.9232 -0.0319 -0.7791
 9307SOL    HW228821   6.770   1.617   5.600 -0.2513 -1.6408  0.5981
 9308SOL     OW28822   0.804   2.789   2.989  0.1771 -0.3471 -0.5161
 9308SOL    HW128823   0.897   2.753   2.990  0.2380 -0.1859 -0.2026
 9308SOL    HW228824   0.781   2.821   2.897  0.4133 -0.4361 -0.6055
 9309SOL     OW28825   6.656   6.640   3.214  0.6756 -0.1472  0.2612
 9309SOL    HW128826   6.666   6.730   3.171  1.0065  0.6986  1.9938
 9309SOL    HW228827   6.608   6.578   3.152 -1.4376  1.8348 -0.2307
 9310SOL     OW28828   6.532   3.545   1.018  0.0724  0.8028 -0.1488
 9310SOL    HW128829   6.631   3.557   1.024  0.3122 -1.0461  0.1896
 9310SOL    HW228830   6.500   3.488   1.094 -1.2622  1.4317 -0.2158
 9311SOL     OW28831   5.737   6.401   3.334  0.0592  0.3963 -0.1460
 9311SOL    HW128832   5.703   6.425   3.425  0.3997 -0.9197  0.3427
 9311SOL    HW228833   5.787   6.479   3.296 -0.7774  1.2475  0.4421
 9312SOL     OW28834   0.744   0.349   4.069 -0.2722  0.0819  0.2793
 9312SOL    HW128835   0.753   0.250   4.056 -0.1501  0.1261  0.0403
 9312SOL    HW228836   0.774   0.373   4.162  0.7470  0.0398 -0.0246
 9313SOL     OW28837   6.228   4.306   3.569  0.7774 -0.2216 -0.0171
 9313SOL    HW128838   6.307   4.367   3.580 -0.2048  1.5804 -2.0047
 9313SOL    HW228839   6.173   4.306   3.652  1.8678 -0.0180  0.7226
 9314SOL     OW28840   3.310   6.520   2.458  0.0286 -0.3624  0.5442
 9314SOL    HW128841   3.338   6.463   2.381 -1.4110  0.1369 -0.3720
 9314SOL    HW228842   3.229   6.480   2.502  0.2221 -0.0934  1.1642
 9315SOL     OW28843   4.512   1.339   4.780 -0.2749 -0.3776  0.5362
 9315SOL    HW128844   4.418   1.375   4.778 -0.2841 -0.0179  3.5165
 9315SOL    HW228845   4.559   1.367   4.696 -2.1660  1.2841 -0.0657
 9316SOL     OW28846   6.252   0.992   4.625  0.7082  0.2636  0.9248
 9316SOL    HW128847   6.212   0.919   4.681 -1.1730  0.3868 -0.1657
 9316SOL    HW228848   6.256   0.962   4.530 -0.6122  1.7115  0.3600
 9317SOL     OW28849   0.297   5.876   6.971 -0.5313  0.0088 -0.3217
 9317SOL    HW128850   0.303   5.854   6.874  0.2017  0.6522 -0.4357
 9317SOL    HW228851   0.376   5.835   7.018 -0.7274 -0.0529 -0.0479
 9318SOL     OW28852   5.203   3.142   0.682 -0.4515  0.7620 -0.2599
 9318SOL    HW128853   5.121   3.095   0.713  0.6514 -1.8455 -0.9960
 9318SOL    HW228854   5.246   3.189   0.759 -0.5119 -1.2742  1.1016
 9319SOL     OW28855   4.267   2.857   6.379  0.1023 -0.1302 -0.5085
 9319SOL    HW128856   4.243   2.913   6.300 -1.8209 -2.2900 -1.5921
 9319SOL    HW228857   4.327   2.783   6.350 -0.5175 -0.8662  0.0531
 9320SOL     OW28858   0.643   3.110   5.807  0.6203 -0.5490 -0.2848
 9320SOL    HW128859   0.699   3.045   5.858  1.8711  0.2968 -0.5236
 9320SOL    HW228860   0.593   3.169   5.871  1.0256 -0.4620 -0.0455
 9321SOL     OW28861   4.934   3.115   6.736 -0.1147  0.2203 -0.2451
 9321SOL    HW128862   4.963   3.198   6.688 -1.3222 -0.0563 -1.5455
 9321SOL    HW228863   5.011   3.052   6.743  0.6281  1.1504  0.1037
 9322SOL     OW28864   5.030   0.965   5.358  0.0519  0.5793  0.0122
 9322SOL    HW128865   5.014   1.063   5.365 -1.8275  0.2856  0.4939
 9322SOL    HW228866   5.116   0.948   5.310  0.0918  2.4376 -0.6537
 9323SOL     OW28867   5.560   3.041   0.347  0.2860 -0.3891  0.0046
 9323SOL    HW128868   5.544   3.073   0.441  0.2083  0.0649 -0.1593
 9323SOL    HW228869   5.566   2.941   0.346  2.8027 -0.3267  0.9046
 9324SOL     OW28870   0.981   4.229   4.546 -0.0879 -0.1767 -0.6225
 9324SOL    HW128871   0.886   4.259   4.549  0.2083  0.7405  0.4194
 9324SOL    HW228872   1.026   4.269   4.466 -0.3327  0.2024 -0.5767
 9325SOL     OW28873   1.253   1.426   6.620 -0.2884  0.0651 -0.5246
 9325SOL    HW128874   1.225   1.339   6.580  0.0898  0.6137 -2.0611
 9325SOL    HW228875   1.229   1.428   6.717 -0.5152 -1.6433 -0.5224
 9326SOL     OW28876   5.104   1.468   4.917 -0.1717 -0.2699  0.2174
 9326SOL    HW128877   5.023   1.527   4.916 -0.2526 -0.3621  0.7172
 9326SOL    HW228878   5.118   1.428   4.827  0.4751  1.3085 -0.4224
 9327SOL     OW28879   5.648   4.644   2.476  0.0211  0.7971 -0.1957
 9327SOL    HW128880   5.662   4.677   2.383  1.6689 -0.2307 -0.3579
 9327SOL    HW228881   5.704   4.697   2.540  0.9693 -0.1918 -0.1712
 9328SOL     OW28882   5.014   4.470   4.560 -0.0600  0.1496 -0.6150
 9328SOL    HW128883   4.929   4.417   4.562 -0.2351  0.3202  2.9582
 9328SOL    HW228884   4.994   4.567   4.564  0.2218  0.1810  0.7631
 9329SOL     OW28885   4.924   5.641   1.249  0.2174  0.1936  0.5875
 9329SOL    HW128886   4.954   5.679   1.337  0.7423  0.5013  0.2757
 9329SOL    HW228887   4.975   5.558   1.229 -0.7065 -0.5295  1.1136
 9330SOL     OW28888   0.501   1.462   4.332 -0.6545 -0.1207 -0.1938
 9330SOL    HW128889   0.572   1.512   4.382 -0.2657 -0.4106 -0.4495
 9330SOL    HW228890   0.430   1.526   4.303  0.7608  0.6574 -2.1545
 9331SOL     OW28891   3.233   3.753   3.638 -0.0856 -0.4743  0.4485
 9331SOL    HW128892   3.251   3.710   3.726 -0.2432  0.6469  1.0428
 9331SOL    HW228893   3.272   3.845   3.637 -0.2433 -0.4088 -0.5873
 9332SOL     OW28894   1.072   3.566   6.720  0.2084  0.6054 -0.8989
 9332SOL    HW128895   1.009   3.508   6.666  0.8787  0.0680 -1.1154
 9332SOL    HW228896   1.165   3.533   6.708  0.5617  1.5449 -0.7550
 9333SOL     OW28897   5.951   5.135   3.118  0.3653  0.4577  0.5010
 9333SOL    HW128898   5.869   5.167   3.165  0.2010 -1.0192  1.2634
 9333SOL    HW228899   6.015   5.095   3.184 -0.7130 -3.4823 -0.5872
 9334SOL     OW28900   6.792   3.534   6.747 -0.6603  0.1598  0.1634
 9334SOL    HW128901   6.822   3.460   6.808  1.7586  0.7302 -0.2262
 9334SOL    HW228902   6.748   3.494   6.666  2.4450 -1.1442 -1.0644
 9335SOL     OW28903   5.523   6.762   1.196  0.0300 -0.1004 -0.0151
 9335SOL    HW128904   5.471   6.711   1.128 -0.7200  0.2211  0.3034
 9335SOL    HW228905   5.619   6.767   1.168 -0.2039 -0.2560 -0.8690
 9336SOL     OW28906   2.086   3.020   5.998 -0.0026  0.5122  0.4450
 9336SOL    HW128907   2.132   2.957   5.935 -0.3561 -0.0874  0.7815
 9336SOL    HW228908   2.121   3.005   6.091 -1.8886 -0.9708  0.9670
 9337SOL     OW28909   3.916   0.875   1.398 -0.3899  0.0423  0.1260
 9337SOL    HW128910   3.864   0.790   1.404 -1.0887  0.5094  1.2338
 9337SOL    HW228911   3.895   0.921   1.312 -0.5038 -0.5941 -0.1915
 9338SOL     OW28912   2.802   2.023   2.622 -0.1411  0.0349 -0.3570
 9338SOL    HW128913   2.829   1.927   2.634 -1.6021 -0.2451  1.1183
 9338SOL    HW228914   2.884   2.080   2.616  0.7496 -1.2842 -1.1091
 9339SOL     OW28915   5.741   3.539   5.787 -0.5796  0.1889  0.4019
 9339SOL    HW128916   5.645   3.511   5.776 -0.3137 -0.4775 -0.2975
 9339SOL    HW228917   5.798   3.459   5.802 -0.0977  0.5629  0.5831
 9340SOL     OW28918   6.896   1.144   1.205  0.3895 -0.6873 -0.3554
 9340SOL    HW128919   6.957   1.184   1.136  0.5326  2.5494  1.4400
 9340SOL    HW228920   6.807   1.124   1.164  1.1490 -0.9965 -1.9376
 9341SOL     OW28921   4.482   3.856   6.729 -0.1077 -0.0769  0.0095
 9341SOL    HW128922   4.458   3.912   6.650 -0.0777  0.1579  0.1681
 9341SOL    HW228923   4.582   3.848   6.735 -0.0907  0.3683  0.3478
 9342SOL     OW28924   4.492   0.875   4.165 -0.0576 -0.2052  0.1947
 9342SOL    HW128925   4.581   0.919   4.176 -0.1100 -0.0551  0.0293
 9342SOL    HW228926   4.475   0.858   4.068  0.1163 -0.9194  0.2839
 9343SOL     OW28927   0.952   5.145   1.643 -0.2962  0.5095 -0.2510
 9343SOL    HW128928   0.915   5.122   1.733  0.1152 -0.9107 -0.4232
 9343SOL    HW228929   0.883   5.124   1.572 -0.2906  0.7678 -0.3324
 9344SOL     OW28930   1.909   4.555   4.171 -0.2903 -0.0623 -0.4451
 9344SOL    HW128931   1.935   4.459   4.179 -1.9888 -0.4905  0.4284
 9344SOL    HW228932   1.944   4.606   4.249 -2.1248 -0.6901  0.8663
 9345SOL     OW28933   5.112   1.259   4.227 -0.7718  0.5266  0.2510
 9345SOL    HW128934   5.200   1.307   4.234 -0.2776 -0.2042 -0.5618
 9345SOL    HW228935   5.129   1.167   4.191 -1.9656  0.6844 -0.7642
 9346SOL     OW28936   4.986   0.421   0.752 -0.0266 -0.3540  0.0081
 9346SOL    HW128937   4.984   0.467   0.841  2.4998  0.8520 -0.4503
 9346SOL    HW228938   4.992   0.322   0.766  3.7648 -0.1144  1.4786
 9347SOL     OW28939   6.055   1.906   5.911 -0.7004 -0.0675  0.3542
 9347SOL    HW128940   6.032   1.909   6.008 -0.6353  0.8329  0.3500
 9347SOL    HW228941   6.153   1.888   5.901 -0.5558  0.6042  0.4859
 9348SOL     OW28942   3.361   5.667   1.404  0.2320 -0.3145 -0.2301
 9348SOL    HW128943   3.375   5.761   1.436  0.5479 -0.1435 -0.8631
 9348SOL    HW228944   3.354   5.666   1.304  1.7185 -1.1237 -0.3533
 9349SOL     OW28945   3.742   6.444   0.285  0.5670  0.1615  0.4403
 9349SOL    HW128946   3.674   6.515   0.306 -0.4921 -0.8801  0.6121
 9349SOL    HW228947   3.804   6.434   0.362  0.1339  0.2530  0.8064
 9350SOL     OW28948   0.735   2.273   5.984 -0.1893 -0.2692 -0.8883
 9350SOL    HW128949   0.803   2.267   6.057  0.0413  1.7776 -0.8777
 9350SOL    HW228950   0.765   2.217   5.906  1.0209 -0.1709 -0.5098
 9351SOL     OW28951   1.705   6.032   3.280 -0.5902 -0.0822 -0.6285
 9351SOL    HW128952   1.635   6.064   3.344  1.5746 -0.0577  1.8764
 9351SOL    HW228953   1.727   6.106   3.215 -1.5815  0.5352 -0.2840
 9352SOL     OW28954   2.285   0.332   4.866 -0.2957 -0.5491  0.8385
 9352SOL    HW128955   2.362   0.395   4.877  0.2260 -0.6822 -1.5939
 9352SOL    HW228956   2.204   0.371   4.910  0.4242  1.0307  0.8432
 9353SOL     OW28957   6.287   2.365   2.490  0.6939 -0.0258  0.0831
 9353SOL    HW128958   6.272   2.285   2.432 -0.9462 -0.0434  0.4803
 9353SOL    HW228959   6.224   2.438   2.463  2.5161  1.3653 -0.6224
 9354SOL     OW28960   1.935   0.761   1.241 -0.2952  0.0860 -0.0058
 9354SOL    HW128961   2.025   0.767   1.284 -0.7467 -1.0873  1.2058
 9354SOL    HW228962   1.887   0.848   1.252  0.4597  0.5279 -0.1414
 9355SOL     OW28963   3.975   6.270   4.392 -0.3664 -0.7019 -0.1399
 9355SOL    HW128964   3.904   6.199   4.398 -1.0494 -0.0554 -0.4231
 9355SOL    HW228965   3.940   6.347   4.339 -0.2395  0.5880  1.5954
 9356SOL     OW28966   5.523   5.172   6.402  0.0551  0.2004  0.0475
 9356SOL    HW128967   5.453   5.121   6.353 -0.1525  0.6487 -0.1269
 9356SOL    HW228968   5.530   5.137   6.496 -0.7602  0.4874  0.2201
 9357SOL     OW28969   3.100   6.780   1.941 -0.5562 -0.1375 -0.6249
 9357SOL    HW128970   3.176   6.716   1.954 -0.1427  0.4771  0.0344
 9357SOL    HW228971   3.040   6.776   2.021  1.3640  2.8073  1.1491
 9358SOL     OW28972   6.521   0.354   1.561 -0.1916 -0.1397  0.5181
 9358SOL    HW128973   6.575   0.279   1.600  0.8982 -0.0041 -0.6431
 9358SOL    HW228974   6.519   0.345   1.462 -3.2147 -0.6955  0.5476
 9359SOL     OW28975   1.975   5.485   3.283  0.2338 -0.5313  0.1480
 9359SOL    HW128976   1.934   5.420   3.219 -3.0704  1.0582  0.4628
 9359SOL    HW228977   1.907   5.513   3.351  2.4326  0.9702  1.8698
 9360SOL     OW28978   6.918   0.750   3.645  0.0314  0.3213 -0.3797
 9360SOL    HW128979   6.834   0.805   3.643 -0.1434  0.1620  1.1560
 9360SOL    HW228980   6.985   0.794   3.705 -0.1597 -1.1599  0.9923
 9361SOL     OW28981   4.520   2.530   1.925 -0.2182  0.0248  0.5775
 9361SOL    HW128982   4.429   2.489   1.916 -0.9161  1.3759  1.0402
 9361SOL    HW228983   4.555   2.513   2.017 -1.1469  1.6093  1.2718
 9362SOL     OW28984   5.702   1.029   5.615  0.1223  0.1439 -0.3506
 9362SOL    HW128985   5.646   0.956   5.577 -0.1659  0.3021 -0.2388
 9362SOL    HW228986   5.759   0.993   5.689 -0.5484  0.1657  0.1978
 9363SOL     OW28987   4.386   5.595   0.737 -0.5516  0.4687  0.0405
 9363SOL    HW128988   4.372   5.662   0.810 -0.9752 -0.2081  0.5933
 9363SOL    HW228989   4.328   5.619   0.659  0.1704  1.4020 -0.2302
 9364SOL     OW28990   6.950   3.362   0.736  0.0531 -0.2965  0.2212
 9364SOL    HW128991   7.003   3.280   0.712  2.2708  1.5135 -1.4487
 9364SOL    HW228992   6.858   3.353   0.698  0.4360 -1.7817 -0.4410
 9365SOL     OW28993   4.449   4.533   0.130  0.5327 -0.0549  0.2895
 9365SOL    HW128994   4.527   4.596   0.131 -1.1868  2.3430 -2.0614
 9365SOL    HW228995   4.428   4.508   0.035  0.3254 -3.2205  1.0842
 9366SOL     OW28996   2.523   0.203   6.755  0.5572 -0.0617 -0.3227
 9366SOL    HW128997   2.542   0.205   6.656  1.9239  0.1371 -0.0815
 9366SOL    HW228998   2.568   0.281   6.798  0.2360 -0.3294  0.5093
 9367SOL     OW28999   3.762   3.448   2.919  0.1183  0.1823  0.5151
 9367SOL    HW129000   3.833   3.453   2.989  2.7502  0.9489 -2.0013
 9367SOL    HW229001   3.751   3.353   2.891 -0.5336 -0.0527  1.5073
 9368SOL     OW29002   2.517   3.292   1.136  0.1034  0.2593 -0.4106
 9368SOL    HW129003   2.525   3.322   1.231 -0.2231 -0.2427 -0.2174
 9368SOL    HW229004   2.482   3.198   1.134  0.1953  0.2334 -1.0250
 9369SOL     OW29005   4.428   6.787   3.585 -0.4118 -0.3244 -0.5565
 9369SOL    HW129006   4.416   6.800   3.486  0.2871  0.7206 -0.5176
 9369SOL    HW229007   4.353   6.731   3.621 -1.5116  0.5720 -1.3977
 9370SOL     OW29008   1.893   0.960   6.219  0.0620 -0.4646  0.3485
 9370SOL    HW129009   1.986   0.991   6.234 -0.7590  2.4317 -0.0379
 9370SOL    HW229010   1.860   0.912   6.300  2.1583 -2.5007  0.1042
 9371SOL     OW29011   3.702   4.083   0.438  0.3124  0.3991 -0.0513
 9371SOL    HW129012   3.717   4.108   0.534 -0.0883  0.9668 -0.1299
 9371SOL    HW229013   3.702   3.983   0.429  1.7081  0.3559  0.3087
 9372SOL     OW29014   6.126   0.567   2.205  0.1261 -0.8792 -0.8850
 9372SOL    HW129015   6.226   0.573   2.194  0.3349  0.1594  1.0429
 9372SOL    HW229016   6.084   0.650   2.169  0.1639 -0.5227 -0.1449
 9373SOL     OW29017   2.946   0.073   2.690 -0.0845  0.5869  0.3648
 9373SOL    HW129018   3.042   0.087   2.714 -0.1735  2.4324 -0.2284
 9373SOL    HW229019   2.888   0.098   2.767 -0.1164 -1.7657  1.2073
 9374SOL     OW29020   3.573   3.522   4.243  0.2941  0.3866  0.4181
 9374SOL    HW129021   3.664   3.562   4.234  0.2906  0.2837 -0.1347
 9374SOL    HW229022   3.509   3.573   4.185  0.2302 -0.2285 -0.0707
 9375SOL     OW29023   3.880   6.376   1.874 -0.2163  0.3725 -0.1810
 9375SOL    HW129024   3.856   6.301   1.935 -0.4850  2.5155  2.5508
 9375SOL    HW229025   3.872   6.463   1.923  0.1899  2.2320 -3.1348
 9376SOL     OW29026   2.968   0.260   6.953 -0.6111 -0.6985  0.0754
 9376SOL    HW129027   2.939   0.183   6.896 -1.4924 -0.3814  0.0738
 9376SOL    HW229028   3.065   0.277   6.939  0.2444 -3.4118  1.9826
 9377SOL     OW29029   6.469   1.581   2.737  0.4413 -0.2307 -0.3897
 9377SOL    HW129030   6.526   1.502   2.761  0.7047  0.0921  0.0734
 9377SOL    HW229031   6.373   1.554   2.740  0.3986 -0.0470  1.8227
 9378SOL     OW29032   2.188   4.969   1.026 -0.4427  0.4930  0.0864
 9378SOL    HW129033   2.204   4.881   1.069 -0.8224  0.7132  0.6844
 9378SOL    HW229034   2.225   5.042   1.083 -1.5083  0.8318  0.3563
 9379SOL     OW29035   5.986   2.024   5.360 -0.2576  0.5284  0.5522
 9379SOL    HW129036   5.914   1.969   5.318  0.1560 -1.0303  1.7685
 9379SOL    HW229037   6.017   2.094   5.296 -0.3350 -1.0916 -1.3452
 9380SOL     OW29038   3.259   2.187   1.583  0.2564 -0.3497 -0.5609
 9380SOL    HW129039   3.267   2.108   1.644  1.8173 -1.4678 -2.1363
 9380SOL    HW229040   3.319   2.260   1.615  1.2839 -1.0347 -0.8702
 9381SOL     OW29041   0.859   6.917   6.738  0.6082  0.1806 -0.1901
 9381SOL    HW129042   0.866   6.885   6.832  1.2922 -1.0434 -0.6245
 9381SOL    HW229043   0.863   7.017   6.735 -0.8369  0.3190  1.1742
 9382SOL     OW29044   0.487   5.427   3.687 -0.4480 -0.4067  0.3823
 9382SOL    HW129045   0.472   5.397   3.592 -0.5076  1.5195 -0.2544
 9382SOL    HW229046   0.398   5.448   3.729 -0.2732  2.7580 -0.5737
 9383SOL     OW29047   6.508   3.083   3.323 -0.3015 -0.2036 -0.2926
 9383SOL    HW129048   6.439   3.130   3.268 -0.1113 -0.0112 -0.3696
 9383SOL    HW229049   6.513   3.124   3.414  0.1697  0.2193 -0.5022
 9384SOL     OW29050   1.026   5.176   0.143  0.2703 -0.1730 -0.2861
 9384SOL    HW129051   1.011   5.155   0.046  1.0017  1.2066 -0.7328
 9384SOL    HW229052   1.033   5.275   0.155 -0.7117 -0.2656  1.3297
 9385SOL     OW29053   3.980   5.825   6.062 -0.2979 -0.4657  0.0483
 9385SOL    HW129054   3.968   5.894   5.991 -0.7046  1.0490  1.5427
 9385SOL    HW229055   4.053   5.762   6.036  0.9313  1.2451 -0.8057
 9386SOL     OW29056   0.700   0.552   3.543 -0.1842  0.1189 -0.1821
 9386SOL    HW129057   0.688   0.609   3.625 -0.1076 -0.8389  0.5102
 9386SOL    HW229058   0.646   0.468   3.552  2.1727 -1.4559  0.2955
 9387SOL     OW29059   6.704   5.699   2.443 -0.2978 -0.3331 -1.3597
 9387SOL    HW129060   6.652   5.754   2.510  2.3166 -1.0823  1.5189
 9387SOL    HW229061   6.684   5.602   2.457 -1.0558 -0.4299 -2.9576
 9388SOL     OW29062   1.809   6.284   3.096 -0.2336  0.2484  0.1776
 9388SOL    HW129063   1.774   6.326   3.012  0.0838  0.4474  0.1453
 9388SOL    HW229064   1.786   6.343   3.174 -2.6800 -1.0784  0.5646
 9389SOL     OW29065   6.467   1.242   6.190 -0.3399 -0.4782  0.0484
 9389SOL    HW129066   6.463   1.314   6.120 -0.4526 -0.9946 -0.4886
 9389SOL    HW229067   6.480   1.154   6.145  1.4127 -0.6279  0.7934
 9390SOL     OW29068   6.620   5.797   6.040 -0.1057 -0.3462  0.3204
 9390SOL    HW129069   6.703   5.809   6.095  1.4842  0.7873 -2.1455
 9390SOL    HW229070   6.631   5.719   5.979 -0.7521 -0.0237 -0.2242
 9391SOL     OW29071   1.268   4.251   6.030 -0.6901  0.3720 -0.3589
 9391SOL    HW129072   1.362   4.273   6.055 -0.2892  0.4918 -1.8436
 9391SOL    HW229073   1.208   4.265   6.108  0.5413  0.1593  0.6568
 9392SOL     OW29074   0.370   2.743   0.428  0.3876  0.2385  0.7233
 9392SOL    HW129075   0.314   2.717   0.349 -0.4336 -0.6676  1.5654
 9392SOL    HW229076   0.426   2.665   0.456  0.9749  0.6827  0.7941
 9393SOL     OW29077   0.566   6.325   4.732  0.4499 -0.0743 -0.5805
 9393SOL    HW129078   0.622   6.406   4.718 -1.0522  1.6220  2.3681
 9393SOL    HW229079   0.614   6.262   4.794  0.7646 -0.5559 -1.2948
 9394SOL     OW29080   3.507   2.414   0.274 -0.2480 -0.1270 -0.3359
 9394SOL    HW129081   3.415   2.384   0.299 -1.1343  2.3204 -0.3407
 9394SOL    HW229082   3.512   2.425   0.175 -0.6516  1.6211 -0.2003
 9395SOL     OW29083   0.741   4.688   4.361 -0.1010 -0.6536 -0.0673
 9395SOL    HW129084   0.791   4.653   4.440  1.0894 -1.6155 -1.1951
 9395SOL    HW229085   0.805   4.734   4.299 -1.2969  1.7103  0.3447
 9396SOL     OW29086   6.743   2.535   1.473 -0.8100 -0.6155  0.0156
 9396SOL    HW129087   6.716   2.575   1.385  0.8276 -2.1596 -1.2832
 9396SOL    HW229088   6.761   2.608   1.539 -2.5224  0.5742 -0.7381
 9397SOL     OW29089   1.837   1.701   4.645 -0.5354 -0.6378  0.2148
 9397SOL    HW129090   1.823   1.603   4.662 -0.7989 -0.2941  2.3081
 9397SOL    HW229091   1.824   1.751   4.731  2.0609  0.9752 -0.2252
 9398SOL     OW29092   0.341   3.497   6.919 -0.1320 -0.2256  0.2678
 9398SOL    HW129093   0.280   3.574   6.938  0.8647  0.3597  1.2155
 9398SOL    HW229094   0.405   3.522   6.847 -1.3087 -1.0343 -1.1284
 9399SOL     OW29095   2.466   6.052   4.776 -0.1776  0.1457  0.0972
 9399SOL    HW129096   2.456   6.038   4.875 -0.5719 -2.0957 -0.2203
 9399SOL    HW229097   2.452   6.149   4.756  0.1306  0.7077  2.2466
 9400SOL     OW29098   3.697   1.909   5.023  0.2009  0.3720 -0.1881
 9400SOL    HW129099   3.708   1.890   4.926 -1.4853 -0.8037 -0.1744
 9400SOL    HW229100   3.632   1.984   5.036 -0.0254  0.1385  0.0468
 9401SOL     OW29101   6.155   1.101   5.127 -0.8298  0.2991 -0.5382
 9401SOL    HW129102   6.055   1.095   5.123 -0.8344  0.6936 -1.3747
 9401SOL    HW229103   6.187   1.162   5.055 -0.0427  0.9146  0.3131
 9402SOL     OW29104   2.295   1.517   1.117  0.8459  0.1815 -0.5326
 9402SOL    HW129105   2.238   1.561   1.049  0.2642 -0.2877 -0.3604
 9402SOL    HW229106   2.380   1.486   1.075  0.5052 -0.0736 -1.0372
 9403SOL     OW29107   0.646   6.095   1.224 -0.5116  0.1990 -0.6373
 9403SOL    HW129108   0.665   6.169   1.288 -1.0359 -0.4131  0.2407
 9403SOL    HW229109   0.682   6.009   1.260 -1.0969 -0.2074 -1.0056
 9404SOL     OW29110   1.235   0.891   4.121 -0.2169 -0.2261 -0.1606
 9404SOL    HW129111   1.190   0.843   4.196  0.5722 -1.4035 -0.4243
 9404SOL    HW229112   1.274   0.977   4.156 -0.8403 -0.1995  0.5087
 9405SOL     OW29113   4.393   0.234   2.437  1.1316  0.2537 -0.7607
 9405SOL    HW129114   4.382   0.198   2.530 -1.7001  0.1672 -1.0611
 9405SOL    HW229115   4.420   0.160   2.375  0.8246 -0.1694 -0.3923
 9406SOL     OW29116   5.000   5.755   3.912 -0.3142  0.1421 -0.1432
 9406SOL    HW129117   5.033   5.795   3.826 -1.5028 -0.2209 -0.7985
 9406SOL    HW229118   4.906   5.785   3.929  0.3152  1.2269  1.7226
 9407SOL     OW29119   5.820   0.670   4.294  0.0140 -0.2231 -0.1059
 9407SOL    HW129120   5.810   0.597   4.228 -0.2502 -0.0304 -0.2800
 9407SOL    HW229121   5.838   0.756   4.246  1.7551 -0.4035  0.1422
 9408SOL     OW29122   4.160   6.686   4.855 -0.6432  0.1843  0.3823
 9408SOL    HW129123   4.112   6.691   4.768  0.3110 -1.6416 -0.3150
 9408SOL    HW229124   4.212   6.771   4.870 -1.1587  0.6857 -0.6071
 9409SOL     OW29125   5.711   4.038   2.982 -0.1625 -0.6166  0.0363
 9409SOL    HW129126   5.700   4.108   3.052  0.4823  0.5626 -0.9913
 9409SOL    HW229127   5.787   3.977   3.007  1.1186  0.7621 -0.3711
 9410SOL     OW29128   3.249   4.085   0.244  0.1608 -0.4802 -0.2306
 9410SOL    HW129129   3.163   4.111   0.287  1.0217 -0.1751  1.3757
 9410SOL    HW229130   3.302   4.027   0.306  2.0929  1.1682 -0.2337
 9411SOL     OW29131   1.540   0.294   4.404  0.4922 -0.2513  0.8954
 9411SOL    HW129132   1.580   0.245   4.327  0.4235 -0.3168  0.9012
 9411SOL    HW229133   1.608   0.357   4.443  0.0261  1.0156 -0.2572
 9412SOL     OW29134   4.593   0.688   3.346 -0.6715  0.2263  0.0022
 9412SOL    HW129135   4.590   0.623   3.270  1.3304 -1.0228  0.9212
 9412SOL    HW229136   4.686   0.721   3.358 -1.0982  0.9664  1.4690
 9413SOL     OW29137   6.537   3.985   6.338 -0.2960 -0.4602 -0.0045
 9413SOL    HW129138   6.537   4.059   6.405 -0.8890  1.4026 -1.9887
 9413SOL    HW229139   6.631   3.951   6.326  0.1289  0.5919  0.2734
 9414SOL     OW29140   3.889   5.924   2.380 -0.0145 -0.0322 -0.1715
 9414SOL    HW129141   3.843   5.917   2.469 -1.1033  0.2976 -0.6817
 9414SOL    HW229142   3.835   5.984   2.320  0.5920 -0.4156 -1.1146
 9415SOL     OW29143   6.511   3.184   5.437 -0.2935  0.3598 -0.5577
 9415SOL    HW129144   6.510   3.203   5.339  0.4639  1.0728 -0.4402
 9415SOL    HW229145   6.509   3.270   5.488 -1.3465 -0.0217  0.0718
 9416SOL     OW29146   6.563   6.808   4.102 -0.0066 -0.1699  0.0600
 9416SOL    HW129147   6.602   6.723   4.069  0.0547 -0.2277  0.2788
 9416SOL    HW229148   6.464   6.797   4.113  0.1908 -0.7284  1.6077
 9417SOL     OW29149   3.925   0.382   5.557  0.6902 -0.0212 -0.0322
 9417SOL    HW129150   3.933   0.325   5.475 -1.0536 -0.5356  0.1162
 9417SOL    HW229151   3.945   0.477   5.533 -1.5705  0.1575 -1.5392
 9418SOL     OW29152   3.661   5.623   3.193 -0.0771 -0.0876  0.1189
 9418SOL    HW129153   3.589   5.575   3.243 -1.3143  1.8583  0.2914
 9418SOL    HW229154   3.630   5.643   3.101  0.8389 -0.5177 -0.2950
 9419SOL     OW29155   2.636   0.815   2.120 -0.3844  0.0632  0.9058
 9419SOL    HW129156   2.622   0.864   2.206 -0.2492 -1.9245  2.1316
 9419SOL    HW229157   2.734   0.810   2.100 -0.4422  0.9091  0.3856
 9420SOL     OW29158   2.273   5.031   5.521 -0.3855  0.0633  0.0967
 9420SOL    HW129159   2.363   5.007   5.559 -0.4761  0.0444  0.3005
 9420SOL    HW229160   2.278   5.122   5.480  0.0049 -0.3640 -0.8323
 9421SOL     OW29161   3.995   0.973   2.339  0.3671  0.7207  0.4144
 9421SOL    HW129162   3.955   1.007   2.253 -0.0749  1.4015  0.8790
 9421SOL    HW229163   3.948   1.015   2.416  1.3398  0.7682  0.9897
 9422SOL     OW29164   1.070   3.197   6.479 -0.2579  0.1370 -0.0847
 9422SOL    HW129165   0.977   3.186   6.514  0.1927 -1.7711  0.6392
 9422SOL    HW229166   1.068   3.252   6.396 -2.0122  0.2290 -0.0170
 9423SOL     OW29167   1.027   2.076   4.108  0.1217 -0.3385 -0.2962
 9423SOL    HW129168   1.083   2.159   4.098  0.4044 -0.0151  2.7962
 9423SOL    HW229169   0.986   2.053   4.020  0.1544  2.9962 -1.3562
 9424SOL     OW29170   3.321   1.553   3.671  0.4329  0.5483 -0.7692
 9424SOL    HW129171   3.265   1.595   3.600  2.9685  0.7007 -2.8142
 9424SOL    HW229172   3.406   1.604   3.682  0.7217 -0.2984  1.4202
 9425SOL     OW29173   5.593   2.607   1.614  0.0318 -0.0890  0.9892
 9425SOL    HW129174   5.504   2.602   1.567  0.1752  0.5375  0.6385
 9425SOL    HW229175   5.579   2.598   1.712 -0.4869  0.5671  0.9849
 9426SOL     OW29176   0.431   1.427   1.549  0.3564 -0.3738  0.3689
 9426SOL    HW129177   0.475   1.430   1.639 -1.6085 -0.1792  1.3588
 9426SOL    HW229178   0.343   1.474   1.553 -1.6378 -3.7542 -0.5777
 9427SOL     OW29179   3.332   1.213   4.802  0.5426 -0.0358  0.4491
 9427SOL    HW129180   3.270   1.188   4.877 -0.7941  1.2574 -0.1508
 9427SOL    HW229181   3.285   1.200   4.715  0.5529  2.2465  0.0249
 9428SOL     OW29182   6.035   3.032   2.699  0.2376  0.3981 -0.1567
 9428SOL    HW129183   6.114   3.057   2.643  0.1870  0.7395 -0.0754
 9428SOL    HW229184   6.006   2.939   2.676 -2.1507  1.7940 -3.4794
 9429SOL     OW29185   2.642   6.437   2.062 -0.5688  0.0950  0.1044
 9429SOL    HW129186   2.716   6.489   2.021 -1.5396 -0.0736 -1.9771
 9429SOL    HW229187   2.669   6.341   2.071 -0.3199  0.1487 -0.0779
 9430SOL     OW29188   4.452   6.429   5.158 -0.2967  0.3744 -0.0822
 9430SOL    HW129189   4.444   6.360   5.085  2.2931 -1.0023  0.8306
 9430SOL    HW229190   4.510   6.394   5.231 -1.3594  2.4228  1.8633
 9431SOL     OW29191   5.237   4.562   6.787 -0.9903  0.1979 -0.0537
 9431SOL    HW129192   5.205   4.615   6.709 -0.4390 -0.9981 -1.1399
 9431SOL    HW229193   5.190   4.473   6.788  1.3107 -1.1405 -1.0233
 9432SOL     OW29194   6.904   4.580   6.339  0.1880 -0.2921 -0.4552
 9432SOL    HW129195   6.948   4.547   6.423 -0.0103 -0.6806 -0.5030
 9432SOL    HW229196   6.819   4.628   6.362 -1.7829 -3.4170 -0.5903
 9433SOL     OW29197   4.233   6.783   4.420  0.2410  0.1681  0.3735
 9433SOL    HW129198   4.185   6.838   4.488  2.6243  1.2660  1.2809
 9433SOL    HW229199   4.190   6.796   4.330 -1.1760  0.9964  1.1408
 9434SOL     OW29200   7.001   4.840   0.855  0.0366  0.0098 -0.0605
 9434SOL    HW129201   7.092   4.806   0.832 -0.2529 -0.7323 -0.1321
 9434SOL    HW229202   6.932   4.772   0.829 -0.7044  1.3387 -1.7538
 9435SOL     OW29203   5.781   6.053   3.150  0.1805  0.2827 -0.0845
 9435SOL    HW129204   5.709   6.099   3.097  0.2253  1.2573  0.6742
 9435SOL    HW229205   5.766   5.955   3.148 -0.6790  0.4141 -0.6530
 9436SOL     OW29206   3.478   1.661   7.011 -0.1570  0.0206  0.2669
 9436SOL    HW129207   3.444   1.693   6.923  0.0059 -0.0123  0.1916
 9436SOL    HW229208   3.562   1.609   6.998 -0.5772 -0.6930  0.3648
 9437SOL     OW29209   3.714   6.238   5.236  0.2876  0.4330  0.2613
 9437SOL    HW129210   3.637   6.303   5.241  2.0016  2.4727  2.6148
 9437SOL    HW229211   3.786   6.276   5.179  0.2057 -0.7737 -0.6791
 9438SOL     OW29212   2.904   0.738   1.181 -0.1684 -0.2979  0.7536
 9438SOL    HW129213   2.875   0.663   1.240 -2.4561 -0.6366 -0.6431
 9438SOL    HW229214   2.978   0.788   1.224  0.8635 -2.8239  2.1175
 9439SOL     OW29215   3.520   0.422   0.659 -0.1142 -0.0238 -0.0180
 9439SOL    HW129216   3.518   0.474   0.573  0.0308 -1.4445 -0.9067
 9439SOL    HW229217   3.438   0.441   0.712  0.5383  2.1323  0.3292
 9440SOL     OW29218   5.053   0.189   3.633  0.1139 -0.1637  0.1670
 9440SOL    HW129219   4.971   0.225   3.589  0.4512  0.2852 -0.1052
 9440SOL    HW229220   5.120   0.164   3.563  0.7729  0.8403  0.4184
 9441SOL     OW29221   5.856   0.722   3.578 -0.3776 -0.2786  0.8594
 9441SOL    HW129222   5.768   0.758   3.608 -1.1711 -0.6813 -0.8554
 9441SOL    HW229223   5.921   0.797   3.568 -0.8423  0.1612  1.0827
 9442SOL     OW29224   3.192   0.656   6.940 -0.1364  0.5841  0.3141
 9442SOL    HW129225   3.257   0.589   6.973  0.5283  1.4221  0.7542
 9442SOL    HW229226   3.178   0.727   7.009  0.5956  1.8916 -0.8251
 9443SOL     OW29227   1.076   3.553   4.582  0.1831  0.5027 -0.2453
 9443SOL    HW129228   1.088   3.628   4.646 -1.7266  0.6082  0.0591
 9443SOL    HW229229   0.989   3.564   4.533  0.6163 -0.6722 -1.3518
 9444SOL     OW29230   4.073   0.929   5.208 -0.1511  0.3137 -0.1931
 9444SOL    HW129231   4.044   1.004   5.149 -0.5154  1.4862  1.3879
 9444SOL    HW229232   3.999   0.862   5.216 -1.3306  1.6967  1.2952
 9445SOL     OW29233   0.963   4.156   5.482  0.1740  0.0300  0.1487
 9445SOL    HW129234   1.052   4.198   5.466  1.0117 -1.8319 -0.3284
 9445SOL    HW229235   0.975   4.058   5.499 -1.7201 -0.1102  0.9152
 9446SOL     OW29236   4.642   0.053   3.357  0.5981 -0.0669 -0.0074
 9446SOL    HW129237   4.600  -0.006   3.287 -1.0291  0.2856  0.6348
 9446SOL    HW229238   4.691  -0.004   3.423  1.7730 -0.4367 -1.1519
 9447SOL     OW29239   6.129   1.536   2.988 -0.0293  0.2811 -0.1963
 9447SOL    HW129240   6.114   1.458   3.049  2.3874  1.3184  1.9135
 9447SOL    HW229241   6.194   1.511   2.916 -1.0919 -0.2798 -0.9857
 9448SOL     OW29242   0.232   2.807   3.962 -0.0622 -0.2590  0.7107
 9448SOL    HW129243   0.186   2.749   4.029  1.6848 -2.1130  0.4122
 9448SOL    HW229244   0.298   2.752   3.910  0.1246  1.5667 -1.1177
 9449SOL     OW29245   5.762   4.414   1.558 -0.2366  0.5180 -0.2379
 9449SOL    HW129246   5.780   4.498   1.608  0.4159 -0.5224  1.3742
 9449SOL    HW229247   5.727   4.435   1.467 -2.2215  2.5021  0.9061
 9450SOL     OW29248   1.749   4.331   1.008 -0.0285 -0.0858  0.0676
 9450SOL    HW129249   1.774   4.398   1.078  1.2244  0.3439 -0.7500
 9450SOL    HW229250   1.801   4.247   1.022  2.6363  1.0378 -2.0270
 9451SOL     OW29251   2.406   4.531   0.570  0.1107 -0.0814  0.5440
 9451SOL    HW129252   2.477   4.602   0.568  0.5479 -0.5248  0.1632
 9451SOL    HW229253   2.333   4.560   0.631 -0.5243  1.4652 -0.8794
 9452SOL     OW29254   2.342   6.294   5.827 -0.0137 -0.1674  0.2110
 9452SOL    HW129255   2.372   6.271   5.920 -0.2772  0.9311  0.5829
 9452SOL    HW229256   2.259   6.243   5.804  0.4135 -0.9279  0.3271
 9453SOL     OW29257   2.717   6.734   5.231 -0.2534  0.6843  0.3843
 9453SOL    HW129258   2.622   6.711   5.210 -0.3939  1.3830  0.2392
 9453SOL    HW229259   2.729   6.833   5.228  0.3044  0.6489  1.1700
 9454SOL     OW29260   1.815   0.862   4.921 -0.4479 -0.2005 -0.4288
 9454SOL    HW129261   1.825   0.933   4.851  0.9501  0.7302  0.6776
 9454SOL    HW229262   1.899   0.854   4.973 -1.7766 -0.1078  1.8605
 9455SOL     OW29263   1.283   2.499   5.029  0.1338 -0.0035 -0.0441
 9455SOL    HW129264   1.354   2.534   4.967 -1.2491  0.5126 -1.4101
 9455SOL    HW229265   1.286   2.550   5.115  1.2350  0.1919 -0.1792
 9456SOL     OW29266   4.689   0.473   5.986  0.0664 -0.2633 -0.5527
 9456SOL    HW129267   4.740   0.491   6.071  1.3580  0.5491 -1.4493
 9456SOL    HW229268   4.665   0.377   5.980 -1.4765 -0.0591  1.4804
 9457SOL     OW29269   5.281   3.520   4.301 -0.3939 -0.5060 -0.3152
 9457SOL    HW129270   5.358   3.458   4.309 -0.7137 -0.7292  1.5739
 9457SOL    HW229271   5.197   3.473   4.328 -0.8091  0.4161  0.0693
 9458SOL     OW29272   6.904   0.486   4.066  0.1127 -0.0090 -0.0263
 9458SOL    HW129273   6.926   0.390   4.046 -0.6184 -0.3694  0.8050
 9458SOL    HW229274   6.962   0.518   4.140 -1.5734 -0.7655  1.7348
 9459SOL     OW29275   5.687   2.957   6.271  0.1081 -0.7221  0.1430
 9459SOL    HW129276   5.750   2.943   6.194  0.9205 -0.0241  0.6588
 9459SOL    HW229277   5.710   3.043   6.317 -0.8516 -0.7594  0.7079
 9460SOL     OW29278   4.723   1.608   0.422 -0.1854  0.4130 -0.3140
 9460SOL    HW129279   4.746   1.646   0.332 -0.2134 -1.1277 -0.9981
 9460SOL    HW229280   4.624   1.592   0.427 -0.5011  2.2914  0.7535
 9461SOL     OW29281   4.916   5.609   2.217 -0.0478  0.0451  0.1440
 9461SOL    HW129282   4.910   5.652   2.127 -0.7688  0.9917  0.6307
 9461SOL    HW229283   4.827   5.611   2.261  0.1600 -0.9557  0.6494
 9462SOL     OW29284   4.561   0.836   2.809  0.4085 -0.0429 -0.2716
 9462SOL    HW129285   4.559   0.774   2.731 -0.2551 -1.4163  0.7912
 9462SOL    HW229286   4.472   0.882   2.818  0.7936  0.8486 -0.8644
 9463SOL     OW29287   2.254   6.662   3.637  0.0992 -0.1863  0.6593
 9463SOL    HW129288   2.273   6.573   3.596 -2.0226 -1.3163  1.9472
 9463SOL    HW229289   2.291   6.734   3.579 -1.3698 -1.7345 -2.4252
 9464SOL     OW29290   3.069   4.559   6.989  0.4429 -0.2691 -0.0827
 9464SOL    HW129291   3.016   4.640   6.964 -1.7651 -1.4793  0.4465
 9464SOL    HW229292   3.068   4.548   7.088  1.9006 -0.2125 -0.0462
 9465SOL     OW29293   6.673   6.372   1.142 -0.2102  0.3812  0.2771
 9465SOL    HW129294   6.668   6.273   1.128 -0.6395 -0.0372  2.9562
 9465SOL    HW229295   6.581   6.408   1.155  0.1211  0.6346  2.1138
 9466SOL     OW29296   6.564   6.921   5.271  0.1370  0.1797 -0.3135
 9466SOL    HW129297   6.552   6.952   5.365 -0.4708 -0.7343 -0.0744
 9466SOL    HW229298   6.656   6.883   5.260  0.3974  0.7844 -0.2369
 9467SOL     OW29299   4.925   2.554   0.589 -0.1398 -0.0945  0.4149
 9467SOL    HW129300   4.900   2.520   0.498  1.3578  1.1150 -0.4960
 9467SOL    HW229301   5.000   2.498   0.626 -0.6473 -0.4931  0.8473
 9468SOL     OW29302   3.112   0.967   2.073  0.4959 -0.3536 -0.5455
 9468SOL    HW129303   3.077   0.920   1.991  0.2550 -0.3276 -0.4570
 9468SOL    HW229304   3.184   0.911   2.114 -0.0577 -0.8366 -0.2170
 9469SOL     OW29305   2.950   4.905   6.143 -0.6651 -0.0562 -0.4130
 9469SOL    HW129306   2.968   4.920   6.046 -0.5233  2.3018 -0.0854
 9469SOL    HW229307   2.865   4.952   6.168 -0.9216 -0.9949  0.5224
 9470SOL     OW29308   3.314   4.957   3.827  0.1299 -0.0762 -0.3686
 9470SOL    HW129309   3.249   5.004   3.887 -0.4067 -0.2477 -0.8058
 9470SOL    HW229310   3.404   4.954   3.871 -0.4632 -1.0406  0.8573
 9471SOL     OW29311   6.811   4.288   6.517  0.0513  0.0911 -0.0278
 9471SOL    HW129312   6.839   4.219   6.583  1.2930  0.5104 -0.0759
 9471SOL    HW229313   6.857   4.375   6.539  0.0008  0.3914 -1.0760
 9472SOL     OW29314   1.785   5.837   4.861 -0.2304  0.1881 -0.0682
 9472SOL    HW129315   1.746   5.771   4.797  1.6941 -0.7340 -0.3949
 9472SOL    HW229316   1.727   5.845   4.942 -1.1089 -1.0212 -0.5624
 9473SOL     OW29317   2.924   1.670   6.447  0.1310  0.7434  0.1392
 9473SOL    HW129318   2.909   1.724   6.364 -0.4594 -0.8732 -0.8566
 9473SOL    HW229319   3.020   1.640   6.450  0.0526  0.4441 -0.2085
 9474SOL     OW29320   6.966   1.885   2.447 -0.6183 -0.3458 -0.6613
 9474SOL    HW129321   6.920   1.896   2.535  0.5757 -0.4780  0.0088
 9474SOL    HW229322   7.062   1.912   2.457 -1.0297  2.2258 -2.5639
 9475SOL     OW29323   4.345   0.206   4.110 -0.7489 -0.3857  0.4627
 9475SOL    HW129324   4.364   0.193   4.207  0.6097  0.8619  0.3975
 9475SOL    HW229325   4.412   0.156   4.056 -1.4357 -0.9898  0.1592
 9476SOL     OW29326   5.009   2.738   0.052 -0.0244 -0.6207 -0.3757
 9476SOL    HW129327   4.931   2.719   0.111  0.5518 -1.6329  0.0715
 9476SOL    HW229328   4.995   2.695  -0.037 -1.2103  1.4661 -1.2914
 9477SOL     OW29329   5.546   4.573   1.845 -0.3064 -0.0961  0.0715
 9477SOL    HW129330   5.467   4.632   1.832 -0.3648 -0.3200 -0.6759
 9477SOL    HW229331   5.618   4.599   1.781  0.9223  1.2256  1.8852
 9478SOL     OW29332   3.999   6.450   0.788 -0.1725 -0.2988  0.1194
 9478SOL    HW129333   4.042   6.430   0.877 -0.5230 -2.1645 -0.0799
 9478SOL    HW229334   3.917   6.505   0.803  0.3461  0.3112  0.8352
 9479SOL     OW29335   3.452   5.415   1.533  0.3013 -0.0179  0.1635
 9479SOL    HW129336   3.429   5.478   1.459  1.4452  0.2818  0.0387
 9479SOL    HW229337   3.535   5.365   1.509 -1.1027 -2.3032 -0.1687
 9480SOL     OW29338   6.290   1.402   4.677 -0.2021  0.1114  0.2517
 9480SOL    HW129339   6.364   1.375   4.739  0.4525  0.5071 -0.3508
 9480SOL    HW229340   6.299   1.498   4.653  0.8221 -0.4999 -2.1274
 9481SOL     OW29341   3.597   1.824   0.728 -0.5572 -0.1628 -0.6011
 9481SOL    HW129342   3.576   1.867   0.816  1.7479  0.3959 -0.2325
 9481SOL    HW229343   3.648   1.890   0.671  1.2950 -1.6942 -0.8170
 9482SOL     OW29344   2.213   6.335   6.430  0.6702 -0.3452 -0.1536
 9482SOL    HW129345   2.144   6.287   6.483  2.2826 -2.9060 -0.2004
 9482SOL    HW229346   2.285   6.369   6.491  1.0307 -0.6572 -0.3979
 9483SOL     OW29347   1.153   1.373   6.192 -0.3008  0.1618 -0.1623
 9483SOL    HW129348   1.221   1.383   6.119 -0.3120  1.6641  0.0041
 9483SOL    HW229349   1.107   1.461   6.207  1.5562  0.6778  3.4577
 9484SOL     OW29350   2.863   6.002   3.029  0.7216  0.2185  0.3803
 9484SOL    HW129351   2.768   5.980   3.007  0.6081  2.9359 -2.6695
 9484SOL    HW229352   2.917   5.918   3.033 -1.1476 -1.1798 -1.6948
 9485SOL     OW29353   0.980   5.536   0.693 -0.5231  0.0690 -0.2234
 9485SOL    HW129354   0.994   5.621   0.641 -3.6682  1.8014  1.5279
 9485SOL    HW229355   0.906   5.484   0.652 -1.3274  0.2021  1.0248
 9486SOL     OW29356   4.020   3.415   5.421  0.8482  0.3016  0.7201
 9486SOL    HW129357   3.953   3.346   5.451 -2.7080  2.3956 -1.6868
 9486SOL    HW229358   4.043   3.474   5.498 -2.0295  0.9351  1.2078
 9487SOL     OW29359   3.962   3.042   4.418  0.3486 -0.4132 -0.0505
 9487SOL    HW129360   4.009   3.069   4.334 -0.7925 -2.8651 -1.5927
 9487SOL    HW229361   4.001   3.092   4.496  1.4671  1.9350 -1.9849
 9488SOL     OW29362   3.694   4.585   6.741  0.0109 -0.7284 -0.0282
 9488SOL    HW129363   3.621   4.614   6.679 -0.3413 -2.0737 -0.2715
 9488SOL    HW229364   3.672   4.615   6.834  0.0340  0.3999 -0.3673
 9489SOL     OW29365   5.024   4.602   3.678 -0.1653 -0.5919  0.2973
 9489SOL    HW129366   5.028   4.510   3.716 -0.1225 -0.4733  0.5795
 9489SOL    HW229367   4.968   4.660   3.737 -1.1173 -0.7172 -0.4541
 9490SOL     OW29368   4.001   4.820   2.472 -0.8145 -0.4279 -0.5247
 9490SOL    HW129369   3.939   4.743   2.458 -2.3573  0.4523  1.0816
 9490SOL    HW229370   4.049   4.808   2.559  0.8994 -0.8007 -1.4690
 9491SOL     OW29371   4.925   0.586   3.119 -0.3652  0.1750  0.0052
 9491SOL    HW129372   4.873   0.510   3.081  1.8929 -0.8404 -1.3030
 9491SOL    HW229373   4.938   0.656   3.048 -1.4083  1.2733  0.8497
 9492SOL     OW29374   4.070   2.048   5.803  0.4450 -0.0517  0.3408
 9492SOL    HW129375   4.049   1.965   5.855 -3.4153  0.9943  0.7851
 9492SOL    HW229376   4.098   2.121   5.865  2.5199 -0.5635  0.0862
 9493SOL     OW29377   2.060   0.231   4.603 -0.3275 -0.1775  0.4975
 9493SOL    HW129378   2.034   0.190   4.690 -1.8284 -0.1262  0.1029
 9493SOL    HW229379   2.007   0.188   4.529  0.1098  0.5494 -0.2573
 9494SOL     OW29380   4.732   4.056   6.951 -0.3280  0.2050  0.3551
 9494SOL    HW129381   4.634   4.066   6.963 -0.5455  1.4119 -1.8540
 9494SOL    HW229382   4.752   3.980   6.889  0.0541  0.6441 -0.0711
 9495SOL     OW29383   1.062   3.109   4.449 -0.7012  0.0490  0.3740
 9495SOL    HW129384   1.068   3.092   4.350 -0.4305  0.2907  0.3457
 9495SOL    HW229385   1.057   3.022   4.498 -2.9773 -0.0894  0.0310
 9496SOL     OW29386   4.363   5.639   0.003 -0.2431 -0.0011 -0.0054
 9496SOL    HW129387   4.424   5.639   0.083  0.9144  0.6735 -0.8482
 9496SOL    HW229388   4.410   5.595  -0.074 -0.6970  0.7921 -0.7554
 9497SOL     OW29389   2.392   4.894   3.435 -0.4394 -0.4138 -0.2130
 9497SOL    HW129390   2.455   4.895   3.513 -0.0527  0.8326 -0.5182
 9497SOL    HW229391   2.309   4.845   3.460 -0.0581 -0.5953  0.7616
 9498SOL     OW29392   3.360   5.803   2.158 -0.6820  0.2533 -0.4504
 9498SOL    HW129393   3.431   5.740   2.192 -0.0803 -0.1549 -2.3301
 9498SOL    HW229394   3.348   5.789   2.060 -2.3378  1.3700 -0.4393
 9499SOL     OW29395   1.671   1.412   6.421  0.3796  0.5855  0.2497
 9499SOL    HW129396   1.586   1.448   6.385 -0.6661  0.1911  2.2210
 9499SOL    HW229397   1.747   1.472   6.395 -0.6543  1.5811 -0.5282
 9500SOL     OW29398   5.031   0.478   5.264  0.5287  0.2982  0.5516
 9500SOL    HW129399   5.034   0.500   5.167  0.9394  0.5581  0.6229
 9500SOL    HW229400   4.979   0.393   5.278  0.8726  0.0101  0.0675
 9501SOL     OW29401   0.487   2.099   1.349 -0.0217 -0.5385 -0.1212
 9501SOL    HW129402   0.551   2.051   1.409  0.6189 -0.0045 -0.3669
 9501SOL    HW229403   0.503   2.071   1.254 -0.2269 -0.4905 -0.1702
 9502SOL     OW29404   3.479   4.130   4.468  0.1095 -0.1561  0.2134
 9502SOL    HW129405   3.429   4.144   4.383 -0.5221 -1.4141  0.3557
 9502SOL    HW229406   3.512   4.036   4.472  0.7688  0.1005  1.0276
 9503SOL     OW29407   3.453   0.545   2.338 -0.3795 -0.4071  0.8764
 9503SOL    HW129408   3.436   0.623   2.278  2.9355 -1.0585 -1.1554
 9503SOL    HW229409   3.496   0.577   2.423 -1.7865  0.1806  1.4006
 9504SOL     OW29410   0.327   0.352   2.368  0.1449 -0.2673  0.1211
 9504SOL    HW129411   0.373   0.316   2.287 -2.7568 -0.9118 -1.3859
 9504SOL    HW229412   0.328   0.283   2.440 -0.7123 -1.3020 -0.8263
 9505SOL     OW29413   0.031   4.304   0.331  0.1213 -0.1654  0.5146
 9505SOL    HW129414   0.037   4.331   0.427  1.9440  0.6640  0.2223
 9505SOL    HW229415   0.100   4.234   0.313  1.6248  1.5262 -0.7012
 9506SOL     OW29416   5.581   1.161   3.814 -0.4737  0.4045  0.4068
 9506SOL    HW129417   5.652   1.231   3.802 -1.3166  1.1847 -0.1817
 9506SOL    HW229418   5.597   1.087   3.748 -0.9207  1.1979 -0.6268
 9507SOL     OW29419   4.677   5.266   6.195 -0.3184  0.0627  0.6868
 9507SOL    HW129420   4.774   5.285   6.186 -0.5477  1.6373  1.2148
 9507SOL    HW229421   4.626   5.352   6.198 -1.7366 -0.7324  0.3688
 9508SOL     OW29422   0.494   4.560   0.634  0.4534  0.0521 -0.7328
 9508SOL    HW129423   0.570   4.533   0.693  1.3443  0.1356 -1.8115
 9508SOL    HW229424   0.441   4.479   0.609  1.7756 -0.4153 -2.1260
 9509SOL     OW29425   4.456   1.252   4.411  0.0879  0.5860 -0.0757
 9509SOL    HW129426   4.406   1.338   4.402  1.0520  1.2390  0.5759
 9509SOL    HW229427   4.400   1.186   4.462 -1.2639  0.2816 -1.8594
 9510SOL     OW29428   4.070   5.339   0.613  0.4037 -0.3704 -0.0797
 9510SOL    HW129429   4.047   5.436   0.614 -1.3680 -0.7467  0.0982
 9510SOL    HW229430   4.169   5.327   0.617  0.6380  1.4137 -0.0390
 9511SOL     OW29431   6.882   3.858   4.852  0.1172 -0.3040  0.0267
 9511SOL    HW129432   6.820   3.783   4.871 -0.0795 -0.8143 -2.2954
 9511SOL    HW229433   6.936   3.837   4.770  1.5550  1.2071  0.5256
 9512SOL     OW29434   3.637   1.179   0.934 -0.3584 -0.9328  0.0176
 9512SOL    HW129435   3.647   1.220   1.025 -2.2727 -1.8042  0.6576
 9512SOL    HW229436   3.614   1.250   0.868 -1.3508 -0.6090  0.6832
 9513SOL     OW29437   6.239   2.136   5.610 -0.6509  0.2189 -0.2610
 9513SOL    HW129438   6.167   2.186   5.658 -1.4659  0.4446 -1.6765
 9513SOL    HW229439   6.254   2.176   5.520 -0.1074 -1.0205 -0.7502
 9514SOL     OW29440   3.618   0.192   3.628  0.7890 -0.3467  0.0653
 9514SOL    HW129441   3.667   0.106   3.614  0.8757 -0.3226  0.2193
 9514SOL    HW229442   3.626   0.220   3.724 -2.0007 -1.8792  0.8365
 9515SOL     OW29443   0.918   3.594   3.267 -0.0061  0.2025 -0.1779
 9515SOL    HW129444   0.897   3.540   3.185 -2.0389  0.4018  0.1591
 9515SOL    HW229445   0.928   3.534   3.346  0.5281  0.1210 -0.3040
 9516SOL     OW29446   2.989   0.765   0.804 -0.1695 -0.5942  0.2975
 9516SOL    HW129447   2.976   0.684   0.860  1.8656 -0.5404  0.9331
 9516SOL    HW229448   3.068   0.816   0.837  0.1088  0.3227 -1.6391
 9517SOL     OW29449   5.596   6.158   5.266  0.9689  0.5479  0.1465
 9517SOL    HW129450   5.677   6.146   5.324  0.9489 -2.2129 -0.3044
 9517SOL    HW229451   5.601   6.097   5.188 -1.1833  0.9117 -0.3366
 9518SOL     OW29452   2.656   0.310   3.136  0.0209 -0.6708  0.5442
 9518SOL    HW129453   2.614   0.227   3.173 -1.1145 -0.5516 -0.4075
 9518SOL    HW229454   2.755   0.300   3.135 -0.0797 -1.8001  0.9519
 9519SOL     OW29455   5.143   2.964   1.307  0.4891  0.0401  0.1481
 9519SOL    HW129456   5.167   2.889   1.368  0.5589  0.2218  0.3451
 9519SOL    HW229457   5.218   3.030   1.304  1.0701 -0.6393 -1.1924
 9520SOL     OW29458   2.633   5.117   0.734  0.1371  0.6226  0.0712
 9520SOL    HW129459   2.684   5.189   0.687  1.0902  0.3673  0.6798
 9520SOL    HW229460   2.697   5.061   0.788 -0.7819  0.2655  0.8172
 9521SOL     OW29461   2.615   3.458   6.273  0.1275  0.5784 -0.0234
 9521SOL    HW129462   2.590   3.369   6.310 -0.6939  0.9681  0.3931
 9521SOL    HW229463   2.645   3.448   6.178  1.6043 -0.3451  0.5029
 9522SOL     OW29464   4.417   0.038   5.104 -0.1975 -0.1095 -0.3144
 9522SOL    HW129465   4.402   0.076   5.195  0.0947  1.6731 -0.9814
 9522SOL    HW229466   4.339  -0.021   5.080 -1.8872  1.9274 -0.1521
 9523SOL     OW29467   2.965   3.857   4.975 -0.5132  0.1466  0.4008
 9523SOL    HW129468   2.907   3.796   4.922 -2.5983  2.5833 -0.2875
 9523SOL    HW229469   2.960   3.832   5.072  0.3503 -1.9801 -0.0426
 9524SOL     OW29470   6.184   5.382   0.111 -0.5569  0.0239  0.4013
 9524SOL    HW129471   6.199   5.458   0.049 -1.6000  1.3124  1.6616
 9524SOL    HW229472   6.260   5.317   0.102  1.3510  2.0868  0.5570
 9525SOL     OW29473   6.272   0.234   4.695 -0.1360 -0.6179  0.0551
 9525SOL    HW129474   6.197   0.213   4.758 -1.6976  0.7635 -1.2398
 9525SOL    HW229475   6.276   0.165   4.623 -0.9343 -0.1232 -0.4880
 9526SOL     OW29476   1.959   5.453   5.095  0.2842 -0.5523 -0.4185
 9526SOL    HW129477   2.010   5.466   5.010  1.1219 -1.6360 -0.1059
 9526SOL    HW229478   1.950   5.355   5.114  0.8028 -0.3188  1.1443
 9527SOL     OW29479   3.334   3.617   3.218 -0.2598  0.6501 -0.1035
 9527SOL    HW129480   3.272   3.658   3.150 -1.3484 -0.5510  0.1163
 9527SOL    HW229481   3.414   3.580   3.171 -1.7312 -1.5870 -1.0312
 9528SOL     OW29482   1.772   4.353   2.630 -0.3230 -0.7094 -0.0098
 9528SOL    HW129483   1.848   4.378   2.690  0.7006  0.4927 -1.7404
 9528SOL    HW229484   1.700   4.422   2.638 -0.6185 -1.0676  0.5255
 9529SOL     OW29485   2.380   0.959   6.053 -0.7644 -0.4113 -0.0868
 9529SOL    HW129486   2.363   1.010   5.969 -0.8124  0.7074  0.5716
 9529SOL    HW229487   2.460   0.997   6.099 -1.1827 -0.4989  0.7409
 9530SOL     OW29488   0.528   6.113   2.881  0.2476  0.1451 -0.1805
 9530SOL    HW129489   0.531   6.024   2.926  1.8388  0.9298  1.3624
 9530SOL    HW229490   0.605   6.169   2.911  1.3405  0.8431 -3.7349
 9531SOL     OW29491   3.865   2.966   2.826  0.0905  0.4065 -0.1683
 9531SOL    HW129492   3.867   2.932   2.732 -0.2357  1.4949 -0.5902
 9531SOL    HW229493   3.810   2.905   2.882  0.5290 -0.4143 -0.6197
 9532SOL     OW29494   4.486   4.476   0.586 -0.5096 -0.5117  0.4827
 9532SOL    HW129495   4.556   4.473   0.515 -1.3527  0.6320 -0.4337
 9532SOL    HW229496   4.493   4.394   0.643  0.7934 -0.9917 -0.3154
 9533SOL     OW29497   6.589   3.187   0.965 -0.0839  0.3337 -0.2387
 9533SOL    HW129498   6.688   3.181   0.960 -0.1667 -0.7770 -0.8313
 9533SOL    HW229499   6.556   3.144   1.049 -0.1273 -0.2711 -0.5597
 9534SOL     OW29500   2.553   0.012   3.689 -0.4810 -0.0824 -0.0226
 9534SOL    HW129501   2.577   0.098   3.644  1.6637  0.4157  1.8999
 9534SOL    HW229502   2.575  -0.065   3.629  2.1494  0.5697 -0.0069
 9535SOL     OW29503   0.952   6.566   6.769 -0.5989  0.4128 -0.1590
 9535SOL    HW129504   0.953   6.657   6.727  1.5570 -0.0798 -1.3131
 9535SOL    HW229505   0.932   6.497   6.699 -3.5208  0.0101  0.9401
 9536SOL     OW29506   4.335   3.597   0.369  0.0603 -0.7322  0.4136
 9536SOL    HW129507   4.395   3.669   0.407 -0.6924 -0.4447  1.0727
 9536SOL    HW229508   4.387   3.543   0.303  1.4956 -1.4307  2.0509
 9537SOL     OW29509   1.416   2.726   0.594 -0.0609 -0.0685  0.0715
 9537SOL    HW129510   1.386   2.635   0.567  1.0206 -0.8193  1.3117
 9537SOL    HW229511   1.426   2.730   0.693 -0.4092  1.5138  0.0735
 9538SOL     OW29512   4.518   4.906   4.250 -0.2796  0.1325  0.1627
 9538SOL    HW129513   4.461   4.840   4.202 -0.0650  0.2666 -0.2741
 9538SOL    HW229514   4.555   4.863   4.333  0.1764 -0.4320 -0.3183
 9539SOL     OW29515   0.760   1.654   5.363  0.5797  0.2625 -0.3401
 9539SOL    HW129516   0.800   1.722   5.425  0.3574  0.8798 -0.8641
 9539SOL    HW229517   0.752   1.694   5.272  0.7363 -0.5803 -0.7270
 9540SOL     OW29518   6.106   0.491   0.899 -0.7704  0.7633  0.2365
 9540SOL    HW129519   6.137   0.455   0.987 -0.7193 -1.2384 -0.5350
 9540SOL    HW229520   6.038   0.429   0.860  2.1865 -0.7876 -2.9941
 9541SOL     OW29521   6.667   5.552   0.783  0.2052 -0.4983 -0.5234
 9541SOL    HW129522   6.574   5.576   0.811  0.7829  0.2399  0.8564
 9541SOL    HW229523   6.695   5.469   0.831  0.7045 -0.0040  0.0575
 9542SOL     OW29524   6.912   3.154   4.460 -0.0008 -0.2850  0.6639
 9542SOL    HW129525   7.002   3.168   4.501  0.7806 -1.7361 -0.4294
 9542SOL    HW229526   6.917   3.077   4.396 -1.1831  1.6694 -1.9653
 9543SOL     OW29527   0.610   0.093   5.794  0.3300 -0.3900 -0.1656
 9543SOL    HW129528   0.697   0.047   5.811  1.5617  2.0833  0.8427
 9543SOL    HW229529   0.617   0.188   5.824 -2.1804  0.3659 -1.6750
 9544SOL     OW29530   3.013   2.178   2.555  0.4110 -0.5601 -0.3875
 9544SOL    HW129531   3.106   2.191   2.588  0.5714 -0.1200 -0.9957
 9544SOL    HW229532   3.015   2.154   2.458 -0.0515 -1.7987 -0.1236
 9545SOL     OW29533   6.168   5.550   1.120  0.2109  0.1278 -0.4947
 9545SOL    HW129534   6.113   5.613   1.175  0.4259 -0.6149  0.5939
 9545SOL    HW229535   6.243   5.513   1.175  1.0177  0.0920 -1.5707
 9546SOL     OW29536   2.181   5.197   2.475  0.5673 -0.0349 -0.5288
 9546SOL    HW129537   2.211   5.104   2.453 -0.0984  0.0268 -1.8042
 9546SOL    HW229538   2.162   5.204   2.573  1.0637 -1.1073 -0.3397
 9547SOL     OW29539   4.859   4.176   6.520 -0.3044  0.0960  0.5319
 9547SOL    HW129540   4.817   4.236   6.587  1.5745  0.0151  1.8629
 9547SOL    HW229541   4.812   4.186   6.432 -1.7246  1.4873  1.3923
 9548SOL     OW29542   5.498   3.949   3.601 -1.0179 -0.2623  0.6513
 9548SOL    HW129543   5.526   4.045   3.591 -0.7589 -0.3591  0.4584
 9548SOL    HW229544   5.445   3.921   3.521 -1.1704 -0.2542  0.7487
 9549SOL     OW29545   5.984   3.351   2.666  0.3055 -0.5288 -0.3494
 9549SOL    HW129546   5.993   3.333   2.568 -2.7831  0.0910 -0.8379
 9549SOL    HW229547   5.988   3.264   2.716 -0.3231 -1.0989 -1.2580
 9550SOL     OW29548   1.574   6.894   6.711 -0.4225  0.2547 -0.4883
 9550SOL    HW129549   1.629   6.855   6.785 -0.9892 -0.3088 -0.3493
 9550SOL    HW229550   1.569   6.993   6.721 -0.2094  0.2140  0.0269
 9551SOL     OW29551   2.185   3.068   2.439  0.5175  0.2144  0.4375
 9551SOL    HW129552   2.112   3.051   2.374 -0.2976 -0.8757  1.5889
 9551SOL    HW229553   2.252   2.993   2.434  0.1223 -0.2061  1.2622
 9552SOL     OW29554   6.455   5.002   3.013 -0.0212  0.3250  0.4162
 9552SOL    HW129555   6.402   5.051   2.944 -0.0460 -0.7564 -0.3558
 9552SOL    HW229556   6.518   4.939   2.968  0.8728  0.5224  1.3613
 9553SOL     OW29557   5.724   0.720   6.709  0.6969  0.6333  0.2430
 9553SOL    HW129558   5.697   0.689   6.618  0.4750  2.0309 -0.2040
 9553SOL    HW229559   5.775   0.648   6.756  0.6945 -0.1580 -0.9256
 9554SOL     OW29560   2.670   0.078   4.385 -0.8365  0.6098  0.0699
 9554SOL    HW129561   2.640   0.172   4.402  3.9303  2.2081  1.4126
 9554SOL    HW229562   2.707   0.071   4.293  1.4860  1.0231  0.9117
 9555SOL     OW29563   6.897   0.752   1.948 -0.0860  0.2019 -0.0282
 9555SOL    HW129564   6.958   0.832   1.949 -1.2129  1.1077 -0.3942
 9555SOL    HW229565   6.807   0.781   1.915 -0.1618 -1.5027 -1.4025
 9556SOL     OW29566   3.773   1.571   1.051  0.1180  0.2495 -0.3409
 9556SOL    HW129567   3.706   1.552   1.123 -0.5481  1.1117 -0.7216
 9556SOL    HW229568   3.856   1.610   1.092 -0.7275  1.9074 -0.1318
 9557SOL     OW29569   0.352   0.188   5.330 -0.2151  0.5765 -0.7016
 9557SOL    HW129570   0.255   0.202   5.312 -0.8328  0.6743  2.2229
 9557SOL    HW229571   0.369   0.190   5.429  2.6675 -0.1608 -1.0736
 9558SOL     OW29572   6.230   1.961   4.354  0.1067 -0.0777 -0.0160
 9558SOL    HW129573   6.208   2.046   4.305  0.0571 -0.2881 -0.3628
 9558SOL    HW229574   6.201   1.969   4.449  2.6875  1.4216  0.7461
 9559SOL     OW29575   6.611   4.439   6.262 -0.7799  0.3265  0.1945
 9559SOL    HW129576   6.633   4.536   6.266  0.1139  0.0827  1.9448
 9559SOL    HW229577   6.688   4.385   6.295 -0.9640 -1.0532 -1.4716
 9560SOL     OW29578   4.822   2.943   4.347 -0.2603 -0.1503 -0.2417
 9560SOL    HW129579   4.891   2.887   4.392 -2.4681 -3.2256 -0.3192
 9560SOL    HW229580   4.757   2.977   4.415  1.7473  3.7581  0.0096
 9561SOL     OW29581   6.298   6.647   5.267 -0.5567 -0.1044 -0.3809
 9561SOL    HW129582   6.395   6.652   5.245  0.0591  0.8624  2.1685
 9561SOL    HW229583   6.245   6.643   5.183  1.4558  3.6582 -2.1193
 9562SOL     OW29584   3.395   4.289   0.764 -0.4515 -0.0552  0.1293
 9562SOL    HW129585   3.424   4.374   0.808  1.3577 -1.3331  1.5425
 9562SOL    HW229586   3.472   4.246   0.718 -1.7452 -0.0693 -2.1870
 9563SOL     OW29587   4.423   2.136   3.611 -0.0500 -0.4095 -0.4449
 9563SOL    HW129588   4.332   2.101   3.587 -0.1621 -1.2938  1.1385
 9563SOL    HW229589   4.476   2.064   3.655  0.2751  0.9168  1.4680
 9564SOL     OW29590   1.646   2.868   4.907  0.1002 -0.0384  0.1485
 9564SOL    HW129591   1.659   2.794   4.840 -0.2665  0.0737 -0.0503
 9564SOL    HW229592   1.730   2.922   4.912 -0.2025  0.5764 -0.9930
 9565SOL     OW29593   0.219   3.324   1.416  0.1459 -0.4305 -0.0779
 9565SOL    HW129594   0.246   3.309   1.321 -0.3410 -1.2431 -0.1027
 9565SOL    HW229595   0.120   3.326   1.422  0.1854  0.2654  0.3246
 9566SOL     OW29596   6.296   1.898   1.454  0.7229  0.4184  0.2465
 9566SOL    HW129597   6.384   1.877   1.498  0.9367  0.4731 -0.1492
 9566SOL    HW229598   6.259   1.982   1.493  0.0806 -0.4228  1.5194
 9567SOL     OW29599   5.301   1.355   6.573  0.4490 -0.1519  0.0266
 9567SOL    HW129600   5.345   1.429   6.524  0.8668 -1.7290 -2.1416
 9567SOL    HW229601   5.322   1.268   6.528 -1.6050 -1.3932  1.2962
 9568SOL     OW29602   6.925   4.510   3.606 -0.6082 -0.1557  0.0402
 9568SOL    HW129603   6.950   4.449   3.681  0.5036  0.2968  0.0514
 9568SOL    HW229604   6.832   4.489   3.576 -1.0049 -0.4878  1.4073
 9569SOL     OW29605   6.017   4.282   0.422  0.1578 -0.3216  0.0964
 9569SOL    HW129606   6.062   4.229   0.494  3.7274  0.9019 -1.0178
 9569SOL    HW229607   6.000   4.375   0.454  0.7379 -0.0835 -0.2755
 9570SOL     OW29608   1.832   2.181   1.116 -0.5752  0.0306 -0.1567
 9570SOL    HW129609   1.783   2.172   1.203 -1.0243  0.7632 -0.3182
 9570SOL    HW229610   1.928   2.202   1.133 -0.7945  0.8228  0.1789
 9571SOL     OW29611   3.961   1.682   2.005 -0.2814 -0.3932 -0.2379
 9571SOL    HW129612   3.865   1.656   2.019 -0.5743 -0.3063 -1.8726
 9571SOL    HW229613   4.020   1.603   2.024 -0.9199 -1.3423 -1.9043
 9572SOL     OW29614   6.171   2.046   6.592  0.2217  0.8172 -0.1792
 9572SOL    HW129615   6.135   1.953   6.594  1.1097  0.4406 -0.8431
 9572SOL    HW229616   6.116   2.102   6.530  1.0768  0.0992 -1.6391
 9573SOL     OW29617   1.917   2.381   5.811  0.0435  0.6286  0.2965
 9573SOL    HW129618   1.915   2.287   5.845  2.1450  0.5523  0.3186
 9573SOL    HW229619   1.911   2.445   5.888 -0.1531  0.5106  0.3796
 9574SOL     OW29620   3.432   0.611   5.879 -0.1846 -0.2915  0.3450
 9574SOL    HW129621   3.448   0.619   5.781 -0.1832 -0.1792  0.3547
 9574SOL    HW229622   3.341   0.572   5.894 -0.2453 -0.1681  0.3007
 9575SOL     OW29623   6.286   1.825   2.839  0.3987 -0.3477  0.0673
 9575SOL    HW129624   6.321   1.812   2.747  0.8556 -1.6439  0.4051
 9575SOL    HW229625   6.191   1.793   2.844 -0.1678  1.1885 -0.3204
 9576SOL     OW29626   5.434   3.281   3.556 -0.3196  0.7474  0.1356
 9576SOL    HW129627   5.473   3.373   3.548 -1.3357  1.4106  2.1041
 9576SOL    HW229628   5.393   3.255   3.469 -0.1709  2.2365 -0.4094
 9577SOL     OW29629   5.508   0.440   4.421 -0.5390  0.3355  0.2763
 9577SOL    HW129630   5.529   0.502   4.345 -0.2707  0.5436  0.5228
 9577SOL    HW229631   5.572   0.363   4.421 -0.4954  0.3726  0.3393
 9578SOL     OW29632   2.711   3.488   5.289  0.3829  0.0373  0.2974
 9578SOL    HW129633   2.729   3.391   5.273  0.6125  0.1559 -0.1779
 9578SOL    HW229634   2.622   3.498   5.334 -0.1996 -0.3356 -0.7177
 9579SOL     OW29635   5.561   5.134   6.682 -0.2495 -0.1852 -0.6144
 9579SOL    HW129636   5.479   5.182   6.716  1.6665  0.8808  3.0175
 9579SOL    HW229637   5.557   5.038   6.709 -1.1448 -0.6460 -2.2463
 9580SOL     OW29638   4.680   5.674   5.618 -0.1288  0.3104  0.1382
 9580SOL    HW129639   4.748   5.609   5.584 -1.0493 -0.4997 -0.2226
 9580SOL    HW229640   4.651   5.647   5.710 -0.8892 -0.1150 -0.2122
 9581SOL     OW29641   1.759   6.526   5.881  0.2089 -0.1553 -0.7342
 9581SOL    HW129642   1.722   6.569   5.798 -1.3105 -2.7256 -1.4983
 9581SOL    HW229643   1.711   6.563   5.961 -2.0303 -1.2280 -1.4715
 9582SOL     OW29644   6.216   5.985   3.725  0.3652  0.5633 -0.1846
 9582SOL    HW129645   6.130   5.934   3.727  0.4851  0.3480 -0.4460
 9582SOL    HW229646   6.228   6.027   3.635  0.9117 -0.0710 -0.4169
 9583SOL     OW29647   0.805   4.593   0.678  0.5006 -0.0011 -0.2020
 9583SOL    HW129648   0.821   4.681   0.634  1.0235 -0.3857 -0.8152
 9583SOL    HW229649   0.891   4.559   0.717 -0.1057  0.7055  1.8704
 9584SOL     OW29650   5.666   4.583   6.279 -0.3464  0.3456  0.7091
 9584SOL    HW129651   5.658   4.578   6.180  0.3030  0.5378  0.6455
 9584SOL    HW229652   5.611   4.660   6.313 -1.4308 -0.3710  0.6126
 9585SOL     OW29653   6.826   1.340   3.169 -0.1178 -0.1158  0.2656
 9585SOL    HW129654   6.767   1.393   3.230 -2.4617  0.8913 -2.6091
 9585SOL    HW229655   6.921   1.371   3.179 -0.7467  1.4852  1.8062
 9586SOL     OW29656   3.943   0.098   2.566  0.4494  0.0124 -0.3229
 9586SOL    HW129657   3.899   0.046   2.639 -0.6076  1.4179  0.0758
 9586SOL    HW229658   4.042   0.094   2.578  0.3532 -1.0554  0.2704
 9587SOL     OW29659   3.734   5.310   3.276  0.7492 -0.2316 -0.0915
 9587SOL    HW129660   3.678   5.275   3.202 -1.0268  1.1957  0.5047
 9587SOL    HW229661   3.818   5.349   3.239  0.4522 -0.6267 -1.2098
 9588SOL     OW29662   5.753   6.235   5.663  0.2748 -0.2995  0.4155
 9588SOL    HW129663   5.754   6.170   5.587 -0.0288 -0.2149  0.3384
 9588SOL    HW229664   5.837   6.290   5.661  0.0836 -0.0238 -0.0964
 9589SOL     OW29665   0.855   2.132   6.870  0.4992 -0.4073 -0.6190
 9589SOL    HW129666   0.908   2.167   6.793 -2.2108  1.7859 -1.6525
 9589SOL    HW229667   0.761   2.115   6.841  0.0800 -2.4406  1.5462
 9590SOL     OW29668   4.293   2.514   0.312 -0.5196 -0.2501  0.2456
 9590SOL    HW129669   4.236   2.515   0.394 -0.8430  0.3099  0.0154
 9590SOL    HW229670   4.370   2.576   0.324 -1.0193  0.4626 -0.1906
 9591SOL     OW29671   2.362   5.940   5.040  0.0075  0.6188  0.4944
 9591SOL    HW129672   2.346   5.842   5.031 -2.2109  0.9067  0.8738
 9591SOL    HW229673   2.289   5.991   4.995  1.1427  2.1257  0.2571
 9592SOL     OW29674   1.603   1.182   5.203  0.1816  0.4980  0.0899
 9592SOL    HW129675   1.536   1.109   5.187  0.1426  0.4115  0.6258
 9592SOL    HW229676   1.683   1.167   5.143  0.2345 -0.0617  0.2882
 9593SOL     OW29677   4.354   0.070   1.826 -0.0166  0.6389  0.3550
 9593SOL    HW129678   4.373  -0.029   1.831 -0.3922  0.4595 -1.0997
 9593SOL    HW229679   4.310   0.100   1.910  0.9900 -0.2236  1.2295
 9594SOL     OW29680   6.053   6.726   6.406  0.5566  0.2051 -0.0459
 9594SOL    HW129681   6.020   6.781   6.329  1.9500 -1.4883 -1.9895
 9594SOL    HW229682   5.979   6.669   6.442 -0.0964  0.9670 -0.1796
 9595SOL     OW29683   0.272   1.294   0.367 -0.4308 -0.1034 -0.4103
 9595SOL    HW129684   0.198   1.288   0.433  0.8059  1.3286  1.1835
 9595SOL    HW229685   0.326   1.209   0.369 -0.9651 -0.4471 -0.3243
 9596SOL     OW29686   6.174   4.409   6.875  0.6382  0.5665  0.3198
 9596SOL    HW129687   6.251   4.473   6.872  0.4003  0.8456  0.0476
 9596SOL    HW229688   6.207   4.316   6.860  0.6450  0.9196 -2.2314
 9597SOL     OW29689   1.514   6.170   2.838  0.2466 -0.4217  0.0827
 9597SOL    HW129690   1.604   6.135   2.812  0.2428  1.3264 -2.5956
 9597SOL    HW229691   1.443   6.113   2.796  0.1985  0.5180 -1.1616
 9598SOL     OW29692   2.205   5.503   3.002  0.7983 -0.1537  0.5096
 9598SOL    HW129693   2.145   5.449   2.942  0.4497 -0.4591  1.1302
 9598SOL    HW229694   2.156   5.527   3.086  0.5730  2.0540 -0.1935
 9599SOL     OW29695   3.453   2.942   5.676  0.8353 -0.1801  0.6737
 9599SOL    HW129696   3.356   2.918   5.684  0.8664 -0.6621 -0.1963
 9599SOL    HW229697   3.466   2.999   5.595  1.0302  1.4031  1.7783
 9600SOL     OW29698   1.853   3.480   6.767 -0.0991 -0.0650 -0.5397
 9600SOL    HW129699   1.946   3.458   6.736  0.2897  0.1263  0.4761
 9600SOL    HW229700   1.841   3.579   6.770 -0.3654 -0.0888 -0.7426
 9601SOL     OW29701   6.131   3.523   6.402  0.7232 -0.7663 -0.1917
 9601SOL    HW129702   6.042   3.495   6.440  0.9656 -0.9514  0.2416
 9601SOL    HW229703   6.167   3.599   6.455  0.5563 -0.3131 -0.7241
 9602SOL     OW29704   0.032   4.186   2.603  0.2556  0.2463 -0.1675
 9602SOL    HW129705  -0.005   4.182   2.696 -3.6370  0.2938 -1.5523
 9602SOL    HW229706   0.067   4.277   2.584  0.2739  0.4834  0.9615
 9603SOL     OW29707   6.199   3.170   0.153  0.0529  0.1054  0.3214
 9603SOL    HW129708   6.101   3.184   0.144  0.2751  0.8128 -1.3113
 9603SOL    HW229709   6.246   3.257   0.139  0.9617 -0.4031  0.1415
 9604SOL     OW29710   3.543   4.277   6.555  0.3764  0.3879  0.2567
 9604SOL    HW129711   3.502   4.284   6.646 -1.2205 -1.0461 -0.2978
 9604SOL    HW229712   3.527   4.361   6.504  0.2819  0.7672  0.9100
 9605SOL     OW29713   3.051   5.385   0.741 -0.1823  0.3634  0.7349
 9605SOL    HW129714   3.130   5.323   0.739 -0.3880  0.0952  0.8241
 9605SOL    HW229715   3.081   5.478   0.719  0.1668  0.2741  0.8231
 9606SOL     OW29716   2.163   1.644   2.129 -0.1997  0.2891  0.1790
 9606SOL    HW129717   2.202   1.603   2.047 -2.2260  0.3338 -0.8557
 9606SOL    HW229718   2.137   1.739   2.110  0.0711  0.5696  1.1387
 9607SOL     OW29719   3.748   1.849   5.784  0.4850 -0.3539 -0.1137
 9607SOL    HW129720   3.778   1.877   5.693  1.1963  0.5840  0.3827
 9607SOL    HW229721   3.731   1.930   5.840 -0.1382 -0.9146  0.5291
 9608SOL     OW29722   4.874   3.852   2.412 -0.6083  0.1241  0.5670
 9608SOL    HW129723   4.911   3.763   2.437 -1.6423 -0.4305  0.1891
 9608SOL    HW229724   4.860   3.856   2.313 -0.8127  0.6103  0.6130
 9609SOL     OW29725   6.217   0.946   1.503 -0.7219  0.4739 -0.6456
 9609SOL    HW129726   6.187   0.936   1.408  1.6827 -2.3468 -1.2750
 9609SOL    HW229727   6.168   0.881   1.561  0.7635 -0.9020 -0.8471
 9610SOL     OW29728   0.185   4.327   6.022 -0.2702 -0.0703  0.5101
 9610SOL    HW129729   0.158   4.238   5.986  0.0966  0.5619 -1.4995
 9610SOL    HW229730   0.108   4.367   6.072 -0.3523 -1.5730  1.6618
 9611SOL     OW29731   6.529   2.853   5.889  0.1733  0.3138 -0.2832
 9611SOL    HW129732   6.577   2.796   5.956  1.3018 -0.3919 -1.6488
 9611SOL    HW229733   6.549   2.821   5.797 -0.4137  1.9863 -1.0366
 9612SOL     OW29734   4.670   4.525   2.069 -0.1749  0.7360  0.2045
 9612SOL    HW129735   4.721   4.531   1.984 -0.0845  1.7626  0.3173
 9612SOL    HW229736   4.608   4.447   2.066  1.0453 -0.2493 -0.1194
 9613SOL     OW29737   1.823   4.719   6.286  0.1477 -0.3193 -0.9255
 9613SOL    HW129738   1.763   4.781   6.337  1.0210  0.9297 -1.3759
 9613SOL    HW229739   1.801   4.624   6.311 -1.5657  0.1229 -0.6079
 9614SOL     OW29740   2.367   5.437   6.012 -0.1693  0.0944  0.2163
 9614SOL    HW129741   2.327   5.346   6.020 -1.7379  0.6742 -0.6154
 9614SOL    HW229742   2.306   5.505   6.051  0.0794  0.9902 -0.8791
 9615SOL     OW29743   5.643   3.402   0.760  0.0862  0.4788 -0.0410
 9615SOL    HW129744   5.734   3.440   0.773  0.8164 -0.8660 -1.0582
 9615SOL    HW229745   5.613   3.416   0.666 -0.2718 -0.1179 -0.0226
 9616SOL     OW29746   3.231   5.408   0.390 -0.1475  0.2865  0.5574
 9616SOL    HW129747   3.326   5.438   0.401 -0.2657  0.8135  0.1687
 9616SOL    HW229748   3.220   5.318   0.433  0.7167 -0.1417 -0.0771
 9617SOL     OW29749   0.415   2.332   5.272 -0.0220  0.9306 -0.3473
 9617SOL    HW129750   0.408   2.253   5.333 -0.7627  1.9817  0.9766
 9617SOL    HW229751   0.491   2.390   5.301  1.2121  0.2040 -1.9707
 9618SOL     OW29752   0.832   0.172   6.668  0.0479  0.3537 -0.6915
 9618SOL    HW129753   0.732   0.180   6.665 -0.1630 -1.5028  0.1284
 9618SOL    HW229754   0.871   0.205   6.582 -1.6593 -3.3288 -3.1692
 9619SOL     OW29755   3.009   5.828   5.014  0.0769 -0.3138 -0.6073
 9619SOL    HW129756   3.040   5.850   5.107  1.1998 -0.5284 -0.9152
 9619SOL    HW229757   2.910   5.840   5.008 -0.1247 -0.9891  0.8267
 9620SOL     OW29758   0.551   6.325   6.613  0.2285 -1.1001 -0.0621
 9620SOL    HW129759   0.597   6.249   6.566 -0.2516 -1.7577  0.5237
 9620SOL    HW229760   0.606   6.355   6.691  1.8897  1.1201 -1.9324
 9621SOL     OW29761   3.333   5.641   3.263 -0.0082  0.1572  0.8057
 9621SOL    HW129762   3.374   5.564   3.311  0.9141  0.2493  0.1954
 9621SOL    HW229763   3.371   5.726   3.298 -1.0453  0.3595  1.5004
 9622SOL     OW29764   2.298   1.219   1.102  0.5942  0.1829 -0.0855
 9622SOL    HW129765   2.368   1.181   1.163 -0.0506  0.9367  1.1907
 9622SOL    HW229766   2.235   1.275   1.156  0.0943  1.0354 -1.5002
 9623SOL     OW29767   2.535   6.868   6.321 -0.0234  0.4640 -0.0143
 9623SOL    HW129768   2.524   6.967   6.337  0.7812  0.4701  0.5679
 9623SOL    HW229769   2.613   6.834   6.375  0.2205 -0.3270 -0.8410
 9624SOL     OW29770   2.861   5.644   0.887 -0.8621  0.3894 -0.0010
 9624SOL    HW129771   2.801   5.676   0.961 -0.3822 -0.0279  0.5868
 9624SOL    HW229772   2.921   5.719   0.858  1.5433 -0.3144  2.6387
 9625SOL     OW29773   3.821   2.595   0.728 -0.1465 -0.8471  0.3207
 9625SOL    HW129774   3.892   2.531   0.757 -0.4704 -0.5131  1.9492
 9625SOL    HW229775   3.732   2.552   0.735 -0.1090 -2.0022 -3.7230
 9626SOL     OW29776   5.386   3.236   5.610 -0.2400  0.0408 -0.3869
 9626SOL    HW129777   5.462   3.195   5.660 -0.0568  0.1096 -0.6071
 9626SOL    HW229778   5.359   3.321   5.654 -0.8007 -0.4450  0.2326
 9627SOL     OW29779   1.531   3.963   5.983 -0.5735  0.5061 -0.5103
 9627SOL    HW129780   1.605   3.913   6.028 -1.1746 -1.5613 -1.7056
 9627SOL    HW229781   1.563   4.055   5.961  1.2464  0.0586  0.0217
 9628SOL     OW29782   6.168   5.203   0.829  0.5298 -0.1038 -0.3551
 9628SOL    HW129783   6.097   5.265   0.797 -0.5969 -0.2931  1.6299
 9628SOL    HW229784   6.127   5.130   0.884  1.8157 -2.6488 -2.5398
 9629SOL     OW29785   0.334   6.651   5.482 -0.2117 -0.1864  0.4375
 9629SOL    HW129786   0.320   6.625   5.578  0.5387  0.3919  0.7228
 9629SOL    HW229787   0.260   6.711   5.453 -0.1047  0.1703  0.8755
 9630SOL     OW29788   6.379   2.205   0.550  0.0889  0.6749 -0.1368
 9630SOL    HW129789   6.416   2.214   0.458  0.3954  1.8902  0.0944
 9630SOL    HW229790   6.454   2.182   0.613  0.6316  3.5627  0.4045
 9631SOL     OW29791   5.072   1.153   6.977 -0.1342  0.7131 -0.0837
 9631SOL    HW129792   5.004   1.215   6.938  0.4268  0.2644 -1.8512
 9631SOL    HW229793   5.031   1.064   6.994 -0.1767  0.6649 -0.4383
 9632SOL     OW29794   1.946   2.379   0.640  0.1472  0.2294 -0.7603
 9632SOL    HW129795   2.018   2.311   0.627 -0.1432  0.0582 -1.5289
 9632SOL    HW229796   1.953   2.417   0.732  0.0856 -1.1119 -0.1690
 9633SOL     OW29797   6.959   0.678   1.133  0.5589 -0.2861  0.3946
 9633SOL    HW129798   7.037   0.737   1.155  0.9172  0.4724 -2.5344
 9633SOL    HW229799   6.992   0.591   1.097  0.0008 -0.8724  1.2511
 9634SOL     OW29800   2.441   0.154   0.594 -0.2077 -0.3005  1.3756
 9634SOL    HW129801   2.373   0.226   0.604  0.0061 -0.2155  2.2903
 9634SOL    HW229802   2.520   0.189   0.544 -0.5667 -0.2219  0.8573
 9635SOL     OW29803   3.173   1.891   6.471  0.1354 -0.3559 -0.1776
 9635SOL    HW129804   3.186   1.860   6.377 -0.0096  1.4709 -0.8437
 9635SOL    HW229805   3.129   1.981   6.471  2.7849  1.0621  1.5448
 9636SOL     OW29806   2.944   0.333   4.445  0.1381 -0.1713  0.1913
 9636SOL    HW129807   3.041   0.325   4.424  0.2902  2.6570 -0.6981
 9636SOL    HW229808   2.892   0.346   4.360 -0.5284  1.6575  0.8130
 9637SOL     OW29809   0.801   5.485   2.916 -1.0195 -0.5452 -0.3009
 9637SOL    HW129810   0.780   5.411   2.852  0.8598  0.1037 -1.7723
 9637SOL    HW229811   0.819   5.569   2.866  0.6846 -0.0406  1.0309
 9638SOL     OW29812   6.237   4.782   0.827  0.0078 -0.1996 -0.5545
 9638SOL    HW129813   6.245   4.791   0.926 -0.5695  0.1991 -0.5361
 9638SOL    HW229814   6.310   4.724   0.792  2.4105  2.4670 -0.3481
 9639SOL     OW29815   4.526   5.209   0.444  0.3198 -0.0968  0.2398
 9639SOL    HW129816   4.499   5.165   0.530 -1.3131 -0.7727 -0.5830
 9639SOL    HW229817   4.448   5.261   0.408  0.9512  0.0906 -0.8839
 9640SOL     OW29818   1.204   4.792   3.661  0.2443 -0.2395 -0.3674
 9640SOL    HW129819   1.199   4.698   3.694  0.8174  0.2825  1.3655
 9640SOL    HW229820   1.143   4.804   3.583 -0.6708 -1.7695  0.0695
 9641SOL     OW29821   5.182   6.434   1.853  0.5454 -0.0721 -0.5001
 9641SOL    HW129822   5.214   6.349   1.894 -0.8595 -1.2784 -1.7892
 9641SOL    HW229823   5.236   6.454   1.771  0.0825 -0.3947 -0.8872
 9642SOL     OW29824   1.941   3.439   6.303 -0.2166  0.1779  0.1944
 9642SOL    HW129825   1.842   3.445   6.287 -0.2144 -0.9206 -0.3456
 9642SOL    HW229826   1.976   3.529   6.327 -1.8645  0.0522  3.6348
 9643SOL     OW29827   4.289   6.298   3.269  0.1692  0.4051  0.3069
 9643SOL    HW129828   4.256   6.375   3.324  0.0873  0.4961  0.1294
 9643SOL    HW229829   4.291   6.324   3.172 -0.2751  0.0349  0.1977
 9644SOL     OW29830   3.624   5.824   1.274 -0.1786 -0.3927 -0.0707
 9644SOL    HW129831   3.607   5.776   1.187  1.1848  0.3484 -0.7842
 9644SOL    HW229832   3.697   5.778   1.323 -1.1438 -0.9787  0.8549
 9645SOL     OW29833   6.520   2.813   3.237  0.0866  0.4246  0.6596
 9645SOL    HW129834   6.576   2.803   3.155 -1.7385 -0.5737 -0.5385
 9645SOL    HW229835   6.508   2.911   3.256 -1.3815  0.7997 -1.7289
 9646SOL     OW29836   4.414   1.363   1.786  0.0760 -0.3314 -0.1204
 9646SOL    HW129837   4.512   1.346   1.799 -0.1930 -2.0836 -0.1099
 9646SOL    HW229838   4.391   1.353   1.689 -0.4210 -2.1672  0.1334
 9647SOL     OW29839   2.255   5.721   1.183 -0.3824 -0.7931 -0.1396
 9647SOL    HW129840   2.327   5.750   1.121  0.1251 -2.1537 -0.2278
 9647SOL    HW229841   2.296   5.693   1.270 -1.0647  0.9322  0.7930
 9648SOL     OW29842   0.024   1.755   0.773  1.2343  0.0793  0.0016
 9648SOL    HW129843  -0.020   1.790   0.856 -0.3575 -0.5944 -0.5164
 9648SOL    HW229844  -0.030   1.678   0.738  1.2385  1.0618 -2.2955
 9649SOL     OW29845   0.754   5.128   0.755 -0.0252  0.0216 -0.1691
 9649SOL    HW129846   0.788   5.034   0.750 -0.2492 -0.0318 -0.8327
 9649SOL    HW229847   0.678   5.133   0.819  0.8554  0.0338  0.9110
 9650SOL     OW29848   1.087   1.530   2.818  0.0253  1.0323 -0.2954
 9650SOL    HW129849   1.030   1.470   2.762 -0.8639 -0.4558  2.0386
 9650SOL    HW229850   1.163   1.565   2.763 -0.3715 -0.8845 -2.2002
 9651SOL     OW29851   4.974   0.252   2.738 -0.4004  0.4142  0.7488
 9651SOL    HW129852   4.925   0.311   2.802 -0.7696 -0.3469  1.1818
 9651SOL    HW229853   5.025   0.308   2.673 -2.0404  1.2488  0.1279
 9652SOL     OW29854   0.686   4.225   6.889 -0.1223  0.1367 -0.0305
 9652SOL    HW129855   0.765   4.280   6.861  0.6632 -1.2235 -0.5773
 9652SOL    HW229856   0.613   4.235   6.821 -0.2137  0.9211  0.1655
 9653SOL     OW29857   4.336   5.197   4.235 -0.0661 -0.6655 -0.1371
 9653SOL    HW129858   4.257   5.147   4.272  0.2801 -0.7453  0.5079
 9653SOL    HW229859   4.414   5.185   4.296 -0.4467  2.1353  1.0501
 9654SOL     OW29860   2.427   4.092   5.617  0.1948 -0.3322  0.3390
 9654SOL    HW129861   2.450   3.996   5.630 -0.3488 -0.5861 -0.4891
 9654SOL    HW229862   2.451   4.120   5.524 -0.3430  0.1252  0.3322
 9655SOL     OW29863   3.546   4.946   4.602  0.5211  0.2407 -0.0822
 9655SOL    HW129864   3.504   5.036   4.595 -0.3185 -0.0601  0.8060
 9655SOL    HW229865   3.571   4.928   4.697  1.8670  0.0427 -0.4540
 9656SOL     OW29866   6.158   1.861   0.536  0.0935 -0.5076 -0.6105
 9656SOL    HW129867   6.081   1.813   0.578  0.1948  1.1706  1.6607
 9656SOL    HW229868   6.241   1.846   0.590  0.6475  0.3158 -1.1984
 9657SOL     OW29869   2.830   6.365   0.265  0.3317  0.1323  0.7450
 9657SOL    HW129870   2.739   6.399   0.288  0.0565  0.1967 -0.3428
 9657SOL    HW229871   2.882   6.347   0.348  0.8048  3.9661  1.4706
 9658SOL     OW29872   6.566   5.590   0.475  0.0049  0.2291  0.1453
 9658SOL    HW129873   6.548   5.630   0.564 -1.4199 -1.6121  0.7630
 9658SOL    HW229874   6.539   5.654   0.403 -0.7362  0.9687  1.0627
 9659SOL     OW29875   1.830   0.186   5.090 -0.1279 -0.3729  0.2350
 9659SOL    HW129876   1.794   0.279   5.100 -0.0959 -0.4001  0.6426
 9659SOL    HW229877   1.770   0.133   5.030 -0.0867 -0.0571 -0.0830
 9660SOL     OW29878   3.115   0.271   4.820  0.7505  0.2979 -0.2143
 9660SOL    HW129879   3.050   0.212   4.772 -1.0782  2.6637 -0.8599
 9660SOL    HW229880   3.205   0.262   4.779  0.1146 -0.6871 -1.4795
 9661SOL     OW29881   0.834   0.868   2.861  0.2885  0.4290 -0.4402
 9661SOL    HW129882   0.806   0.914   2.776  0.5211  0.5354 -0.4580
 9661SOL    HW229883   0.841   0.769   2.844  0.2202  0.4366 -0.5143
 9662SOL     OW29884   0.018   4.454   5.608  0.5045 -0.1554  0.0573
 9662SOL    HW129885   0.028   4.375   5.547  1.2042  1.0993 -1.5269
 9662SOL    HW229886   0.099   4.462   5.665 -0.0761 -1.2311  1.0918
 9663SOL     OW29887   4.344   1.822   2.971  0.2013 -0.3295 -0.0742
 9663SOL    HW129888   4.288   1.769   2.907  1.3474  0.6593 -1.9880
 9663SOL    HW229889   4.421   1.863   2.922  1.5892 -0.1363  2.1108
 9664SOL     OW29890   0.117   6.324   6.254  0.1180  0.5708 -0.0923
 9664SOL    HW129891   0.078   6.300   6.165 -0.8037  0.9093  0.2121
 9664SOL    HW229892   0.090   6.255   6.321  2.0211 -0.4974 -0.3515
 9665SOL     OW29893   6.815   1.793   0.085 -0.0827 -0.0471  0.5273
 9665SOL    HW129894   6.817   1.801  -0.015  0.4158 -0.9596  0.4609
 9665SOL    HW229895   6.804   1.884   0.125  0.6037  0.4244 -0.3351
 9666SOL     OW29896   4.430   1.693   3.178  0.0591 -0.2948  0.3743
 9666SOL    HW129897   4.396   1.732   3.092  1.1152 -0.8434 -0.3036
 9666SOL    HW229898   4.516   1.646   3.162 -0.5168 -1.7817  1.4323
 9667SOL     OW29899   6.532   6.758   0.597  0.2439  0.1946 -0.1576
 9667SOL    HW129900   6.543   6.846   0.644  1.5845  0.1336 -0.3100
 9667SOL    HW229901   6.618   6.734   0.552  0.2601 -1.7372  0.8279
 9668SOL     OW29902   0.203   0.665   1.540  0.0247 -0.2462  0.1412
 9668SOL    HW129903   0.110   0.698   1.554  0.2878  0.4631  0.2486
 9668SOL    HW229904   0.241   0.636   1.628 -0.7800 -2.4451 -0.1703
 9669SOL     OW29905   4.713   0.266   0.877 -0.0042 -0.0816  0.3594
 9669SOL    HW129906   4.690   0.336   0.810  2.9601 -0.0772 -0.8158
 9669SOL    HW229907   4.767   0.306   0.951  0.4870 -0.8527  0.4307
 9670SOL     OW29908   2.660   4.872   6.439  0.2424  0.2414 -0.0187
 9670SOL    HW129909   2.675   4.796   6.375 -0.0972  2.7770 -3.4439
 9670SOL    HW229910   2.564   4.874   6.466 -0.6949  1.3818 -2.9475
 9671SOL     OW29911   2.145   3.029   1.821 -0.1421  0.2451  0.0654
 9671SOL    HW129912   2.166   2.945   1.771 -0.0623 -0.3647  1.0896
 9671SOL    HW229913   2.184   3.108   1.773 -1.6154 -0.0976 -1.7972
 9672SOL     OW29914   2.899   2.549   0.208 -0.0725 -0.0684 -0.0170
 9672SOL    HW129915   2.902   2.478   0.279  1.9179  0.3694  0.3986
 9672SOL    HW229916   2.804   2.578   0.194 -0.6357 -0.8995  1.7324
 9673SOL     OW29917   3.956   3.673   1.463  0.2316  0.1002 -0.2455
 9673SOL    HW129918   3.905   3.758   1.456 -2.7902 -1.6518 -1.5538
 9673SOL    HW229919   3.949   3.637   1.556  0.6185  0.7384  0.0359
 9674SOL     OW29920   2.563   4.798   0.230 -0.1798  0.5163  0.1772
 9674SOL    HW129921   2.465   4.806   0.245 -0.2492  1.7396 -0.8208
 9674SOL    HW229922   2.612   4.827   0.312 -0.6356  0.2403  0.5513
 9675SOL     OW29923   2.635   2.386   5.963  0.1361  0.2352  0.2467
 9675SOL    HW129924   2.659   2.348   5.873 -1.0122  1.9438 -0.8465
 9675SOL    HW229925   2.581   2.319   6.014  1.1068 -0.9006 -0.1706
 9676SOL     OW29926   5.311   3.076   2.140  0.1141 -0.4301  0.2322
 9676SOL    HW129927   5.244   3.002   2.141  1.5113 -1.7907 -1.0266
 9676SOL    HW229928   5.277   3.151   2.082 -0.9569 -0.4173  0.8516
 9677SOL     OW29929   5.048   5.800   5.707  0.1313 -0.0776  0.5243
 9677SOL    HW129930   5.000   5.873   5.658  0.5005 -0.6773 -0.7531
 9677SOL    HW229931   5.147   5.817   5.702  0.3568 -1.6965 -1.5271
 9678SOL     OW29932   3.470   3.802   2.977 -0.0996  0.1096 -0.5000
 9678SOL    HW129933   3.417   3.749   2.910 -0.5160  0.6411 -0.5963
 9678SOL    HW229934   3.542   3.852   2.931 -1.3773  1.7573 -0.8178
 9679SOL     OW29935   2.689   0.757   3.289 -0.1243  0.3115  0.2985
 9679SOL    HW129936   2.776   0.727   3.326  0.6374  0.0260 -1.5905
 9679SOL    HW229937   2.640   0.678   3.251 -0.6326  0.6545  0.2274
 9680SOL     OW29938   6.692   3.280   4.567  0.0620 -0.8402  0.4505
 9680SOL    HW129939   6.769   3.227   4.532 -0.2795 -1.2220  0.2727
 9680SOL    HW229940   6.726   3.355   4.624  0.6284 -0.2674 -0.6110
 9681SOL     OW29941   3.321   3.392   2.577  0.0979 -0.2469  0.1112
 9681SOL    HW129942   3.314   3.459   2.503  0.9113  0.7243  0.8880
 9681SOL    HW229943   3.229   3.364   2.604 -0.2754  0.8050 -0.0146
 9682SOL     OW29944   6.589   2.995   4.228  0.1166 -0.4842 -0.1625
 9682SOL    HW129945   6.688   3.005   4.223  0.0140  0.6051 -0.1923
 9682SOL    HW229946   6.546   3.064   4.170 -0.6607 -1.0122 -0.2246
 9683SOL     OW29947   5.704   5.058   4.995  0.4513 -0.1864 -0.6048
 9683SOL    HW129948   5.733   5.134   4.936 -1.0176  0.8297 -0.0761
 9683SOL    HW229949   5.616   5.023   4.963  1.8798 -2.9041 -1.9098
 9684SOL     OW29950   0.262   5.405   1.382 -0.3520  0.0313 -0.1687
 9684SOL    HW129951   0.287   5.328   1.323  0.7208 -1.0218  1.5701
 9684SOL    HW229952   0.230   5.371   1.470 -0.1739  1.5640  0.5255
 9685SOL     OW29953   4.916   5.160   0.121  0.1440 -0.1093  0.5365
 9685SOL    HW129954   4.873   5.146   0.210 -0.6531  0.8000  0.3044
 9685SOL    HW229955   4.993   5.222   0.131 -0.7681  1.0761  0.3946
 9686SOL     OW29956   3.621   2.874   0.785  0.1964 -0.4092  0.6791
 9686SOL    HW129957   3.718   2.877   0.808  0.5028 -0.8280 -0.5198
 9686SOL    HW229958   3.589   2.966   0.760  0.6902 -0.5516 -0.5124
 9687SOL     OW29959   3.871   6.960   1.241  0.1604  0.1073  0.4538
 9687SOL    HW129960   3.802   7.018   1.284  0.6933  0.7816  0.4291
 9687SOL    HW229961   3.866   6.969   1.142 -0.0750 -0.2747  0.4279
 9688SOL     OW29962   4.568   3.405   6.932  0.3710  0.0420  0.4088
 9688SOL    HW129963   4.573   3.308   6.956 -1.5957 -0.3044 -0.3718
 9688SOL    HW229964   4.551   3.415   6.834  1.4874  1.2254  0.3062
 9689SOL     OW29965   1.286   5.960   1.849 -0.3072 -0.3177  0.1508
 9689SOL    HW129966   1.321   6.054   1.853  0.1549 -0.4658 -0.4567
 9689SOL    HW229967   1.213   5.954   1.781 -1.5080 -0.0242  1.3693
 9690SOL     OW29968   0.321   1.640   4.247 -0.5502  0.3008 -0.3140
 9690SOL    HW129969   0.246   1.673   4.305  1.8425  2.3046  1.9235
 9690SOL    HW229970   0.327   1.696   4.165 -0.5793  1.2044  0.2802
 9691SOL     OW29971   5.927   4.953   4.443  0.7989  0.1056 -0.1466
 9691SOL    HW129972   6.024   4.971   4.426  0.9095  0.7390  1.0199
 9691SOL    HW229973   5.904   4.859   4.418  2.3266 -0.8992  1.9720
 9692SOL     OW29974   2.913   5.617   4.659  0.2659 -0.0394  0.3420
 9692SOL    HW129975   2.950   5.549   4.722  0.3433  1.9132  2.5286
 9692SOL    HW229976   2.815   5.628   4.675  0.0016 -0.5135 -0.8775
 9693SOL     OW29977   2.956   0.645   4.417  0.3139 -0.5552 -0.0963
 9693SOL    HW129978   2.922   0.634   4.324  0.6462 -0.1897 -0.2650
 9693SOL    HW229979   2.992   0.558   4.451  2.5795 -0.1497 -1.2687
 9694SOL     OW29980   1.507   4.785   1.943 -0.2543  0.2350  0.0248
 9694SOL    HW129981   1.472   4.878   1.929  1.7635  0.9178 -0.8042
 9694SOL    HW229982   1.606   4.785   1.935 -0.1525 -1.9028  0.6968
 9695SOL     OW29983   6.204   4.098   0.056  0.5832  0.3018 -0.4355
 9695SOL    HW129984   6.195   4.086  -0.043  1.0173 -0.0928 -0.4311
 9695SOL    HW229985   6.154   4.026   0.104 -1.0156  1.4348 -0.3316
 9696SOL     OW29986   1.964   3.495   5.839  0.0285 -0.0325 -0.0332
 9696SOL    HW129987   1.914   3.508   5.753  0.9749 -0.8135 -0.7168
 9696SOL    HW229988   1.991   3.399   5.848  0.1621  0.0929  1.0266
 9697SOL     OW29989   5.416   1.623   2.331 -0.5386  0.3211 -0.1861
 9697SOL    HW129990   5.496   1.615   2.272 -0.1503 -0.1167  0.3816
 9697SOL    HW229991   5.415   1.713   2.373 -2.7390  2.0406 -3.5317
 9698SOL     OW29992   0.984   3.934   4.495  0.2764 -0.2272 -0.1214
 9698SOL    HW129993   0.972   3.891   4.584  1.3244 -0.4567 -0.0817
 9698SOL    HW229994   0.986   4.033   4.505 -0.3863 -0.2201  0.0024
 9699SOL     OW29995   5.351   5.030   2.685  0.2772 -0.2622 -0.4915
 9699SOL    HW129996   5.363   4.951   2.745  2.8370  0.3468 -0.0657
 9699SOL    HW229997   5.328   5.110   2.741  0.1661 -0.2029 -0.6221
 9700SOL     OW29998   6.799   0.104   0.649 -0.0820  0.3677 -0.0399
 9700SOL    HW129999   6.807   0.044   0.569 -0.8279  0.5952 -0.2889
 9700SOL    HW230000   6.752   0.188   0.623  1.4129  1.3040  0.1854
 9701SOL     OW30001   6.480   3.025   1.162 -0.2616  0.1172  0.1286
 9701SOL    HW130002   6.409   3.078   1.209 -1.5441 -0.9823 -0.4920
 9701SOL    HW230003   6.447   2.998   1.072  0.0577 -2.2435  0.6502
 9702SOL     OW30004   5.219   2.261   1.491 -0.0211 -0.6011  0.3443
 9702SOL    HW130005   5.307   2.252   1.536 -0.3066 -0.5466  0.9157
 9702SOL    HW230006   5.224   2.219   1.400  1.0324  0.7147 -0.2460
 9703SOL     OW30007   0.639   4.801   0.155  0.5512 -0.3362 -0.0618
 9703SOL    HW130008   0.610   4.742   0.230 -0.9091 -1.1001 -1.1735
 9703SOL    HW230009   0.739   4.798   0.146  0.4933 -3.4289 -0.6491
 9704SOL     OW30010   5.406   2.252   3.334  0.4062 -0.0263  0.1768
 9704SOL    HW130011   5.400   2.194   3.415  1.7063  1.4868  1.4326
 9704SOL    HW230012   5.441   2.342   3.361  1.5885  0.2806 -2.1822
 9705SOL     OW30013   4.957   6.036   5.015  0.6538  0.2197 -0.2368
 9705SOL    HW130014   4.969   5.999   5.107  0.0951  0.1596 -0.1892
 9705SOL    HW230015   4.862   6.061   5.000  1.0334  1.8054 -0.2078
 9706SOL     OW30016   0.727   3.095   4.232  0.4863  0.0509  0.1296
 9706SOL    HW130017   0.627   3.100   4.224  0.4615  2.4498  1.0720
 9706SOL    HW230018   0.768   3.089   4.141 -0.4899  0.2291 -0.3327
 9707SOL     OW30019   6.679   5.132   5.729  0.0429 -0.0854  0.0312
 9707SOL    HW130020   6.769   5.089   5.715 -1.1643 -2.1733 -2.1047
 9707SOL    HW230021   6.607   5.064   5.714 -1.9626  2.0438 -0.5930
 9708SOL     OW30022   2.680   4.143   6.087  0.0079  0.3946 -0.2076
 9708SOL    HW130023   2.729   4.129   6.172  1.1369  0.7017 -0.7862
 9708SOL    HW230024   2.746   4.151   6.012 -0.9680 -0.1904 -1.1588
 9709SOL     OW30025   0.655   2.609   3.965  0.6349  0.6551  0.0397
 9709SOL    HW130026   0.575   2.549   3.975  0.6231  0.5196 -0.7826
 9709SOL    HW230027   0.727   2.578   4.027  0.7005 -0.3422 -0.5078
 9710SOL     OW30028   5.745   1.764   4.952 -0.0611 -0.6114 -0.2333
 9710SOL    HW130029   5.654   1.768   4.910 -0.6200 -1.4031  0.8629
 9710SOL    HW230030   5.749   1.687   5.015  0.5051  0.9284  1.7122
 9711SOL     OW30031   4.448   1.033   4.915 -0.2279 -0.1857 -0.1098
 9711SOL    HW130032   4.485   1.082   4.837  1.3571 -1.2707 -0.0922
 9711SOL    HW230033   4.388   1.093   4.968 -1.9291  0.3515 -2.5170
 9712SOL     OW30034   1.263   5.395   5.714  0.2492 -0.1773  0.4671
 9712SOL    HW130035   1.357   5.431   5.715 -0.5066  1.9355  2.0174
 9712SOL    HW230036   1.263   5.303   5.754  1.5949 -0.0207  0.9061
 9713SOL     OW30037   1.041   4.071   2.652  0.0681 -0.7200 -0.5067
 9713SOL    HW130038   0.973   4.032   2.714  0.0324  1.8417  1.2337
 9713SOL    HW230039   1.119   4.009   2.644 -0.3717 -1.5676  1.3573
 9714SOL     OW30040   4.563   3.061   6.008 -0.1695 -0.7533 -0.2146
 9714SOL    HW130041   4.480   3.115   6.026 -1.3570 -1.6982 -2.3979
 9714SOL    HW230042   4.643   3.121   6.008 -1.1719  0.6357 -0.5719
 9715SOL     OW30043   5.100   5.415   1.202 -0.8924 -0.2233  0.0717
 9715SOL    HW130044   5.158   5.437   1.281 -0.2940 -0.6244 -0.2491
 9715SOL    HW230045   5.151   5.433   1.118 -0.5240 -2.4153 -0.2118
 9716SOL     OW30046   3.519   6.368   1.714 -0.4077  0.5809  0.1184
 9716SOL    HW130047   3.500   6.326   1.803  0.5580 -0.0127  0.0655
 9716SOL    HW230048   3.569   6.453   1.727 -0.6973  0.7490  0.1521
 9717SOL     OW30049   0.095   0.928   3.706 -0.4860 -0.1316 -0.3364
 9717SOL    HW130050   0.104   1.011   3.651 -0.5539 -0.1199 -0.3297
 9717SOL    HW230051   0.094   0.953   3.803  1.6870 -0.2983 -0.2152
 9718SOL     OW30052   1.781   1.333   3.956  0.1383  0.4629  0.0331
 9718SOL    HW130053   1.868   1.361   3.997 -0.2793  1.4491  0.2808
 9718SOL    HW230054   1.798   1.281   3.873  0.9588  1.1706 -0.2525
 9719SOL     OW30055   1.193   0.944   0.092 -0.2053 -0.0912 -0.1419
 9719SOL    HW130056   1.159   0.937   0.186 -1.7230  1.3390 -0.5401
 9719SOL    HW230057   1.121   0.982   0.033  0.3056 -2.0487 -2.1435
 9720SOL     OW30058   3.821   0.639   2.356  0.4542 -0.7920 -0.7765
 9720SOL    HW130059   3.920   0.623   2.352  0.8203  0.9702  0.0332
 9720SOL    HW230060   3.786   0.606   2.444  0.6912  0.2903 -0.2664
 9721SOL     OW30061   0.890   5.901   0.512  0.5705 -0.5117 -0.0327
 9721SOL    HW130062   0.939   5.956   0.580  0.4583 -1.7949  1.1273
 9721SOL    HW230063   0.793   5.898   0.536  0.3414 -0.1278 -0.8580
 9722SOL     OW30064   0.167   2.333   4.673 -0.6651 -0.4063  0.3011
 9722SOL    HW130065   0.070   2.355   4.673 -0.6672 -0.4023 -0.5149
 9722SOL    HW230066   0.211   2.376   4.595  0.2398  0.6285  1.3331
 9723SOL     OW30067   5.143   0.542   2.061  0.1294  0.0649  0.1760
 9723SOL    HW130068   5.055   0.503   2.033  0.8286 -3.0416  1.8126
 9723SOL    HW230069   5.145   0.640   2.038 -3.6488  0.2496 -0.0425
 9724SOL     OW30070   5.869   3.112   3.304  0.4598  0.2683  0.2671
 9724SOL    HW130071   5.782   3.158   3.289  0.6238  1.1072  1.6380
 9724SOL    HW230072   5.944   3.178   3.295  0.8770 -0.2396 -0.0137
 9725SOL     OW30073   6.034   0.738   0.830  0.2855  1.0786 -0.2712
 9725SOL    HW130074   6.083   0.655   0.857 -0.7257  0.3070 -0.7356
 9725SOL    HW230075   5.980   0.772   0.907  0.4622  1.1308 -0.1703
 9726SOL     OW30076   6.062   4.872   3.801 -0.3342 -0.7734 -0.3357
 9726SOL    HW130077   6.045   4.951   3.743 -0.5845 -0.7307 -0.2044
 9726SOL    HW230078   5.975   4.835   3.833 -0.3003 -1.8328 -1.3746
 9727SOL     OW30079   2.068   6.509   0.829 -0.0851  0.2512 -0.3304
 9727SOL    HW130080   2.012   6.521   0.912 -0.4702 -0.2532 -0.5121
 9727SOL    HW230081   2.009   6.484   0.753  0.4837 -1.1998 -0.3187
 9728SOL     OW30082   6.127   0.051   0.885  0.4275 -0.4160 -0.2778
 9728SOL    HW130083   6.183   0.063   0.804  0.6360 -1.7207 -0.3464
 9728SOL    HW230084   6.173   0.091   0.964 -0.5363  2.4078 -1.0249
 9729SOL     OW30085   6.519   1.588   1.413 -0.3774 -0.4826 -0.2265
 9729SOL    HW130086   6.566   1.659   1.361  0.0375  0.1942  1.0400
 9729SOL    HW230087   6.560   1.581   1.504  0.5366 -3.2845 -0.7422
 9730SOL     OW30088   0.349   4.649   2.884  0.1260  0.7646 -0.2907
 9730SOL    HW130089   0.396   4.736   2.904  0.1913  0.3876  1.3561
 9730SOL    HW230090   0.379   4.615   2.795  1.2911  1.6533 -0.2697
 9731SOL     OW30091   0.959   0.575   1.201 -0.0611 -0.6429 -0.0709
 9731SOL    HW130092   0.868   0.605   1.228  0.1829 -1.0626  1.2690
 9731SOL    HW230093   0.952   0.506   1.129 -0.7525 -0.0908 -0.5516
 9732SOL     OW30094   6.794   6.461   1.687 -0.6724 -0.2463 -0.3231
 9732SOL    HW130095   6.844   6.457   1.600 -1.8511 -1.0518 -0.9919
 9732SOL    HW230096   6.796   6.370   1.731  1.7089  0.6191  1.5841
 9733SOL     OW30097   2.503   6.774   4.330  0.0533 -0.8658  0.3683
 9733SOL    HW130098   2.590   6.763   4.378  2.5488  4.4609 -2.1375
 9733SOL    HW230099   2.514   6.744   4.235  0.1161  2.0509 -0.6218
 9734SOL     OW30100   6.682   0.990   5.870  0.2806  0.6434  0.5142
 9734SOL    HW130101   6.642   0.975   5.779  1.4876 -0.2183  0.0944
 9734SOL    HW230102   6.742   1.070   5.866  1.9598 -0.5663 -0.0611
 9735SOL     OW30103   1.668   3.236   4.635  0.6069 -0.1837  0.1387
 9735SOL    HW130104   1.572   3.211   4.650  0.4945  0.8282  1.2474
 9735SOL    HW230105   1.673   3.321   4.583  0.8755  0.2885  0.9215
 9736SOL     OW30106   3.635   2.223   5.718  0.4129  0.0344  0.1204
 9736SOL    HW130107   3.735   2.231   5.719  0.4830  2.0419 -3.8714
 9736SOL    HW230108   3.594   2.302   5.763  0.6457  0.1181  0.1857
 9737SOL     OW30109   0.558   0.068   2.534  0.2490 -0.0370  0.6403
 9737SOL    HW130110   0.515   0.050   2.446 -0.9659 -2.5954  1.6609
 9737SOL    HW230111   0.646   0.022   2.539  0.9028  1.1281  0.3689
 9738SOL     OW30112   5.072   6.538   4.111  0.0809  0.3226 -0.1920
 9738SOL    HW130113   5.023   6.623   4.091  0.9533  1.0897  0.8278
 9738SOL    HW230114   5.058   6.473   4.036 -2.1453  0.6510 -0.1364
 9739SOL     OW30115   2.511   3.303   0.861 -0.1776  0.2850 -0.0808
 9739SOL    HW130116   2.527   3.301   0.959 -0.1308  2.4768  0.0160
 9739SOL    HW230117   2.516   3.398   0.828  2.1658 -0.5956 -2.6104
 9740SOL     OW30118   3.411   6.606   0.097 -0.5411  0.1266  0.8608
 9740SOL    HW130119   3.338   6.543   0.125  1.1109 -1.5735  1.5732
 9740SOL    HW230120   3.410   6.615  -0.002 -2.3453  0.9732  0.9226
 9741SOL     OW30121   4.460   4.498   3.001 -0.5502 -0.1669  0.1343
 9741SOL    HW130122   4.467   4.501   3.100 -0.6749  1.2654  0.1128
 9741SOL    HW230123   4.373   4.538   2.972 -0.4876 -0.5179 -0.5584
 9742SOL     OW30124   0.856   6.537   4.406  0.3169  0.6466  0.1434
 9742SOL    HW130125   0.783   6.559   4.341 -0.2358  0.0210  0.5368
 9742SOL    HW230126   0.892   6.446   4.386 -0.2697  0.1945  1.0605
 9743SOL     OW30127   1.529   4.790   0.204 -0.1672  0.0724 -0.1612
 9743SOL    HW130128   1.542   4.692   0.221  1.5870  0.0006 -1.6674
 9743SOL    HW230129   1.556   4.812   0.111  0.5469  2.2008  0.4908
 9744SOL     OW30130   0.144   5.568   4.636 -0.0849  0.2097 -0.0102
 9744SOL    HW130131   0.201   5.623   4.696 -0.9964  1.4087 -0.2146
 9744SOL    HW230132   0.164   5.590   4.541 -1.1124  0.9172 -0.0822
 9745SOL     OW30133   5.704   6.190   6.362 -0.3670 -0.0521 -0.4116
 9745SOL    HW130134   5.676   6.110   6.309 -3.8145 -0.2186  1.3360
 9745SOL    HW230135   5.699   6.272   6.304  0.1769 -0.7103 -1.4140
 9746SOL     OW30136   1.776   5.561   2.163 -0.2651 -0.5949 -0.0182
 9746SOL    HW130137   1.686   5.558   2.119 -0.4436  0.8871  0.1840
 9746SOL    HW230138   1.825   5.643   2.133 -0.3618  0.4437  2.4116
 9747SOL     OW30139   7.004   1.420   4.010  0.4575 -0.3233  0.5280
 9747SOL    HW130140   6.988   1.514   3.979  0.6334  0.2135  2.0073
 9747SOL    HW230141   6.938   1.396   4.081  1.9073 -0.4531  1.8786
 9748SOL     OW30142   4.971   1.459   5.846  0.5607 -0.1766 -0.4092
 9748SOL    HW130143   4.875   1.444   5.822  1.0530 -1.4096 -1.8085
 9748SOL    HW230144   4.991   1.419   5.935  0.1478 -1.4984 -0.8882
 9749SOL     OW30145   3.788   1.893   6.699 -0.1042 -0.2081 -0.2482
 9749SOL    HW130146   3.719   1.943   6.753 -0.2956 -1.2619  0.5191
 9749SOL    HW230147   3.793   1.932   6.607 -1.0381  0.5065 -0.0138
 9750SOL     OW30148   3.248   5.276   3.740 -0.4859 -0.1587  0.5953
 9750SOL    HW130149   3.318   5.343   3.765  0.2531 -0.3128 -0.9131
 9750SOL    HW230150   3.275   5.231   3.655 -1.4395 -1.7041  1.0816
 9751SOL     OW30151   4.672   5.355   1.957 -0.0550 -0.2589  0.0529
 9751SOL    HW130152   4.613   5.392   2.029  1.2689  1.6021  0.2522
 9751SOL    HW230153   4.620   5.292   1.901 -2.4543  1.7439 -0.1524
 9752SOL     OW30154   3.768   2.030   6.431  0.0004  0.4092  0.9800
 9752SOL    HW130155   3.737   2.120   6.459  0.0116  0.3516  1.1825
 9752SOL    HW230156   3.690   1.970   6.414 -0.0593  0.9226 -0.7571
 9753SOL     OW30157   2.412   1.415   5.776 -0.0867 -0.1804  0.6126
 9753SOL    HW130158   2.384   1.331   5.822  1.4164 -0.2305  1.5070
 9753SOL    HW230159   2.358   1.427   5.693 -2.0704 -0.6890  1.7582
 9754SOL     OW30160   2.596   6.212   1.175  0.1567  0.2743  0.0574
 9754SOL    HW130161   2.659   6.283   1.205 -0.0589  0.5785 -0.2075
 9754SOL    HW230162   2.509   6.253   1.149 -0.0123 -0.0997  0.0249
 9755SOL     OW30163   1.583   0.653   5.693  0.1362  0.2835  0.1016
 9755SOL    HW130164   1.619   0.595   5.765 -0.1442  0.8661  0.7271
 9755SOL    HW230165   1.528   0.598   5.630 -0.2485 -0.1080  0.7634
 9756SOL     OW30166   5.439   1.720   3.438 -0.0156  0.2172  0.5024
 9756SOL    HW130167   5.486   1.703   3.525  0.4650 -1.3143 -0.0129
 9756SOL    HW230168   5.481   1.798   3.392 -0.4184  1.1862  1.7194
 9757SOL     OW30169   6.605   2.130   1.663 -0.1318 -0.1851 -0.2549
 9757SOL    HW130170   6.681   2.190   1.689  1.0145 -1.0777 -1.4142
 9757SOL    HW230171   6.542   2.181   1.605  0.7494 -0.0393 -1.1065
 9758SOL     OW30172   2.909   1.637   5.710 -0.5884  0.6200  0.2281
 9758SOL    HW130173   2.823   1.620   5.758 -0.5713 -0.3777 -0.0697
 9758SOL    HW230174   2.890   1.666   5.616 -0.6074  1.2731  0.4326
 9759SOL     OW30175   4.495   0.467   0.400  0.0748  0.0363 -0.7742
 9759SOL    HW130176   4.592   0.450   0.384  0.5606  2.1000 -0.3389
 9759SOL    HW230177   4.454   0.387   0.444  1.9558 -0.2676  0.5320
 9760SOL     OW30178   0.919   3.829   5.023 -0.1957 -0.0912  0.2962
 9760SOL    HW130179   1.017   3.841   5.040 -0.1593  0.6618 -0.3862
 9760SOL    HW230180   0.906   3.748   4.967  0.3668  1.5459 -2.3656
 9761SOL     OW30181   5.112   6.684   0.932  0.1305 -0.1930 -0.3338
 9761SOL    HW130182   5.024   6.636   0.934  0.4870 -0.8530  0.1681
 9761SOL    HW230183   5.157   6.667   0.845  0.2506 -0.7841 -0.1646
 9762SOL     OW30184   4.257   3.012   6.144  0.5897  0.6512  0.1779
 9762SOL    HW130185   4.283   3.106   6.120 -1.1608  1.0725 -0.1739
 9762SOL    HW230186   4.292   2.949   6.075  0.2262  1.2487 -0.5642
 9763SOL     OW30187   5.946   2.536   6.968 -0.2765  0.4639 -0.8683
 9763SOL    HW130188   5.869   2.471   6.969  0.3876 -0.5056  3.2943
 9763SOL    HW230189   5.917   2.623   7.007  1.0066 -0.6036  2.9176
 9764SOL     OW30190   5.502   1.682   4.821 -0.2686 -0.2303 -0.1615
 9764SOL    HW130191   5.426   1.616   4.817 -0.0706 -0.5156  0.5813
 9764SOL    HW230192   5.489   1.751   4.750 -2.2089  0.7593  1.0695
 9765SOL     OW30193   2.507   3.601   1.230  0.4370 -0.6556  0.3027
 9765SOL    HW130194   2.423   3.637   1.270  1.1685  0.4989  0.8321
 9765SOL    HW230195   2.487   3.565   1.138 -0.0575  2.7770 -1.0806
 9766SOL     OW30196   3.424   4.871   5.103 -0.2046 -0.0747  0.0014
 9766SOL    HW130197   3.326   4.883   5.120  0.2406  2.9173  0.9057
 9766SOL    HW230198   3.465   4.822   5.180 -0.8423 -0.6818 -0.0344
 9767SOL     OW30199   1.051   4.905   1.812  0.1288 -0.2050 -0.2484
 9767SOL    HW130200   1.060   4.816   1.768 -1.5598  0.2767 -1.6992
 9767SOL    HW230201   1.123   4.966   1.778 -1.2247  0.2078 -2.6687
 9768SOL     OW30202   3.406   4.350   0.270 -0.2801  0.5464 -0.0339
 9768SOL    HW130203   3.345   4.418   0.311 -1.0690 -1.0393  1.5555
 9768SOL    HW230204   3.352   4.276   0.230  0.5719  0.0499 -0.2987
 9769SOL     OW30205   0.227   1.237   5.358  0.0414 -0.3701 -0.5763
 9769SOL    HW130206   0.283   1.294   5.298 -0.5684  0.9470  0.0661
 9769SOL    HW230207   0.275   1.222   5.445 -0.6230  0.8859  0.0335
 9770SOL     OW30208   4.125   0.763   3.256 -0.3007 -0.4606 -0.0831
 9770SOL    HW130209   4.057   0.832   3.229 -0.3901 -0.2814  0.5914
 9770SOL    HW230210   4.112   0.739   3.352 -0.4372 -1.6261 -0.3819
 9771SOL     OW30211   1.493   2.514   2.555 -0.1214 -0.0472  0.2602
 9771SOL    HW130212   1.442   2.428   2.558  0.0565 -0.2223 -1.0640
 9771SOL    HW230213   1.550   2.523   2.637 -1.1456 -0.5464  1.0436
 9772SOL     OW30214   4.637   1.373   0.106 -0.3351  0.0799 -0.4040
 9772SOL    HW130215   4.686   1.353   0.021  0.0494 -3.1808  0.4480
 9772SOL    HW230216   4.605   1.467   0.105  1.6426  0.8320 -3.1425
 9773SOL     OW30217   5.905   3.029   1.500 -0.0052  0.1035 -0.8740
 9773SOL    HW130218   5.836   2.978   1.551  0.1767  1.2177  0.5635
 9773SOL    HW230219   5.970   2.965   1.459  0.0702 -0.8655  0.6554
 9774SOL     OW30220   6.559   3.711   4.691 -0.3941 -0.1146 -0.7165
 9774SOL    HW130221   6.522   3.804   4.688  1.8376  0.8600 -0.3185
 9774SOL    HW230222   6.594   3.685   4.601 -0.1718 -0.1845 -0.6133
 9775SOL     OW30223   4.231   1.564   0.814 -0.3579 -0.2982 -0.3445
 9775SOL    HW130224   4.292   1.529   0.885 -1.3422 -1.5526 -0.0830
 9775SOL    HW230225   4.217   1.493   0.745 -0.6349  0.3758 -0.9923
 9776SOL     OW30226   5.830   1.816   5.265 -0.1182 -0.2988  0.6427
 9776SOL    HW130227   5.785   1.738   5.221  2.2297 -1.6246  0.4781
 9776SOL    HW230228   5.921   1.790   5.295  0.6505  2.3425  0.8333
 9777SOL     OW30229   3.110   1.990   6.156 -0.1463  0.0057  0.4951
 9777SOL    HW130230   3.207   1.965   6.152 -0.3594 -0.6658 -0.6528
 9777SOL    HW230231   3.101   2.079   6.201  1.0955  0.5800 -0.3585
 9778SOL     OW30232   6.074   4.191   6.591 -0.4602  0.8167  0.3944
 9778SOL    HW130233   5.977   4.169   6.603 -0.7214  1.7277  0.0333
 9778SOL    HW230234   6.088   4.231   6.500  0.3072  0.4154  0.3277
 9779SOL     OW30235   3.139   4.826   5.127 -0.5312 -0.0453  0.6645
 9779SOL    HW130236   3.057   4.820   5.183 -1.6001  2.0345 -0.5846
 9779SOL    HW230237   3.114   4.825   5.031  1.0956 -1.2970  0.2050
 9780SOL     OW30238   6.445   5.983   4.822 -0.4785 -0.0936 -0.2813
 9780SOL    HW130239   6.396   5.964   4.737 -0.5959  2.1840 -0.8011
 9780SOL    HW230240   6.541   5.956   4.813 -0.1467  1.4090 -1.7167
 9781SOL     OW30241   2.915   4.127   1.665  0.5272 -0.1101 -0.1344
 9781SOL    HW130242   2.855   4.052   1.690 -0.0114  0.8785  1.7046
 9781SOL    HW230243   3.010   4.095   1.663  0.3067 -0.8344  0.6305
 9782SOL     OW30244   1.766   2.810   6.508  0.1386  0.1295  0.2301
 9782SOL    HW130245   1.739   2.764   6.593 -1.8215  1.1529  0.2213
 9782SOL    HW230246   1.687   2.814   6.446  1.2914  0.1945 -1.2946
 9783SOL     OW30247   5.880   5.441   2.598  0.0931  0.4379 -0.1889
 9783SOL    HW130248   5.800   5.420   2.542  0.5129  0.8978 -0.9701
 9783SOL    HW230249   5.928   5.357   2.621  1.3343  0.4066 -2.6523
 9784SOL     OW30250   5.632   4.539   2.119 -0.1093 -0.1303  0.3393
 9784SOL    HW130251   5.628   4.559   2.021 -0.1120  0.8955  0.5389
 9784SOL    HW230252   5.628   4.624   2.171  1.4923 -0.5199  1.1869
 9785SOL     OW30253   3.781   4.946   4.790  0.4069 -0.1724  0.1099
 9785SOL    HW130254   3.691   4.966   4.831  0.2226 -1.1074  0.2008
 9785SOL    HW230255   3.848   4.932   4.863  0.8223  1.3049  0.0334
 9786SOL     OW30256   0.735   0.111   1.152  0.3723  0.0856 -0.3915
 9786SOL    HW130257   0.785   0.067   1.227  0.6344  1.1592  0.0965
 9786SOL    HW230258   0.693   0.195   1.185  2.5965  1.9725 -1.9576
 9787SOL     OW30259   0.096   2.077   5.431 -0.0207 -0.8060  0.2496
 9787SOL    HW130260   0.094   1.990   5.480 -0.6718 -0.9430 -0.0001
 9787SOL    HW230261   0.021   2.080   5.365  1.2803 -0.9468 -1.3032
 9788SOL     OW30262   4.364   6.187   3.007  0.6587  0.3078  0.4514
 9788SOL    HW130263   4.438   6.197   3.074  1.1484  0.0390 -0.0522
 9788SOL    HW230264   4.335   6.278   2.977  1.5001  0.3994 -0.1274
 9789SOL     OW30265   6.334   4.937   4.588 -0.0309 -0.0508  0.1464
 9789SOL    HW130266   6.291   4.887   4.513  0.1016  0.0795 -0.0170
 9789SOL    HW230267   6.278   4.928   4.671 -0.2068 -0.1464  0.0175
 9790SOL     OW30268   6.359   1.762   5.396  0.1345 -0.1112 -0.6495
 9790SOL    HW130269   6.412   1.839   5.362  0.1560  1.3750  2.3691
 9790SOL    HW230270   6.284   1.796   5.454 -0.3993 -2.3234  0.0722
 9791SOL     OW30271   1.746   1.485   2.646  0.4333  0.1873  0.4582
 9791SOL    HW130272   1.754   1.549   2.722  0.2542 -0.6662  1.2204
 9791SOL    HW230273   1.831   1.485   2.592 -0.3896  2.7921 -1.0153
 9792SOL     OW30274   3.906   2.161   2.110  0.0938 -0.0078  0.2417
 9792SOL    HW130275   3.839   2.215   2.059  0.4016  0.9927  0.8661
 9792SOL    HW230276   3.880   2.158   2.207  0.8193  0.1952  0.4519
 9793SOL     OW30277   2.856   1.449   0.785  0.1147 -0.0245 -0.2979
 9793SOL    HW130278   2.828   1.503   0.864  0.4537 -0.8915  0.4446
 9793SOL    HW230279   2.782   1.446   0.718 -1.2041 -1.3636  1.1303
 9794SOL     OW30280   2.793   5.712   1.913  0.1669  0.0527 -0.0432
 9794SOL    HW130281   2.866   5.767   1.871  1.0317 -0.8618  0.2237
 9794SOL    HW230282   2.812   5.701   2.010 -0.3128 -0.2383  0.0191
 9795SOL     OW30283   0.741   0.011   4.213 -0.0840 -0.4940  0.2079
 9795SOL    HW130284   0.656   0.063   4.221  0.6938  0.9077 -0.2346
 9795SOL    HW230285   0.783   0.029   4.124  1.0184 -0.5964  0.6843
 9796SOL     OW30286   5.338   4.880   5.180  0.5188  0.0659 -0.1311
 9796SOL    HW130287   5.358   4.943   5.256  0.3403 -0.8327  0.6741
 9796SOL    HW230288   5.250   4.837   5.194  0.8671 -0.7575 -0.4092
 9797SOL     OW30289   1.963   1.442   0.183  0.3874  0.2645 -0.1294
 9797SOL    HW130290   1.935   1.361   0.131  0.0750 -0.1050  0.6031
 9797SOL    HW230291   2.053   1.425   0.223 -0.4157 -0.4230  1.4666
 9798SOL     OW30292   0.084   6.903   2.113 -0.1652 -0.0952  0.3069
 9798SOL    HW130293   0.021   6.946   2.048  0.2953 -1.7481 -1.3270
 9798SOL    HW230294   0.164   6.962   2.126  1.6176 -1.2314 -3.7697
 9799SOL     OW30295   0.831   2.787   3.542 -0.0573 -0.1809 -0.0863
 9799SOL    HW130296   0.893   2.851   3.496  1.1829 -0.6259  0.9120
 9799SOL    HW230297   0.823   2.704   3.488 -0.5243  0.2354 -0.6713
 9800SOL     OW30298   3.916   4.805   1.820  0.0475 -0.0282  0.6529
 9800SOL    HW130299   3.978   4.729   1.805 -0.5581 -0.7143  1.5325
 9800SOL    HW230300   3.917   4.830   1.916  0.8248  1.6111  0.2587
 9801SOL     OW30301   0.505   3.568   3.919 -0.8155  0.2979 -0.0778
 9801SOL    HW130302   0.602   3.583   3.942 -1.0465  2.0207 -0.0589
 9801SOL    HW230303   0.495   3.562   3.820 -0.3161 -3.3074 -0.0585
 9802SOL     OW30304   5.883   0.838   1.616  0.2217 -0.4824 -0.1473
 9802SOL    HW130305   5.816   0.832   1.690 -0.3928  0.4875 -0.6065
 9802SOL    HW230306   5.849   0.899   1.544  3.1255  3.2490  1.2976
 9803SOL     OW30307   1.030   3.463   4.998  0.6916  0.0077 -0.1060
 9803SOL    HW130308   1.112   3.505   4.959  0.6182 -1.8599 -2.4418
 9803SOL    HW230309   0.951   3.483   4.939  0.0134 -0.5781  0.5878
 9804SOL     OW30310   6.959   5.896   6.049 -0.6810 -0.7087 -0.2168
 9804SOL    HW130311   6.989   5.813   6.095  0.6524  0.0941  0.4362
 9804SOL    HW230312   7.037   5.958   6.038 -1.7584  0.7128 -0.1287
 9805SOL     OW30313   2.827   3.122   6.305  0.6448 -0.0863 -0.0679
 9805SOL    HW130314   2.829   3.022   6.304  3.3224 -0.1791  2.3307
 9805SOL    HW230315   2.894   3.158   6.240  1.0348  0.1022  0.4386
 9806SOL     OW30316   3.230   1.155   1.716 -0.3075  0.0953  0.0750
 9806SOL    HW130317   3.207   1.150   1.619  0.4726 -0.7679 -0.0821
 9806SOL    HW230318   3.324   1.123   1.730 -0.4719  0.0329  1.1328
 9807SOL     OW30319   4.933   6.722   2.846  0.3093 -0.3309 -0.0189
 9807SOL    HW130320   4.957   6.776   2.765  3.6582 -1.3119  0.1757
 9807SOL    HW230321   4.961   6.627   2.832 -1.0018 -0.9860  1.5125
 9808SOL     OW30322   3.063   6.690   1.147 -0.3691 -0.4773  0.2941
 9808SOL    HW130323   3.055   6.782   1.108 -0.7376  0.2192  1.9245
 9808SOL    HW230324   3.101   6.696   1.239  1.4042 -2.1606 -0.2712
 9809SOL     OW30325   0.948   0.064   5.478  0.8921 -0.4572  0.2867
 9809SOL    HW130326   0.939   0.060   5.578  1.6004 -1.1898  0.3325
 9809SOL    HW230327   0.881   0.002   5.436  0.3419  0.1315  0.2868
 9810SOL     OW30328   5.446   3.027   6.185  0.0363 -0.4655  0.5194
 9810SOL    HW130329   5.536   3.005   6.222 -0.0235 -0.2770  0.7817
 9810SOL    HW230330   5.401   2.943   6.154 -0.0604 -0.6809  1.2184
 9811SOL     OW30331   1.439   0.424   5.621  0.4984 -0.2275  0.0894
 9811SOL    HW130332   1.413   0.336   5.660  4.6364 -1.7165 -0.0310
 9811SOL    HW230333   1.454   0.414   5.523 -3.1987  1.8367 -0.8535
 9812SOL     OW30334   1.365   0.749   7.009  0.5156  0.7766 -1.0420
 9812SOL    HW130335   1.329   0.813   7.077  1.1112 -0.1667  0.2003
 9812SOL    HW230336   1.317   0.762   6.922 -0.4615  1.8200 -0.3754
 9813SOL     OW30337   0.512   4.349   3.260  0.4308  0.5533  0.3137
 9813SOL    HW130338   0.444   4.290   3.305 -1.2503  0.8133 -1.7204
 9813SOL    HW230339   0.508   4.440   3.300  0.0966  0.3683  0.7173
 9814SOL     OW30340   1.302   0.315   3.088 -0.5275 -0.1313 -0.0146
 9814SOL    HW130341   1.203   0.324   3.095 -0.6981 -1.4169 -0.6476
 9814SOL    HW230342   1.339   0.284   3.175 -1.0908 -2.8864 -0.6898
 9815SOL     OW30343   0.473   6.803   3.679  0.7369 -0.2504  0.2776
 9815SOL    HW130344   0.570   6.824   3.671  1.0421  0.2203  3.5586
 9815SOL    HW230345   0.421   6.888   3.690  0.1543 -0.5677  0.0507
 9816SOL     OW30346   0.564   5.146   6.337  0.4631 -0.1342  0.0588
 9816SOL    HW130347   0.590   5.075   6.271  0.6303 -0.2879  0.2883
 9816SOL    HW230348   0.488   5.198   6.301  1.3184  0.5620 -0.7952
 9817SOL     OW30349   6.504   5.319   6.388  0.0679 -0.1856  0.2202
 9817SOL    HW130350   6.566   5.294   6.313 -0.1912 -1.9391  0.5613
 9817SOL    HW230351   6.420   5.267   6.379 -0.2111  0.0580  1.3955
 9818SOL     OW30352   6.932   4.947   4.860  0.1644  0.0739 -0.2530
 9818SOL    HW130353   6.878   4.872   4.822  2.1056 -0.6850 -1.7042
 9818SOL    HW230354   6.924   5.027   4.801  0.2072  0.1238 -0.1911
 9819SOL     OW30355   4.334   2.315   1.193  0.2296 -0.5105 -0.0356
 9819SOL    HW130356   4.368   2.226   1.162 -0.0782 -0.5402 -0.2945
 9819SOL    HW230357   4.269   2.351   1.125  0.6669  0.1009 -0.1340
 9820SOL     OW30358   2.627   0.159   1.040  0.2478  0.0868  0.2320
 9820SOL    HW130359   2.636   0.059   1.041 -0.4739  0.0084 -0.6707
 9820SOL    HW230360   2.609   0.191   1.133 -1.8549 -0.8587  0.2027
 9821SOL     OW30361   2.030   2.410   0.900  0.2418 -0.3055  0.3379
 9821SOL    HW130362   1.941   2.437   0.937 -1.1234 -3.8103  0.0056
 9821SOL    HW230363   2.083   2.365   0.972  1.2602  0.6343  0.1973
 9822SOL     OW30364   1.411   6.050   5.021 -0.2809 -0.0802  0.9390
 9822SOL    HW130365   1.505   6.081   5.028 -0.1101 -0.1751 -0.5477
 9822SOL    HW230366   1.382   6.052   4.925 -1.8665  0.1767  1.3832
 9823SOL     OW30367   6.914   1.162   4.964 -0.0236  0.1959  0.2256
 9823SOL    HW130368   6.907   1.079   5.020  0.3175 -0.5720 -0.8499
 9823SOL    HW230369   6.927   1.137   4.869 -2.7300  1.4375 -0.5784
 9824SOL     OW30370   3.799   4.078   6.833  0.2470  0.3179  0.6039
 9824SOL    HW130371   3.790   3.980   6.851 -2.6825  0.9658  3.8778
 9824SOL    HW230372   3.884   4.111   6.874  1.1808 -0.7595 -0.3883
 9825SOL     OW30373   1.274   3.336   6.652 -0.1159 -0.2683  0.5689
 9825SOL    HW130374   1.364   3.302   6.677 -1.5779 -4.6315  0.7624
 9825SOL    HW230375   1.242   3.288   6.570 -1.9166  1.8610 -0.0656
 9826SOL     OW30376   6.002   1.251   2.949  0.2149 -0.3207 -0.1633
 9826SOL    HW130377   5.906   1.278   2.951  0.2312 -0.0340 -1.5813
 9826SOL    HW230378   6.012   1.167   2.895  0.6363 -1.0055  0.9468
 9827SOL     OW30379   3.298   6.807   2.187 -0.5746 -0.1602 -0.1714
 9827SOL    HW130380   3.339   6.894   2.159 -1.0899 -0.4628 -1.9790
 9827SOL    HW230381   3.285   6.807   2.286  1.8397  0.7699  0.2274
 9828SOL     OW30382   6.494   5.944   6.581 -0.4467 -0.8453 -0.0141
 9828SOL    HW130383   6.469   5.927   6.677  1.4435 -0.9661  0.4948
 9828SOL    HW230384   6.429   6.008   6.541  0.0305  1.0766  2.0686
 9829SOL     OW30385   4.921   1.037   6.524 -0.4042 -0.3534 -0.3290
 9829SOL    HW130386   4.880   0.946   6.521 -1.5121  0.0663  1.0704
 9829SOL    HW230387   5.011   1.032   6.568  0.3274 -0.9991 -1.8108
 9830SOL     OW30388   2.632   5.761   4.319 -0.6690  0.0141  0.1201
 9830SOL    HW130389   2.646   5.834   4.253 -1.6831  0.4826  0.3941
 9830SOL    HW230390   2.574   5.690   4.279 -3.5477  1.5407  1.2699
 9831SOL     OW30391   5.811   1.611   6.495  0.0793 -0.9366 -0.4948
 9831SOL    HW130392   5.831   1.535   6.558  1.5775  0.0141  0.2410
 9831SOL    HW230393   5.713   1.619   6.483 -0.1248 -3.2527 -0.9251
 9832SOL     OW30394   4.345   1.891   6.740  0.2147  0.2825  0.2861
 9832SOL    HW130395   4.289   1.813   6.712  1.9192 -0.6215 -0.7702
 9832SOL    HW230396   4.325   1.915   6.835 -0.0109 -1.7715  0.7960
 9833SOL     OW30397   1.401   1.066   0.473  0.1764 -0.0959 -0.3774
 9833SOL    HW130398   1.396   1.164   0.490  0.1117 -0.2876  0.7836
 9833SOL    HW230399   1.457   1.023   0.544  2.1103 -0.6128 -2.0939
 9834SOL     OW30400   5.930   1.573   1.867  0.8812  0.0904  0.3977
 9834SOL    HW130401   5.915   1.532   1.777 -1.4488  0.1298  0.7001
 9834SOL    HW230402   6.001   1.523   1.916  0.4565 -1.4825 -0.5305
 9835SOL     OW30403   0.728   3.038   2.528 -0.3138 -0.8258  0.5721
 9835SOL    HW130404   0.689   3.130   2.520 -2.9963 -1.9824 -0.9108
 9835SOL    HW230405   0.716   3.005   2.621  2.6124  1.0277  1.7287
 9836SOL     OW30406   3.319   5.979   4.797  0.1432  0.8802 -0.2658
 9836SOL    HW130407   3.344   5.983   4.894  0.3941 -1.2701 -0.1966
 9836SOL    HW230408   3.370   5.906   4.753 -2.2548 -0.2633 -1.3072
 9837SOL     OW30409   1.959   2.037   0.064 -0.2823  0.7288 -0.7015
 9837SOL    HW130410   1.897   1.959   0.077 -0.9966  1.1582 -1.4485
 9837SOL    HW230411   2.034   2.031   0.130 -1.7803  0.8731  1.1041
 9838SOL     OW30412   4.822   4.427   5.158 -0.3079  0.2089 -0.2281
 9838SOL    HW130413   4.727   4.423   5.190 -0.6149 -1.4870 -1.2160
 9838SOL    HW230414   4.866   4.509   5.194 -1.8878  0.5831  0.9585
 9839SOL     OW30415   0.411   1.900   2.218  0.5953  0.2876  0.9212
 9839SOL    HW130416   0.416   1.980   2.158 -0.5016  1.8846  2.8508
 9839SOL    HW230417   0.329   1.847   2.196  1.1294 -0.1555 -0.1109
 9840SOL     OW30418   2.046   5.056   6.483  0.9184 -0.4304 -0.1369
 9840SOL    HW130419   2.002   5.136   6.521  0.1229 -0.0804 -1.7119
 9840SOL    HW230420   2.089   5.003   6.556 -1.2305 -0.2472  1.3510
 9841SOL     OW30421   2.890   2.070   5.850  0.5650 -0.0537  0.4389
 9841SOL    HW130422   2.926   1.980   5.874 -2.0493 -0.6352  2.6575
 9841SOL    HW230423   2.963   2.138   5.859  2.1074 -1.6463  0.6247
 9842SOL     OW30424   4.313   3.123   5.308  0.1034 -0.2072 -0.1231
 9842SOL    HW130425   4.400   3.130   5.358 -0.4145  2.2417  0.5526
 9842SOL    HW230426   4.308   3.033   5.264  2.0831 -1.1744  1.4294
 9843SOL     OW30427   2.832   1.692   4.967  0.7095 -0.1772 -0.0108
 9843SOL    HW130428   2.878   1.724   4.884 -1.2059  0.3729 -0.8996
 9843SOL    HW230429   2.775   1.764   5.005 -1.7216 -1.6442 -0.6301
 9844SOL     OW30430   1.960   1.764   6.859  0.0660  0.1812 -0.8435
 9844SOL    HW130431   1.869   1.745   6.899  1.2551 -1.1357  1.4955
 9844SOL    HW230432   1.972   1.862   6.848 -0.0324  0.8343  3.2806
 9845SOL     OW30433   4.493   5.318   6.570  0.2594  0.0981  0.1965
 9845SOL    HW130434   4.414   5.268   6.535 -0.1682  0.4233  0.6774
 9845SOL    HW230435   4.473   5.416   6.569  0.7066  0.1906  0.2033
 9846SOL     OW30436   3.827   4.982   4.524  0.4450 -0.1151  0.0834
 9846SOL    HW130437   3.840   4.957   4.620 -0.9781  0.5977  0.4973
 9846SOL    HW230438   3.729   4.981   4.502  0.5553  1.8837 -0.7258
 9847SOL     OW30439   4.322   6.408   3.762 -0.3546 -0.3037 -0.2287
 9847SOL    HW130440   4.422   6.406   3.766 -0.3599  0.1539  0.2174
 9847SOL    HW230441   4.286   6.316   3.781 -0.0363 -0.3697  0.0520
 9848SOL     OW30442   1.375   3.634   0.754 -0.0862 -0.1490  0.0155
 9848SOL    HW130443   1.378   3.681   0.666 -0.8167  1.9590  1.0384
 9848SOL    HW230444   1.442   3.675   0.816 -1.7622  0.6021  1.4153
 9849SOL     OW30445   3.734   4.083   3.164  0.2485  0.1018 -0.1460
 9849SOL    HW130446   3.652   4.121   3.207  1.0833  2.4213 -0.4261
 9849SOL    HW230447   3.719   4.074   3.065 -0.4757 -1.8881  0.1054
 9850SOL     OW30448   5.248   3.737   3.049 -0.1919  0.3542  0.3402
 9850SOL    HW130449   5.149   3.743   3.040 -0.1529  0.3520 -0.1312
 9850SOL    HW230450   5.275   3.641   3.054 -0.0679  0.2444 -1.5131
 9851SOL     OW30451   2.287   3.623   1.405  0.2675 -0.3990 -0.5120
 9851SOL    HW130452   2.263   3.529   1.384  1.8573 -0.6316 -1.4321
 9851SOL    HW230453   2.311   3.630   1.502 -1.2775 -0.5992 -0.0913
 9852SOL     OW30454   6.991   6.217   3.225 -0.2527  0.5978  0.1661
 9852SOL    HW130455   6.992   6.193   3.322 -1.2408  1.6016  0.4595
 9852SOL    HW230456   7.062   6.285   3.207 -0.6382  1.0787  0.4027
 9853SOL     OW30457   1.329   6.907   3.768  0.1893 -0.1844  1.2140
 9853SOL    HW130458   1.347   6.948   3.678 -1.0183  1.1763  1.5478
 9853SOL    HW230459   1.398   6.837   3.787 -0.2085 -1.3888 -1.2860
 9854SOL     OW30460   6.180   2.398   2.746  0.3984  0.2575  0.5332
 9854SOL    HW130461   6.130   2.314   2.767  0.7593 -0.1161 -0.0562
 9854SOL    HW230462   6.224   2.389   2.657  0.7596  0.9277  0.6353
 9855SOL     OW30463   2.764   3.184   5.236  0.4607  0.0414  0.2384
 9855SOL    HW130464   2.670   3.162   5.211 -0.1455  1.4586  1.1280
 9855SOL    HW230465   2.782   3.153   5.329  0.8576 -0.1537  0.1008
 9856SOL     OW30466   3.028   1.323   5.522  0.3815 -0.1787  0.0358
 9856SOL    HW130467   3.076   1.245   5.481 -0.9109 -2.5255  2.5965
 9856SOL    HW230468   2.932   1.299   5.537 -0.3276  2.3498 -0.0108
 9857SOL     OW30469   6.722   6.220   6.072  0.6553  0.1589 -0.2917
 9857SOL    HW130470   6.623   6.230   6.083  0.5340 -0.9678 -0.2461
 9857SOL    HW230471   6.757   6.157   6.141  1.8192  2.4068  1.3015
 9858SOL     OW30472   2.514   0.640   0.276  0.3811  0.0599  0.3909
 9858SOL    HW130473   2.508   0.739   0.259  0.5751 -0.1093 -0.6943
 9858SOL    HW230474   2.459   0.591   0.209 -0.5167 -0.5374  1.5180
 9859SOL     OW30475   3.550   2.650   5.651  0.2103 -0.6663 -0.4084
 9859SOL    HW130476   3.548   2.750   5.663 -0.7607 -0.8046  0.7420
 9859SOL    HW230477   3.566   2.629   5.555 -1.9064  0.6284 -1.1030
 9860SOL     OW30478   0.069   2.950   6.941  0.2836  0.1126 -0.6206
 9860SOL    HW130479  -0.023   2.922   6.969 -0.7825  0.7315 -3.2311
 9860SOL    HW230480   0.134   2.924   7.012 -1.8920 -0.1860  1.4135
 9861SOL     OW30481   2.845   6.523   5.039 -0.4633 -0.3538 -0.2487
 9861SOL    HW130482   2.779   6.597   5.020 -1.6401 -0.4625  2.8251
 9861SOL    HW230483   2.804   6.435   5.014 -1.0402 -0.3296  0.5881
 9862SOL     OW30484   3.453   2.836   0.058  0.4278 -0.0608 -0.3745
 9862SOL    HW130485   3.552   2.841   0.062  0.4674 -1.4437  2.2204
 9862SOL    HW230486   3.424   2.741   0.047 -0.6100  0.1205  0.5844
 9863SOL     OW30487   3.923   5.135   1.117  0.5896 -0.0740  0.0700
 9863SOL    HW130488   3.887   5.087   1.037  1.1584  0.2542 -0.3926
 9863SOL    HW230489   3.920   5.074   1.197 -1.3152  0.0620  0.1471
 9864SOL     OW30490   2.018   6.324   3.440 -0.5440 -0.0106 -0.2299
 9864SOL    HW130491   1.985   6.349   3.531  0.4148  0.4822 -0.0100
 9864SOL    HW230492   1.948   6.345   3.372 -1.6871 -1.3162  0.4788
 9865SOL     OW30493   2.706   6.009   6.177  0.0827 -0.5104  0.0840
 9865SOL    HW130494   2.771   6.035   6.106  0.7447  2.2535  1.5502
 9865SOL    HW230495   2.632   6.076   6.181 -0.6777 -1.3759  1.1163
 9866SOL     OW30496   3.870   5.932   6.574 -0.5112  0.2057 -0.1874
 9866SOL    HW130497   3.824   6.006   6.622 -0.9603  0.0305 -0.3339
 9866SOL    HW230498   3.898   5.963   6.483 -1.1580  0.0579 -0.4479
 9867SOL     OW30499   6.638   6.075   0.931  0.2535  0.2514 -0.0433
 9867SOL    HW130500   6.691   6.032   0.858  0.8786  0.1173  0.4723
 9867SOL    HW230501   6.587   6.153   0.894 -0.4406 -0.5736 -0.8675
 9868SOL     OW30502   3.846   6.679   6.126  0.6709  0.4306  0.9086
 9868SOL    HW130503   3.797   6.743   6.067  2.3137  3.5828  2.6824
 9868SOL    HW230504   3.915   6.631   6.074 -0.1166  0.6251 -0.3537
 9869SOL     OW30505   6.882   1.034   2.853  0.0608  0.1061 -0.0393
 9869SOL    HW130506   6.916   0.941   2.843 -0.7257 -0.1589 -0.3286
 9869SOL    HW230507   6.956   1.099   2.834  1.0005 -0.4460  1.5385
 9870SOL     OW30508   1.338   2.197   6.675  0.2104 -0.1772  0.1044
 9870SOL    HW130509   1.288   2.272   6.633  0.7772  0.7361  1.0110
 9870SOL    HW230510   1.325   2.199   6.774  1.7283 -0.1362  0.3253
 9871SOL     OW30511   5.551   6.148   3.020 -0.0371  0.2891 -0.1027
 9871SOL    HW130512   5.542   6.149   2.920  1.1647 -1.9751 -0.3128
 9871SOL    HW230513   5.548   6.241   3.055 -2.2334  1.0353 -2.0496
 9872SOL     OW30514   5.131   4.292   1.796 -0.1010  0.2558 -0.0445
 9872SOL    HW130515   5.221   4.323   1.827 -0.4850  2.3015 -0.8142
 9872SOL    HW230516   5.060   4.340   1.848 -0.7523 -0.8210  0.0709
 9873SOL     OW30517   4.786   2.036   6.225  0.0602 -0.2422  0.4093
 9873SOL    HW130518   4.701   2.035   6.277 -0.8704 -1.9430 -1.0325
 9873SOL    HW230519   4.774   1.985   6.140  2.4777 -0.3672  0.0643
 9874SOL     OW30520   0.898   4.170   3.926  0.2921  0.0655  0.6385
 9874SOL    HW130521   0.873   4.114   4.005  1.3528 -2.8020 -0.8901
 9874SOL    HW230522   0.821   4.176   3.863 -0.8168  3.0127  2.1048
 9875SOL     OW30523   1.567   1.346   1.699 -0.5006  0.3585  0.1119
 9875SOL    HW130524   1.519   1.320   1.615 -2.7804  0.3333  1.3212
 9875SOL    HW230525   1.663   1.321   1.692 -0.7099  0.0190 -2.3227
 9876SOL     OW30526   6.814   1.865   4.841  0.4105  0.0749  0.2900
 9876SOL    HW130527   6.735   1.923   4.820  1.1660  1.4025  0.9916
 9876SOL    HW230528   6.783   1.781   4.885 -0.7908 -0.5246 -1.5734
 9877SOL     OW30529   1.816   2.666   1.342  0.0974  0.1103  0.3148
 9877SOL    HW130530   1.794   2.756   1.381  0.5698  0.0503  0.7359
 9877SOL    HW230531   1.863   2.611   1.411  0.7830 -0.0681 -0.2846
 9878SOL     OW30532   3.888   5.561   1.952  0.0461  0.0299  0.1671
 9878SOL    HW130533   3.872   5.659   1.955  2.0042  0.3736  1.3543
 9878SOL    HW230534   3.803   5.512   1.974 -1.1963  1.3816 -1.4152
 9879SOL     OW30535   6.836   1.578   2.428 -0.5894  0.0571  0.3707
 9879SOL    HW130536   6.891   1.647   2.476 -1.0378  1.4982 -1.1005
 9879SOL    HW230537   6.850   1.488   2.471  2.5973  0.4185  0.3113
 9880SOL     OW30538   1.944   3.846   1.883 -0.2505  0.0950  0.3545
 9880SOL    HW130539   1.892   3.764   1.909  0.9020 -0.3004  1.5273
 9880SOL    HW230540   1.893   3.928   1.910 -2.4386 -0.0892 -2.7475
 9881SOL     OW30541   5.832   3.326   4.821  1.3470  0.4266  0.1119
 9881SOL    HW130542   5.786   3.397   4.768  0.9335  0.7601  0.9023
 9881SOL    HW230543   5.931   3.333   4.806  1.2663  0.7815 -0.2853
 9882SOL     OW30544   6.926   6.020   2.426 -0.4262  0.8604  0.1052
 9882SOL    HW130545   6.886   6.070   2.349  1.1310 -0.0202 -1.3605
 9882SOL    HW230546   6.976   6.083   2.485 -1.8524  1.5885  0.5769
 9883SOL     OW30547   2.586   0.714   6.250 -0.1815  0.0676  0.4682
 9883SOL    HW130548   2.661   0.778   6.232  1.7078 -1.8611  1.1872
 9883SOL    HW230549   2.545   0.735   6.339  0.3418  0.3235  0.6510
 9884SOL     OW30550   2.594   6.751   2.192  0.5017  0.3130  0.7676
 9884SOL    HW130551   2.518   6.695   2.225  1.5220 -1.8736 -0.3291
 9884SOL    HW230552   2.598   6.744   2.092  2.1840  0.3105  0.8156
 9885SOL     OW30553   7.000   0.816   3.196 -0.5952  0.1692  0.3499
 9885SOL    HW130554   7.022   0.762   3.277  0.4680  0.0822  0.0153
 9885SOL    HW230555   7.083   0.860   3.161 -1.2740  1.2474  0.0546
 9886SOL     OW30556   6.049   6.022   6.277 -0.4201  0.4070 -0.2392
 9886SOL    HW130557   5.991   5.985   6.350 -1.1764 -1.9659 -1.9311
 9886SOL    HW230558   6.130   5.965   6.266 -0.5048  0.4970 -1.4909
 9887SOL     OW30559   5.661   1.275   2.372  0.1076  0.0141 -0.4267
 9887SOL    HW130560   5.621   1.188   2.341  0.9215 -1.0841  1.4339
 9887SOL    HW230561   5.599   1.319   2.437  0.7955 -0.4882  0.6017
 9888SOL     OW30562   4.616   3.398   0.592 -0.5881  0.0759 -0.2883
 9888SOL    HW130563   4.643   3.494   0.584  0.1633 -0.1187 -0.2111
 9888SOL    HW230564   4.581   3.366   0.504 -2.4877  0.8883  0.1416
 9889SOL     OW30565   5.931   1.722   0.859 -0.2912 -0.4355  0.1519
 9889SOL    HW130566   5.905   1.637   0.813  0.7376 -1.4160  1.3077
 9889SOL    HW230567   5.906   1.717   0.956  0.1683  0.3969  0.3256
 9890SOL     OW30568   0.546   4.201   5.342  0.3470  0.0421 -0.5449
 9890SOL    HW130569   0.565   4.284   5.395  1.3323 -0.7069  0.3208
 9890SOL    HW230570   0.630   4.169   5.300 -0.0007 -0.6080 -0.7511
 9891SOL     OW30571   5.114   2.160   2.185 -0.3937  0.1851 -0.2808
 9891SOL    HW130572   5.155   2.172   2.094 -0.8504  1.3367 -0.3550
 9891SOL    HW230573   5.134   2.240   2.241 -0.5154 -0.3131  0.4838
 9892SOL     OW30574   6.349   5.517   1.321  0.3308  0.1315 -0.1666
 9892SOL    HW130575   6.423   5.585   1.322  0.2015  0.2628  1.0143
 9892SOL    HW230576   6.387   5.427   1.344  0.5180 -0.2493 -1.8111
 9893SOL     OW30577   0.968   5.457   6.317  0.1490 -0.2845  0.0280
 9893SOL    HW130578   0.895   5.421   6.258 -1.1716  1.7198  0.3610
 9893SOL    HW230579   0.929   5.486   6.404  1.5837 -0.3714  0.7185
 9894SOL     OW30580   6.887   2.978   4.183  0.4445 -0.0055  0.0227
 9894SOL    HW130581   6.858   2.883   4.175 -1.4525  0.4766  0.6694
 9894SOL    HW230582   6.875   3.024   4.094 -0.2745  0.0372  0.1342
 9895SOL     OW30583   0.765   3.630   1.877  0.2855 -0.1753 -0.1015
 9895SOL    HW130584   0.841   3.640   1.813 -0.1624 -1.0306 -0.7911
 9895SOL    HW230585   0.778   3.545   1.930  0.3707  0.2434  0.5636
 9896SOL     OW30586   3.818   6.287   1.132 -0.6970  0.0250  0.6058
 9896SOL    HW130587   3.822   6.385   1.149  0.3423  0.0247  0.4044
 9896SOL    HW230588   3.897   6.258   1.078 -0.4467 -1.0884  1.5160
 9897SOL     OW30589   0.943   2.866   2.224 -0.3285 -0.8469  0.4947
 9897SOL    HW130590   1.013   2.873   2.153 -0.0064  0.6180  0.9208
 9897SOL    HW230591   0.983   2.889   2.312 -1.1911 -0.6862  0.8528
 9898SOL     OW30592   2.818   5.217   4.908  0.5026 -0.4008  0.3993
 9898SOL    HW130593   2.747   5.261   4.963 -1.1703 -0.0489 -1.8951
 9898SOL    HW230594   2.827   5.122   4.937  2.2681  0.5942  3.6181
 9899SOL     OW30595   5.778   3.134   4.643  0.1077  0.2489 -0.2377
 9899SOL    HW130596   5.778   3.201   4.717  0.8120  0.8538 -0.7692
 9899SOL    HW230597   5.684   3.106   4.623 -0.1675  0.8130  0.2254
 9900SOL     OW30598   5.096   2.702   6.760  0.0774 -0.1376 -0.0538
 9900SOL    HW130599   5.085   2.710   6.661  0.5391  1.5006 -0.0087
 9900SOL    HW230600   5.092   2.606   6.787 -1.4557 -0.5185 -1.4840
 9901SOL     OW30601   4.116   0.493   2.248  1.0900 -0.1146 -0.4535
 9901SOL    HW130602   4.120   0.424   2.321 -1.6566 -0.1903 -0.2735
 9901SOL    HW230603   4.090   0.448   2.162 -1.9904  0.7378 -0.0755
 9902SOL     OW30604   0.977   5.587   1.891 -0.0079  0.3719 -0.2211
 9902SOL    HW130605   0.897   5.648   1.899  0.0592  0.3019  1.2431
 9902SOL    HW230606   1.024   5.582   1.980  0.9804 -0.4766 -0.7747
 9903SOL     OW30607   3.078   6.244   0.072  0.0727  0.4373  0.3121
 9903SOL    HW130608   3.130   6.292   0.001  1.4858  0.8877  1.6050
 9903SOL    HW230609   3.123   6.157   0.093 -1.5565 -0.7531 -0.8374
 9904SOL     OW30610   0.391   2.652   3.799  0.1970  0.1561 -1.0949
 9904SOL    HW130611   0.491   2.656   3.800  0.2069 -0.0866 -1.1221
 9904SOL    HW230612   0.358   2.662   3.705  0.1920  0.3380 -1.0733
 9905SOL     OW30613   5.969   5.218   5.276 -0.2259  0.0056  0.1766
 9905SOL    HW130614   5.906   5.153   5.234  0.4909 -0.8158  0.3417
 9905SOL    HW230615   5.968   5.303   5.224 -0.0078 -0.6772 -0.9924
 9906SOL     OW30616   0.487   3.975   6.285  0.4947  0.5032 -0.3250
 9906SOL    HW130617   0.560   4.037   6.257 -0.0892  0.9373 -0.9347
 9906SOL    HW230618   0.519   3.880   6.280  1.8595  0.7828  1.9972
 9907SOL     OW30619   2.915   0.492   5.317 -0.4279 -0.3049  0.0910
 9907SOL    HW130620   2.898   0.413   5.377 -0.4076 -0.8822 -0.6515
 9907SOL    HW230621   3.013   0.512   5.315 -0.3974 -0.4607  0.0295
 9908SOL     OW30622   6.517   2.437   5.769 -0.0191 -0.1284  0.2144
 9908SOL    HW130623   6.423   2.450   5.801  0.0690  1.0675 -0.0017
 9908SOL    HW230624   6.573   2.515   5.795  0.9488 -0.8669  0.4078
 9909SOL     OW30625   6.067   1.856   6.166  0.0048 -0.3734 -0.6547
 9909SOL    HW130626   5.968   1.866   6.182 -0.2417 -1.0659 -1.6398
 9909SOL    HW230627   6.117   1.900   6.241 -1.0465 -0.3378  0.0573
 9910SOL     OW30628   3.017   2.097   6.572 -0.2333 -0.5505  0.4042
 9910SOL    HW130629   3.109   2.128   6.595 -0.0440 -0.6097 -0.2641
 9910SOL    HW230630   2.954   2.125   6.645  0.4382 -1.2500  1.2836
 9911SOL     OW30631   4.721   0.338   3.805  0.5715 -0.1180  0.4091
 9911SOL    HW130632   4.688   0.267   3.743  0.7071  0.7707 -0.7078
 9911SOL    HW230633   4.702   0.311   3.900 -0.7548 -0.9393 -0.0628
 9912SOL     OW30634   0.888   0.488   6.886 -1.0281  0.0383 -0.0728
 9912SOL    HW130635   0.792   0.466   6.905 -0.7392 -0.7774  0.5139
 9912SOL    HW230636   0.946   0.448   6.957 -0.2870  0.9435 -0.1482
 9913SOL     OW30637   4.385   1.479   6.962 -0.0084  0.0868 -0.5896
 9913SOL    HW130638   4.437   1.466   6.878  0.5623 -0.9617 -0.0871
 9913SOL    HW230639   4.422   1.557   7.012 -1.1348  1.5257 -1.8692
 9914SOL     OW30640   3.545   0.773   3.978 -0.4028  0.1657 -0.1713
 9914SOL    HW130641   3.633   0.772   4.026 -0.4143 -0.2128 -0.1534
 9914SOL    HW230642   3.515   0.679   3.961 -0.9521  0.2864  0.0912
 9915SOL     OW30643   6.236   5.813   6.295  0.7400 -0.1214  0.8480
 9915SOL    HW130644   6.310   5.822   6.229 -0.0220 -0.2926 -0.0569
 9915SOL    HW230645   6.266   5.758   6.372  1.8471  0.6089  0.9529
 9916SOL     OW30646   3.475   0.294   2.229 -0.5194 -0.3196  0.2373
 9916SOL    HW130647   3.503   0.241   2.309 -0.8983 -1.2128 -0.2045
 9916SOL    HW230648   3.465   0.390   2.254 -0.2111 -0.5197  1.1553
 9917SOL     OW30649   0.106   6.496   0.454 -0.1905 -0.0947  0.0145
 9917SOL    HW130650   0.142   6.482   0.547 -0.6123  0.2371  0.2305
 9917SOL    HW230651   0.141   6.582   0.417 -1.0280  0.4205  0.3697
 9918SOL     OW30652   5.301   6.039   6.379 -0.2661 -0.0161  0.0823
 9918SOL    HW130653   5.333   5.946   6.396 -1.9792 -0.9985 -1.7298
 9918SOL    HW230654   5.364   6.104   6.423  2.3035 -1.8937 -0.5577
 9919SOL     OW30655   1.795   6.618   2.675 -0.2168 -0.5595  0.4222
 9919SOL    HW130656   1.840   6.706   2.688  0.8898 -0.9494 -0.5565
 9919SOL    HW230657   1.696   6.630   2.682 -0.1560  0.9774 -0.7825
 9920SOL     OW30658   6.633   3.096   5.990 -0.4849  0.0227  0.1606
 9920SOL    HW130659   6.578   3.026   5.944  0.3596 -0.4022 -0.2237
 9920SOL    HW230660   6.595   3.187   5.971 -2.5536 -0.3835  1.9605
 9921SOL     OW30661   5.624   0.841   4.070  0.3052  0.4351 -0.5322
 9921SOL    HW130662   5.631   0.934   4.105  0.6253  0.1589  0.1428
 9921SOL    HW230663   5.527   0.816   4.060  0.1842  1.4418 -2.3789
 9922SOL     OW30664   5.665   5.922   1.948  0.2471 -0.4908 -0.2162
 9922SOL    HW130665   5.661   5.937   1.849 -1.1174 -0.3119 -0.1571
 9922SOL    HW230666   5.602   5.985   1.993  2.0976  0.6258  0.9394
 9923SOL     OW30667   6.610   0.510   2.999 -0.2001  0.1267 -0.0291
 9923SOL    HW130668   6.665   0.593   2.996  0.2234 -0.1800 -1.5503
 9923SOL    HW230669   6.603   0.471   2.907 -2.3253 -0.2698  0.2461
 9924SOL     OW30670   6.054   2.465   3.813  1.0454 -0.0036  0.5770
 9924SOL    HW130671   6.097   2.503   3.731  0.8175 -0.0917  0.4155
 9924SOL    HW230672   6.119   2.466   3.888  0.8828  1.1787  0.7165
 9925SOL     OW30673   2.166   4.116   2.402 -0.3027 -0.2494 -0.5325
 9925SOL    HW130674   2.154   4.060   2.320  0.3528 -0.4062 -0.5247
 9925SOL    HW230675   2.078   4.157   2.427 -0.6179 -0.6196 -1.0070
 9926SOL     OW30676   4.367   5.383   4.827 -0.0415  0.1236 -0.3445
 9926SOL    HW130677   4.398   5.314   4.761  1.0549 -0.1443  0.4258
 9926SOL    HW230678   4.390   5.353   4.920 -2.7664 -0.1463  0.3252
 9927SOL     OW30679   1.383   5.371   2.811  0.0338 -0.3378  0.3836
 9927SOL    HW130680   1.299   5.359   2.759  0.8102  0.2009 -1.0952
 9927SOL    HW230681   1.373   5.448   2.875 -0.6875 -0.4738  0.4307
 9928SOL     OW30682   1.864   0.365   2.061  0.8464  0.3799 -0.2451
 9928SOL    HW130683   1.916   0.281   2.077 -0.8049 -0.7213 -0.3824
 9928SOL    HW230684   1.862   0.420   2.144  2.0050  0.3288 -0.1757
 9929SOL     OW30685   2.498   2.149   2.688 -0.3152  0.2170  0.5949
 9929SOL    HW130686   2.425   2.170   2.623 -1.4019  0.8899  1.9914
 9929SOL    HW230687   2.585   2.182   2.652 -1.0108  1.2735 -0.1671
 9930SOL     OW30688   2.239   4.819   5.222 -0.4610  0.1348  0.2511
 9930SOL    HW130689   2.143   4.847   5.217 -0.0646  1.6821  0.7060
 9930SOL    HW230690   2.245   4.729   5.264 -1.7606 -0.3552 -0.5516
 9931SOL     OW30691   0.306   6.531   2.529  0.0261  0.8116  0.4099
 9931SOL    HW130692   0.254   6.614   2.544 -0.8004  0.1692  1.1735
 9931SOL    HW230693   0.246   6.451   2.536  0.3195  0.2113 -2.4500
 9932SOL     OW30694   3.409   0.219   5.705 -0.3569 -0.0578  0.0312
 9932SOL    HW130695   3.369   0.166   5.630  1.3451 -1.6725  0.1992
 9932SOL    HW230696   3.426   0.313   5.674 -2.2424  0.1096 -0.6735
 9933SOL     OW30697   1.369   6.566   4.471  0.0404 -0.3589 -0.0045
 9933SOL    HW130698   1.374   6.641   4.404  0.1634  0.4827  0.9135
 9933SOL    HW230699   1.275   6.555   4.502  0.3141  0.7991  1.3440
 9934SOL     OW30700   5.428   2.182   0.319 -0.5356  0.2290  0.4118
 9934SOL    HW130701   5.483   2.102   0.297 -0.6412 -0.5083  2.5787
 9934SOL    HW230702   5.375   2.164   0.402 -2.9226  1.4501 -0.7560
 9935SOL     OW30703   0.088   1.720   0.055  0.4037  0.0133 -0.1359
 9935SOL    HW130704  -0.008   1.735   0.078  0.6115  0.6668  0.3485
 9935SOL    HW230705   0.099   1.725  -0.045  0.0866  0.9551 -0.1358
 9936SOL     OW30706   4.105   1.914   5.149 -0.4431  0.6350 -0.4512
 9936SOL    HW130707   4.200   1.943   5.138 -0.4819  1.9869  2.1566
 9936SOL    HW230708   4.059   1.973   5.215 -2.2304 -1.8669  0.6920
 9937SOL     OW30709   5.910   4.066   4.048 -0.7523  0.5902  0.3050
 9937SOL    HW130710   5.973   3.994   4.077  1.0638  1.5602 -1.0717
 9937SOL    HW230711   5.889   4.124   4.127 -1.0497 -0.5334  1.0865
 9938SOL     OW30712   6.393   2.467   3.583  0.3887  0.1782 -0.0983
 9938SOL    HW130713   6.317   2.403   3.577  0.6357  0.0018 -1.5291
 9938SOL    HW230714   6.472   2.421   3.624  0.0308  0.1031  0.5310
 9939SOL     OW30715   6.813   1.444   6.164  0.2612  0.7209 -0.6100
 9939SOL    HW130716   6.832   1.353   6.201 -0.1067  0.6209 -0.6587
 9939SOL    HW230717   6.884   1.469   6.098 -1.3556 -0.9852 -3.2102
 9940SOL     OW30718   5.121   4.616   4.008  0.2572  0.0720 -0.3559
 9940SOL    HW130719   5.079   4.672   3.936  0.2787 -0.0798 -0.4875
 9940SOL    HW230720   5.114   4.519   3.983  1.2694  0.0757 -0.6985
 9941SOL     OW30721   2.227   4.672   6.740 -0.4566  0.2184  0.0154
 9941SOL    HW130722   2.318   4.704   6.764 -0.0347 -0.5068 -0.5957
 9941SOL    HW230723   2.183   4.633   6.821  0.0302 -0.0283  0.1634
 9942SOL     OW30724   0.170   5.589   4.972  0.3116 -0.0348 -0.3167
 9942SOL    HW130725   0.235   5.664   4.961 -0.0966  0.3631 -0.0467
 9942SOL    HW230726   0.083   5.613   4.929 -0.4340  0.4345  1.3736
 9943SOL     OW30727   4.626   5.841   6.152 -0.6435  0.7022 -0.3734
 9943SOL    HW130728   4.633   5.916   6.217  0.5406  0.0087  0.3311
 9943SOL    HW230729   4.571   5.870   6.073 -0.8689  2.0268  0.2476
 9944SOL     OW30730   1.052   5.563   1.611  0.0374  0.2482  0.7247
 9944SOL    HW130731   1.016   5.564   1.704  1.4088 -0.0743  1.2816
 9944SOL    HW230732   0.983   5.598   1.548 -1.2314 -0.3608  1.7408
 9945SOL     OW30733   3.332   2.090   3.324 -0.1723  0.4497 -0.0231
 9945SOL    HW130734   3.422   2.128   3.346  0.1744  0.1447 -0.8914
 9945SOL    HW230735   3.327   1.995   3.354 -0.4519  0.6621  0.6310
 9946SOL     OW30736   0.593   3.169   0.532 -0.2688  0.6524 -0.1962
 9946SOL    HW130737   0.552   3.194   0.620 -1.4211 -0.9312 -0.2403
 9946SOL    HW230738   0.564   3.076   0.506 -0.2849  1.2128 -2.4363
 9947SOL     OW30739   0.118   1.311   6.125 -0.4141 -0.6877  0.1619
 9947SOL    HW130740   0.123   1.408   6.101 -1.4176 -0.8322 -0.6931
 9947SOL    HW230741   0.163   1.257   6.054 -0.8197 -0.9163  0.0734
 9948SOL     OW30742   1.604   2.837   1.820  0.9177 -0.0140 -0.2455
 9948SOL    HW130743   1.513   2.839   1.863  0.6582 -1.0385 -0.7258
 9948SOL    HW230744   1.671   2.877   1.883 -0.3274  3.8985 -1.1320
 9949SOL     OW30745   5.993   3.070   4.305  0.0066 -0.1581 -0.3313
 9949SOL    HW130746   6.009   3.119   4.391  0.9116 -0.1245 -0.5097
 9949SOL    HW230747   5.902   3.027   4.307  0.3683 -0.9030  1.0043
 9950SOL     OW30748   3.311   6.829   3.274  0.2829 -0.0452  0.1892
 9950SOL    HW130749   3.324   6.889   3.195 -1.5307 -1.7964 -1.5540
 9950SOL    HW230750   3.215   6.801   3.280  0.0015  1.1078  3.9118
 9951SOL     OW30751   6.525   2.734   4.278 -0.5621 -0.2505 -0.2378
 9951SOL    HW130752   6.568   2.824   4.269 -0.6598 -0.1750  0.0119
 9951SOL    HW230753   6.520   2.690   4.189 -2.0762  0.7195 -0.6716
 9952SOL     OW30754   0.197   6.386   3.062  0.3110  0.3590  0.1823
 9952SOL    HW130755   0.212   6.431   2.974 -2.9404 -0.9291 -1.1838
 9952SOL    HW230756   0.179   6.455   3.132 -0.3709  1.3293 -0.9077
 9953SOL     OW30757   0.557   2.737   2.267  0.0393  0.1801 -0.2862
 9953SOL    HW130758   0.459   2.750   2.254 -0.6109 -3.1432  0.5440
 9953SOL    HW230759   0.605   2.819   2.236 -2.8767  1.4700 -1.8103
 9954SOL     OW30760   0.741   1.460   6.434  0.0090  0.0287  0.2644
 9954SOL    HW130761   0.751   1.559   6.433  0.1308  0.0255  0.8131
 9954SOL    HW230762   0.816   1.419   6.486  1.1943 -0.5210 -1.7709
 9955SOL     OW30763   6.509   0.612   0.242 -0.1473 -0.5830  0.0146
 9955SOL    HW130764   6.484   0.515   0.248  0.0654 -0.5981  0.8632
 9955SOL    HW230765   6.574   0.626   0.168  1.0856 -1.3777  0.9051
 9956SOL     OW30766   5.182   6.090   6.942  0.7373 -0.5115  0.6460
 9956SOL    HW130767   5.123   6.028   6.995  2.0267 -1.4360  1.0497
 9956SOL    HW230768   5.261   6.040   6.908  0.6913  0.4301 -0.9307
 9957SOL     OW30769   4.853   1.070   1.959 -0.1716 -0.4696 -0.1496
 9957SOL    HW130770   4.832   1.032   2.049 -0.9298  0.3134  0.0099
 9957SOL    HW230771   4.902   1.157   1.970 -1.2434  0.1914 -0.4664
 9958SOL     OW30772   2.945   3.761   0.443 -0.6803  0.5284 -0.1189
 9958SOL    HW130773   3.022   3.736   0.384 -0.1822 -0.3381  0.8662
 9958SOL    HW230774   2.916   3.855   0.422 -0.9212  0.0286 -2.1367
 9959SOL     OW30775   1.964   1.431   5.152 -0.1989  0.4594  0.2735
 9959SOL    HW130776   1.872   1.413   5.187  0.3399  0.7969  1.9541
 9959SOL    HW230777   2.023   1.353   5.170 -0.0300  0.4101 -0.4315
 9960SOL     OW30778   3.831   2.494   1.624  0.9586  0.0890 -0.3693
 9960SOL    HW130779   3.780   2.489   1.710  0.8452  0.4299 -0.4153
 9960SOL    HW230780   3.768   2.518   1.549  1.1672  0.3991 -0.4453
 9961SOL     OW30781   0.795   2.722   0.854 -0.2139  0.4129  0.0187
 9961SOL    HW130782   0.818   2.678   0.767  1.3591  1.3412 -0.0853
 9961SOL    HW230783   0.730   2.796   0.838 -1.8636 -0.9802  0.0176
 9962SOL     OW30784   1.945   3.787   3.100  0.0120  0.5927 -0.2989
 9962SOL    HW130785   1.957   3.689   3.111  0.5832  0.7790  0.8438
 9962SOL    HW230786   1.880   3.804   3.026 -0.2789 -0.6444 -0.3506
 9963SOL     OW30787   0.404   0.494   0.014 -0.6949 -0.3481 -0.6592
 9963SOL    HW130788   0.390   0.454   0.105 -0.6140 -0.7770 -0.8379
 9963SOL    HW230789   0.344   0.449  -0.052 -2.7230  1.7176 -0.3462
 9964SOL     OW30790   0.217   3.853   1.400  1.0227  0.1157  0.2635
 9964SOL    HW130791   0.296   3.836   1.341 -0.1597  0.0530 -1.3752
 9964SOL    HW230792   0.149   3.905   1.349 -0.4137 -0.6789  1.3177
 9965SOL     OW30793   6.018   5.398   3.960  0.0521  0.3545 -0.0576
 9965SOL    HW130794   5.946   5.462   3.985  0.1627 -0.0500  1.4102
 9965SOL    HW230795   6.107   5.444   3.967  0.0678  0.2969  0.1518
 9966SOL     OW30796   4.263   2.207   3.102 -0.2529 -0.5914 -0.2983
 9966SOL    HW130797   4.321   2.161   3.169 -1.8265 -1.9263  0.2077
 9966SOL    HW230798   4.169   2.174   3.111 -1.4266  2.5138 -0.1460
 9967SOL     OW30799   4.794   1.535   4.313  0.0498 -0.0087 -0.3387
 9967SOL    HW130800   4.715   1.595   4.308  2.1400  2.8764 -1.4237
 9967SOL    HW230801   4.839   1.545   4.402 -0.3819 -1.1737  0.0405
 9968SOL     OW30802   3.023   1.836   6.856  0.8670  0.9975 -0.3294
 9968SOL    HW130803   3.074   1.804   6.935 -1.9499 -0.4675  1.0659
 9968SOL    HW230804   3.054   1.788   6.774 -0.1262 -2.0879  0.9610
 9969SOL     OW30805   5.164   4.458   1.249 -0.6111 -0.5251 -1.0028
 9969SOL    HW130806   5.066   4.443   1.261 -0.7058 -0.5054 -1.6745
 9969SOL    HW230807   5.215   4.413   1.322 -1.3275  3.5535  2.3378
 9970SOL     OW30808   6.666   1.439   6.756  0.2546  0.1181  0.0410
 9970SOL    HW130809   6.684   1.469   6.849  1.4764 -0.1272 -0.0877
 9970SOL    HW230810   6.599   1.365   6.757 -3.7515  3.4270  0.2604
 9971SOL     OW30811   2.481   6.390   3.861 -0.1716 -0.0029 -0.2467
 9971SOL    HW130812   2.501   6.396   3.959  2.3088 -0.5340 -0.6324
 9971SOL    HW230813   2.429   6.307   3.843  1.2050 -1.0625  0.4276
 9972SOL     OW30814   4.398   6.749   1.204  0.0938 -0.5319 -0.3297
 9972SOL    HW130815   4.341   6.710   1.276  0.4871 -0.3302  0.0951
 9972SOL    HW230816   4.493   6.720   1.217  0.2383 -0.1552 -0.5256
 9973SOL     OW30817   3.302   2.870   0.758 -0.5046  0.4340  0.2423
 9973SOL    HW130818   3.266   2.880   0.665  1.0803 -0.3524 -0.5011
 9973SOL    HW230819   3.402   2.875   0.755 -0.3211 -1.5566  1.6434
 9974SOL     OW30820   5.885   0.795   5.283  0.4039  0.6616 -0.4461
 9974SOL    HW130821   5.822   0.871   5.299  0.1251  0.6225 -1.3282
 9974SOL    HW230822   5.907   0.789   5.186  0.2586 -0.5171 -0.4235
 9975SOL     OW30823   1.725   3.594   1.083 -0.0920  0.3393 -0.6344
 9975SOL    HW130824   1.681   3.512   1.119 -1.6069  1.4030  0.0291
 9975SOL    HW230825   1.785   3.633   1.152 -0.5656  0.6481 -0.4004
 9976SOL     OW30826   2.248   1.771   0.745  0.1716  0.3278  0.0726
 9976SOL    HW130827   2.186   1.734   0.814  0.1928 -2.6153 -1.3149
 9976SOL    HW230828   2.201   1.842   0.693 -1.1745 -0.0882  0.6610
 9977SOL     OW30829   0.357   6.370   5.396 -0.1294  0.0061  0.1251
 9977SOL    HW130830   0.428   6.313   5.354  0.2704 -0.3782  1.2596
 9977SOL    HW230831   0.397   6.457   5.423 -0.2466  0.0413  0.1824
 9978SOL     OW30832   1.197   5.767   3.708 -0.6190 -0.0668  0.0159
 9978SOL    HW130833   1.285   5.807   3.682 -1.2831  0.1110 -2.0856
 9978SOL    HW230834   1.125   5.803   3.649 -2.1091 -0.3461  1.5861
 9979SOL     OW30835   6.556   5.135   1.629 -0.3329 -0.1048  0.0862
 9979SOL    HW130836   6.458   5.145   1.650 -0.8701 -0.3457 -2.0324
 9979SOL    HW230837   6.581   5.039   1.634 -0.6042 -0.2363 -0.8009
 9980SOL     OW30838   6.220   5.003   6.961 -0.5295 -0.0328 -0.4691
 9980SOL    HW130839   6.173   5.049   6.886 -0.8436  1.1501  0.4203
 9980SOL    HW230840   6.307   4.967   6.928 -1.0823 -0.3572 -1.6183
 9981SOL     OW30841   3.793   0.225   0.306  0.2236  0.0783  0.0741
 9981SOL    HW130842   3.829   0.140   0.344  0.3874  0.6346  1.1837
 9981SOL    HW230843   3.718   0.203   0.243 -1.0147 -0.8271  1.7667
 9982SOL     OW30844   4.240   3.369   5.245 -0.6694  0.1538 -0.1537
 9982SOL    HW130845   4.156   3.386   5.296 -0.9900 -0.0631 -0.6125
 9982SOL    HW230846   4.273   3.277   5.266 -1.4538 -0.3899 -1.2600
 9983SOL     OW30847   4.421   2.607   1.523 -0.4533  0.0774  0.1100
 9983SOL    HW130848   4.434   2.595   1.425  0.9034  2.0724  0.0097
 9983SOL    HW230849   4.474   2.538   1.572  2.0977  1.4739 -0.5359
 9984SOL     OW30850   5.856   6.641   3.279 -0.5130 -0.0860  0.2956
 9984SOL    HW130851   5.831   6.668   3.185 -0.9762 -2.3595 -0.2932
 9984SOL    HW230852   5.940   6.687   3.305 -1.1017  1.6650 -0.6947
 9985SOL     OW30853   2.211   4.623   0.766 -0.4965  0.5915  0.2596
 9985SOL    HW130854   2.164   4.597   0.850 -1.8804  1.2381 -0.2858
 9985SOL    HW230855   2.150   4.611   0.688  0.6441  0.3526 -0.6238
 9986SOL     OW30856   0.318   3.267   2.375  0.0377 -0.4934  0.2927
 9986SOL    HW130857   0.410   3.274   2.337 -1.0402 -0.3266 -2.4714
 9986SOL    HW230858   0.318   3.202   2.451  2.1189 -1.7692 -0.7130
 9987SOL     OW30859   5.283   4.689   0.808  0.3506 -0.2380  0.1781
 9987SOL    HW130860   5.220   4.673   0.884  3.0006  0.1455  2.6214
 9987SOL    HW230861   5.308   4.786   0.806  1.9397 -0.6333  0.1734
 9988SOL     OW30862   3.702   5.476   5.730  0.3036 -0.3095 -0.4171
 9988SOL    HW130863   3.720   5.517   5.640  0.7151  0.9200  0.1981
 9988SOL    HW230864   3.780   5.420   5.758  1.1318  1.0376  0.0833
 9989SOL     OW30865   4.573   5.313   5.842 -0.4602 -0.7270 -0.1503
 9989SOL    HW130866   4.560   5.274   5.750 -1.2119 -1.1157  0.1092
 9989SOL    HW230867   4.566   5.412   5.837  0.3862 -0.6790 -0.6487
 9990SOL     OW30868   5.862   4.863   3.043  0.2056 -0.3833 -0.5082
 9990SOL    HW130869   5.923   4.935   3.075 -0.5857 -0.3475  1.0121
 9990SOL    HW230870   5.778   4.862   3.098 -0.8391 -0.9502 -2.0104
 9991SOL     OW30871   3.630   5.930   1.742  0.0656 -0.7856 -0.2786
 9991SOL    HW130872   3.545   5.877   1.734 -0.8308  0.7463 -1.3939
 9991SOL    HW230873   3.624   6.012   1.686  2.2300 -0.5144 -0.2061
 9992SOL     OW30874   6.247   0.645   5.786  0.4978 -0.1748 -0.1482
 9992SOL    HW130875   6.275   0.565   5.733  1.2020  0.0165 -0.0796
 9992SOL    HW230876   6.199   0.710   5.727  2.1999  0.5214 -0.8272
 9993SOL     OW30877   3.062   0.620   4.725  0.1275  0.5909 -0.3784
 9993SOL    HW130878   3.002   0.543   4.750 -1.4656  1.3930 -1.5936
 9993SOL    HW230879   3.124   0.591   4.652  0.4988  0.0769  0.1258
 9994SOL     OW30880   1.817   0.765   6.405 -0.5706  0.3724  0.2387
 9994SOL    HW130881   1.844   0.687   6.348  0.7220  0.3340  0.8835
 9994SOL    HW230882   1.721   0.755   6.430 -0.8362 -0.2362 -0.9178
 9995SOL     OW30883   4.000   2.091   3.117 -0.7421 -0.4189  0.1537
 9995SOL    HW130884   3.970   2.152   3.191 -0.6803  0.2419 -0.3592
 9995SOL    HW230885   4.042   2.009   3.156 -1.3106 -0.3817  0.8593
 9996SOL     OW30886   4.613   6.151   6.767 -0.1465  0.2422 -0.0656
 9996SOL    HW130887   4.609   6.130   6.670  0.1449 -0.1846  0.0144
 9996SOL    HW230888   4.677   6.227   6.782 -2.1434  2.0877 -0.4970
 9997SOL     OW30889   2.143   2.700   6.195  0.9457  0.2003  0.1771
 9997SOL    HW130890   2.119   2.607   6.167  2.8669 -0.2728 -0.0300
 9997SOL    HW230891   2.063   2.760   6.185 -0.3354 -1.4160  0.3663
 9998SOL     OW30892   5.690   5.388   4.863 -0.4908 -0.0895  0.3450
 9998SOL    HW130893   5.764   5.320   4.869  1.1728  1.4984 -1.0066
 9998SOL    HW230894   5.715   5.469   4.916 -0.6494  0.9565 -1.1123
 9999SOL     OW30895   3.013   5.850   0.818  0.4268 -0.2144  0.2513
 9999SOL    HW130896   2.955   5.885   0.744  0.1981 -0.1058  0.4769
 9999SOL    HW230897   3.003   5.910   0.898  1.1295  0.0145  0.1789
10000SOL     OW30898   0.253   3.919   2.708  0.1806 -0.9252  0.0764
10000SOL    HW130899   0.159   3.913   2.742  0.2653 -1.5870  0.1988
10000SOL    HW230900   0.254   3.900   2.610  0.0111  0.4513 -0.2266
10001SOL     OW30901   0.860   4.994   0.293  0.3289 -0.1591 -0.5249
10001SOL    HW130902   0.904   4.916   0.247  0.6225 -0.0231 -0.4751
10001SOL    HW230903   0.921   5.073   0.290  0.5871 -0.3079  0.6054
10002SOL     OW30904   3.954   3.250   0.517 -0.1238 -0.2343  0.3998
10002SOL    HW130905   4.020   3.312   0.475 -0.2123 -0.8517 -0.6761
10002SOL    HW230906   3.863   3.269   0.480 -0.2167 -0.7274  0.3750
10003SOL     OW30907   1.547   0.618   4.900  0.1166  0.0374  0.5321
10003SOL    HW130908   1.565   0.658   4.990 -0.3120  2.2079 -0.2927
10003SOL    HW230909   1.633   0.587   4.860  0.7772  1.8528  0.4551
10004SOL     OW30910   1.590   0.946   3.028  0.2171 -0.3571 -0.7731
10004SOL    HW130911   1.612   0.880   3.100 -1.2156 -0.4828 -0.4346
10004SOL    HW230912   1.668   0.952   2.965  0.3418 -2.5415 -0.9335
10005SOL     OW30913   4.112   5.953   3.480  0.3343 -0.1021  0.6081
10005SOL    HW130914   4.197   6.000   3.458 -0.9866  1.1413 -2.3574
10005SOL    HW230915   4.038   5.991   3.425 -1.3363 -4.0914 -0.2039
10006SOL     OW30916   2.243   0.324   6.184 -1.0554  0.5609 -0.2860
10006SOL    HW130917   2.222   0.421   6.197 -0.2222  0.8190 -0.7762
10006SOL    HW230918   2.221   0.298   6.090 -1.4862  0.2113 -0.0915
10007SOL     OW30919   0.482   4.871   6.172  0.0110  0.1222 -0.4867
10007SOL    HW130920   0.398   4.922   6.188  0.4216  0.5356  0.4365
10007SOL    HW230921   0.477   4.782   6.218  0.5494  0.6498  0.6345
10008SOL     OW30922   2.146   2.105   5.752 -0.3763 -0.0013 -0.0093
10008SOL    HW130923   2.217   2.159   5.707 -0.9483  0.9249  0.1636
10008SOL    HW230924   2.080   2.074   5.683 -0.9112  0.8853  0.0898
10009SOL     OW30925   3.301   2.000   1.892  0.5084 -0.2750  0.0703
10009SOL    HW130926   3.230   2.041   1.950  1.4250  2.0236 -0.3422
10009SOL    HW230927   3.321   1.908   1.925 -1.2309 -0.2242  1.4318
10010SOL     OW30928   6.660   3.714   3.599  0.4723 -0.1531  0.1249
10010SOL    HW130929   6.668   3.811   3.617 -0.7890 -0.2497  1.4064
10010SOL    HW230930   6.673   3.662   3.684  3.1959 -1.2935 -0.8661
10011SOL     OW30931   6.472   6.346   6.921  0.1861 -0.0472 -0.2213
10011SOL    HW130932   6.421   6.331   7.005  1.5949  1.5590  0.9970
10011SOL    HW230933   6.516   6.436   6.924 -0.0624  0.2555 -2.8784
10012SOL     OW30934   0.423   0.963   6.570  0.0118  0.5246  0.0220
10012SOL    HW130935   0.500   1.026   6.575 -1.4318  2.3514  0.7819
10012SOL    HW230936   0.355   0.999   6.505 -2.1112  1.3624  2.5310
10013SOL     OW30937   4.396   5.913   4.926 -1.0716 -0.2479 -0.3901
10013SOL    HW130938   4.311   5.906   4.874 -1.4059  0.2793  0.0735
10013SOL    HW230939   4.415   5.826   4.970 -0.4710 -0.8868 -1.8556
10014SOL     OW30940   5.774   5.156   0.715  0.5536 -0.1957 -0.4607
10014SOL    HW130941   5.684   5.144   0.758  0.2627 -1.6531 -1.4002
10014SOL    HW230942   5.803   5.070   0.675  2.7143  0.0778  0.4060
10015SOL     OW30943   3.974   2.210   3.889  0.2787  0.2514 -0.5148
10015SOL    HW130944   4.032   2.241   3.814 -0.2420 -1.3563 -1.6190
10015SOL    HW230945   3.909   2.143   3.856  0.4089 -0.9578  1.4839
10016SOL     OW30946   1.969   2.448   0.374  0.1911 -0.1681  0.1800
10016SOL    HW130947   2.000   2.371   0.318 -1.8742 -0.7693 -0.2037
10016SOL    HW230948   1.942   2.415   0.464 -1.8325 -0.1380 -0.3738
10017SOL     OW30949   5.212   1.247   3.208  0.1884  0.4232 -0.0780
10017SOL    HW130950   5.240   1.152   3.198 -0.3343  0.2741 -0.1755
10017SOL    HW230951   5.168   1.260   3.297  0.9991  0.7661  0.2784
10018SOL     OW30952   6.682   3.138   1.974 -0.0947  0.5490  0.2861
10018SOL    HW130953   6.732   3.184   1.901 -0.7959 -0.4282 -0.8504
10018SOL    HW230954   6.590   3.178   1.982 -1.0143 -1.0592 -1.2669
10019SOL     OW30955   4.714   2.466   6.527 -0.2163 -0.4888  0.3203
10019SOL    HW130956   4.688   2.388   6.472 -2.8359  0.6215 -0.1652
10019SOL    HW230957   4.645   2.538   6.519  1.1805  1.1986  2.1340
10020SOL     OW30958   0.219   3.453   4.585 -0.2226  0.3764  0.5393
10020SOL    HW130959   0.185   3.526   4.644  0.4605 -1.1722  2.9851
10020SOL    HW230960   0.298   3.487   4.533 -0.1836  1.5115  1.3029
10021SOL     OW30961   2.269   3.055   4.649 -0.5979 -0.2488  0.3903
10021SOL    HW130962   2.366   3.032   4.648 -0.7748 -0.9843 -0.1355
10021SOL    HW230963   2.257   3.145   4.692  0.4982  0.7299 -1.2552
10022SOL     OW30964   1.672   2.088   0.248  0.7288 -0.0901  0.1923
10022SOL    HW130965   1.714   2.133   0.327  0.6574  0.8020 -0.2672
10022SOL    HW230966   1.684   2.145   0.167 -1.7313  0.3963  0.1144
10023SOL     OW30967   3.931   0.308   5.822 -0.2384  0.6104  0.0105
10023SOL    HW130968   3.961   0.333   5.730  0.1846 -0.0769 -0.0441
10023SOL    HW230969   3.835   0.278   5.818  0.7448 -2.9306 -0.9121
10024SOL     OW30970   0.343   0.012   0.993 -0.1003  0.7340 -0.1766
10024SOL    HW130971   0.265   0.015   0.930 -1.0906 -0.0794  0.9771
10024SOL    HW230972   0.321   0.062   1.076  1.5149  2.5278 -0.7525
10025SOL     OW30973   6.504   6.102   3.066  0.5249 -0.6152 -0.1530
10025SOL    HW130974   6.435   6.030   3.079 -0.7728  0.5241 -0.5266
10025SOL    HW230975   6.492   6.143   2.976 -0.1782  1.5037  0.8480
10026SOL     OW30976   5.447   6.177   2.732 -0.4399 -0.0817 -0.1022
10026SOL    HW130977   5.522   6.243   2.736  0.6013 -1.3025  1.0861
10026SOL    HW230978   5.390   6.198   2.652  1.3282  0.6870 -1.2398
10027SOL     OW30979   2.176   5.824   3.606  0.6541  0.1596 -0.6757
10027SOL    HW130980   2.134   5.915   3.605 -1.4670 -0.7345  0.0930
10027SOL    HW230981   2.172   5.785   3.514  0.6688  0.4657 -0.8079
10028SOL     OW30982   3.478   6.313   1.320 -0.0693  0.0288 -0.3721
10028SOL    HW130983   3.423   6.257   1.382 -1.2757  1.7339  0.1571
10028SOL    HW230984   3.487   6.266   1.232 -0.6376 -1.1922  0.1985
10029SOL     OW30985   1.974   0.547   2.970  0.6721 -0.0004  0.0907
10029SOL    HW130986   1.874   0.547   2.961  0.4956 -2.9725  0.9228
10029SOL    HW230987   2.008   0.641   2.968 -2.0720  1.0707 -0.6806
10030SOL     OW30988   0.370   1.372   2.729  0.2150 -0.1932  0.2362
10030SOL    HW130989   0.388   1.274   2.729  1.6119  0.0410 -0.0002
10030SOL    HW230990   0.404   1.412   2.815  1.1632  0.3089 -0.3442
10031SOL     OW30991   5.354   0.900   1.160 -0.7051 -0.1332 -0.3754
10031SOL    HW130992   5.343   0.989   1.205  1.0993  0.3097 -0.7320
10031SOL    HW230993   5.345   0.827   1.228  0.3357  0.4500  0.4269
10032SOL     OW30994   2.303   2.420   2.616 -0.2382 -0.2623  0.2108
10032SOL    HW130995   2.293   2.340   2.557 -1.5905  0.0599 -0.0261
10032SOL    HW230996   2.400   2.447   2.620  0.6917 -3.3881  2.2844
10033SOL     OW30997   6.340   6.714   2.272 -0.4631 -0.5908  0.5758
10033SOL    HW130998   6.428   6.731   2.227 -2.1417  0.9125 -2.4616
10033SOL    HW230999   6.317   6.792   2.331 -1.0901  0.5688 -1.1091
10034SOL     OW31000   4.035   6.679   3.111  0.0675  0.0404 -0.2931
10034SOL    HW131001   4.114   6.638   3.065  1.7255  1.3763  1.2572
10034SOL    HW231002   3.968   6.607   3.130  2.1475 -1.7369  0.8848
10035SOL     OW31003   0.737   1.361   0.295  0.0013 -0.5522  0.6924
10035SOL    HW131004   0.773   1.425   0.363 -0.7477  1.4245 -0.6924
10035SOL    HW231005   0.638   1.372   0.287 -0.0000 -1.1697 -0.3064
10036SOL     OW31006   4.760   0.499   6.234  0.5624  0.4991 -0.3565
10036SOL    HW131007   4.748   0.550   6.319 -0.4295 -0.1089 -0.1189
10036SOL    HW231008   4.834   0.432   6.245  0.5486  0.5376 -0.0334
10037SOL     OW31009   4.248   1.070   0.558 -0.0905  0.0307 -0.3252
10037SOL    HW131010   4.221   1.105   0.648  0.0047  0.9981 -0.6575
10037SOL    HW231011   4.197   1.119   0.488 -0.5215 -1.0572 -0.7868
10038SOL     OW31012   0.230   2.493   3.996  0.0922  0.2506  0.3153
10038SOL    HW131013   0.286   2.491   3.913  0.0545  1.7311  0.2324
10038SOL    HW231014   0.286   2.464   4.074  0.4069 -0.1748 -0.0613
10039SOL     OW31015   6.316   6.204   1.466  0.1353  0.4526 -0.6168
10039SOL    HW131016   6.311   6.106   1.448 -0.3971 -0.0196  1.8510
10039SOL    HW231017   6.230   6.248   1.441 -0.1208  0.0503 -0.4359
10040SOL     OW31018   5.179   2.637   1.785  0.5975 -0.3916  0.4693
10040SOL    HW131019   5.091   2.677   1.761  0.4676 -0.0465  1.4698
10040SOL    HW231020   5.225   2.605   1.702 -0.0636  0.2477 -0.1594
10041SOL     OW31021   1.189   1.995   6.163  0.1074 -0.1597  0.4096
10041SOL    HW131022   1.247   1.919   6.132  2.3385  0.2201  3.1513
10041SOL    HW231023   1.126   1.961   6.233 -0.1352  0.1791  0.3537
10042SOL     OW31024   6.242   0.900   2.079 -0.1150 -0.8940  0.4499
10042SOL    HW131025   6.329   0.861   2.109  1.1819  1.5988  0.1505
10042SOL    HW231026   6.258   0.985   2.030 -2.7174 -0.6563 -0.1463
10043SOL     OW31027   5.032   0.492   5.000  0.3752  0.9197  0.1814
10043SOL    HW131028   5.038   0.588   4.975 -2.1573  0.9713 -0.5049
10043SOL    HW231029   4.950   0.451   4.959  1.4043 -1.5692  0.3910
10044SOL     OW31030   6.643   5.909   6.837 -0.0516 -0.0412  0.5191
10044SOL    HW131031   6.617   5.993   6.884 -1.7681  1.3086 -2.5175
10044SOL    HW231032   6.738   5.917   6.806 -0.1357  0.7236  0.4230
10045SOL     OW31033   5.472   4.074   5.859  0.2122  0.0328  0.2441
10045SOL    HW131034   5.564   4.068   5.898 -0.0895 -0.5542  0.9082
10045SOL    HW231035   5.446   4.170   5.848  0.7725  0.2018  0.3818
10046SOL     OW31036   1.878   6.690   6.472 -0.0582  0.5195 -0.8449
10046SOL    HW131037   1.799   6.750   6.461  0.0986  0.3593 -3.3374
10046SOL    HW231038   1.855   6.598   6.444  0.6392  0.1451 -0.2300
10047SOL     OW31039   0.314   0.235   0.800 -0.0716  0.1003 -0.3475
10047SOL    HW131040   0.253   0.156   0.792  0.7414 -0.9877  2.8300
10047SOL    HW231041   0.403   0.212   0.760  0.1337 -0.6029  0.4821
10048SOL     OW31042   4.110   3.384   1.301 -0.6336 -0.2545  0.6955
10048SOL    HW131043   4.060   3.336   1.228  1.0164 -1.2366  0.1520
10048SOL    HW231044   4.196   3.419   1.265 -0.2841  0.2157  1.9286
10049SOL     OW31045   5.137   6.020   5.302  1.0046  0.3262  0.0484
10049SOL    HW131046   5.209   6.042   5.368 -0.0777 -0.0549  1.3910
10049SOL    HW231047   5.052   6.064   5.330  0.4282 -0.1672 -0.8906
10050SOL     OW31048   3.075   2.265   0.813  0.7431 -0.1960 -0.1445
10050SOL    HW131049   3.132   2.288   0.734  1.8578 -1.3014  0.3070
10050SOL    HW231050   3.044   2.170   0.806 -1.2707  0.4507 -0.4940
10051SOL     OW31051   2.583   0.250   2.685 -0.3688  0.0439 -0.5248
10051SOL    HW131052   2.585   0.318   2.759  0.4848 -1.5399  0.9696
10051SOL    HW231053   2.669   0.254   2.634  0.0069 -0.4049  0.0561
10052SOL     OW31054   6.006   0.302   0.545 -0.2972 -0.1164 -0.4692
10052SOL    HW131055   6.101   0.324   0.523 -0.0461  1.4777  1.7617
10052SOL    HW231056   5.946   0.374   0.510 -0.7408 -1.1768 -1.9712
10053SOL     OW31057   3.493   1.974   6.619  1.0146  0.1327  0.1810
10053SOL    HW131058   3.528   1.891   6.576 -0.1897 -0.3315  0.0600
10053SOL    HW231059   3.444   2.029   6.551  1.0802  0.5343  0.4541
10054SOL     OW31060   2.147   6.067   6.822 -0.3157  0.2173 -0.5364
10054SOL    HW131061   2.071   6.028   6.874 -0.6994 -0.0956 -1.3234
10054SOL    HW231062   2.111   6.116   6.742  0.2647  0.7695 -0.4665
10055SOL     OW31063   5.032   6.470   5.481  0.0748 -1.0853  0.1572
10055SOL    HW131064   5.003   6.501   5.572  0.5540  0.4027 -0.1602
10055SOL    HW231065   4.953   6.470   5.420  0.2244  0.6666 -0.1053
10056SOL     OW31066   2.561   0.377   5.918  0.1624  0.4478 -0.3049
10056SOL    HW131067   2.655   0.355   5.943 -0.7897 -2.5524  1.0890
10056SOL    HW231068   2.522   0.439   5.986  1.1169  1.8696 -0.9983
10057SOL     OW31069   6.353   5.076   2.746  0.3169  0.7441 -0.3830
10057SOL    HW131070   6.253   5.073   2.750  0.1321  2.5269 -2.2262
10057SOL    HW231071   6.386   4.994   2.699 -0.2839  0.2525  0.0294
10058SOL     OW31072   4.562   1.785   3.543 -0.3494  0.0691 -0.2989
10058SOL    HW131073   4.590   1.699   3.585  2.5311  0.4015 -1.3433
10058SOL    HW231074   4.555   1.856   3.614  0.0233 -0.3854  0.1981
10059SOL     OW31075   5.699   1.143   2.714 -0.2798 -0.1247  0.4231
10059SOL    HW131076   5.724   1.111   2.622 -1.4134  3.3054 -1.2114
10059SOL    HW231077   5.772   1.201   2.750 -1.3920  1.6220 -0.0141
10060SOL     OW31078   0.551   4.291   1.463  0.3850 -0.4640 -0.2354
10060SOL    HW131079   0.471   4.278   1.522  0.0290  1.7247 -0.1721
10060SOL    HW231080   0.592   4.380   1.481  0.7406 -0.0525 -2.7515
10061SOL     OW31081   0.716   1.270   2.143  1.2031  0.2064 -0.0763
10061SOL    HW131082   0.650   1.214   2.093 -0.3708  0.3393  1.7304
10061SOL    HW231083   0.677   1.360   2.160  2.5634  0.8888 -0.4323
10062SOL     OW31084   3.280   6.553   3.916  0.7272  0.4491  0.6452
10062SOL    HW131085   3.268   6.510   3.827 -0.9923  1.1864  0.4908
10062SOL    HW231086   3.199   6.537   3.972  1.5116  0.5611  1.8475
10063SOL     OW31087   4.289   0.460   4.475  0.3842 -0.2527 -0.1474
10063SOL    HW131088   4.280   0.361   4.483 -0.4373 -0.1784 -0.0236
10063SOL    HW231089   4.365   0.491   4.531  0.2285 -0.7417  0.3481
10064SOL     OW31090   5.808   6.577   6.492 -0.3707 -0.4190  0.4462
10064SOL    HW131091   5.718   6.555   6.454  0.1293 -1.1906 -0.3220
10064SOL    HW231092   5.833   6.507   6.559 -0.1351 -0.4588  0.3150
10065SOL     OW31093   4.170   1.582   4.166 -0.1001  0.1250 -0.0726
10065SOL    HW131094   4.070   1.579   4.164 -0.2116  0.6447 -3.9171
10065SOL    HW231095   4.201   1.671   4.132  1.7329  0.0401  1.2101
10066SOL     OW31096   5.082   2.101   4.965 -0.8625 -0.4774  0.3578
10066SOL    HW131097   5.003   2.152   4.999  0.9122  1.9931  1.0494
10066SOL    HW231098   5.159   2.164   4.953  1.7686 -3.1524  2.0681
10067SOL     OW31099   4.401   4.264   6.610  0.2151 -0.0160  0.1231
10067SOL    HW131100   4.420   4.169   6.584 -1.8043 -0.1021 -1.3027
10067SOL    HW231101   4.312   4.291   6.574  0.2602  2.1067  1.4270
10068SOL     OW31102   3.060   4.870   0.761 -0.3070 -0.3751 -0.1049
10068SOL    HW131103   3.108   4.845   0.676 -0.3191 -0.4436 -0.0920
10068SOL    HW231104   3.127   4.904   0.827  0.1046 -2.5732  0.7246
10069SOL     OW31105   2.130   4.093   1.127 -0.5834  0.1611 -0.1588
10069SOL    HW131106   2.168   4.017   1.180 -2.4180  0.0883  1.1484
10069SOL    HW231107   2.183   4.105   1.043  1.5617 -0.6449  0.9920
10070SOL     OW31108   3.449   1.034   6.365 -0.1285 -0.2586 -0.4841
10070SOL    HW131109   3.409   0.944   6.347  0.2128 -0.4069 -0.4986
10070SOL    HW231110   3.469   1.080   6.278 -0.7789  0.0497 -0.4825
10071SOL     OW31111   2.403   4.432   3.479  0.3737  0.3758 -0.2638
10071SOL    HW131112   2.326   4.492   3.505 -1.6380 -2.3399  0.4756
10071SOL    HW231113   2.408   4.427   3.379 -1.1204 -0.1883 -0.3430
10072SOL     OW31114   2.912   0.125   0.515 -0.6250  0.5538  0.0935
10072SOL    HW131115   3.011   0.138   0.526 -0.5550 -0.0634  0.2269
10072SOL    HW231116   2.896   0.053   0.447 -0.9783  0.3922  0.3480
10073SOL     OW31117   4.425   4.793   3.342 -0.1031  0.2353  0.2178
10073SOL    HW131118   4.414   4.802   3.243 -1.0612 -2.8646 -0.0645
10073SOL    HW231119   4.488   4.864   3.375 -1.2821  2.6197 -2.2269
10074SOL     OW31120   4.226   6.424   4.762 -0.0605  0.3087  0.9191
10074SOL    HW131121   4.247   6.454   4.669 -1.7154 -0.5933  0.2038
10074SOL    HW231122   4.230   6.503   4.824 -0.9349  1.3383 -0.2855
10075SOL     OW31123   6.431   6.159   3.428  0.0479  0.0864 -0.5780
10075SOL    HW131124   6.460   6.066   3.449  0.0019  0.1458 -0.2528
10075SOL    HW231125   6.506   6.206   3.381  0.5400  0.2758  0.3707
10076SOL     OW31126   0.656   4.856   5.968  0.0675  0.1544  0.1845
10076SOL    HW131127   0.577   4.852   6.029 -0.0301  0.5433  0.0866
10076SOL    HW231128   0.690   4.763   5.951  0.1091  0.0487  0.8416
10077SOL     OW31129   0.394   5.842   0.865  0.5387  0.3469 -0.0454
10077SOL    HW131130   0.317   5.887   0.911  0.2146 -0.2384 -0.0030
10077SOL    HW231131   0.394   5.866   0.768  0.2185  0.2373 -0.0726
10078SOL     OW31132   4.402   2.321   0.684  0.6119 -0.0328 -0.2587
10078SOL    HW131133   4.304   2.303   0.694  0.7934 -1.2305 -0.4798
10078SOL    HW231134   4.448   2.308   0.772  0.5844  0.5000 -0.1615
10079SOL     OW31135   2.708   2.930   5.734 -0.0759 -0.5902 -0.1778
10079SOL    HW131136   2.681   3.013   5.685  0.9693 -0.6661 -0.9167
10079SOL    HW231137   2.751   2.954   5.821  0.3598 -0.3449 -0.4567
10080SOL     OW31138   3.778   1.799   4.026  0.4457  0.6808  0.7558
10080SOL    HW131139   3.678   1.803   4.038  0.1792  0.7230 -1.1450
10080SOL    HW231140   3.823   1.818   4.114 -1.2122 -0.0979  1.8218
10081SOL     OW31141   6.264   2.203   4.893  0.1416  0.8252 -0.0019
10081SOL    HW131142   6.208   2.286   4.887  0.5026  1.0249 -0.6876
10081SOL    HW231143   6.209   2.123   4.870 -0.0652  0.9368  0.1071
10082SOL     OW31144   4.842   3.029   5.349 -0.0200 -0.0909 -0.0968
10082SOL    HW131145   4.921   3.071   5.395 -0.5258  0.1171  0.5971
10082SOL    HW231146   4.874   2.954   5.291  0.9429  1.3656 -1.5551
10083SOL     OW31147   6.247   3.490   3.920 -0.3784  0.0457 -0.0439
10083SOL    HW131148   6.238   3.445   3.831 -0.9972  2.0430 -1.0521
10083SOL    HW231149   6.297   3.431   3.983  0.5779 -1.1885 -1.8927
10084SOL     OW31150   4.321   4.961   0.536 -0.5454  0.2950  0.6603
10084SOL    HW131151   4.411   4.941   0.574 -0.0196 -1.9952 -1.5093
10084SOL    HW231152   4.251   4.918   0.593 -0.0555 -0.0934  0.9777
10085SOL     OW31153   3.985   3.844   3.037  0.1666  0.3161  0.1265
10085SOL    HW131154   3.961   3.938   3.060  1.1925  0.2558  1.5858
10085SOL    HW231155   3.914   3.782   3.072  0.3582  0.4392  0.7542
10086SOL     OW31156   3.979   6.861   3.386 -0.7497 -0.4304 -0.4914
10086SOL    HW131157   3.908   6.797   3.353 -1.1947  0.0555 -0.4890
10086SOL    HW231158   4.040   6.884   3.311 -0.8888 -0.4649 -0.6154
10087SOL     OW31159   2.635   5.837   6.390  0.1270  0.4621 -0.1653
10087SOL    HW131160   2.657   5.896   6.313 -1.5393 -1.1993 -2.0133
10087SOL    HW231161   2.708   5.769   6.401  0.4436  0.7996 -0.1562
10088SOL     OW31162   1.748   4.993   6.746 -0.3130 -0.0991 -0.6029
10088SOL    HW131163   1.845   4.972   6.757  0.0427  1.7234  0.0283
10088SOL    HW231164   1.733   5.091   6.759 -2.6750 -0.7111  2.5371
10089SOL     OW31165   3.602   3.433   5.197 -0.1057 -0.1241  0.0195
10089SOL    HW131166   3.664   3.430   5.275  0.5245 -1.0781 -0.4912
10089SOL    HW231167   3.576   3.340   5.172 -1.3296  0.2340 -0.1194
10090SOL     OW31168   6.623   1.646   6.076 -0.3733  0.6776  0.2792
10090SOL    HW131169   6.664   1.736   6.060  1.3922 -0.5728 -3.5589
10090SOL    HW231170   6.694   1.580   6.102 -1.2558 -0.0724  0.8650
10091SOL     OW31171   2.356   0.754   2.166 -0.3116  0.1783 -0.2259
10091SOL    HW131172   2.440   0.732   2.116 -0.4799 -0.2959 -0.3011
10091SOL    HW231173   2.306   0.825   2.117 -0.1533  0.1749 -0.3935
10092SOL     OW31174   4.769   3.186   6.956  0.2497  0.5233 -0.1516
10092SOL    HW131175   4.790   3.177   6.858 -0.3239  0.2708 -0.2536
10092SOL    HW231176   4.854   3.199   7.007  0.5764  0.3960 -0.6567
10093SOL     OW31177   3.690   3.610   5.889 -0.0610  0.2851  0.6502
10093SOL    HW131178   3.754   3.555   5.943  0.6521  0.2021 -0.2671
10093SOL    HW231179   3.740   3.673   5.830 -0.8428  2.3049  1.9914
10094SOL     OW31180   2.764   6.970   0.705 -0.2019  0.0220  0.0135
10094SOL    HW131181   2.723   6.879   0.694  1.0180 -0.6091  0.5103
10094SOL    HW231182   2.815   6.994   0.623  0.5967 -0.3417  0.3939
10095SOL     OW31183   5.393   4.618   1.214  0.0830  0.2049 -0.1884
10095SOL    HW131184   5.467   4.553   1.231  0.8391  1.5583  2.1861
10095SOL    HW231185   5.306   4.576   1.239  0.5726  0.0754  1.4209
10096SOL     OW31186   1.106   6.764   0.726 -0.0603 -0.1203 -0.3542
10096SOL    HW131187   1.142   6.850   0.689 -0.8235 -0.1770 -1.2642
10096SOL    HW231188   1.182   6.703   0.750  0.4895 -0.4609 -2.7655
10097SOL     OW31189   5.420   5.635   1.191  0.1911 -0.4653 -0.5821
10097SOL    HW131190   5.471   5.549   1.198  0.9690  0.0412  0.1290
10097SOL    HW231191   5.469   5.707   1.240 -0.8860  0.1931 -0.4413
10098SOL     OW31192   0.343   0.052   1.589  0.0481 -0.1881  0.0082
10098SOL    HW131193   0.406   0.052   1.511 -0.7300 -1.9212 -0.6612
10098SOL    HW231194   0.338   0.145   1.627  0.9818  0.5477 -1.5434
10099SOL     OW31195   1.187   1.626   0.935 -0.8005  0.0007 -0.4474
10099SOL    HW131196   1.199   1.693   0.862 -1.2358  1.0340  0.3991
10099SOL    HW231197   1.206   1.535   0.900 -2.0101  0.3398 -2.1306
10100SOL     OW31198   0.194   1.006   2.186  0.3819 -0.2145  0.0169
10100SOL    HW131199   0.267   1.068   2.215 -0.2220  0.8860 -0.7352
10100SOL    HW231200   0.135   1.053   2.120 -0.5857 -1.3267  0.0628
10101SOL     OW31201   4.696   0.018   2.809  0.1036 -0.2099 -0.4718
10101SOL    HW131202   4.769   0.086   2.820 -1.1831  0.9744  1.4202
10101SOL    HW231203   4.729  -0.070   2.843  1.4072 -0.2958 -1.8569
10102SOL     OW31204   5.148   6.457   0.028 -0.0571  0.2693 -0.2496
10102SOL    HW131205   5.066   6.508  -0.001  0.1665  0.0864 -1.2504
10102SOL    HW231206   5.200   6.429  -0.053  2.2153  2.3201  0.3979
10103SOL     OW31207   0.375   4.545   5.993 -1.0453 -0.3746  0.1718
10103SOL    HW131208   0.324   4.460   6.004 -1.2722 -0.4622 -1.3713
10103SOL    HW231209   0.333   4.616   6.050 -1.7344 -0.9250  0.3679
10104SOL     OW31210   2.498   3.995   5.945  0.8208 -0.5102  0.0846
10104SOL    HW131211   2.552   4.073   5.976  0.5669 -0.7782  1.2437
10104SOL    HW231212   2.484   4.001   5.846  1.8302  0.2635 -0.0213
10105SOL     OW31213   6.241   1.721   3.435  0.1754 -0.2175  0.2338
10105SOL    HW131214   6.249   1.627   3.467  1.4969  0.1145  0.9529
10105SOL    HW231215   6.192   1.723   3.348  2.1025 -1.8425 -0.9876
10106SOL     OW31216   4.956   1.724   2.083  0.2197 -0.3177 -0.0108
10106SOL    HW131217   4.937   1.795   2.150  2.3945  1.1244 -0.8174
10106SOL    HW231218   4.870   1.683   2.052 -0.9651  0.6624  1.8316
10107SOL     OW31219   5.730   5.149   2.158  0.7179  0.2148  0.4299
10107SOL    HW131220   5.643   5.100   2.158  0.2922  0.9107 -1.0272
10107SOL    HW231221   5.725   5.227   2.220  0.1216  0.5416 -0.0203
10108SOL     OW31222   4.238   4.019   0.398  0.4886 -0.1099  0.0691
10108SOL    HW131223   4.263   4.043   0.305  0.6837 -0.7555 -0.0474
10108SOL    HW231224   4.151   3.970   0.398 -0.6222  1.7764  0.4357
10109SOL     OW31225   1.624   0.671   6.093  0.0111  0.5083  0.0492
10109SOL    HW131226   1.581   0.747   6.142  1.6961  1.5683 -0.0363
10109SOL    HW231227   1.715   0.698   6.063 -0.9940  0.0427 -4.0091
10110SOL     OW31228   6.180   0.779   5.179  0.0210  0.0676  0.1465
10110SOL    HW131229   6.259   0.727   5.146  0.2716  0.0534  0.7454
10110SOL    HW231230   6.185   0.873   5.144 -0.3709 -0.2756 -0.8434
10111SOL     OW31231   4.001   5.789   1.689  0.2766 -0.3452 -0.4048
10111SOL    HW131232   4.078   5.729   1.669  1.1958  0.7745 -0.3383
10111SOL    HW231233   4.004   5.869   1.629 -1.4489 -0.7770 -1.1300
10112SOL     OW31234   6.066   6.693   0.153 -0.0090 -1.1895 -0.3579
10112SOL    HW131235   5.968   6.704   0.167  0.4223 -0.6363  2.8612
10112SOL    HW231236   6.105   6.641   0.228  2.6426  1.4504  0.2627
10113SOL     OW31237   0.283   4.421   3.086 -0.0574 -1.1859 -0.2913
10113SOL    HW131238   0.372   4.391   3.118  0.3484 -0.5994 -0.8336
10113SOL    HW231239   0.293   4.506   3.034 -1.0491 -0.6027  0.4273
10114SOL     OW31240   4.193   5.260   3.967 -0.6673  0.0690  0.9121
10114SOL    HW131241   4.100   5.243   3.999 -0.2689 -1.4513  1.3709
10114SOL    HW231242   4.255   5.266   4.045 -0.0169 -1.4514  0.5514
10115SOL     OW31243   0.365   4.062   3.132 -0.3506  0.0561 -0.2585
10115SOL    HW131244   0.279   4.013   3.115  0.4183 -1.1338 -0.7791
10115SOL    HW231245   0.353   4.121   3.212 -1.8240  0.3410 -0.6491
10116SOL     OW31246   1.664   5.325   2.778  0.0816  0.0758 -0.1116
10116SOL    HW131247   1.564   5.333   2.777  0.0867  0.2300  0.2358
10116SOL    HW231248   1.691   5.233   2.751 -0.0515  0.7380 -2.7987
10117SOL     OW31249   4.305   6.787   5.391  0.2054  0.3391 -0.2830
10117SOL    HW131250   4.331   6.819   5.299  1.1591  2.6206  0.7059
10117SOL    HW231251   4.238   6.713   5.383 -0.4807  1.1402 -2.7864
10118SOL     OW31252   5.572   0.477   0.619 -0.1883  0.3916  0.1750
10118SOL    HW131253   5.511   0.535   0.565 -1.1094  0.2797  1.0626
10118SOL    HW231254   5.667   0.494   0.593 -0.5578  0.9946 -0.8208
10119SOL     OW31255   4.624   5.450   4.280 -0.6536 -0.2362  0.5080
10119SOL    HW131256   4.606   5.376   4.214  0.3427  0.7989 -0.9949
10119SOL    HW231257   4.547   5.513   4.280 -1.7309 -1.4786  2.1618
10120SOL     OW31258   5.318   6.962   1.215  0.0749  0.5099 -0.1562
10120SOL    HW131259   5.362   7.051   1.222  3.2143 -1.0624  2.4360
10120SOL    HW231260   5.387   6.891   1.206 -2.2342 -1.8580 -0.4866
10121SOL     OW31261   2.333   6.930   0.161 -0.0604  0.6059  0.4827
10121SOL    HW131262   2.405   6.921   0.230  0.1492  1.0859  0.3305
10121SOL    HW231263   2.369   6.977   0.081 -0.5880  1.0154  0.4778
10122SOL     OW31264   5.831   4.290   3.837  0.2569  0.2231 -0.0502
10122SOL    HW131265   5.778   4.349   3.898 -0.7838  0.4660 -1.1510
10122SOL    HW231266   5.811   4.194   3.857 -0.3024  0.3066 -0.1881
10123SOL     OW31267   3.200   0.057   3.522  0.0167 -0.0232 -0.3964
10123SOL    HW131268   3.176   0.081   3.428  1.9299  0.7632 -0.7226
10123SOL    HW231269   3.241   0.137   3.567  0.8620 -0.9433  0.5011
10124SOL     OW31270   1.594   6.589   1.766 -0.0105 -0.6576  0.6333
10124SOL    HW131271   1.543   6.674   1.772 -0.2598 -0.6141 -1.4057
10124SOL    HW231272   1.591   6.541   1.854 -1.0310  0.7577  1.3953
10125SOL     OW31273   3.419   1.367   2.364  0.1240  0.1099  0.3228
10125SOL    HW131274   3.445   1.278   2.326 -2.2708 -0.2462 -0.6837
10125SOL    HW231275   3.365   1.353   2.448 -3.7904  0.1900 -1.9149
10126SOL     OW31276   5.751   5.275   1.177 -0.1262  0.3728  0.2965
10126SOL    HW131277   5.848   5.254   1.168 -0.6224 -1.9105 -0.5244
10126SOL    HW231278   5.722   5.334   1.101  0.0595 -1.3587 -1.1713
10127SOL     OW31279   3.692   3.232   0.426 -0.5463  0.4338 -0.2739
10127SOL    HW131280   3.627   3.164   0.391 -1.1474  1.0957 -0.4816
10127SOL    HW231281   3.688   3.234   0.526  0.1209 -0.4492 -0.2199
10128SOL     OW31282   0.839   0.331   4.355 -0.2622  0.1882  0.7836
10128SOL    HW131283   0.793   0.262   4.411 -1.2954 -0.1839 -0.4780
10128SOL    HW231284   0.901   0.384   4.412 -2.0248  0.5027  2.5033
10129SOL     OW31285   0.610   6.351   3.864 -0.1808  0.4006  0.0652
10129SOL    HW131286   0.656   6.275   3.819  1.3076  0.8587  0.7208
10129SOL    HW231287   0.566   6.409   3.796 -0.9252 -0.7828 -0.4758
10130SOL     OW31288   3.397   0.053   3.807  0.5744 -0.3515 -0.0392
10130SOL    HW131289   3.305   0.014   3.816  0.5505 -0.1767  0.5244
10130SOL    HW231290   3.396   0.126   3.739  0.3345 -0.4637 -0.1579
10131SOL     OW31291   2.200   0.041   6.529  0.5104 -0.3161  0.6098
10131SOL    HW131292   2.208  -0.043   6.475 -0.3143 -0.0749  0.0976
10131SOL    HW231293   2.195   0.018   6.626  0.6782 -0.8317  0.5007
10132SOL     OW31294   4.926   3.566   5.900 -0.6431  0.0684 -0.2509
10132SOL    HW131295   4.917   3.479   5.851 -0.7213  0.0060 -0.1252
10132SOL    HW231296   5.012   3.610   5.873 -0.2835 -0.3613  0.1771
10133SOL     OW31297   4.974   0.387   4.337 -0.2270 -0.0768 -0.1030
10133SOL    HW131298   5.024   0.456   4.389 -3.2060  1.3376  1.0770
10133SOL    HW231299   5.017   0.375   4.247  1.5479  1.8083  0.4448
10134SOL     OW31300   0.345   5.506   3.217  0.4126  0.1985  0.0376
10134SOL    HW131301   0.327   5.428   3.158  0.5223  0.0248  0.2288
10134SOL    HW231302   0.294   5.586   3.185  2.0220  0.6627 -1.4997
10135SOL     OW31303   4.435   2.093   4.772  0.1610 -0.1805  0.1185
10135SOL    HW131304   4.357   2.114   4.832  0.2321 -0.8644  0.4650
10135SOL    HW231305   4.508   2.052   4.827  1.6079  2.3224  0.1994
10136SOL     OW31306   2.878   0.464   6.178  0.3231  0.3969  0.4468
10136SOL    HW131307   2.848   0.390   6.117 -0.2248  0.8628  0.1369
10136SOL    HW231308   2.978   0.473   6.172  0.4285 -0.4986  0.7065
10137SOL     OW31309   5.191   0.514   4.252 -0.3158  0.1836  0.1012
10137SOL    HW131310   5.254   0.451   4.206  1.9627  1.3774  1.4053
10137SOL    HW231311   5.230   0.542   4.340 -3.4007 -0.1701  1.7305
10138SOL     OW31312   6.112   6.258   6.678  0.2586  0.1068 -0.7286
10138SOL    HW131313   6.202   6.278   6.639  1.4652 -0.9399  1.3411
10138SOL    HW231314   6.087   6.163   6.658  0.9281 -0.4725  0.9343
10139SOL     OW31315   5.431   2.668   3.071 -0.2205  0.0194  0.1621
10139SOL    HW131316   5.506   2.611   3.039 -2.8425 -2.2727 -2.4393
10139SOL    HW231317   5.359   2.610   3.111 -1.1715  1.9757  1.4589
10140SOL     OW31318   1.136   2.320   6.440 -0.0887 -0.4403  0.2931
10140SOL    HW131319   1.149   2.413   6.474  0.0189 -0.0718 -0.7185
10140SOL    HW231320   1.165   2.315   6.344 -0.9818 -1.2872  0.0514
10141SOL     OW31321   3.701   3.305   5.461 -0.3806 -0.9570 -0.2580
10141SOL    HW131322   3.732   3.214   5.436  2.3207 -0.7379  1.8925
10141SOL    HW231323   3.649   3.301   5.546  0.8294 -0.3819  0.5272
10142SOL     OW31324   0.211   0.569   6.531  0.2127  0.5865 -0.4933
10142SOL    HW131325   0.181   0.584   6.437 -0.2113  1.2886 -0.2560
10142SOL    HW231326   0.136   0.590   6.594  1.4694  3.6572  0.1948
10143SOL     OW31327   3.109   3.736   4.391  0.1269  0.4669  0.1128
10143SOL    HW131328   3.112   3.831   4.420 -0.4932  1.0089 -1.4826
10143SOL    HW231329   3.017   3.699   4.406  0.2840  0.2078  0.4516
10144SOL     OW31330   6.811   6.630   1.404 -0.3040 -0.5806  0.1892
10144SOL    HW131331   6.877   6.560   1.377 -0.9642 -1.3984  0.6431
10144SOL    HW231332   6.780   6.680   1.323 -0.7833 -1.6807 -0.3264
10145SOL     OW31333   2.767   1.212   4.856 -0.3417 -0.3200 -0.1754
10145SOL    HW131334   2.847   1.206   4.796 -0.8737 -0.4455 -0.8875
10145SOL    HW231335   2.729   1.305   4.852 -0.8556 -0.5480 -0.6649
10146SOL     OW31336   0.973   5.591   3.910 -0.2387  0.3983  0.2679
10146SOL    HW131337   0.940   5.655   3.841  0.3070  0.4349  0.0300
10146SOL    HW231338   1.062   5.622   3.945 -0.6038  0.4882  1.1429
10147SOL     OW31339   0.502   4.338   2.268  0.0048 -0.1062 -0.2552
10147SOL    HW131340   0.478   4.297   2.180 -0.1797 -0.6336  0.0432
10147SOL    HW231341   0.419   4.365   2.317  0.0360 -1.1848  0.4148
10148SOL     OW31342   5.536   3.936   1.309  0.3481 -0.1131  0.0677
10148SOL    HW131343   5.532   3.873   1.386 -0.7813 -0.2995 -0.1271
10148SOL    HW231344   5.571   4.025   1.340  0.5103 -0.3754  0.6505
10149SOL     OW31345   1.023   5.988   2.944  0.2977  0.3828  0.2750
10149SOL    HW131346   1.083   6.068   2.948 -0.3389  0.9318 -0.6323
10149SOL    HW231347   1.071   5.908   2.981 -0.0890  1.7416  4.2770
10150SOL     OW31348   6.899   6.416   5.333  0.6449 -0.4715  0.1474
10150SOL    HW131349   6.946   6.407   5.245  1.8539 -0.6083  0.7816
10150SOL    HW231350   6.952   6.370   5.404  0.2398  0.5539  1.1458
10151SOL     OW31351   7.005   5.869   7.009 -0.3242  0.2968 -0.5141
10151SOL    HW131352   6.958   5.899   7.092 -2.0657 -0.2930 -1.2495
10151SOL    HW231353   7.104   5.870   7.025 -0.4284  2.9991  0.6260
10152SOL     OW31354   1.409   2.242   2.930  0.3824 -0.2096  0.1200
10152SOL    HW131355   1.432   2.156   2.974  1.1816 -0.4723 -0.7724
10152SOL    HW231356   1.309   2.253   2.925  0.2177 -1.9456 -1.3599
10153SOL     OW31357   5.319   6.049   5.093  0.0812 -0.5450 -0.5857
10153SOL    HW131358   5.250   6.028   5.162  0.0999 -0.3621 -0.5120
10153SOL    HW231359   5.326   6.148   5.082  1.0854 -0.5248  0.1607
10154SOL     OW31360   5.313   1.675   6.660  0.2117  0.3268 -0.0384
10154SOL    HW131361   5.294   1.599   6.722  0.0634 -0.8057 -1.4369
10154SOL    HW231362   5.230   1.699   6.610 -0.1089  2.3590  1.3611
10155SOL     OW31363   6.466   2.910   6.498 -0.0929 -0.2900  0.4823
10155SOL    HW131364   6.457   2.924   6.399  2.5577  0.5286  0.2977
10155SOL    HW231365   6.398   2.965   6.546 -0.3720  0.5437 -0.8302
10156SOL     OW31366   3.680   3.721   3.885  0.4457 -0.1730 -0.2892
10156SOL    HW131367   3.758   3.659   3.877 -0.2869 -0.9309 -2.0305
10156SOL    HW231368   3.690   3.795   3.818  0.8507  1.1219  1.1414
10157SOL     OW31369   3.562   3.867   6.643 -0.0256 -0.1122 -0.3444
10157SOL    HW131370   3.631   3.885   6.574  0.1557 -0.7803 -0.3454
10157SOL    HW231371   3.591   3.905   6.731  0.5936 -0.8322 -0.2252
10158SOL     OW31372   3.441   5.958   1.406  0.5745  0.4211  0.0538
10158SOL    HW131373   3.479   6.034   1.459  1.0672 -0.2331  0.6514
10158SOL    HW231374   3.516   5.904   1.367  0.2265  0.2105 -0.3304
10159SOL     OW31375   4.184   2.077   5.533  0.2941 -0.2459 -0.4182
10159SOL    HW131376   4.160   2.102   5.627  0.6225 -1.6387  0.0606
10159SOL    HW231377   4.117   2.013   5.497  1.0930 -1.0490 -0.5073
10160SOL     OW31378   3.625   0.470   5.563 -0.0334 -0.2557  0.0977
10160SOL    HW131379   3.699   0.464   5.631  2.6897  1.7402 -2.4288
10160SOL    HW231380   3.606   0.379   5.527  0.0362 -1.0293  1.8864
10161SOL     OW31381   0.488   5.691   6.804 -0.1154 -0.1559  0.2570
10161SOL    HW131382   0.485   5.642   6.718 -1.5055  0.2532  0.0453
10161SOL    HW231383   0.543   5.775   6.794 -1.8244  0.8785 -0.7934
10162SOL     OW31384   2.625   5.374   0.318  0.0052  0.4518 -0.1956
10162SOL    HW131385   2.593   5.466   0.296 -0.9847  0.5220  1.3559
10162SOL    HW231386   2.547   5.312   0.327  0.4893 -0.0481  0.8265
10163SOL     OW31387   6.933   2.657   3.262  0.1874 -0.4242  0.7740
10163SOL    HW131388   6.895   2.625   3.349 -0.3235 -1.0295  0.3339
10163SOL    HW231389   6.993   2.587   3.224  1.3999  0.3375  1.2334
10164SOL     OW31390   1.559   2.022   2.980  0.8867  0.1860 -0.0572
10164SOL    HW131391   1.558   1.935   2.931 -0.2424  0.6690 -0.9407
10164SOL    HW231392   1.557   2.098   2.914 -1.6139  0.8561  0.6634
10165SOL     OW31393   2.577   6.886   3.437 -0.2134 -0.4531  0.6847
10165SOL    HW131394   2.637   6.885   3.357 -0.3210  1.5213  0.5248
10165SOL    HW231395   2.490   6.845   3.413 -0.8569  1.5811 -0.7943
10166SOL     OW31396   0.946   1.818   5.776  0.8422 -0.6611 -0.1961
10166SOL    HW131397   0.924   1.721   5.788  0.5577 -0.5651  0.0472
10166SOL    HW231398   1.033   1.838   5.822  0.4831 -0.6149  0.4644
10167SOL     OW31399   2.941   5.233   1.953 -0.4659 -0.4550  0.0382
10167SOL    HW131400   2.847   5.199   1.949 -0.1898 -1.4952  1.5204
10167SOL    HW231401   3.005   5.156   1.959  0.4775  0.2472 -0.4949
10168SOL     OW31402   1.363   5.596   4.711 -0.3316  0.1364  0.5196
10168SOL    HW131403   1.301   5.589   4.633  0.6784  3.2656 -0.7003
10168SOL    HW231404   1.325   5.661   4.777  0.7476  0.6150  0.6776
10169SOL     OW31405   3.303   2.533   5.343 -0.5456  0.1216  0.1173
10169SOL    HW131406   3.321   2.478   5.425  1.1142 -0.3160 -0.5212
10169SOL    HW231407   3.256   2.477   5.275  2.1304 -0.9364 -0.9701
10170SOL     OW31408   1.872   2.146   2.048  0.1238 -0.1203  0.9667
10170SOL    HW131409   1.871   2.219   1.979 -0.6945 -0.2727  0.8091
10170SOL    HW231410   1.840   2.181   2.135 -1.4641 -0.5614  0.5908
10171SOL     OW31411   5.023   4.026   2.739 -0.0876  1.1088 -0.2454
10171SOL    HW131412   4.951   3.958   2.747 -0.0917  1.3398  3.1587
10171SOL    HW231413   5.112   3.979   2.730 -0.3441  0.7444 -0.9251
10172SOL     OW31414   2.950   1.706   1.198 -0.0870  0.6515 -0.2938
10172SOL    HW131415   2.898   1.668   1.275  1.8363  0.1638  0.8387
10172SOL    HW231416   3.040   1.736   1.230  1.2507 -0.6517 -2.5348
10173SOL     OW31417   3.163   2.389   1.322  0.2283  0.3533 -0.2049
10173SOL    HW131418   3.084   2.395   1.382  0.2885 -3.3295  0.4344
10173SOL    HW231419   3.137   2.350   1.234  0.9491  1.5489 -0.9959
10174SOL     OW31420   0.630   4.305   0.132  0.2583  0.4747 -0.0280
10174SOL    HW131421   0.613   4.274   0.039  0.9017 -0.1799  0.0554
10174SOL    HW231422   0.550   4.286   0.189 -0.4463  1.6015 -0.5998
10175SOL     OW31423   6.469   1.032   3.899 -0.5659  0.4294 -0.1817
10175SOL    HW131424   6.543   0.980   3.941 -0.7072 -1.7457 -2.3992
10175SOL    HW231425   6.423   1.088   3.968  0.8324 -0.9095  1.9372
10176SOL     OW31426   4.341   6.832   3.328  0.3425  0.1504  0.0548
10176SOL    HW131427   4.343   6.922   3.372 -0.1833 -0.1281  0.6669
10176SOL    HW231428   4.397   6.834   3.246  0.3655  1.0312  0.0815
10177SOL     OW31429   0.852   2.996   5.272 -0.5647  0.3932 -0.0325
10177SOL    HW131430   0.863   3.077   5.214  1.9968  1.5037  1.7751
10177SOL    HW231431   0.832   3.025   5.366  2.7097 -0.7657  1.1888
10178SOL     OW31432   5.869   3.297   5.801  0.1778 -0.4001 -0.1730
10178SOL    HW131433   5.879   3.308   5.702  0.5261 -1.3168 -0.2474
10178SOL    HW231434   5.933   3.228   5.833 -1.0787 -1.3230  0.4422
10179SOL     OW31435   1.923   0.128   3.348 -0.0624  0.6340  0.1871
10179SOL    HW131436   1.895   0.211   3.302  2.0133  0.4493 -1.5579
10179SOL    HW231437   2.014   0.140   3.387 -0.7595 -0.0336  2.1602
10180SOL     OW31438   2.601   6.501   0.317 -0.2856  0.4222  0.1031
10180SOL    HW131439   2.567   6.584   0.362  0.3015  0.9531 -0.4244
10180SOL    HW231440   2.525   6.455   0.272 -0.4422  1.2114 -0.4523
10181SOL     OW31441   2.493   7.015   1.945 -0.1775 -0.1106 -0.0201
10181SOL    HW131442   2.506   6.917   1.933 -0.1393 -0.1846  0.6180
10181SOL    HW231443   2.582   7.059   1.960 -0.3890 -0.2731  1.8156
10182SOL     OW31444   0.648   5.555   3.334 -0.1490  0.0931 -0.3448
10182SOL    HW131445   0.683   5.471   3.291  0.3973 -0.2077  0.6733
10182SOL    HW231446   0.656   5.548   3.433 -1.4162  0.7805 -0.1799
10183SOL     OW31447   5.137   2.720   5.760  0.2610  0.3879  0.0384
10183SOL    HW131448   5.052   2.772   5.759 -0.5878 -0.9690 -0.1611
10183SOL    HW231449   5.214   2.783   5.767 -0.7263  1.6639 -0.2511
10184SOL     OW31450   5.858   0.754   4.963 -0.2905 -0.4948 -0.4837
10184SOL    HW131451   5.891   0.825   4.901 -2.0566 -0.2995 -1.2408
10184SOL    HW231452   5.824   0.676   4.910 -2.4928 -0.0350  0.1633
10185SOL     OW31453   1.481   6.294   0.278 -0.5065  0.1049  0.4179
10185SOL    HW131454   1.557   6.360   0.282  0.1769 -0.6909  0.8678
10185SOL    HW231455   1.461   6.273   0.182 -0.0357  0.1892  0.2962
10186SOL     OW31456   1.802   2.192   4.503 -0.1923 -0.2804 -0.0752
10186SOL    HW131457   1.711   2.213   4.468 -0.6404 -0.1887  1.1115
10186SOL    HW231458   1.871   2.225   4.439 -0.9872 -1.9735 -1.9225
10187SOL     OW31459   3.007   4.836   5.488  0.2582  0.5839  0.3812
10187SOL    HW131460   2.909   4.817   5.499  0.6573 -2.1622 -0.0056
10187SOL    HW231461   3.029   4.839   5.391  0.7821 -0.4781  0.4492
10188SOL     OW31462   5.353   0.631   0.074 -0.0579 -0.3384 -0.2676
10188SOL    HW131463   5.383   0.709   0.128 -0.1982 -0.1960 -0.3923
10188SOL    HW231464   5.262   0.603   0.104  1.0415 -2.1611  1.6209
10189SOL     OW31465   5.650   3.964   3.352 -0.3122 -0.0306  0.1018
10189SOL    HW131466   5.579   3.925   3.409  0.1266 -0.7832  0.1485
10189SOL    HW231467   5.669   4.058   3.381 -0.8642 -0.0298  0.4688
10190SOL     OW31468   4.065   5.456   2.300  0.1659 -0.1150 -0.1997
10190SOL    HW131469   4.085   5.550   2.328  0.1442 -0.4149  0.8678
10190SOL    HW231470   3.969   5.436   2.320  0.5849 -0.8942  1.2054
10191SOL     OW31471   3.732   2.271   0.677 -0.2772  0.0374 -0.5023
10191SOL    HW131472   3.765   2.240   0.767 -1.4174 -0.6881 -0.3117
10191SOL    HW231473   3.633   2.283   0.681 -0.1058  1.9692 -1.1119
10192SOL     OW31474   4.515   4.758   1.017  0.1659 -0.0248 -0.0655
10192SOL    HW131475   4.607   4.782   0.987 -0.1680  1.6133  0.1567
10192SOL    HW231476   4.521   4.694   1.094  1.0692 -1.2370 -1.1015
10193SOL     OW31477   5.474   4.917   5.541  0.7626  0.1418  0.2363
10193SOL    HW131478   5.511   4.984   5.477 -0.8821 -0.0307 -0.9501
10193SOL    HW231479   5.479   4.954   5.634  1.9796  0.9370 -0.1234
10194SOL     OW31480   5.090   1.783   3.705  0.2885 -0.4722  0.2170
10194SOL    HW131481   5.015   1.831   3.658  1.3784  0.5822 -0.4937
10194SOL    HW231482   5.102   1.693   3.664  0.6150  0.0763 -0.9319
10195SOL     OW31483   0.778   2.310   0.540 -0.4506 -0.0963 -0.6059
10195SOL    HW131484   0.720   2.295   0.459 -0.3037  1.9717 -1.1638
10195SOL    HW231485   0.846   2.237   0.546 -0.5735 -0.3980 -2.2591
10196SOL     OW31486   1.530   3.627   3.246  0.5685 -0.1394  0.2012
10196SOL    HW131487   1.449   3.603   3.298  1.3129 -1.8930  0.6386
10196SOL    HW231488   1.505   3.689   3.171 -1.2200 -0.8990  0.1240
10197SOL     OW31489   2.147   1.818   1.532  0.2100  0.2242  0.4041
10197SOL    HW131490   2.207   1.786   1.458  0.6596  1.9786 -0.0235
10197SOL    HW231491   2.198   1.880   1.592 -0.6715  0.2765  1.1207
10198SOL     OW31492   5.146   3.385   4.723  0.1917 -0.3416 -0.3719
10198SOL    HW131493   5.116   3.404   4.630 -0.6741  1.1389  0.1738
10198SOL    HW231494   5.117   3.459   4.784  1.8447 -0.6453  0.8640
10199SOL     OW31495   2.442   3.521   5.345  0.2915 -0.3494 -0.4555
10199SOL    HW131496   2.352   3.481   5.328  0.5838 -0.5678 -1.5305
10199SOL    HW231497   2.438   3.619   5.327  0.3366 -0.4033 -0.7561
10200SOL     OW31498   5.648   5.365   4.019  0.1293 -0.0182  0.1968
10200SOL    HW131499   5.709   5.289   4.045 -0.4119 -0.5289 -0.0005
10200SOL    HW231500   5.553   5.339   4.037 -0.0231  0.8234  0.6190
10201SOL     OW31501   6.581   4.208   3.816 -0.5566  0.8543  0.0905
10201SOL    HW131502   6.651   4.137   3.819 -0.7477  0.5833 -1.1194
10201SOL    HW231503   6.499   4.176   3.863 -0.2817  0.6914  0.4619
10202SOL     OW31504   1.339   4.624   5.226 -0.3188 -0.4589  0.2843
10202SOL    HW131505   1.382   4.643   5.138  1.2705 -0.6560  0.9815
10202SOL    HW231506   1.302   4.709   5.265 -0.4862 -0.2673 -0.2869
10203SOL     OW31507   0.158   3.199   1.720 -0.2652  0.1971  0.3246
10203SOL    HW131508   0.139   3.295   1.702 -1.6891 -0.4712 -2.1091
10203SOL    HW231509   0.169   3.186   1.819 -0.0391  2.8087  0.7238
10204SOL     OW31510   2.913   1.008   3.692 -0.7821 -0.5249 -0.1430
10204SOL    HW131511   2.986   1.021   3.760 -0.6197  0.8132 -0.5445
10204SOL    HW231512   2.850   0.937   3.724  0.7400 -1.7938  0.1641
10205SOL     OW31513   0.108   1.677   6.375 -0.1124 -0.1032  0.2430
10205SOL    HW131514   0.103   1.577   6.374 -0.5075 -0.0776 -0.3049
10205SOL    HW231515   0.062   1.714   6.295 -1.6814  0.5965  1.4221
10206SOL     OW31516   6.198   5.605   6.964  0.6784 -0.1898 -0.3576
10206SOL    HW131517   6.244   5.654   7.038 -0.7520 -1.1202  1.2171
10206SOL    HW231518   6.124   5.660   6.927 -0.0491 -0.5883  0.4740
10207SOL     OW31519   5.555   1.590   0.315 -0.3656 -0.1730 -0.2670
10207SOL    HW131520   5.566   1.604   0.217  0.7001  1.7062  0.0701
10207SOL    HW231521   5.626   1.528   0.349  1.4992  1.8772 -0.1877
10208SOL     OW31522   5.420   5.846   6.988  0.7269 -0.0368 -0.2348
10208SOL    HW131523   5.459   5.775   6.929  1.6327  0.4844 -0.2878
10208SOL    HW231524   5.426   5.817   7.083 -0.8964 -0.9568 -0.3697
10209SOL     OW31525   1.225   6.481   6.700 -0.2901  0.3506 -0.1500
10209SOL    HW131526   1.147   6.542   6.714 -0.9370 -0.8980  2.0489
10209SOL    HW231527   1.290   6.493   6.774  0.4392 -0.3917 -0.6485
10210SOL     OW31528   4.908   4.730   4.608 -0.3379  0.1327 -0.3475
10210SOL    HW131529   4.888   4.769   4.698  0.4358 -1.7900  0.7130
10210SOL    HW231530   4.962   4.795   4.554 -2.8312  2.3156 -0.4222
10211SOL     OW31531   4.715   4.340   4.553  0.1621  0.1289  0.1816
10211SOL    HW131532   4.665   4.424   4.574  0.5302  0.3360  0.2283
10211SOL    HW231533   4.701   4.274   4.627  0.2044  0.2993  0.3425
10212SOL     OW31534   3.164   0.249   4.159 -0.1078 -0.2025  0.2183
10212SOL    HW131535   3.092   0.255   4.089 -0.1787  2.2919  0.4019
10212SOL    HW231536   3.239   0.193   4.125  0.0410  1.2577 -2.1109
10213SOL     OW31537   1.570   3.822   6.590  0.6491 -0.3949 -0.4309
10213SOL    HW131538   1.553   3.877   6.508  0.0807 -1.6306 -1.1568
10213SOL    HW231539   1.630   3.873   6.651  1.2994  0.4444 -1.7192
10214SOL     OW31540   6.400   4.665   0.630  0.0990  0.4704  0.1401
10214SOL    HW131541   6.379   4.643   0.534 -3.8945  1.0363  0.7046
10214SOL    HW231542   6.465   4.740   0.633 -0.5598  1.2332 -2.1954
10215SOL     OW31543   3.814   3.674   3.183  0.0658 -0.5934 -0.3651
10215SOL    HW131544   3.736   3.716   3.230  0.5130 -1.2454  0.9774
10215SOL    HW231545   3.877   3.635   3.249  2.6196  1.6672 -1.2927
10216SOL     OW31546   0.052   2.376   0.527  0.2480 -0.2076 -0.0212
10216SOL    HW131547   0.143   2.396   0.562  0.6567  0.7732 -1.5791
10216SOL    HW231548   0.004   2.461   0.506 -0.2816 -0.7384 -1.0706
10217SOL     OW31549   6.871   2.397   2.272 -1.1320  0.3470  0.0080
10217SOL    HW131550   6.849   2.345   2.355 -0.6477 -1.4596 -0.9339
10217SOL    HW231551   6.808   2.371   2.199 -0.4296  0.5540 -0.6837
10218SOL     OW31552   0.677   2.306   4.127 -0.2460  0.2644  0.5864
10218SOL    HW131553   0.744   2.381   4.129 -1.7154  1.6243  0.9761
10218SOL    HW231554   0.721   2.222   4.159  1.7121  0.6876 -0.7605
10219SOL     OW31555   4.684   1.696   5.349 -0.0493  0.6126  0.2564
10219SOL    HW131556   4.693   1.725   5.444 -3.2195 -1.3574  1.3015
10219SOL    HW231557   4.617   1.622   5.343 -0.7353  1.3609 -3.6942
10220SOL     OW31558   0.557   0.794   0.671  0.2948  0.0335 -0.1569
10220SOL    HW131559   0.547   0.724   0.742 -1.6053  0.0684 -0.3409
10220SOL    HW231560   0.601   0.754   0.591  1.7742 -0.1988  0.7285
10221SOL     OW31561   5.474   6.069   3.555 -0.0680  0.4006  0.0327
10221SOL    HW131562   5.540   6.031   3.491 -0.5742  1.5705 -1.2345
10221SOL    HW231563   5.413   6.132   3.507 -1.8888 -0.3645  1.2209
10222SOL     OW31564   5.152   0.158   0.591  0.1056  0.0400 -0.6153
10222SOL    HW131565   5.076   0.151   0.656  0.1093 -0.4965 -0.6590
10222SOL    HW231566   5.180   0.253   0.582 -0.6662  0.2716 -0.7098
10223SOL     OW31567   2.898   3.663   4.625 -0.1012  0.1728 -0.3213
10223SOL    HW131568   2.918   3.760   4.630  0.0585  0.1841 -1.0131
10223SOL    HW231569   2.879   3.627   4.716  1.4600  0.4980  0.1584
10224SOL     OW31570   0.401   0.774   5.512 -0.1965 -0.0985 -0.1581
10224SOL    HW131571   0.330   0.736   5.452 -0.8876  2.8062 -1.3259
10224SOL    HW231572   0.471   0.818   5.457  1.1332 -0.5594  1.1059
10225SOL     OW31573   3.100   0.666   3.727 -0.0703  0.0271 -0.2298
10225SOL    HW131574   3.097   0.691   3.823 -0.6887 -0.2686 -0.1683
10225SOL    HW231575   3.007   0.664   3.690  0.2387  1.6058 -1.2130
10226SOL     OW31576   4.737   5.252   5.429  0.0806  0.0308  0.0572
10226SOL    HW131577   4.665   5.224   5.492 -0.9956  0.6910 -0.8337
10226SOL    HW231578   4.810   5.184   5.429 -0.4728 -0.5906  1.0793
10227SOL     OW31579   2.967   5.285   6.805 -0.1410 -0.1431  0.0194
10227SOL    HW131580   2.883   5.307   6.855  0.2335  0.2103  0.4920
10227SOL    HW231581   2.984   5.355   6.736 -0.0225 -0.0099  0.1848
10228SOL     OW31582   2.434   1.328   3.137  0.0916 -0.5703 -0.1473
10228SOL    HW131583   2.365   1.400   3.128  0.9997  0.1546 -1.9275
10228SOL    HW231584   2.399   1.256   3.196 -0.9331  1.2208  1.5606
10229SOL     OW31585   6.257   5.547   4.018  0.4199 -0.2425 -0.1534
10229SOL    HW131586   6.201   5.630   4.017 -0.4980 -0.8027  1.0685
10229SOL    HW231587   6.305   5.540   4.105  0.2383 -1.1245 -0.1096
10230SOL     OW31588   1.432   2.950   1.178 -0.0994  0.4009 -0.1572
10230SOL    HW131589   1.340   2.922   1.151 -0.5919  1.6980  0.0989
10230SOL    HW231590   1.499   2.911   1.115 -0.8388 -0.3844 -0.4703
10231SOL     OW31591   0.905   3.224   3.325 -0.6663  0.5454  0.0360
10231SOL    HW131592   0.825   3.283   3.333 -3.2075 -2.8020  1.7495
10231SOL    HW231593   0.902   3.176   3.237  0.2981  1.3622 -0.4757
10232SOL     OW31594   1.096   2.865   4.599  0.1244  0.0225  0.0558
10232SOL    HW131595   1.131   2.821   4.681 -0.5560  0.0110  0.3490
10232SOL    HW231596   1.162   2.855   4.524  1.3839  1.2562  0.9705
10233SOL     OW31597   2.988   5.356   3.625  0.1349  0.1143  0.5729
10233SOL    HW131598   3.043   5.311   3.555 -0.0608 -1.0203  1.1163
10233SOL    HW231599   2.962   5.289   3.695  1.0786  1.3789  2.2176
10234SOL     OW31600   2.076   6.529   1.655  0.7846  0.4215 -0.3639
10234SOL    HW131601   1.996   6.509   1.712  1.1145 -0.5746 -0.2166
10234SOL    HW231602   2.090   6.454   1.591  1.1862  0.9305 -0.8801
10235SOL     OW31603   2.956   5.495   2.684 -0.0471  0.2508 -0.7777
10235SOL    HW131604   3.014   5.541   2.752 -1.6245  0.6559  0.3507
10235SOL    HW231605   2.997   5.408   2.659  0.0793 -0.4213  1.5222
10236SOL     OW31606   0.395   6.454   5.961 -0.5448  0.2138 -0.2226
10236SOL    HW131607   0.477   6.479   6.013 -0.6814  1.8666 -0.7647
10236SOL    HW231608   0.379   6.521   5.889 -1.6041 -0.8501 -1.0166
10237SOL     OW31609   0.867   2.270   1.574  0.3679  0.3293 -0.4867
10237SOL    HW131610   0.897   2.204   1.505 -1.1941 -0.1826 -0.7135
10237SOL    HW231611   0.825   2.349   1.528 -0.5741  0.0375 -0.1495
10238SOL     OW31612   1.256   1.440   1.820 -0.0810 -0.6521  0.5735
10238SOL    HW131613   1.320   1.373   1.858  0.7282 -0.1587  0.1086
10238SOL    HW231614   1.292   1.475   1.734 -0.6081  0.2000  0.6920
10239SOL     OW31615   2.118   0.586   1.574 -0.3060 -0.4595 -0.1643
10239SOL    HW131616   2.048   0.651   1.605 -2.0547 -2.2835 -0.0430
10239SOL    HW231617   2.090   0.547   1.486  1.1412 -0.4253 -0.6573
10240SOL     OW31618   5.842   0.225   2.324 -0.4783 -0.1337  0.0866
10240SOL    HW131619   5.902   0.202   2.400  0.8371  0.5690 -0.6916
10240SOL    HW231620   5.837   0.149   2.260 -1.6771 -0.7691  0.8895
10241SOL     OW31621   3.958   0.345   1.364  0.9595  0.3305 -0.4845
10241SOL    HW131622   3.946   0.409   1.288  0.7579  0.0917 -0.6551
10241SOL    HW231623   3.941   0.252   1.332 -0.5019  0.3515  0.1700
10242SOL     OW31624   6.718   4.198   5.467 -0.4614 -0.2625  0.3351
10242SOL    HW131625   6.738   4.277   5.525 -3.2097  2.0235 -1.5400
10242SOL    HW231626   6.652   4.138   5.512 -0.3297 -0.1028  0.7426
10243SOL     OW31627   5.388   3.009   4.938 -0.4929 -0.1571 -0.2301
10243SOL    HW131628   5.375   2.943   4.865 -0.8071 -0.3255 -0.0210
10243SOL    HW231629   5.363   2.968   5.026 -1.2016  0.4108 -0.1620
10244SOL     OW31630   0.453   6.159   0.368 -0.1536 -0.5869  0.2701
10244SOL    HW131631   0.411   6.073   0.338 -0.5578 -0.1635 -0.4031
10244SOL    HW231632   0.550   6.158   0.344 -0.3520 -0.4893 -0.5446
10245SOL     OW31633   6.949   2.102   2.992  0.5564  0.4101 -0.3296
10245SOL    HW131634   6.893   2.023   3.018  0.4582  0.3411 -0.7436
10245SOL    HW231635   7.028   2.108   3.053 -0.1172  0.7588  0.5428
10246SOL     OW31636   1.541   5.209   6.560 -0.1977  0.2303  0.0303
10246SOL    HW131637   1.471   5.226   6.629 -0.3885 -1.7243  0.3854
10246SOL    HW231638   1.627   5.248   6.590 -0.8716  1.7370  0.0906
10247SOL     OW31639   4.263   1.434   4.776 -0.6579  0.1796  0.3224
10247SOL    HW131640   4.193   1.420   4.706 -0.4685  1.1005 -0.0662
10247SOL    HW231641   4.220   1.469   4.860 -0.5987  1.4538 -0.1546
10248SOL     OW31642   3.852   0.893   0.725  0.3825 -0.2955  0.6013
10248SOL    HW131643   3.856   0.900   0.824 -1.6608 -1.8410  0.8565
10248SOL    HW231644   3.803   0.809   0.700 -0.5266  0.8471 -1.7009
10249SOL     OW31645   1.116   0.257   6.295  0.1708  0.3380  0.1648
10249SOL    HW131646   1.042   0.264   6.228 -0.6989  0.3418  1.0962
10249SOL    HW231647   1.079   0.274   6.387  1.0107 -1.2467  0.8254
10250SOL     OW31648   3.389   4.627   0.576  0.3630  0.1566  0.5948
10250SOL    HW131649   3.337   4.563   0.520  0.4940 -1.7306  2.5097
10250SOL    HW231650   3.469   4.580   0.615  1.5211  2.0174  0.5760
10251SOL     OW31651   5.435   2.314   0.858 -0.0304  0.3711 -0.0959
10251SOL    HW131652   5.517   2.257   0.872  0.2503  0.3121 -1.7105
10251SOL    HW231653   5.356   2.255   0.844 -1.1796  0.3355  4.8173
10252SOL     OW31654   4.195   5.416   3.065  0.2186  0.5331  0.3573
10252SOL    HW131655   4.244   5.332   3.086 -0.7386  0.1040  0.9472
10252SOL    HW231656   4.191   5.473   3.147 -1.6468 -0.1685  0.8092
10253SOL     OW31657   3.626   4.022   5.737  0.2549  0.5229 -0.1170
10253SOL    HW131658   3.633   3.924   5.717  0.0207  0.1962  1.3215
10253SOL    HW231659   3.529   4.046   5.748  0.3916  0.6257  0.8791
10254SOL     OW31660   6.022   0.141   3.016  0.5729 -0.3505  0.0704
10254SOL    HW131661   5.954   0.143   2.943  0.2024 -1.1771  0.3765
10254SOL    HW231662   5.989   0.196   3.094  0.1605 -0.9018  0.2913
10255SOL     OW31663   1.310   6.794   4.225  0.3481 -0.0613  0.2130
10255SOL    HW131664   1.252   6.857   4.277 -0.3074 -0.4179 -0.0724
10255SOL    HW231665   1.258   6.757   4.148  1.1405  0.0430 -0.3801
10256SOL     OW31666   1.896   2.469   1.538 -0.0594  0.6420 -0.1283
10256SOL    HW131667   1.800   2.443   1.550 -0.1553 -0.0948 -2.1454
10256SOL    HW231668   1.954   2.389   1.555  0.1194  0.7892 -0.0466
10257SOL     OW31669   6.689   0.354   1.857  0.5448 -0.5717  0.0425
10257SOL    HW131670   6.661   0.259   1.841  1.4472 -1.1793  1.7849
10257SOL    HW231671   6.621   0.415   1.817 -0.7508 -1.9619  0.0049
10258SOL     OW31672   5.587   6.081   7.010  0.7436 -0.0898  0.1501
10258SOL    HW131673   5.613   6.046   7.101 -0.2388 -0.1726  0.4114
10258SOL    HW231674   5.499   6.042   6.984 -0.4249  2.1689  0.4645
10259SOL     OW31675   6.442   7.012   3.626 -0.0218 -0.5015 -0.1976
10259SOL    HW131676   6.425   6.950   3.549  2.4726 -1.5518  0.0142
10259SOL    HW231677   6.460   7.104   3.591  1.9767 -1.1519 -1.0066
10260SOL     OW31678   1.521   3.193   1.951  0.3094  0.3474 -0.4724
10260SOL    HW131679   1.538   3.148   2.039 -2.4762 -1.4055 -0.7151
10260SOL    HW231680   1.583   3.155   1.882  1.1518  0.2867  0.2940
10261SOL     OW31681   2.070   1.395   1.189 -0.3320 -0.1995 -0.2948
10261SOL    HW131682   1.989   1.449   1.165 -1.1611 -1.7049 -0.9921
10261SOL    HW231683   2.151   1.453   1.183 -1.2088  1.0119 -0.8419
10262SOL     OW31684   3.963   1.118   5.034 -0.3463  0.1196  0.0909
10262SOL    HW131685   3.933   1.103   4.940  1.3550  1.7428 -0.7757
10262SOL    HW231686   3.994   1.212   5.045  0.5512 -0.3341  1.9890
10263SOL     OW31687   1.447   1.644   6.847 -0.1208 -0.5967  0.3632
10263SOL    HW131688   1.409   1.725   6.802  4.2165  0.3748 -2.1335
10263SOL    HW231689   1.464   1.573   6.779  0.5899 -1.7309  1.6731
10264SOL     OW31690   4.239   4.971   2.891 -0.3403 -0.1741  0.3647
10264SOL    HW131691   4.154   4.918   2.897 -0.2712 -0.3487 -0.1591
10264SOL    HW231692   4.303   4.940   2.960 -0.1768 -0.9993 -0.1526
10265SOL     OW31693   6.022   2.597   2.863  0.0432  0.3486 -0.0073
10265SOL    HW131694   6.006   2.657   2.784 -0.4936  0.0498 -0.1306
10265SOL    HW231695   6.089   2.527   2.838 -2.0410 -1.3933 -1.1100
10266SOL     OW31696   6.369   5.495   3.191 -0.0058  0.1097 -0.3707
10266SOL    HW131697   6.437   5.543   3.246  0.1267 -0.5464  0.0589
10266SOL    HW231698   6.326   5.424   3.246 -0.7319  0.2305 -0.7703
10267SOL     OW31699   6.620   0.620   2.134 -0.2490  0.3654 -0.0348
10267SOL    HW131700   6.560   0.605   2.212  0.5354 -0.4119  0.4314
10267SOL    HW231701   6.586   0.567   2.056  1.2103 -2.1886  0.9494
10268SOL     OW31702   6.037   2.121   2.808 -0.5916 -0.6892  0.1688
10268SOL    HW131703   5.939   2.137   2.822 -0.6058  3.5137 -2.9153
10268SOL    HW231704   6.050   2.066   2.726 -0.3055 -1.6860  0.8639
10269SOL     OW31705   1.024   5.861   3.535 -0.0610  0.2023 -0.3240
10269SOL    HW131706   0.976   5.824   3.456 -1.3803  0.7199  0.2033
10269SOL    HW231707   1.076   5.942   3.508 -0.8809  0.6482 -0.5803
10270SOL     OW31708   2.521   5.776   1.102  0.0460  0.7339 -0.6639
10270SOL    HW131709   2.617   5.762   1.080  0.0998  0.1181 -0.0383
10270SOL    HW231710   2.513   5.842   1.176  0.0140  0.3095 -0.2902
10271SOL     OW31711   3.866   1.667   6.595 -0.1417 -0.2288 -0.5268
10271SOL    HW131712   3.924   1.614   6.656  0.4973 -0.1002 -1.0128
10271SOL    HW231713   3.824   1.743   6.646  0.1577 -0.2898 -0.1865
10272SOL     OW31714   5.510   0.190   4.952 -0.1239 -0.0813 -0.4115
10272SOL    HW131715   5.532   0.111   4.894  0.5833  0.4500 -0.8849
10272SOL    HW231716   5.422   0.228   4.923  0.5939  0.6687 -1.7079
10273SOL     OW31717   2.668   1.472   4.894 -0.6879  0.3105 -0.0790
10273SOL    HW131718   2.719   1.557   4.906  0.1431 -0.3735  1.5327
10273SOL    HW231719   2.573   1.486   4.923 -0.8092  0.9258 -0.7375
10274SOL     OW31720   3.360   0.028   1.247  0.4810 -0.4892  0.0066
10274SOL    HW131721   3.315  -0.015   1.325 -0.8531  1.1066  0.1840
10274SOL    HW231722   3.312   0.003   1.162  1.5602 -1.7358 -0.2660
10275SOL     OW31723   0.647   1.414   4.030  0.1453 -0.6806  0.1541
10275SOL    HW131724   0.619   1.361   4.110 -1.5474 -0.9377 -0.5566
10275SOL    HW231725   0.567   1.460   3.991  1.4593  2.0117  0.4182
10276SOL     OW31726   0.297   2.483   1.713 -0.1822  0.9994  0.3551
10276SOL    HW131727   0.220   2.454   1.770 -0.2003  1.1339  0.3995
10276SOL    HW231728   0.379   2.433   1.740 -0.2724  0.7922  0.2500
10277SOL     OW31729   0.007   0.331   5.651  0.1935  0.2063  0.3562
10277SOL    HW131730  -0.086   0.312   5.681  0.0914  1.1487  0.6669
10277SOL    HW231731   0.016   0.429   5.630  0.5498 -0.2172 -1.6816
10278SOL     OW31732   4.560   6.377   1.884 -0.2635  0.5927 -0.0533
10278SOL    HW131733   4.483   6.380   1.822 -0.1944 -0.8771 -0.2442
10278SOL    HW231734   4.594   6.283   1.892 -0.6733  0.5699  2.6793
10279SOL     OW31735   2.196   1.337   0.853  0.0223  0.1939 -0.1795
10279SOL    HW131736   2.251   1.419   0.836 -2.5063  2.3639  1.3941
10279SOL    HW231737   2.234   1.287   0.930  0.8818  0.5665 -0.3433
10280SOL     OW31738   4.546   6.096   2.471 -0.1460 -0.3663  0.4745
10280SOL    HW131739   4.515   6.094   2.566 -0.3885 -1.5682  0.3861
10280SOL    HW231740   4.555   6.191   2.441 -2.0565  0.0374  1.0585
10281SOL     OW31741   2.055   4.573   0.541  0.4864 -0.4258  0.0963
10281SOL    HW131742   2.103   4.537   0.461 -0.0721 -0.5773 -0.1767
10281SOL    HW231743   1.959   4.591   0.517  0.7299  1.2039  0.2263
10282SOL     OW31744   5.114   6.355   2.851 -0.0395  0.3995 -0.1597
10282SOL    HW131745   5.029   6.308   2.825 -0.2916  1.6039 -1.6982
10282SOL    HW231746   5.185   6.287   2.871 -0.0105 -0.7716 -3.5523
10283SOL     OW31747   4.593   6.660   4.037 -0.5807 -0.1965  0.4926
10283SOL    HW131748   4.690   6.638   4.026 -0.9590 -1.7006 -0.1048
10283SOL    HW231749   4.551   6.593   4.098 -1.5880 -0.5683 -0.5808
10284SOL     OW31750   5.479   6.037   4.637 -0.2446  0.2015  0.6210
10284SOL    HW131751   5.380   6.042   4.649 -0.2819 -0.9677  0.9457
10284SOL    HW231752   5.501   6.030   4.540 -0.5834 -1.0495  0.6198
10285SOL     OW31753   2.672   2.418   4.396  0.0738 -0.4002  0.2835
10285SOL    HW131754   2.696   2.354   4.469 -2.8344 -1.2810  0.5860
10285SOL    HW231755   2.602   2.481   4.429  0.2309  0.5444 -1.1240
10286SOL     OW31756   6.834   6.222   0.110 -0.3860 -0.4156 -0.0916
10286SOL    HW131757   6.868   6.278   0.186  1.0309 -2.0148  0.5233
10286SOL    HW231758   6.812   6.130   0.144 -2.1902 -0.4314 -1.1581
10287SOL     OW31759   5.184   2.926   0.004 -0.0651  0.2850 -0.2175
10287SOL    HW131760   5.196   2.933  -0.095 -0.4558 -0.4052 -0.3211
10287SOL    HW231761   5.112   2.859   0.024  1.9376 -1.7844  0.5879
10288SOL     OW31762   4.285   1.849   2.657 -0.4219 -0.1723 -0.5713
10288SOL    HW131763   4.257   1.754   2.645  0.3299 -0.1478 -3.2568
10288SOL    HW231764   4.384   1.856   2.649 -0.4607  0.8220 -0.2965
10289SOL     OW31765   3.106   6.535   5.677 -0.3775  0.1343 -0.5402
10289SOL    HW131766   3.056   6.542   5.591 -1.0117 -0.0077 -0.1883
10289SOL    HW231767   3.204   6.533   5.659 -0.4901  0.6520 -1.2231
10290SOL     OW31768   4.649   4.615   5.950 -0.3785 -0.2574  0.2729
10290SOL    HW131769   4.659   4.644   6.045  0.3782  0.4022 -0.0001
10290SOL    HW231770   4.582   4.673   5.904  2.2792  2.2730 -0.7105
10291SOL     OW31771   4.594   6.066   0.019 -0.0097  0.1908  0.1789
10291SOL    HW131772   4.506   6.021   0.006  0.8814 -1.4603 -0.2722
10291SOL    HW231773   4.609   6.132  -0.055 -0.8262  0.4561  0.2367
10292SOL     OW31774   2.445   2.140   4.955 -0.0615  0.0797  0.4960
10292SOL    HW131775   2.442   2.134   4.856  1.9291  0.4923  0.3831
10292SOL    HW231776   2.357   2.174   4.989 -1.5772 -2.2161 -0.9022
10293SOL     OW31777   0.947   2.847   4.936 -0.4652  0.3863 -0.7019
10293SOL    HW131778   1.023   2.806   4.885 -2.4989 -0.8581 -2.9096
10293SOL    HW231779   0.934   2.798   5.022  0.5041 -0.1031 -0.8213
10294SOL     OW31780   5.012   3.165   0.098  0.4792 -0.1546  0.1576
10294SOL    HW131781   5.108   3.139   0.085  1.2465  1.5449  1.9152
10294SOL    HW231782   4.998   3.190   0.194 -1.4780  0.6410 -0.3041
10295SOL     OW31783   1.730   1.308   3.081  0.4583 -0.4196  0.3512
10295SOL    HW131784   1.809   1.370   3.085 -0.0512  0.2181  0.7652
10295SOL    HW231785   1.720   1.273   2.988  0.7315  0.1624  0.0949
10296SOL     OW31786   5.930   3.466   0.690  0.7188 -0.8112  0.4014
10296SOL    HW131787   5.958   3.498   0.599  0.4177  3.3251  1.5522
10296SOL    HW231788   6.010   3.458   0.749  0.6408 -0.3653  0.5765
10297SOL     OW31789   3.172   2.990   5.636  0.1220 -0.2095  0.4155
10297SOL    HW131790   3.164   2.953   5.544  0.8144 -1.1372  0.7047
10297SOL    HW231791   3.149   3.088   5.635  0.5161 -0.1042 -0.8122
10298SOL     OW31792   6.895   1.945   1.224  0.0153 -0.0351 -0.1328
10298SOL    HW131793   6.918   1.946   1.321 -1.7543 -1.3468  0.3621
10298SOL    HW231794   6.880   2.039   1.192  1.2746  0.4562  0.6690
10299SOL     OW31795   6.650   2.217   5.799 -0.0122 -0.0369 -0.3294
10299SOL    HW131796   6.585   2.293   5.793 -0.5203 -0.5562 -1.9027
10299SOL    HW231797   6.683   2.209   5.893  0.1240  2.1587 -0.1393
10300SOL     OW31798   1.905   3.737   5.214  0.6434  0.1579  0.1048
10300SOL    HW131799   1.942   3.792   5.289  0.3019  2.1650 -1.1163
10300SOL    HW231800   1.980   3.700   5.160  0.8796  0.5753  0.1429
10301SOL     OW31801   1.136   2.948   2.032 -0.1302 -0.1229  0.5535
10301SOL    HW131802   1.170   3.039   2.009 -1.5951  0.5525  0.9462
10301SOL    HW231803   1.051   2.930   1.982 -0.2159 -0.9964  0.9947
10302SOL     OW31804   5.280   5.527   5.919 -0.0433 -0.1038  0.2145
10302SOL    HW131805   5.217   5.604   5.916  0.0121 -0.0544  0.3062
10302SOL    HW231806   5.333   5.523   5.834 -0.6363 -0.5429 -0.1427
10303SOL     OW31807   4.429   5.116   0.008  0.7505 -0.1818 -0.0879
10303SOL    HW131808   4.464   5.039   0.062 -0.8084  0.0065  1.2620
10303SOL    HW231809   4.335   5.135   0.035  0.0903  0.2949 -2.5324
10304SOL     OW31810   0.892   1.838   1.941  0.0790 -0.1885 -0.0688
10304SOL    HW131811   0.946   1.768   1.895  1.9204  0.5405  0.8959
10304SOL    HW231812   0.872   1.810   2.035 -0.6356 -0.1376 -0.1969
10305SOL     OW31813   4.130   3.801   5.231 -0.2133 -0.5514  0.1686
10305SOL    HW131814   4.201   3.802   5.301  2.0082  3.2587 -1.7989
10305SOL    HW231815   4.149   3.730   5.163  0.5751 -0.8559  0.7090
10306SOL     OW31816   5.648   3.472   4.552 -0.4047  0.4792  0.3220
10306SOL    HW131817   5.748   3.473   4.555 -0.4104  0.0977  1.9997
10306SOL    HW231818   5.613   3.565   4.562 -0.2126  0.5286  0.5508
10307SOL     OW31819   0.118   3.186   4.601  0.0872 -0.6836 -0.0639
10307SOL    HW131820   0.147   3.118   4.669  0.0620  0.1948  0.8517
10307SOL    HW231821   0.157   3.275   4.625 -1.1030 -0.0574 -0.3815
10308SOL     OW31822   0.314   6.908   1.805 -0.7204  0.4127  0.5084
10308SOL    HW131823   0.245   6.840   1.780 -1.2019  1.4061 -1.0106
10308SOL    HW231824   0.339   6.961   1.724  0.4247  1.3417  1.4397
10309SOL     OW31825   6.223   0.624   1.368  0.8574 -0.1308 -0.3184
10309SOL    HW131826   6.320   0.640   1.385  0.3635  1.7806  1.0374
10309SOL    HW231827   6.170   0.647   1.450 -0.8806  0.5916 -1.5747
10310SOL     OW31828   0.926   0.500   0.607 -0.1872 -0.3474 -0.1301
10310SOL    HW131829   0.904   0.402   0.607 -1.4066 -0.1028  0.8350
10310SOL    HW231830   0.894   0.541   0.693  0.3916  0.8815 -0.4829
10311SOL     OW31831   1.075   2.779   2.955  0.1808 -0.8977  0.1828
10311SOL    HW131832   1.125   2.723   2.890 -0.0508 -0.2079 -0.6061
10311SOL    HW231833   1.094   2.876   2.938 -0.3651 -0.6822  0.7377
10312SOL     OW31834   0.460   2.388   3.178 -0.0464  0.1152 -0.1124
10312SOL    HW131835   0.498   2.297   3.200 -3.7751 -1.8019 -0.7750
10312SOL    HW231836   0.460   2.401   3.079  0.9734  1.1716 -0.0007
10313SOL     OW31837   5.714   5.521   4.615  0.1341  0.0454 -0.0241
10313SOL    HW131838   5.699   5.480   4.706  0.5352  0.8672  0.4226
10313SOL    HW231839   5.750   5.451   4.553  0.8985 -0.2700  0.7510
10314SOL     OW31840   1.934   5.362   1.125 -0.4845 -0.2344 -0.6845
10314SOL    HW131841   2.015   5.419   1.133 -0.8383  0.0770  0.9171
10314SOL    HW231842   1.922   5.334   1.029 -0.0453  1.9670 -1.4300
10315SOL     OW31843   0.753   4.918   3.834 -0.3665 -0.0255 -0.3696
10315SOL    HW131844   0.699   4.836   3.852  1.0970 -0.8111  0.6857
10315SOL    HW231845   0.813   4.903   3.756 -0.5391  0.2780 -0.5643
10316SOL     OW31846   3.275   3.751   1.001 -0.4171  0.2925  0.5487
10316SOL    HW131847   3.289   3.660   1.041 -2.8435 -0.9238 -1.1173
10316SOL    HW231848   3.244   3.741   0.907  2.1683  2.9822 -0.7497
10317SOL     OW31849   2.448   0.571   6.068  0.6819 -0.3542 -0.5117
10317SOL    HW131850   2.362   0.622   6.069  0.9624  0.1195 -0.6729
10317SOL    HW231851   2.507   0.603   6.142  1.0103 -0.1889 -0.8461
10318SOL     OW31852   0.121   3.077   3.990  0.2766  0.2171 -0.2347
10318SOL    HW131853   0.159   3.003   3.936 -2.6384 -0.9731 -0.8483
10318SOL    HW231854   0.139   3.062   4.087  1.0849 -0.4236 -0.4836
10319SOL     OW31855   5.760   4.102   6.810  0.6655  0.3808  0.0276
10319SOL    HW131856   5.668   4.103   6.770  0.4836 -1.6444  0.2607
10319SOL    HW231857   5.809   4.185   6.784 -0.6047  0.6853 -1.5721
10320SOL     OW31858   6.052   0.146   4.847 -0.1217 -0.1679  0.3835
10320SOL    HW131859   6.065   0.166   4.944 -1.9995 -1.6899  1.0010
10320SOL    HW231860   5.968   0.189   4.814 -1.4366 -2.5081  0.4272
10321SOL     OW31861   3.454   0.797   6.604 -0.2000  0.9573 -0.2735
10321SOL    HW131862   3.495   0.883   6.634 -1.5823  1.0761  1.3757
10321SOL    HW231863   3.496   0.769   6.517  2.2840  1.8020  0.5677
10322SOL     OW31864   5.073   5.979   1.210 -0.0240  0.0073 -0.5598
10322SOL    HW131865   5.018   5.897   1.228  0.2462 -0.0356  0.0952
10322SOL    HW231866   5.035   6.057   1.260  0.1391  0.1202 -0.6096
10323SOL     OW31867   3.223   0.281   0.507 -0.2586 -0.0888 -0.0257
10323SOL    HW131868   3.303   0.278   0.447  0.0596 -0.1730  0.3977
10323SOL    HW231869   3.224   0.365   0.561 -0.4056 -0.1355  0.0513
10324SOL     OW31870   0.905   1.048   7.013 -0.1370 -0.4236  1.1566
10324SOL    HW131871   0.858   1.047   7.101 -2.2387  1.6996  0.1767
10324SOL    HW231872   0.856   0.991   6.947 -0.2047  0.2198  0.6359
10325SOL     OW31873   5.437   2.142   3.054  0.2684  0.5811 -0.0148
10325SOL    HW131874   5.507   2.077   3.025 -0.4843 -0.3780  0.2442
10325SOL    HW231875   5.435   2.146   3.154  0.5004  1.2163 -0.0370
10326SOL     OW31876   4.262   4.369   5.544 -0.2417  0.5157  0.1258
10326SOL    HW131877   4.183   4.417   5.582 -0.0605 -0.2746  1.6077
10326SOL    HW231878   4.316   4.330   5.619 -0.0175 -1.4224 -0.9761
10327SOL     OW31879   0.423   3.805   5.221 -0.2516 -0.2745  0.4027
10327SOL    HW131880   0.504   3.759   5.182 -1.6303 -1.9652 -0.6217
10327SOL    HW231881   0.387   3.871   5.155 -0.3466 -0.3346  0.3937
10328SOL     OW31882   0.540   3.970   0.744  0.6637 -0.3221  0.0988
10328SOL    HW131883   0.515   3.975   0.841  1.1045 -0.0977  0.2009
10328SOL    HW231884   0.456   3.975   0.689  0.3703 -0.9323  0.4742
10329SOL     OW31885   3.458   0.255   0.352  0.2467  0.3252 -0.0654
10329SOL    HW131886   3.491   0.349   0.359  0.2609  0.5552 -2.2551
10329SOL    HW231887   3.483   0.218   0.262  0.2729 -1.7981  0.7600
10330SOL     OW31888   0.985   2.972   3.432  0.4850 -0.4824 -0.3977
10330SOL    HW131889   0.941   3.062   3.431 -0.8150 -1.0623 -1.9560
10330SOL    HW231890   1.028   2.955   3.343 -0.2876 -1.8249 -0.5513
10331SOL     OW31891   2.921   5.970   2.187  0.7945 -0.2460  0.3047
10331SOL    HW131892   3.018   5.989   2.170  0.5343  0.4126 -0.4981
10331SOL    HW231893   2.904   5.872   2.175  1.4175 -0.4214  0.7731
10332SOL     OW31894   3.915   6.355   3.801 -0.3830 -0.1147  0.1827
10332SOL    HW131895   3.823   6.370   3.839 -0.5753  0.2947 -0.4305
10332SOL    HW231896   3.966   6.293   3.861 -0.5617  0.7742  1.2780
10333SOL     OW31897   3.994   4.500   6.067 -0.3715 -0.4844 -0.5365
10333SOL    HW131898   3.957   4.408   6.081 -1.4270 -0.2209 -1.4847
10333SOL    HW231899   4.054   4.523   6.143 -1.0138 -1.5014  0.3078
10334SOL     OW31900   3.556   1.655   5.873 -0.3474 -0.3081  0.5322
10334SOL    HW131901   3.621   1.715   5.825 -0.4413  1.0786  2.0372
10334SOL    HW231902   3.493   1.614   5.807  0.0779  0.8223 -0.6247
10335SOL     OW31903   2.994   0.890   2.923 -0.2251  0.1842 -0.0065
10335SOL    HW131904   3.072   0.838   2.890  0.2389  1.7936 -1.5757
10335SOL    HW231905   2.911   0.857   2.877  0.0257  0.6390 -0.7979
10336SOL     OW31906   3.592   0.891   5.317  0.1669  0.6101  0.2191
10336SOL    HW131907   3.529   0.891   5.239  1.6933  0.6808 -1.0543
10336SOL    HW231908   3.660   0.963   5.305  1.2992 -0.3208  0.8946
10337SOL     OW31909   6.000   6.209   3.181  0.1550  0.3610 -0.3079
10337SOL    HW131910   5.927   6.140   3.181  1.7434 -1.3986  0.2824
10337SOL    HW231911   5.970   6.288   3.128 -1.4545 -1.0861 -1.7091
10338SOL     OW31912   6.204   5.636   0.727 -0.3396 -0.1446 -0.0408
10338SOL    HW131913   6.233   5.560   0.786  0.3304  0.1032 -0.0384
10338SOL    HW231914   6.152   5.600   0.650  0.8876 -0.7177 -0.6222
10339SOL     OW31915   3.727   5.906   3.258 -0.1634  0.3049  0.2167
10339SOL    HW131916   3.666   5.984   3.251 -0.9618 -0.2661  0.7239
10339SOL    HW231917   3.680   5.824   3.224 -0.0212 -0.3158  1.4709
10340SOL     OW31918   1.380   0.871   5.463  0.1489  0.3797  0.0522
10340SOL    HW131919   1.354   0.899   5.556 -0.1790  1.3358 -0.3090
10340SOL    HW231920   1.317   0.912   5.398 -1.6186 -2.8119 -0.4543
10341SOL     OW31921   1.254   0.381   4.976 -0.0180 -0.1029  0.3774
10341SOL    HW131922   1.295   0.343   4.893 -1.2682 -3.0355  0.9855
10341SOL    HW231923   1.265   0.317   5.052 -2.5129  0.5914  1.4407
10342SOL     OW31924   4.268   6.550   2.190 -0.5491  0.3833  0.1125
10342SOL    HW131925   4.265   6.640   2.145 -2.1085  0.6152  0.6344
10342SOL    HW231926   4.256   6.479   2.122 -1.6970  0.6829 -0.0099
10343SOL     OW31927   0.129   4.632   3.292  0.0260  0.7874  0.1354
10343SOL    HW131928   0.129   4.533   3.306  0.4358  0.1333 -3.4708
10343SOL    HW231929   0.219   4.669   3.315 -0.2210  0.4285  1.7967
10344SOL     OW31930   3.529   5.265   5.638 -0.1041  0.0427 -0.3159
10344SOL    HW131931   3.550   5.260   5.540  1.1111 -0.8165 -0.0270
10344SOL    HW231932   3.562   5.352   5.674 -2.0461  1.1152 -0.9748
10345SOL     OW31933   2.804   0.504   6.465 -0.1986  0.0556 -0.4956
10345SOL    HW131934   2.843   0.588   6.503 -1.7714  0.4699  0.2717
10345SOL    HW231935   2.827   0.499   6.367 -1.2395  2.1148 -0.9010
10346SOL     OW31936   3.109   3.619   1.699  0.5618 -0.1307  0.2117
10346SOL    HW131937   3.119   3.521   1.681 -0.0739  0.3612 -3.5069
10346SOL    HW231938   3.198   3.664   1.693  0.4191 -0.0440 -1.4860
10347SOL     OW31939   1.858   2.381   4.862  0.6508 -0.0887  0.1038
10347SOL    HW131940   1.851   2.445   4.938  1.0857 -0.4299  0.4365
10347SOL    HW231941   1.784   2.398   4.796  0.9769  1.0018 -0.0006
10348SOL     OW31942   2.725   2.351   0.579  0.0056  0.4244 -0.3938
10348SOL    HW131943   2.798   2.362   0.511  0.3525 -1.4514 -0.3918
10348SOL    HW231944   2.756   2.388   0.667 -0.2660  2.4399 -1.0943
10349SOL     OW31945   5.491   0.758   2.188 -0.0157 -0.7240  0.5183
10349SOL    HW131946   5.488   0.687   2.258  0.2833 -0.8538  0.3971
10349SOL    HW231947   5.562   0.738   2.121 -0.1210 -0.4615  0.3217
10350SOL     OW31948   1.454   3.622   2.471  0.9510 -0.4567 -0.4423
10350SOL    HW131949   1.457   3.537   2.420  0.6564  0.0959 -1.4109
10350SOL    HW231950   1.517   3.688   2.429 -1.2010  0.8743 -1.7734
10351SOL     OW31951   0.033   2.197   4.168 -0.0520 -0.2856  0.4270
10351SOL    HW131952   0.128   2.166   4.162 -0.2457 -0.9514  0.7236
10351SOL    HW231953  -0.005   2.207   4.076  0.7362  1.4027  0.2278
10352SOL     OW31954   3.552   2.641   5.375 -0.0095 -0.0388 -0.7455
10352SOL    HW131955   3.559   2.737   5.349 -1.0698  0.7182  1.4719
10352SOL    HW231956   3.456   2.613   5.373 -0.0825 -0.1158  1.4210
10353SOL     OW31957   3.811   6.595   1.654 -0.1604 -0.1509 -0.1357
10353SOL    HW131958   3.910   6.607   1.649 -0.0860 -0.4068  0.6199
10353SOL    HW231959   3.775   6.573   1.563  0.4471  0.1395 -0.4480
10354SOL     OW31960   0.581   6.115   2.618 -0.4485  0.3339 -0.1459
10354SOL    HW131961   0.518   6.052   2.573 -1.0736  0.6970  0.1980
10354SOL    HW231962   0.556   6.124   2.714 -1.7245  2.6926 -0.6139
10355SOL     OW31963   5.156   4.951   6.716 -0.1904  0.4330 -0.2768
10355SOL    HW131964   5.195   5.023   6.659  1.1390  0.8312  1.0748
10355SOL    HW231965   5.149   4.867   6.662  1.9596  0.5150 -0.7922
10356SOL     OW31966   4.689   3.177   6.555  0.1840 -0.1412  0.3665
10356SOL    HW131967   4.771   3.191   6.610  0.6000  0.4259 -0.3737
10356SOL    HW231968   4.621   3.247   6.577  0.9138  0.9989 -0.8410
10357SOL     OW31969   0.817   0.810   3.719 -0.4600  0.5599 -0.1850
10357SOL    HW131970   0.897   0.750   3.722 -1.3083 -0.5660  1.9077
10357SOL    HW231971   0.832   0.888   3.780 -0.9576  0.3346  0.2274
10358SOL     OW31972   6.269   1.878   6.345  1.0095  0.6769 -0.3902
10358SOL    HW131973   6.358   1.832   6.338  0.5401 -0.1590 -1.3112
10358SOL    HW231974   6.272   1.949   6.415  2.3434  0.5338 -0.2871
10359SOL     OW31975   2.565   1.569   5.536  0.2190  0.6410 -0.7390
10359SOL    HW131976   2.487   1.524   5.493  1.6429  0.5128 -3.3561
10359SOL    HW231977   2.613   1.504   5.594 -0.5829  0.2305 -0.5226
10360SOL     OW31978   5.921   0.799   4.536  0.0034 -0.0852  0.0236
10360SOL    HW131979   5.984   0.728   4.504  0.4674  0.3490 -0.0370
10360SOL    HW231980   5.890   0.853   4.459 -1.0666 -0.7829 -0.0540
10361SOL     OW31981   3.535   3.140   6.500 -0.1426 -0.2435  0.1077
10361SOL    HW131982   3.550   3.145   6.599  0.9217 -0.3195 -0.0325
10361SOL    HW231983   3.489   3.223   6.469 -0.6286 -0.2922  0.6899
10362SOL     OW31984   3.234   4.976   0.958 -0.4242  0.4190  0.5219
10362SOL    HW131985   3.266   4.889   0.994  0.3796  0.2580 -0.5504
10362SOL    HW231986   3.302   5.047   0.976  0.2757  0.2176 -1.1374
10363SOL     OW31987   2.390   1.933   0.925 -0.7898 -0.0747 -0.1546
10363SOL    HW131988   2.315   1.896   0.869  0.0939 -2.3632  0.0615
10363SOL    HW231989   2.474   1.882   0.906  0.2152  1.0113  1.1782
10364SOL     OW31990   1.851   6.375   3.944 -0.1074 -0.5393  0.0225
10364SOL    HW131991   1.835   6.455   4.001  1.5694  0.7778 -1.2507
10364SOL    HW231992   1.786   6.304   3.968 -2.5161  1.6378  0.3439
10365SOL     OW31993   0.845   2.249   3.832 -0.1428  0.3177  0.5503
10365SOL    HW131994   0.906   2.323   3.859 -0.3847  1.1004 -0.9560
10365SOL    HW231995   0.894   2.162   3.838  0.5362  0.7272  1.1264
10366SOL     OW31996   5.630   1.341   5.327  0.0069  0.6514 -0.7945
10366SOL    HW131997   5.705   1.319   5.265 -0.9009 -1.3540 -1.2657
10366SOL    HW231998   5.666   1.366   5.416  1.2427  0.0357 -1.1030
10367SOL     OW31999   5.943   1.519   4.165  0.1094  0.1627 -0.2394
10367SOL    HW132000   5.936   1.565   4.076  0.2704 -0.0622 -0.3683
10367SOL    HW232001   5.994   1.577   4.228 -0.7304  0.7063 -0.0338
10368SOL     OW32002   0.269   1.826   5.277 -0.8109  0.1305  0.1664
10368SOL    HW132003   0.295   1.778   5.193  2.6859 -1.4356  1.9301
10368SOL    HW232004   0.300   1.921   5.272 -2.2434  0.5730 -0.9433
10369SOL     OW32005   2.058   6.413   4.347  0.6277  0.4132  0.0652
10369SOL    HW132006   2.034   6.316   4.338 -1.3120  0.8407  0.2999
10369SOL    HW232007   1.990   6.468   4.299 -0.0489  1.8189  2.5125
10370SOL     OW32008   4.696   4.652   0.643  0.2667  0.0996  0.7536
10370SOL    HW132009   4.622   4.586   0.639 -0.3834  0.8709 -1.3737
10370SOL    HW232010   4.765   4.631   0.573  0.6195  1.0051  0.8017
10371SOL     OW32011   5.349   6.131   5.419 -0.0969  0.2771  0.2076
10371SOL    HW132012   5.378   6.156   5.512  2.7293  0.1129 -0.5173
10371SOL    HW232013   5.430   6.110   5.364 -1.7370 -0.3560 -2.1176
10372SOL     OW32014   1.000   4.745   4.699  0.1482 -0.0500 -0.3291
10372SOL    HW132015   0.943   4.826   4.704  1.2721  0.9014 -2.0241
10372SOL    HW232016   0.949   4.670   4.658 -0.6640 -0.0075  0.5716
10373SOL     OW32017   1.121   2.597   1.183 -0.1570 -0.5760 -0.6640
10373SOL    HW132018   1.032   2.643   1.191 -0.7245 -1.3106 -2.2190
10373SOL    HW232019   1.126   2.521   1.249 -0.4766 -0.2287 -0.2351
10374SOL     OW32020   1.037   5.085   2.458  0.0620  0.2917 -0.3445
10374SOL    HW132021   1.117   5.072   2.398  0.2244 -0.2391 -0.0218
10374SOL    HW232022   1.038   5.177   2.497  1.4766 -0.2761  1.0427
10375SOL     OW32023   6.650   4.810   2.974 -0.0151 -0.2375 -0.3422
10375SOL    HW132024   6.727   4.827   2.912  1.6224  1.7201  2.0602
10375SOL    HW232025   6.672   4.845   3.065 -4.1021  1.1971  0.2758
10376SOL     OW32026   6.047   0.537   5.179 -0.0145  0.1382 -0.2940
10376SOL    HW132027   6.102   0.619   5.192 -0.1530  0.1992 -0.1014
10376SOL    HW232028   5.953   0.563   5.157  0.2367  0.0489 -1.5766
10377SOL     OW32029   5.195   6.178   3.849  0.5005  0.5104 -0.4140
10377SOL    HW132030   5.268   6.241   3.823  2.2564 -0.1653  2.3799
10377SOL    HW232031   5.234   6.086   3.860 -1.2085 -0.2835 -0.6614
10378SOL     OW32032   4.632   1.981   0.735  0.2315 -0.4595  0.1916
10378SOL    HW132033   4.719   1.937   0.714  0.3848 -0.1078  0.0887
10378SOL    HW232034   4.580   1.923   0.798  0.7699 -0.4130  0.6862
10379SOL     OW32035   1.739   0.416   5.825  0.2766  0.1225 -0.0717
10379SOL    HW132036   1.687   0.383   5.904 -1.8800  1.6994 -0.7114
10379SOL    HW232037   1.734   0.349   5.752 -0.5369  0.0441  0.0394
10380SOL     OW32038   5.393   3.358   1.617  0.7887 -0.1705  0.1022
10380SOL    HW132039   5.408   3.265   1.650 -0.6480 -0.4617 -0.0085
10380SOL    HW232040   5.313   3.397   1.663  0.6972  0.5941 -0.6754
10381SOL     OW32041   3.551   4.886   3.308 -0.0947 -0.5313  0.0423
10381SOL    HW132042   3.592   4.956   3.366  1.5089 -2.2774  1.1773
10381SOL    HW232043   3.594   4.797   3.329  0.3687 -1.3285 -3.5984
10382SOL     OW32044   1.921   2.553   6.024  0.5837  0.6244  0.1117
10382SOL    HW132045   1.890   2.638   6.068  0.8645  0.2590  1.0397
10382SOL    HW232046   1.930   2.481   6.093  0.0327 -0.2608 -0.7171
10383SOL     OW32047   2.130   2.976   4.089 -0.0880 -0.0693 -0.6218
10383SOL    HW132048   2.178   2.969   4.177  0.5484  1.4367 -0.8196
10383SOL    HW232049   2.192   2.949   4.015  0.5484  1.9803 -0.8871
10384SOL     OW32050   4.632   2.281   6.342 -0.2729  0.3243 -0.1712
10384SOL    HW132051   4.614   2.183   6.356 -0.6086  0.4764  0.5269
10384SOL    HW232052   4.701   2.292   6.272 -0.9280 -0.3872 -0.9611
10385SOL     OW32053   4.366   0.600   2.832 -0.3912 -0.4023 -0.1274
10385SOL    HW132054   4.303   0.645   2.768 -1.1855 -1.1952  0.0674
10385SOL    HW232055   4.346   0.630   2.925  1.1512  1.1981 -0.2729
10386SOL     OW32056   0.407   3.106   3.875  0.2245  0.3592  0.1842
10386SOL    HW132057   0.419   3.019   3.922 -0.4781 -0.1475 -0.5382
10386SOL    HW232058   0.324   3.151   3.910  0.4171  0.5967  0.3393
10387SOL     OW32059   0.457   6.704   1.916 -0.4915 -0.5309  0.7136
10387SOL    HW132060   0.432   6.611   1.888 -1.9522 -0.4690  1.6866
10387SOL    HW232061   0.385   6.767   1.888  0.1003  0.1863  0.7813
10388SOL     OW32062   5.945   5.707   6.913  0.0421 -0.5473 -0.2897
10388SOL    HW132063   5.901   5.682   6.827  0.6105 -0.4831 -0.6071
10388SOL    HW232064   5.938   5.806   6.928 -1.0439 -0.6966  0.3082
10389SOL     OW32065   5.488   6.110   2.038  0.5398 -0.4698  0.0320
10389SOL    HW132066   5.394   6.140   2.025  0.1128 -1.0061  1.6917
10389SOL    HW232067   5.534   6.171   2.103  1.4799  0.0211 -1.0562
10390SOL     OW32068   1.719   2.191   3.335 -0.1870 -0.0189 -0.0024
10390SOL    HW132069   1.674   2.107   3.304 -1.4046  1.0474 -1.2924
10390SOL    HW232070   1.781   2.223   3.264 -2.2136  1.8929 -1.0177
10391SOL     OW32071   1.598   5.983   2.049 -0.9440  0.0320  0.1208
10391SOL    HW132072   1.632   6.042   1.975  0.1496 -1.1170 -0.3233
10391SOL    HW232073   1.614   5.887   2.025 -0.4662 -0.3545  1.9152
10392SOL     OW32074   3.571   6.300   0.128  0.0729  0.5276  0.2496
10392SOL    HW132075   3.625   6.268   0.050  1.3777 -2.3678  2.1641
10392SOL    HW232076   3.632   6.323   0.203 -1.2145  1.3466  1.0775
10393SOL     OW32077   1.484   5.546   2.097 -0.0724 -0.1428 -0.2357
10393SOL    HW132078   1.482   5.636   2.053  1.0730 -0.7733 -1.6746
10393SOL    HW232079   1.440   5.479   2.037 -0.9258 -0.5566  0.8293
10394SOL     OW32080   4.769   6.723   0.975  0.1583  0.2543  0.0650
10394SOL    HW132081   4.800   6.803   1.027  0.8756  0.4582 -0.6598
10394SOL    HW232082   4.710   6.667   1.033  0.9886  0.4488  1.1277
10395SOL     OW32083   5.460   2.396   5.223 -0.1997 -0.4126 -0.0007
10395SOL    HW132084   5.538   2.351   5.266 -0.2047  0.2118  0.6714
10395SOL    HW232085   5.378   2.379   5.278 -0.0970  0.8964  0.6050
10396SOL     OW32086   0.947   2.794   4.145  0.0014 -0.0724 -0.4147
10396SOL    HW132087   0.923   2.878   4.096  1.1572  0.0932 -0.7271
10396SOL    HW232088   0.871   2.767   4.204 -0.9604  0.3812 -1.4055
10397SOL     OW32089   2.633   0.042   1.320 -0.2000  0.0269  0.0670
10397SOL    HW132090   2.553   0.004   1.273 -0.2803 -0.7353  0.8110
10397SOL    HW232091   2.708  -0.024   1.317 -0.3473 -0.2292  1.3845
10398SOL     OW32092   4.800   0.773   4.126 -0.1327 -0.1683  0.6729
10398SOL    HW132093   4.894   0.741   4.116  0.0166 -0.2038  2.0562
10398SOL    HW232094   4.740   0.695   4.144 -0.7814 -0.4148 -2.1083
10399SOL     OW32095   2.712   6.815   5.732 -0.0158 -0.0691  0.0304
10399SOL    HW132096   2.719   6.741   5.665 -0.6519 -1.8089  1.7740
10399SOL    HW232097   2.789   6.877   5.722  0.9025 -1.3464 -1.0750
10400SOL     OW32098   3.545   1.557   3.968  0.3630  0.1866  0.2938
10400SOL    HW132099   3.628   1.505   3.991  1.3979  1.6695  0.0429
10400SOL    HW232100   3.553   1.592   3.875 -1.0438 -0.5275 -0.1238
10401SOL     OW32101   3.353   0.841   6.004  0.4264  1.0215 -0.4153
10401SOL    HW132102   3.404   0.757   5.983  1.1599  1.2909  0.2599
10401SOL    HW232103   3.316   0.835   6.097 -0.4835  0.9782 -0.7723
10402SOL     OW32104   0.370   4.796   3.205 -0.6156 -1.0131  0.4535
10402SOL    HW132105   0.376   4.813   3.107  0.7472 -0.8180  0.5495
10402SOL    HW232106   0.309   4.863   3.247 -0.5719 -0.5897 -0.1498
10403SOL     OW32107   1.245   5.071   0.893 -1.1573 -0.5483  0.0386
10403SOL    HW132108   1.195   5.059   0.807  0.5170 -0.0975 -1.0414
10403SOL    HW232109   1.216   5.156   0.937 -1.0449 -0.0773 -0.7791
10404SOL     OW32110   5.796   2.351   0.872  0.3798  0.4721  0.2618
10404SOL    HW132111   5.723   2.365   0.938  0.6890  1.3987  0.4271
10404SOL    HW232112   5.764   2.378   0.781 -0.3548 -1.6799 -0.1748
10405SOL     OW32113   1.392   5.491   6.102 -0.4830  0.4597 -0.1897
10405SOL    HW132114   1.323   5.564   6.100 -0.9009  0.0571 -0.8773
10405SOL    HW232115   1.347   5.403   6.091  0.1060  0.1602 -0.2358
10406SOL     OW32116   0.070   6.555   1.240 -0.3982 -0.2708 -0.2667
10406SOL    HW132117   0.134   6.511   1.303 -0.4345  0.1647  0.0789
10406SOL    HW232118   0.041   6.489   1.171 -1.2811 -1.1123  0.8720
10407SOL     OW32119   4.451   5.958   2.174  0.0154 -0.0117 -0.3282
10407SOL    HW132120   4.488   5.943   2.266  2.4878  0.8997 -1.0769
10407SOL    HW232121   4.393   6.039   2.174  2.2087  1.6666 -0.0038
10408SOL     OW32122   5.037   2.740   3.101 -0.3570 -0.3717  0.5563
10408SOL    HW132123   4.942   2.765   3.120 -0.5458  0.4644 -1.2855
10408SOL    HW232124   5.049   2.727   3.003  0.9702 -2.5565  0.9446
10409SOL     OW32125   0.080   1.313   1.805  0.7090 -0.2110 -0.2709
10409SOL    HW132126   0.122   1.297   1.894  2.7706  1.1482 -0.8942
10409SOL    HW232127   0.008   1.382   1.813  0.7506 -0.2430  0.3868
10410SOL     OW32128   1.839   6.983   6.758  0.3137  0.0774 -0.1397
10410SOL    HW132129   1.823   6.987   6.856  1.0401  0.2029 -0.0206
10410SOL    HW232130   1.912   6.918   6.738  0.2057  0.0875 -0.5929
10411SOL     OW32131   4.304   5.069   6.754  0.7226  0.4013 -0.2546
10411SOL    HW132132   4.279   5.163   6.733  1.5420  0.6805 -0.0444
10411SOL    HW232133   4.353   5.066   6.842  1.5943 -0.0676 -0.7348
10412SOL     OW32134   5.015   5.687   5.062  0.2229  0.0951 -0.4514
10412SOL    HW132135   4.945   5.748   5.100  0.8698  0.0804  0.8191
10412SOL    HW232136   5.074   5.738   5.001  0.7117  0.7428  0.5417
10413SOL     OW32137   6.093   0.660   4.379 -0.5192  0.2021  1.2276
10413SOL    HW132138   6.141   0.742   4.347 -0.0678 -0.4734  0.0856
10413SOL    HW232139   6.017   0.640   4.317 -1.4472  0.4890  2.2495
10414SOL     OW32140   6.609   0.068   5.045 -0.0960  0.4420  0.4002
10414SOL    HW132141   6.562   0.029   5.125 -1.8126  1.5702 -0.0075
10414SOL    HW232142   6.624  -0.004   4.977 -0.1546 -0.1769  1.0255
10415SOL     OW32143   1.101   1.054   3.484 -0.0326  0.1761 -0.6235
10415SOL    HW132144   1.011   1.010   3.485 -0.5074  1.0732  1.9292
10415SOL    HW232145   1.091   1.149   3.454 -0.1272  0.5638  0.5862
10416SOL     OW32146   2.842   6.320   4.685 -0.0671  0.3735  0.2661
10416SOL    HW132147   2.919   6.374   4.719  0.8002 -0.3788 -0.4444
10416SOL    HW232148   2.854   6.225   4.711  0.0402 -0.0232 -1.1293
10417SOL     OW32149   1.910   2.043   5.613  0.2536 -0.1096  0.2270
10417SOL    HW132150   1.842   2.069   5.545  1.5195  0.0689 -1.0108
10417SOL    HW232151   1.875   2.062   5.705 -0.0875  3.2345 -0.4720
10418SOL     OW32152   0.836   5.368   1.833  0.2712  0.7058 -0.0005
10418SOL    HW132153   0.910   5.434   1.847  1.8301 -0.8568 -0.5034
10418SOL    HW232154   0.853   5.287   1.889 -0.0638 -0.4261 -1.4827
10419SOL     OW32155   1.183   4.116   3.669  0.7280  0.8130  0.3847
10419SOL    HW132156   1.103   4.165   3.634  0.9981  1.7617  1.0511
10419SOL    HW232157   1.266   4.150   3.623  1.0401  1.7864  1.6075
10420SOL     OW32158   4.533   3.780   0.446 -0.2069  0.3211  0.3696
10420SOL    HW132159   4.610   3.758   0.506 -0.4436  1.6168  1.2018
10420SOL    HW232160   4.502   3.873   0.465 -0.6232  0.5912 -1.4397
10421SOL     OW32161   2.705   4.834   3.049 -0.2904 -0.3317  0.2333
10421SOL    HW132162   2.646   4.771   3.099 -1.8983  0.7416 -0.2168
10421SOL    HW232163   2.782   4.861   3.107 -0.0881 -1.9455  0.7575
10422SOL     OW32164   0.507   5.773   3.440  0.1306 -0.0635  0.5542
10422SOL    HW132165   0.529   5.703   3.371  2.5504  0.4513  0.7044
10422SOL    HW232166   0.522   5.736   3.531  0.0371  0.2064  0.6804
10423SOL     OW32167   6.525   4.388   5.908 -0.8912 -0.2140 -0.1537
10423SOL    HW132168   6.599   4.333   5.947 -0.2600 -0.1668 -1.2524
10423SOL    HW232169   6.459   4.409   5.980  0.9158  1.0438  1.2513
10424SOL     OW32170   0.345   6.677   0.577  0.8818  0.5388  0.0531
10424SOL    HW132171   0.380   6.600   0.523  1.8349  0.6367  0.5052
10424SOL    HW232172   0.422   6.726   0.618  0.1787  0.5296  1.4224
10425SOL     OW32173   4.611   2.753   1.810 -0.3888  0.3395 -0.1397
10425SOL    HW132174   4.626   2.831   1.871  0.1351  0.8439 -0.9003
10425SOL    HW232175   4.562   2.681   1.860  2.5231 -0.4850  1.8630
10426SOL     OW32176   2.845   3.817   6.381  0.5554  0.3001 -0.4707
10426SOL    HW132177   2.756   3.824   6.337  0.3353 -0.1430 -0.1096
10426SOL    HW232178   2.848   3.734   6.437  0.6149  1.1264  0.8094
10427SOL     OW32179   5.347   2.618   1.996  0.3928  0.4046 -0.0880
10427SOL    HW132180   5.434   2.632   1.948  0.4621 -0.0385 -0.0934
10427SOL    HW232181   5.272   2.625   1.931  0.5319 -0.9685 -0.4113
10428SOL     OW32182   5.565   6.399   3.122 -0.0146 -0.5540  0.3245
10428SOL    HW132183   5.647   6.393   3.178 -0.5796 -0.7499  1.1570
10428SOL    HW232184   5.507   6.473   3.157  0.3468  0.3992 -1.0043
10429SOL     OW32185   5.949   2.310   2.358  0.0435  0.4926 -0.0862
10429SOL    HW132186   6.034   2.269   2.390  0.7138  1.3276 -0.7612
10429SOL    HW232187   5.959   2.339   2.263 -0.6684  1.4788  0.1174
10430SOL     OW32188   5.546   0.374   2.466  0.0169  0.0085  0.1516
10430SOL    HW132189   5.579   0.321   2.544 -0.1430  1.6114  1.3491
10430SOL    HW232190   5.565   0.323   2.381  2.1450 -0.8079  1.0430
10431SOL     OW32191   6.253   5.413   6.788  0.0895 -0.1049 -0.2682
10431SOL    HW132192   6.223   5.492   6.841  0.3282 -0.4022  0.3153
10431SOL    HW232193   6.350   5.423   6.764  1.1382 -1.7716  2.7683
10432SOL     OW32194   1.593   3.547   5.808  0.0915 -0.1103  0.2281
10432SOL    HW132195   1.638   3.580   5.890 -1.4115  1.8100  0.3565
10432SOL    HW232196   1.661   3.527   5.738  1.2179  1.9334  0.6665
10433SOL     OW32197   3.583   5.682   2.923  0.7457 -0.7515 -0.0489
10433SOL    HW132198   3.611   5.771   2.886  2.0179 -0.4839  1.4295
10433SOL    HW232199   3.484   5.675   2.920  0.7121 -0.0058 -1.7589
10434SOL     OW32200   4.434   5.513   5.580  0.2001 -0.2171 -0.4263
10434SOL    HW132201   4.470   5.604   5.598 -1.7196  0.4474  0.1764
10434SOL    HW232202   4.364   5.518   5.509  0.5261 -1.3390 -0.8520
10435SOL     OW32203   0.446   5.398   5.345 -0.1915 -0.3098 -0.2959
10435SOL    HW132204   0.498   5.427   5.425  0.5017 -0.0411 -0.8282
10435SOL    HW232205   0.356   5.442   5.345  0.2366  0.5884 -0.2511
10436SOL     OW32206   5.271   4.688   1.955  0.2000  0.1167  0.0780
10436SOL    HW132207   5.307   4.688   2.048 -1.1367 -1.6939  0.6424
10436SOL    HW232208   5.194   4.625   1.949  0.2507  0.1986 -2.2727
10437SOL     OW32209   6.932   0.354   0.090 -0.2953 -0.0847 -0.6900
10437SOL    HW132210   6.838   0.386   0.097  0.1889  1.2692  0.1503
10437SOL    HW232211   6.963   0.362  -0.004 -0.6277  0.7021 -0.7444
10438SOL     OW32212   6.306   0.316   5.950  0.0219 -0.1847 -0.1088
10438SOL    HW132213   6.296   0.355   5.859 -0.8996  1.8898  0.8153
10438SOL    HW232214   6.217   0.314   5.996  0.8128  1.2045  1.6237
10439SOL     OW32215   5.105   2.987   5.602 -0.0288  0.0660 -0.0528
10439SOL    HW132216   5.105   3.036   5.689 -0.9028  1.2143 -0.6766
10439SOL    HW232217   5.172   3.027   5.540  0.9205 -1.0388  0.2091
10440SOL     OW32218   1.908   2.938   2.693  0.6851 -0.2378  0.1178
10440SOL    HW132219   1.831   2.992   2.659  0.9734  0.6302  0.8314
10440SOL    HW232220   1.950   2.984   2.771 -1.1301 -2.9720  3.0146
10441SOL     OW32221   2.064   2.528   6.652  0.3562  0.1001 -0.0411
10441SOL    HW132222   2.049   2.431   6.635  0.0772  0.2393 -0.6214
10441SOL    HW232223   2.074   2.576   6.565 -0.2827  0.7120  0.2139
10442SOL     OW32224   3.644   2.520   6.943  0.0123  0.3345  0.2225
10442SOL    HW132225   3.661   2.597   6.881  0.4796 -0.5976 -0.8451
10442SOL    HW232226   3.549   2.523   6.974  0.0537  1.3990  0.2914
10443SOL     OW32227   5.639   0.762   0.786  0.3656  0.9602  0.3459
10443SOL    HW132228   5.660   0.671   0.752 -0.2949  1.1227 -0.5254
10443SOL    HW232229   5.568   0.756   0.857  1.3064  0.6814  1.2884
10444SOL     OW32230   2.707   0.748   4.034 -0.0164 -0.1197 -0.1947
10444SOL    HW132231   2.709   0.841   4.068  0.1328  0.1855 -1.0077
10444SOL    HW232232   2.762   0.689   4.093  1.6396  0.7175 -0.8263
10445SOL     OW32233   4.545   0.384   0.045  0.0508  0.1457 -0.0087
10445SOL    HW132234   4.609   0.397   0.120 -1.1047 -2.0842  1.4846
10445SOL    HW232235   4.541   0.287   0.020 -2.6592  0.1683 -0.0487
10446SOL     OW32236   1.754   1.313   0.726  0.1548  0.3915 -0.0099
10446SOL    HW132237   1.771   1.267   0.638 -0.4143  1.0923 -0.5033
10446SOL    HW232238   1.656   1.332   0.735 -0.0725 -1.3029  1.6216
10447SOL     OW32239   0.560   0.354   5.744  0.1872  0.1948  0.0314
10447SOL    HW132240   0.630   0.423   5.762  0.2855 -0.2478  1.4464
10447SOL    HW232241   0.487   0.394   5.688 -0.3814  1.8583  1.8461
10448SOL     OW32242   3.831   2.956   2.545  0.4474  0.1917 -0.7380
10448SOL    HW132243   3.863   3.038   2.498 -1.5424  1.1191 -0.6041
10448SOL    HW232244   3.793   2.892   2.478  0.7323 -0.0161 -0.7041
10449SOL     OW32245   3.294   4.119   6.671 -0.0818 -0.4978 -0.2771
10449SOL    HW132246   3.355   4.045   6.645  1.1481  0.4648 -0.2551
10449SOL    HW232247   3.344   4.185   6.728 -1.9374 -1.1463  2.2800
10450SOL     OW32248   5.480   4.575   0.970  0.1237  0.0480  0.0297
10450SOL    HW132249   5.440   4.619   0.890 -0.7187  0.2796  0.5627
10450SOL    HW232250   5.419   4.587   1.049  1.4940  0.9028  1.0177
10451SOL     OW32251   6.695   1.949   3.858 -0.1030  0.3456 -0.3906
10451SOL    HW132252   6.617   1.981   3.805  0.4318  2.4768 -0.0007
10451SOL    HW232253   6.665   1.923   3.950 -0.6187 -0.7217 -0.8479
10452SOL     OW32254   5.843   3.494   3.610 -0.1233 -0.2300  0.3023
10452SOL    HW132255   5.783   3.540   3.675 -0.5089  0.4347 -0.5240
10452SOL    HW232256   5.808   3.402   3.593  0.9368 -1.0872  2.3572
10453SOL     OW32257   6.108   5.542   5.359  0.2181 -0.3279  0.3425
10453SOL    HW132258   6.058   5.493   5.288  0.2438 -2.0711  1.4428
10453SOL    HW232259   6.130   5.634   5.328 -1.9275 -0.1789 -0.9310
10454SOL     OW32260   5.943   1.957   3.038  0.2000 -0.1565 -0.7536
10454SOL    HW132261   6.014   2.000   3.093 -0.7672  0.2896  0.1692
10454SOL    HW232262   5.986   1.903   2.966  1.4678  0.3181 -0.3878
10455SOL     OW32263   6.016   4.071   6.263 -0.2509  0.1016 -0.3550
10455SOL    HW132264   6.045   4.166   6.253 -0.4392  0.1651 -0.3018
10455SOL    HW232265   5.946   4.050   6.195 -0.8296  0.2517  0.1875
10456SOL     OW32266   3.818   6.565   1.163  0.4611  0.5650  0.2832
10456SOL    HW132267   3.857   6.622   1.234  0.2492  0.4561  0.4896
10456SOL    HW232268   3.822   6.613   1.075 -0.6210  1.3180  0.6245
10457SOL     OW32269   6.466   3.377   1.232  0.2250  0.4952  0.1732
10457SOL    HW132270   6.521   3.294   1.240  1.3128  0.9357 -1.8975
10457SOL    HW232271   6.377   3.354   1.194 -0.4277  0.0035  1.9077
10458SOL     OW32272   6.129   2.736   3.651  0.4258  0.1675  0.4721
10458SOL    HW132273   6.061   2.783   3.595 -1.2895 -1.9179  0.7079
10458SOL    HW232274   6.219   2.745   3.609 -0.0335  2.4994 -0.1525
10459SOL     OW32275   3.014   0.711   2.567  0.4040 -0.5544 -0.4879
10459SOL    HW132276   2.959   0.735   2.486 -2.0778 -1.9511  0.6701
10459SOL    HW232277   3.077   0.637   2.544  0.0684 -0.6138 -1.2444
10460SOL     OW32278   4.314   1.473   5.129 -0.2152 -0.0276  0.1092
10460SOL    HW132279   4.328   1.558   5.079  0.0544  0.8516  1.6252
10460SOL    HW232280   4.216   1.453   5.135 -0.2204 -0.7351 -1.6599
10461SOL     OW32281   2.657   4.412   6.411 -0.0598 -0.0483  0.0769
10461SOL    HW132282   2.623   4.387   6.321 -1.4655 -0.0760  0.5966
10461SOL    HW232283   2.617   4.352   6.480 -1.1667  1.6654  1.0160
10462SOL     OW32284   0.955   1.999   0.777 -0.7595  0.2712  0.2093
10462SOL    HW132285   0.984   1.917   0.726 -1.4685 -0.1831  0.5166
10462SOL    HW232286   0.966   2.079   0.718  3.5812  0.5902  1.1131
10463SOL     OW32287   6.195   3.641   2.838 -0.0959 -0.3681  0.2011
10463SOL    HW132288   6.159   3.717   2.784 -0.0137 -1.0928 -0.9213
10463SOL    HW232289   6.264   3.674   2.901 -0.3778  0.5515  0.0411
10464SOL     OW32290   1.276   3.147   2.345  0.5699  0.2214 -0.8354
10464SOL    HW132291   1.253   3.241   2.323  0.3213  0.0081 -1.4980
10464SOL    HW232292   1.370   3.128   2.319  0.5327  0.2052 -0.9563
10465SOL     OW32293   6.556   2.668   4.012 -0.2417 -0.2586 -0.2065
10465SOL    HW132294   6.482   2.725   3.976  1.0285  1.2025 -0.6019
10465SOL    HW232295   6.540   2.572   3.986 -1.0509  0.2853 -1.8554
10466SOL     OW32296   4.029   5.124   3.791  0.0055  0.0428  0.0719
10466SOL    HW132297   4.005   5.040   3.841 -0.8088  0.2743  0.0861
10466SOL    HW232298   4.109   5.167   3.834  1.1259 -1.2904 -0.5925
10467SOL     OW32299   3.383   6.903   4.286 -0.0451 -0.0877 -0.1762
10467SOL    HW132300   3.361   6.988   4.240  1.3628 -0.2796 -1.2848
10467SOL    HW232301   3.398   6.831   4.218 -1.6927 -1.3764  0.7450
10468SOL     OW32302   5.654   6.766   4.963 -0.1195  0.1735 -0.4684
10468SOL    HW132303   5.648   6.789   5.060  1.6188 -2.6342  0.4203
10468SOL    HW232304   5.670   6.850   4.910  2.2226  1.4941  2.0304
10469SOL     OW32305   6.669   2.731   0.126 -0.9558 -0.1402 -0.3650
10469SOL    HW132306   6.570   2.723   0.131 -0.9239  0.0432  1.1555
10469SOL    HW232307   6.710   2.646   0.159 -0.5866 -0.5832 -1.8898
10470SOL     OW32308   0.748   0.960   1.196 -0.0458 -0.6184 -0.1147
10470SOL    HW132309   0.702   1.048   1.205  0.1286 -0.5736  0.3959
10470SOL    HW232310   0.758   0.918   1.287  1.1244 -0.5179 -0.1785
10471SOL     OW32311   3.007   1.674   5.395  0.0471  0.6888  0.4059
10471SOL    HW132312   3.038   1.595   5.342  1.9195  1.6693 -0.0441
10471SOL    HW232313   3.080   1.703   5.458  1.1070  4.4462 -2.2320
10472SOL     OW32314   2.961   3.154   4.983  0.4921  0.3400 -0.1513
10472SOL    HW132315   2.915   3.177   5.068  2.0769  0.9067  0.5924
10472SOL    HW232316   2.914   3.077   4.939 -0.5133  0.2291  1.0746
10473SOL     OW32317   0.841   2.280   3.555  0.5256  0.7278  0.0012
10473SOL    HW132318   0.877   2.244   3.641  0.8763 -3.4581 -1.6605
10473SOL    HW232319   0.750   2.317   3.569  0.6418  0.2760  2.1980
10474SOL     OW32320   5.962   2.613   1.289 -0.1229  0.1478 -0.2274
10474SOL    HW132321   5.933   2.559   1.368  1.0232  0.6445  0.5582
10474SOL    HW232322   6.029   2.561   1.236  0.6761  0.6199  0.3041
10475SOL     OW32323   6.401   3.198   0.581 -0.1243 -0.0134 -0.2909
10475SOL    HW132324   6.436   3.228   0.492 -1.0164 -0.3635 -0.7689
10475SOL    HW232325   6.310   3.158   0.570  0.9145 -2.8108  0.3011
10476SOL     OW32326   5.210   5.625   3.455 -0.0918 -0.2264  0.4162
10476SOL    HW132327   5.256   5.712   3.438 -0.6166 -0.0145  0.0852
10476SOL    HW232328   5.276   5.561   3.495  0.3118  0.2993  0.6139
10477SOL     OW32329   2.358   3.647   1.661 -0.4562 -0.2516 -0.4928
10477SOL    HW132330   2.395   3.563   1.700  1.0787  1.1644  1.2884
10477SOL    HW232331   2.294   3.688   1.726  1.1968  1.5167  0.0978
10478SOL     OW32332   6.709   3.302   2.266  0.4866  0.0003 -0.1066
10478SOL    HW132333   6.675   3.210   2.286  0.7873 -0.0586  0.1336
10478SOL    HW232334   6.633   3.367   2.272  0.2010 -0.2770 -0.6200
10479SOL     OW32335   5.073   6.021   0.428  0.0598 -0.6680  0.1201
10479SOL    HW132336   5.033   5.944   0.377 -2.4995  1.0234 -0.6135
10479SOL    HW232337   5.100   6.092   0.363  1.2706 -0.4028  0.8828
10480SOL     OW32338   0.607   2.623   3.054  0.6467 -0.0325  0.1957
10480SOL    HW132339   0.527   2.673   3.086 -0.7685 -0.7387 -2.0503
10480SOL    HW232340   0.680   2.688   3.032  0.3532  0.6904  1.2711
10481SOL     OW32341   4.788   4.020   4.094  0.2491 -0.3684 -0.3716
10481SOL    HW132342   4.792   4.075   4.177 -0.1321 -0.0383 -0.5693
10481SOL    HW232343   4.797   4.079   4.014  0.0304 -0.6166 -0.5826
10482SOL     OW32344   1.112   4.284   2.822  0.3927 -0.7581 -0.4667
10482SOL    HW132345   1.086   4.270   2.917  1.5764 -0.5969 -0.0961
10482SOL    HW232346   1.057   4.226   2.762 -4.3204  2.8923 -0.2997
10483SOL     OW32347   6.700   6.118   0.587  0.2699 -0.2467  0.0206
10483SOL    HW132348   6.747   6.031   0.595 -0.2277 -0.9594 -3.3263
10483SOL    HW232349   6.766   6.190   0.567  0.4868 -0.1806  0.9458
10484SOL     OW32350   3.518   1.024   1.352  0.1864  0.2671  0.2912
10484SOL    HW132351   3.449   1.096   1.344  0.3407  0.4764  0.7781
10484SOL    HW232352   3.529   1.000   1.449 -0.1907 -0.7292  0.0976
10485SOL     OW32353   1.824   4.453   4.544  0.3665  1.1554 -0.1870
10485SOL    HW132354   1.792   4.374   4.595  0.0128  2.0807  1.0741
10485SOL    HW232355   1.773   4.461   4.459 -0.2273  0.5573  0.1099
10486SOL     OW32356   0.384   6.372   6.297  0.4090 -0.0459  0.3941
10486SOL    HW132357   0.396   6.436   6.221 -1.5855 -0.6700 -0.5052
10486SOL    HW232358   0.288   6.347   6.304  0.9803 -2.1628  1.3659
10487SOL     OW32359   2.080   5.570   3.749 -0.0413  0.0484  0.7819
10487SOL    HW132360   2.097   5.485   3.700 -2.7558 -0.0193 -0.2029
10487SOL    HW232361   2.110   5.647   3.693 -0.1325 -0.1561  0.4505
10488SOL     OW32362   5.594   2.618   6.063  0.4551  0.1401  0.2381
10488SOL    HW132363   5.583   2.588   5.968 -0.7330  0.3280  0.3041
10488SOL    HW232364   5.689   2.607   6.090  0.4903 -1.5924 -0.4152
10489SOL     OW32365   4.549   1.707   2.602 -0.0275 -0.1705  0.3112
10489SOL    HW132366   4.458   1.669   2.612 -0.6880  1.4347  0.7398
10489SOL    HW232367   4.576   1.705   2.506 -1.1309  0.6832 -0.0314
10490SOL     OW32368   0.378   1.187   3.976 -0.5371  0.4886  0.0421
10490SOL    HW132369   0.348   1.258   4.040 -0.5976  0.1573  0.3860
10490SOL    HW232370   0.448   1.130   4.020 -1.8216 -0.8317  0.4610
10491SOL     OW32371   2.843   2.285   4.233 -0.2314 -0.0483 -0.7339
10491SOL    HW132372   2.812   2.366   4.284  0.1648 -0.5731  0.3765
10491SOL    HW232373   2.942   2.275   4.245 -0.5627 -1.8884  0.9696
10492SOL     OW32374   0.722   1.471   3.374  0.6389 -0.1511  0.3097
10492SOL    HW132375   0.766   1.382   3.381 -1.1254 -1.0481  0.5758
10492SOL    HW232376   0.693   1.501   3.465 -0.5172 -0.2546 -0.0033
10493SOL     OW32377   6.022   0.749   0.235 -0.0044 -0.1906  0.2804
10493SOL    HW132378   6.120   0.749   0.214 -0.1156 -1.6035 -0.3949
10493SOL    HW232379   5.969   0.754   0.150 -0.5526  1.4046  0.6783
10494SOL     OW32380   1.634   5.761   3.785 -0.4459 -0.4081 -0.0019
10494SOL    HW132381   1.714   5.812   3.816 -2.0443  0.5903  2.9082
10494SOL    HW232382   1.646   5.664   3.807  0.9496 -0.7712 -1.9945
10495SOL     OW32383   2.152   5.163   2.755 -0.4636  0.6113  0.2821
10495SOL    HW132384   2.083   5.130   2.820  0.4939  0.7953  1.4160
10495SOL    HW232385   2.242   5.159   2.797  0.0345  1.8887 -0.6057
10496SOL     OW32386   5.663   6.852   5.520  0.0576 -0.1457  0.1856
10496SOL    HW132387   5.656   6.923   5.591 -0.6040 -0.9464  0.9370
10496SOL    HW232388   5.597   6.870   5.448  1.8540  1.6180 -1.1258
10497SOL     OW32389   0.624   4.593   1.146 -0.0113 -0.2382  0.0968
10497SOL    HW132390   0.718   4.560   1.144 -0.1630 -0.9136  1.9966
10497SOL    HW232391   0.565   4.524   1.187 -1.3306  0.2335 -0.9413
10498SOL     OW32392   4.479   2.678   0.097  0.5054  0.2353  0.7151
10498SOL    HW132393   4.405   2.744   0.110 -0.8450 -0.7911 -1.1575
10498SOL    HW232394   4.445   2.601   0.043  2.6179 -0.9317  0.9494
10499SOL     OW32395   4.172   6.748   0.530  0.4302 -0.0486  0.1532
10499SOL    HW132396   4.097   6.783   0.586  0.5898  1.3982 -0.4994
10499SOL    HW232397   4.199   6.658   0.564  0.3960  0.6763  2.2830
10500SOL     OW32398   2.581   6.179   6.779 -0.0320 -0.0804 -0.2132
10500SOL    HW132399   2.648   6.243   6.815  0.5600 -1.4052  1.1136
10500SOL    HW232400   2.517   6.228   6.720  2.4631  1.1293 -2.1080
10501SOL     OW32401   0.862   4.797   3.625 -0.4703  0.5499  1.0876
10501SOL    HW132402   0.843   4.830   3.533  1.5659  1.2782  0.8532
10501SOL    HW232403   0.816   4.710   3.641 -0.6603  0.2916 -0.7108
10502SOL     OW32404   4.212   1.995   3.524 -0.2281  0.2530 -0.2923
10502SOL    HW132405   4.244   1.906   3.492  0.4353  0.8624 -1.3513
10502SOL    HW232406   4.113   1.990   3.542 -0.5764 -0.1935 -2.1769
10503SOL     OW32407   5.892   3.192   0.977  0.7788 -0.0965 -0.2578
10503SOL    HW132408   5.897   3.275   1.033 -0.9281 -0.4038  0.3907
10503SOL    HW232409   5.934   3.209   0.888 -0.4819  1.8091 -0.5338
10504SOL     OW32410   6.751   4.212   5.960  0.4234 -0.1518  0.5851
10504SOL    HW132411   6.767   4.212   5.861 -1.6985 -0.3105  0.2135
10504SOL    HW232412   6.739   4.118   5.991  1.0436 -0.0979  1.0141
10505SOL     OW32413   3.486   0.839   1.141 -0.9220  0.2916  0.7628
10505SOL    HW132414   3.470   0.886   1.054 -3.0912  0.5234  1.2230
10505SOL    HW232415   3.520   0.905   1.209  1.7409 -0.0866 -0.0972
10506SOL     OW32416   3.186   3.260   0.283 -0.7903  0.5559 -0.1307
10506SOL    HW132417   3.144   3.283   0.370  0.6487 -1.1351  1.0932
10506SOL    HW232418   3.176   3.161   0.267 -0.1077  0.6679 -1.3708
10507SOL     OW32419   5.584   4.463   5.628 -0.1551  0.6463 -0.1851
10507SOL    HW132420   5.530   4.379   5.626 -0.2623  0.6740  1.0934
10507SOL    HW232421   5.658   4.454   5.695  0.2342  1.3416 -0.5006
10508SOL     OW32422   0.004   2.364   3.900  0.1635  0.4396 -0.4735
10508SOL    HW132423   0.066   2.416   3.959  0.0564 -0.8094  0.7992
10508SOL    HW232424   0.016   2.392   3.805  0.8282  2.0324  0.0575
10509SOL     OW32425   4.656   1.226   5.241 -0.8084  0.8444  0.1586
10509SOL    HW132426   4.567   1.217   5.284 -0.8169 -1.1030 -0.1550
10509SOL    HW232427   4.648   1.284   5.160 -1.5295  1.6396  0.7846
10510SOL     OW32428   3.207   4.495   0.430 -0.1715 -1.2008  0.4334
10510SOL    HW132429   3.161   4.408   0.447 -0.8249 -1.5148 -2.4231
10510SOL    HW232430   3.146   4.555   0.379  1.5280 -0.4855 -0.8495
10511SOL     OW32431   2.845   4.033   5.885 -0.2988  0.5168  0.1846
10511SOL    HW132432   2.779   4.017   5.812 -0.6624  0.0452  0.6015
10511SOL    HW232433   2.855   3.950   5.939  1.0573  0.4088 -0.1930
10512SOL     OW32434   2.911   6.072   5.935  0.0562 -0.0758 -0.5418
10512SOL    HW132435   2.965   6.113   5.862  0.3715  0.2759 -0.1154
10512SOL    HW232436   2.814   6.072   5.909  0.1176  0.4334 -0.7796
10513SOL     OW32437   1.639   2.167   3.995 -0.1104  0.3209 -0.3329
10513SOL    HW132438   1.674   2.078   4.025  0.7534  0.6546 -0.3344
10513SOL    HW232439   1.568   2.197   4.058 -0.3863 -0.3492 -0.3102
10514SOL     OW32440   6.014   5.177   1.990 -0.1065  0.2926  0.8565
10514SOL    HW132441   6.086   5.114   2.019 -0.7863 -1.3756 -0.8351
10514SOL    HW232442   5.934   5.167   2.049  0.2390  0.5162  1.3684
10515SOL     OW32443   2.709   1.816   6.017  0.3676 -0.2138  0.0775
10515SOL    HW132444   2.653   1.802   6.099  1.1544 -0.1228  0.6336
10515SOL    HW232445   2.669   1.889   5.962  1.4970  1.8602  1.8940
10516SOL     OW32446   3.648   3.581   0.204 -0.0564 -0.0679 -0.2505
10516SOL    HW132447   3.671   3.590   0.107 -0.9242 -2.2087 -0.7092
10516SOL    HW232448   3.572   3.642   0.226 -0.3734 -0.1284 -1.1324
10517SOL     OW32449   5.508   4.323   0.841  0.6009  0.1776 -0.8532
10517SOL    HW132450   5.441   4.296   0.772  1.5585 -1.0532 -1.3441
10517SOL    HW232451   5.466   4.387   0.905 -1.0743 -0.6416 -1.0733
10518SOL     OW32452   5.348   1.474   4.575 -0.3662  0.0521  0.2470
10518SOL    HW132453   5.338   1.559   4.523  2.3846 -0.5081 -1.3639
10518SOL    HW232454   5.258   1.431   4.586 -1.4986  1.9616 -0.9473
10519SOL     OW32455   0.860   5.742   3.309  0.3364  0.0608 -0.2419
10519SOL    HW132456   0.823   5.823   3.264 -0.2138 -0.1076 -0.0911
10519SOL    HW232457   0.787   5.676   3.326  0.9114 -0.8109 -1.0687
10520SOL     OW32458   5.335   5.176   1.806  0.2426  0.1193 -0.0584
10520SOL    HW132459   5.331   5.096   1.866  2.6918 -1.2777 -1.5705
10520SOL    HW232460   5.415   5.231   1.830  0.6727  0.0908 -1.3672
10521SOL     OW32461   6.779   6.712   4.353 -0.2726  0.4543 -0.2986
10521SOL    HW132462   6.771   6.758   4.264 -1.3631 -1.1532 -1.0842
10521SOL    HW232463   6.692   6.668   4.376  0.6899 -1.2032  0.3893
10522SOL     OW32464   6.802   0.397   6.798 -0.2000  0.3230  0.0282
10522SOL    HW132465   6.875   0.331   6.813 -1.5895 -1.5943 -1.1440
10522SOL    HW232466   6.841   0.485   6.770  1.6380 -0.4557  0.0397
10523SOL     OW32467   6.619   4.758   0.355 -0.4827 -0.4469  0.0432
10523SOL    HW132468   6.552   4.814   0.405 -0.0986 -0.1700  0.2492
10523SOL    HW232469   6.622   4.788   0.260 -0.7747 -0.5732 -0.0076
10524SOL     OW32470   6.670   6.140   6.604 -0.2824 -0.4716 -0.0601
10524SOL    HW132471   6.617   6.063   6.568 -1.3976  0.2324  0.0307
10524SOL    HW232472   6.683   6.128   6.702  0.5435 -1.1110 -0.2399
10525SOL     OW32473   4.547   6.912   5.508 -0.4657 -0.5177  0.0771
10525SOL    HW132474   4.484   6.990   5.500 -0.8295 -0.6151  1.6540
10525SOL    HW232475   4.504   6.830   5.470 -1.1526 -0.4872  0.7442
10526SOL     OW32476   6.871   1.915   2.704 -0.3535 -0.1660 -0.5170
10526SOL    HW132477   6.953   1.966   2.729 -1.6917  1.9616 -0.2400
10526SOL    HW232478   6.845   1.855   2.780  0.7731 -0.7197 -0.5303
10527SOL     OW32479   6.782   3.641   2.356  0.8201 -0.5146  0.0985
10527SOL    HW132480   6.709   3.608   2.416  1.7992 -4.2243 -0.4594
10527SOL    HW232481   6.848   3.694   2.410 -0.0045 -0.9552  1.5938
10528SOL     OW32482   4.109   7.005   0.936  0.5832 -0.3084 -0.3890
10528SOL    HW132483   4.012   7.025   0.949  0.0507 -2.4034 -0.7208
10528SOL    HW232484   4.129   6.996   0.838  1.2745  0.6998 -0.3611
10529SOL     OW32485   6.090   6.793   5.438 -0.0842 -0.0816  0.1982
10529SOL    HW132486   6.152   6.738   5.383  0.2731  2.8740 -2.7047
10529SOL    HW232487   5.997   6.783   5.403 -0.3485 -0.3638  0.9759
10530SOL     OW32488   0.065   6.422   5.581 -0.3101  0.1901 -0.2770
10530SOL    HW132489   0.152   6.419   5.532  0.4280 -0.9434  1.0490
10530SOL    HW232490   0.043   6.517   5.603  0.7924  0.4588 -0.2771
10531SOL     OW32491   1.272   2.727   5.182 -0.2262 -0.5991  0.0040
10531SOL    HW132492   1.301   2.776   5.100 -0.9320 -1.0600 -0.5320
10531SOL    HW232493   1.329   2.755   5.259  0.8008 -0.5516 -0.7473
10532SOL     OW32494   1.992   5.826   5.693  0.0159  0.2031 -0.2380
10532SOL    HW132495   2.053   5.803   5.617 -0.1676 -1.9828  0.2078
10532SOL    HW232496   1.898   5.801   5.669 -0.2697  0.8748  0.1633
10533SOL     OW32497   2.363   1.639   4.734  0.2253 -0.4166 -0.3600
10533SOL    HW132498   2.266   1.661   4.726  0.1134 -0.3919  0.8204
10533SOL    HW232499   2.378   1.584   4.816  1.3146  0.2701 -0.0756
10534SOL     OW32500   5.304   2.271   0.063 -0.1345 -0.3842  0.7420
10534SOL    HW132501   5.207   2.274   0.088  0.1325  0.2879  1.7804
10534SOL    HW232502   5.357   2.229   0.136  0.5939  1.0320  1.0730
10535SOL     OW32503   4.691   6.345   1.173 -0.1961 -0.6443 -0.0727
10535SOL    HW132504   4.774   6.350   1.117 -0.6873  0.9732 -0.6868
10535SOL    HW232505   4.611   6.332   1.114 -0.6677  0.5682  0.2827
10536SOL     OW32506   1.319   3.832   3.902 -0.1930 -0.7320  0.7404
10536SOL    HW132507   1.365   3.765   3.843 -1.6033 -0.4928 -0.6955
10536SOL    HW232508   1.234   3.861   3.860 -0.4186  0.7783  2.1179
10537SOL     OW32509   3.136   2.125   3.681 -0.2446 -0.3386 -0.1973
10537SOL    HW132510   3.095   2.155   3.595 -0.2013 -0.1547 -0.1549
10537SOL    HW232511   3.214   2.066   3.663 -0.6105 -0.8033 -0.2782
10538SOL     OW32512   1.495   1.418   0.743 -0.5742  0.0787  0.0812
10538SOL    HW132513   1.434   1.382   0.814  2.0516  0.5333  2.7960
10538SOL    HW232514   1.500   1.518   0.751 -0.0369  0.1095 -0.5642
10539SOL     OW32515   5.255   4.548   0.338  0.6001  0.2458  0.3121
10539SOL    HW132516   5.277   4.452   0.356 -0.4780  0.3100  2.2256
10539SOL    HW232517   5.178   4.553   0.275  1.4579 -0.0791 -0.8168
10540SOL     OW32518   0.014   3.009   4.917  0.0533  0.2659 -0.1048
10540SOL    HW132519  -0.011   2.951   4.839 -1.1922  0.3700  0.1939
10540SOL    HW232520   0.006   3.105   4.892  2.7603  0.3977 -0.8071
10541SOL     OW32521   4.524   3.490   0.186 -0.5894 -0.4790  0.1841
10541SOL    HW132522   4.563   3.581   0.189 -0.5371 -0.4730 -0.6212
10541SOL    HW232523   4.521   3.457   0.092  0.2811 -1.6908  0.5469
10542SOL     OW32524   5.090   6.782   2.593  0.0264  0.3242  0.2229
10542SOL    HW132525   5.036   6.748   2.516  1.2519 -0.0611 -0.4971
10542SOL    HW232526   5.103   6.880   2.584 -0.7953  0.4706  0.5651
10543SOL     OW32527   2.120   2.018   2.617  0.0736 -0.6804  0.0566
10543SOL    HW132528   2.158   2.088   2.558 -2.2094  0.6813  0.0694
10543SOL    HW232529   2.098   2.058   2.706 -1.8016 -1.2161 -0.1233
10544SOL     OW32530   4.016   6.214   0.179 -0.4015 -0.3364 -0.0509
10544SOL    HW132531   4.014   6.307   0.143  3.9207  0.2158  0.6130
10544SOL    HW232532   4.007   6.149   0.103  1.3945  0.7253 -1.2283
10545SOL     OW32533   4.148   3.670   4.796  0.1605  0.4200  0.5439
10545SOL    HW132534   4.088   3.750   4.806  0.0637  0.6136 -1.2358
10545SOL    HW232535   4.207   3.662   4.876  0.0132  2.1391  0.8604
10546SOL     OW32536   3.427   3.679   6.507  0.3177  0.2500 -0.3345
10546SOL    HW132537   3.468   3.761   6.547  1.2493  0.0834 -0.9306
10546SOL    HW232538   3.328   3.690   6.502  0.5008  1.6606 -1.1486
10547SOL     OW32539   0.372   0.728   4.889  0.2300  0.0615  0.6547
10547SOL    HW132540   0.455   0.702   4.840 -0.7277 -1.0211 -0.4493
10547SOL    HW232541   0.321   0.795   4.836  0.8050  1.3987  1.7394
10548SOL     OW32542   0.852   5.943   0.872  0.5665  0.5896 -0.2539
10548SOL    HW132543   0.797   5.860   0.861  2.3000 -0.4078 -2.1741
10548SOL    HW232544   0.916   5.931   0.947  0.5217  0.3559 -0.2522
10549SOL     OW32545   6.064   0.308   6.867  0.0392  0.3217 -0.3478
10549SOL    HW132546   6.023   0.237   6.810  0.2820 -1.2628  1.3540
10549SOL    HW232547   6.156   0.279   6.895  0.0607  1.2005  0.5494
10550SOL     OW32548   5.059   6.473   3.831 -0.5533 -0.1445  0.4581
10550SOL    HW132549   5.137   6.414   3.849 -1.0776 -0.6804  1.0013
10550SOL    HW232550   5.050   6.487   3.732 -0.3465 -0.8664  0.3313
10551SOL     OW32551   3.846   5.561   2.708 -0.1780 -0.4742  0.2942
10551SOL    HW132552   3.782   5.508   2.764 -0.2974  1.0431  1.6527
10551SOL    HW232553   3.795   5.619   2.644 -0.0672 -1.2451 -0.5143
10552SOL     OW32554   6.995   5.524   5.915 -0.1568 -0.1995 -0.4495
10552SOL    HW132555   7.074   5.572   5.876 -0.0362 -0.0937 -0.0802
10552SOL    HW232556   6.912   5.556   5.871  0.0216 -0.4442 -0.9711
10553SOL     OW32557   4.633   4.329   2.881 -0.7491 -0.6032  0.0068
10553SOL    HW132558   4.553   4.386   2.896 -1.2443 -1.3751  0.3888
10553SOL    HW232559   4.656   4.327   2.784 -1.0726 -0.2240 -0.0779
10554SOL     OW32560   2.422   1.054   6.430  0.7683  0.3799 -0.0678
10554SOL    HW132561   2.426   1.143   6.386 -1.5719  0.5398 -0.0587
10554SOL    HW232562   2.507   1.004   6.412  1.6805  2.1777 -0.9555
10555SOL     OW32563   4.893   1.420   6.168  0.4919  0.0865  0.5703
10555SOL    HW132564   4.816   1.365   6.136 -1.6185  2.0181  2.0327
10555SOL    HW232565   4.915   1.394   6.262  0.5964  0.5674  0.6821
10556SOL     OW32566   0.585   6.681   5.772  0.2032  0.7099  0.2423
10556SOL    HW132567   0.631   6.612   5.717  0.8187  0.5590  0.9241
10556SOL    HW232568   0.648   6.714   5.843 -1.1777 -0.5393  2.1350
10557SOL     OW32569   1.765   6.474   6.342 -0.2713 -0.0321 -0.2209
10557SOL    HW132570   1.723   6.490   6.253 -0.3071  2.2206  0.1460
10557SOL    HW232571   1.827   6.395   6.336  0.4999  0.6724 -2.5091
10558SOL     OW32572   5.770   5.757   3.847 -0.0659  0.1156 -0.3435
10558SOL    HW132573   5.705   5.832   3.862 -1.4250 -1.1984  0.6390
10558SOL    HW232574   5.720   5.673   3.827  1.4020 -0.6794 -0.8211
10559SOL     OW32575   1.953   4.053   0.536 -0.1542  0.2233  0.6931
10559SOL    HW132576   2.019   4.089   0.469 -1.7310 -0.4741 -1.3433
10559SOL    HW232577   2.002   4.008   0.610  1.7145  2.2227  0.7786
10560SOL     OW32578   2.057   4.913   6.736 -0.0354 -0.5959  0.2138
10560SOL    HW132579   2.087   4.818   6.737 -1.3492 -1.0528 -0.8853
10560SOL    HW232580   2.112   4.966   6.801  1.6694 -1.7941 -0.1713
10561SOL     OW32581   5.696   2.398   7.004  0.5714 -0.2218 -0.1554
10561SOL    HW132582   5.691   2.298   7.005 -0.4620 -0.1898 -0.6525
10561SOL    HW232583   5.615   2.435   6.959  1.3161  0.8274 -0.6700
10562SOL     OW32584   6.404   1.744   0.719  0.5809 -0.5664  0.4750
10562SOL    HW132585   6.473   1.730   0.647  0.3554 -0.2810  0.1994
10562SOL    HW232586   6.371   1.655   0.751 -0.3671 -0.7124 -0.8057
10563SOL     OW32587   1.935   1.664   1.487 -0.1755 -0.1036 -0.1199
10563SOL    HW132588   1.878   1.661   1.569 -0.8403 -1.2061 -0.5937
10563SOL    HW232589   2.008   1.731   1.499 -1.4927  1.2704  0.5621
10564SOL     OW32590   0.738   5.255   4.047  0.3443  0.5230 -0.8004
10564SOL    HW132591   0.678   5.200   4.104  0.1915  1.3189 -0.1787
10564SOL    HW232592   0.811   5.295   4.103  0.7692  0.5183 -1.3399
10565SOL     OW32593   4.309   0.982   2.829  0.1812  0.5551 -0.0015
10565SOL    HW132594   4.223   0.948   2.792  1.3748 -1.8669 -0.7690
10565SOL    HW232595   4.300   1.079   2.851 -2.3471  0.6599 -1.1756
10566SOL     OW32596   5.293   6.086   2.283  0.5384 -0.1026  0.4028
10566SOL    HW132597   5.242   6.000   2.277  1.3026 -0.5098 -0.3616
10566SOL    HW232598   5.378   6.071   2.333  2.4347 -0.6814 -2.7652
10567SOL     OW32599   2.328   6.784   3.387 -0.3621  0.0804  0.2685
10567SOL    HW132600   2.299   6.854   3.322 -0.5871  0.9711  1.3169
10567SOL    HW232601   2.382   6.715   3.338 -2.5292 -0.5939 -1.3447
10568SOL     OW32602   2.146   3.970   0.717  0.0870 -0.1851 -0.0252
10568SOL    HW132603   2.162   4.052   0.773  0.5744  0.0835 -0.5507
10568SOL    HW232604   2.234   3.931   0.690 -0.0117  1.3453 -3.0101
10569SOL     OW32605   6.925   5.755   2.294  0.3137 -0.1225  0.0467
10569SOL    HW132606   6.847   5.732   2.352 -0.0087  1.7304  0.4095
10569SOL    HW232607   6.973   5.834   2.333  0.6366  0.5866 -1.7195
10570SOL     OW32608   0.158   4.562   3.869 -0.3548  0.7403 -0.3652
10570SOL    HW132609   0.096   4.493   3.832  0.6945 -0.0425 -0.7044
10570SOL    HW232610   0.166   4.550   3.968 -0.0201  0.2317 -0.4484
10571SOL     OW32611   0.533   1.085   0.579 -0.1207  0.1715 -0.1926
10571SOL    HW132612   0.540   1.175   0.622  1.7901  0.8060 -1.6372
10571SOL    HW232613   0.588   1.019   0.630 -1.2205 -0.1128  0.6542
10572SOL     OW32614   2.293   7.014   6.091 -0.1917 -0.4153  0.4481
10572SOL    HW132615   2.369   7.077   6.107  0.1172 -0.2257 -1.5265
10572SOL    HW232616   2.330   6.923   6.068 -0.5107 -0.2055 -0.9917
10573SOL     OW32617   4.158   5.573   3.264  0.2627  0.4973 -0.3980
10573SOL    HW132618   4.171   5.523   3.349  0.5909  0.0564 -0.7047
10573SOL    HW232619   4.075   5.629   3.271  0.0040  0.0664  0.0167
10574SOL     OW32620   1.796   0.415   3.537 -0.1336 -0.0837 -0.0758
10574SOL    HW132621   1.733   0.491   3.552 -0.3068 -0.2634  0.1205
10574SOL    HW232622   1.868   0.418   3.606  0.2704  0.3206 -0.5076
10575SOL     OW32623   2.922   2.597   1.133 -0.0488 -0.3087  0.0851
10575SOL    HW132624   2.869   2.513   1.120 -0.0545 -0.6188  1.8630
10575SOL    HW232625   3.006   2.592   1.079 -1.3848 -0.1702 -2.1276
10576SOL     OW32626   4.353   5.023   5.033 -0.5760 -0.2565 -1.2207
10576SOL    HW132627   4.447   5.035   5.066 -0.6364  0.3875 -1.2822
10576SOL    HW232628   4.352   5.026   4.933 -1.0323  2.8046 -1.2173
10577SOL     OW32629   5.858   5.036   5.585 -0.3385 -0.5142  0.1166
10577SOL    HW132630   5.800   5.026   5.666 -1.7448  0.8615 -0.6857
10577SOL    HW232631   5.830   4.970   5.515 -1.0631  0.2328 -0.3178
10578SOL     OW32632   5.405   6.341   5.203  0.2332 -0.3144  0.1591
10578SOL    HW132633   5.463   6.261   5.220  1.0116  0.1120 -0.4397
10578SOL    HW232634   5.346   6.357   5.282  0.6232 -1.0103  0.6013
10579SOL     OW32635   0.105   6.666   3.625 -0.0296  0.6085  0.5554
10579SOL    HW132636   0.023   6.718   3.600  0.2369  0.2047 -1.3181
10579SOL    HW232637   0.138   6.697   3.714 -0.9162  2.3699  0.3231
10580SOL     OW32638   2.520   0.981   0.769 -0.0693 -0.1310  0.2446
10580SOL    HW132639   2.462   1.021   0.698  1.5124  0.9365 -0.5054
10580SOL    HW232640   2.515   0.881   0.765 -0.8236 -0.0644 -0.6595
10581SOL     OW32641   5.950   0.988   0.687 -0.5813  0.1277 -0.1517
10581SOL    HW132642   6.012   0.917   0.719  1.5853  0.6847 -2.7231
10581SOL    HW232643   5.896   0.954   0.611 -1.2398  0.5728  0.1022
10582SOL     OW32644   3.357   2.310   5.541  0.3545 -0.3996 -0.3166
10582SOL    HW132645   3.352   2.244   5.466  1.7189  1.2849 -1.9693
10582SOL    HW232646   3.440   2.294   5.594  1.2470  0.6109 -1.3730
10583SOL     OW32647   1.952   0.699   4.346 -0.1311 -0.0404  0.0796
10583SOL    HW132648   1.996   0.609   4.347 -1.5450 -0.7584  1.8265
10583SOL    HW232649   2.017   0.768   4.378  0.6760 -0.5545 -0.4006
10584SOL     OW32650   3.731   1.045   2.921 -0.4305 -0.3758  0.1596
10584SOL    HW132651   3.787   1.122   2.954  1.6394 -1.4417 -0.6311
10584SOL    HW232652   3.641   1.079   2.893 -0.7211  1.2233  2.6920
10585SOL     OW32653   1.126   6.056   6.498 -0.3518 -0.3236  0.1589
10585SOL    HW132654   1.155   6.069   6.403  0.7253 -2.1154  0.2023
10585SOL    HW232655   1.164   5.970   6.533  0.9027  1.2189  2.8514
10586SOL     OW32656   6.530   4.102   3.273  0.0769 -0.6979 -0.4633
10586SOL    HW132657   6.474   4.048   3.336  1.3068 -0.6179  0.7675
10586SOL    HW232658   6.534   4.196   3.305  0.7161 -0.6537 -0.6542
10587SOL     OW32659   4.047   2.616   6.166 -0.1151 -0.1122  0.1132
10587SOL    HW132660   4.030   2.619   6.067 -1.5198  0.8962  0.3583
10587SOL    HW232661   4.003   2.694   6.210  2.4517  0.7805  1.3055
10588SOL     OW32662   5.569   3.815   0.692 -0.3035  0.0024 -0.4678
10588SOL    HW132663   5.515   3.881   0.744 -0.6998 -1.0430  0.4771
10588SOL    HW232664   5.521   3.793   0.607 -0.8466 -0.1165 -0.1319
10589SOL     OW32665   2.030   4.725   4.356 -0.0109  0.2233 -0.4152
10589SOL    HW132666   2.117   4.675   4.360 -0.4932 -0.6655 -0.6517
10589SOL    HW232667   2.008   4.762   4.446  0.3925  0.0742 -0.2542
10590SOL     OW32668   5.880   3.606   1.951 -0.4281  0.3530  0.4446
10590SOL    HW132669   5.891   3.587   1.854 -0.5218 -0.9034  0.6689
10590SOL    HW232670   5.786   3.638   1.968 -1.5255 -2.6363  0.5551
10591SOL     OW32671   5.852   5.999   0.459 -0.0915 -0.0602 -0.5425
10591SOL    HW132672   5.903   6.013   0.545  0.7209  1.7780 -1.2587
10591SOL    HW232673   5.901   6.044   0.385 -1.0724 -1.1637 -1.8982
10592SOL     OW32674   3.564   2.658   1.765 -0.6213 -0.2088  0.0983
10592SOL    HW132675   3.595   2.571   1.802 -3.0487 -1.4404 -0.5993
10592SOL    HW232676   3.630   2.690   1.697  1.1961 -0.5435  1.6160
10593SOL     OW32677   0.605   5.813   4.592 -0.2450  0.0665  0.2159
10593SOL    HW132678   0.622   5.872   4.513  1.5027  1.6779  1.7008
10593SOL    HW232679   0.631   5.719   4.570  1.3298  0.6987 -0.7849
10594SOL     OW32680   0.579   0.821   4.217  0.0126  0.3765  0.2152
10594SOL    HW132681   0.540   0.746   4.270  2.0807 -2.4421 -1.9358
10594SOL    HW232682   0.548   0.815   4.122  1.4937  1.2356 -0.3617
10595SOL     OW32683   4.068   6.652   2.733  0.2470  0.0408 -0.0301
10595SOL    HW132684   4.010   6.642   2.652 -1.2212 -1.5198  1.1667
10595SOL    HW232685   4.028   6.603   2.810  1.4660  1.7031  1.7591
10596SOL     OW32686   2.444   6.008   5.692 -0.3241 -0.2227  0.9480
10596SOL    HW132687   2.386   6.089   5.684  1.6401  1.2309  0.6778
10596SOL    HW232688   2.454   5.966   5.603  1.4053  1.3150  0.3519
10597SOL     OW32689   5.209   6.407   6.345  0.0587 -0.0331  0.8156
10597SOL    HW132690   5.193   6.332   6.281  1.6280  0.3242 -0.0411
10597SOL    HW232691   5.162   6.387   6.431 -2.4672 -0.3320 -0.5233
10598SOL     OW32692   1.485   6.633   5.576 -0.3207 -0.4161  0.6091
10598SOL    HW132693   1.573   6.609   5.617  1.5979  1.2102 -2.1915
10598SOL    HW232694   1.446   6.712   5.625  1.8126  1.3794 -0.4234
10599SOL     OW32695   0.077   3.491   3.662 -0.7599  0.0330 -0.2458
10599SOL    HW132696   0.013   3.425   3.701 -0.5302  0.0065  0.0898
10599SOL    HW232697   0.124   3.540   3.735 -0.1639 -0.1734 -0.4862
10600SOL     OW32698   0.521   6.351   3.193  0.2069 -0.4063  0.0290
10600SOL    HW132699   0.472   6.264   3.196  1.2832 -1.1349 -1.7138
10600SOL    HW232700   0.510   6.399   3.280 -0.5435 -2.1974  0.9702
10601SOL     OW32701   6.703   2.424   1.103 -0.4664 -0.4471  0.5868
10601SOL    HW132702   6.722   2.459   1.195 -0.0925 -0.4433  0.5084
10601SOL    HW232703   6.679   2.499   1.043  1.9914 -0.0594 -0.0141
10602SOL     OW32704   5.217   2.977   6.725  0.2286 -0.1076 -0.4386
10602SOL    HW132705   5.280   3.054   6.733  0.1657  0.0247 -1.1928
10602SOL    HW232706   5.240   2.922   6.645  0.1494 -0.7696 -0.0213
10603SOL     OW32707   5.180   2.608   6.050 -0.4616 -0.5410 -0.0560
10603SOL    HW132708   5.136   2.604   5.961 -0.6518 -2.6039  0.0983
10603SOL    HW232709   5.115   2.579   6.121 -0.6651  2.0690  0.9547
10604SOL     OW32710   5.678   5.825   5.756 -0.0353  0.2217 -0.1736
10604SOL    HW132711   5.769   5.828   5.799 -1.6825  0.1404  3.7922
10604SOL    HW232712   5.680   5.763   5.678  3.1283 -0.3694  0.2385
10605SOL     OW32713   5.155   4.482   2.476 -0.0667  0.4566 -0.1064
10605SOL    HW132714   5.136   4.410   2.543 -1.5018  0.1946 -0.7591
10605SOL    HW232715   5.252   4.505   2.479 -0.2276  1.1821  2.7703
10606SOL     OW32716   5.196   3.769   4.416 -0.3464 -0.4147  0.0598
10606SOL    HW132717   5.224   3.678   4.384 -1.0749 -0.4466 -0.5255
10606SOL    HW232718   5.256   3.798   4.490 -0.2554 -1.4812  0.4245
10607SOL     OW32719   1.863   5.336   0.450 -0.6903  0.4018 -0.1671
10607SOL    HW132720   1.853   5.281   0.533 -0.6399  0.0943 -0.3656
10607SOL    HW232721   1.828   5.286   0.371 -2.2889  1.3400 -0.0968
10608SOL     OW32722   0.519   4.717   0.400 -0.6978  0.0324  0.0261
10608SOL    HW132723   0.500   4.641   0.463 -1.4916 -3.3131 -3.8108
10608SOL    HW232724   0.435   4.744   0.354 -0.1665  2.4492  0.3583
10609SOL     OW32725   4.468   0.860   4.432  0.0384  0.2465 -0.1686
10609SOL    HW132726   4.474   0.872   4.332  0.6216  0.8620 -0.0638
10609SOL    HW232727   4.436   0.945   4.474 -0.8548 -0.2195  0.1156
10610SOL     OW32728   2.580   2.224   0.116  0.1992  0.5360 -0.0965
10610SOL    HW132729   2.568   2.198   0.020  0.3831  2.5021 -0.6851
10610SOL    HW232730   2.509   2.181   0.171 -1.4381  1.3147 -1.4911
10611SOL     OW32731   3.200   3.289   3.755  0.0327  0.4420  0.3311
10611SOL    HW132732   3.149   3.374   3.763  0.5050  0.9366 -1.4692
10611SOL    HW232733   3.241   3.283   3.664  2.0309 -0.5825  1.2347
10612SOL     OW32734   6.254   2.961   3.042 -0.4290  0.0965  0.1998
10612SOL    HW132735   6.167   2.970   2.994 -1.0368 -1.4460  0.9798
10612SOL    HW232736   6.266   2.867   3.074  0.6257  0.7504  1.8312
10613SOL     OW32737   2.663   3.667   6.746 -0.2172  0.0506  0.2048
10613SOL    HW132738   2.701   3.641   6.657 -0.9892 -0.3505 -0.0210
10613SOL    HW232739   2.616   3.755   6.737  0.3752  0.3869  0.4034
10614SOL     OW32740   4.192   6.986   2.348  0.4326 -0.0497  0.3256
10614SOL    HW132741   4.170   7.041   2.428  0.3660  0.2160  0.1272
10614SOL    HW232742   4.119   6.995   2.280  0.1892 -0.7594  0.4830
10615SOL     OW32743   4.524   5.494   6.237  0.1006 -0.2048 -0.5268
10615SOL    HW132744   4.463   5.462   6.309  2.2569  0.5867  1.8196
10615SOL    HW232745   4.486   5.576   6.195 -0.2406  0.6130  1.2813
10616SOL     OW32746   3.871   3.217   1.697 -0.1232 -0.2388 -0.1899
10616SOL    HW132747   3.902   3.298   1.746 -0.5774  0.5490 -1.1846
10616SOL    HW232748   3.943   3.185   1.636  0.2010 -0.8255  0.4955
10617SOL     OW32749   3.879   2.845   0.813 -0.0333  0.3800  0.1381
10617SOL    HW132750   3.866   2.908   0.736 -0.2312 -1.2997 -1.2795
10617SOL    HW232751   3.874   2.751   0.780 -2.5080 -0.4814  2.5785
10618SOL     OW32752   5.958   6.173   5.013  0.0328 -0.1381  0.2741
10618SOL    HW132753   5.905   6.119   4.948  0.0913  1.1214 -0.8616
10618SOL    HW232754   6.041   6.122   5.037  1.3147  0.3402 -2.6473
10619SOL     OW32755   4.328   2.318   6.474  0.4175 -0.2214  0.2072
10619SOL    HW132756   4.328   2.222   6.503  1.2767 -0.5148 -0.6873
10619SOL    HW232757   4.422   2.346   6.454  0.1559  0.7738  0.3328
10620SOL     OW32758   1.173   3.741   1.291 -0.0953 -0.0797 -0.0303
10620SOL    HW132759   1.107   3.721   1.218  0.5311 -0.9956 -0.3715
10620SOL    HW232760   1.212   3.655   1.325  1.2742  0.4583 -0.1824
10621SOL     OW32761   5.331   7.005   1.813  0.1613 -0.1826 -0.5487
10621SOL    HW132762   5.294   6.950   1.739 -4.9972  3.2104 -0.9890
10621SOL    HW232763   5.403   7.065   1.777  0.3423 -1.1378 -1.8608
10622SOL     OW32764   6.637   7.006   2.632 -0.0479  0.0459  0.0243
10622SOL    HW132765   6.713   6.986   2.694  0.0274 -0.1631 -0.1334
10622SOL    HW232766   6.673   7.022   2.540 -0.3076 -1.7117 -0.4300
10623SOL     OW32767   6.356   4.181   0.530 -0.3596  0.4719 -0.3226
10623SOL    HW132768   6.390   4.147   0.618 -0.6698 -1.2309 -0.8186
10623SOL    HW232769   6.363   4.281   0.528  0.6622  0.4718  1.2026
10624SOL     OW32770   4.911   5.230   1.893  0.3427  0.3625 -0.0811
10624SOL    HW132771   4.976   5.258   1.963  0.5847 -0.1089 -0.1172
10624SOL    HW232772   4.819   5.260   1.920  0.2275 -0.9150  1.0823
10625SOL     OW32773   1.278   0.128   3.589 -0.0176 -0.2472  0.1460
10625SOL    HW132774   1.331   0.151   3.507  1.3462 -2.1609  0.4182
10625SOL    HW232775   1.299   0.194   3.662  1.7127 -0.7008  0.1031
10626SOL     OW32776   3.998   2.530   6.644 -0.7770 -0.0984  0.0783
10626SOL    HW132777   3.924   2.509   6.581 -0.0450  0.7451 -1.1058
10626SOL    HW232778   4.002   2.629   6.658  0.6239 -0.0520 -0.5187
10627SOL     OW32779   5.634   1.544   4.530 -0.1252 -0.0534  0.4996
10627SOL    HW132780   5.545   1.528   4.572 -0.3715 -0.8792 -0.3157
10627SOL    HW232781   5.706   1.533   4.598 -0.5265 -1.2907  0.7357
10628SOL     OW32782   1.545   6.834   6.204 -0.5366 -0.4063 -0.5524
10628SOL    HW132783   1.585   6.843   6.295  0.3146 -2.9881 -0.5832
10628SOL    HW232784   1.446   6.851   6.209 -0.2413  1.1553  0.4841
10629SOL     OW32785   5.878   2.147   6.777  0.3581  0.2951  0.2714
10629SOL    HW132786   5.961   2.117   6.824  0.1304  0.7676  1.0013
10629SOL    HW232787   5.801   2.144   6.841 -0.3939 -1.0859 -0.6665
10630SOL     OW32788   6.654   0.840   1.824 -0.1557 -0.2168  0.0363
10630SOL    HW132789   6.578   0.813   1.765 -1.1796 -0.3641  1.3754
10630SOL    HW232790   6.618   0.890   1.903  1.2447  0.5525  0.2090
10631SOL     OW32791   6.753   5.042   0.198 -0.0710 -0.4729  0.0082
10631SOL    HW132792   6.826   5.067   0.262  1.0283 -0.8649 -1.0532
10631SOL    HW232793   6.692   5.120   0.185  2.0891  1.0562 -1.6402
10632SOL     OW32794   4.427   4.867   2.118  0.0653 -0.2413 -0.2974
10632SOL    HW132795   4.399   4.939   2.182  0.9964  0.3019 -0.4876
10632SOL    HW232796   4.367   4.787   2.129  1.1340 -0.7895  2.3679
10633SOL     OW32797   5.181   1.168   0.249 -0.6874  0.0953  0.2375
10633SOL    HW132798   5.170   1.136   0.155  0.1605 -0.1683  0.2115
10633SOL    HW232799   5.269   1.134   0.285 -0.6361  0.8551  0.8517
10634SOL     OW32800   4.419   1.502   5.379  0.4054 -0.8233 -0.4096
10634SOL    HW132801   4.395   1.411   5.413 -0.9210 -0.4091 -0.1798
10634SOL    HW232802   4.384   1.513   5.287 -1.0918  0.0925  0.2390
10635SOL     OW32803   1.139   1.137   0.924 -0.2088  0.0266  0.3669
10635SOL    HW132804   1.045   1.165   0.944 -0.6126 -1.8230  1.2666
10635SOL    HW232805   1.184   1.106   1.008  0.5719 -0.8815 -0.3525
10636SOL     OW32806   5.511   0.714   2.865  0.4663 -0.2925  0.5572
10636SOL    HW132807   5.427   0.766   2.855  0.7783  0.0472 -0.3661
10636SOL    HW232808   5.489   0.617   2.880 -0.0916 -0.4490 -1.1295
10637SOL     OW32809   5.693   3.105   5.264  0.3061 -0.2466  0.2761
10637SOL    HW132810   5.738   3.193   5.252  0.2671 -0.3337 -0.5653
10637SOL    HW232811   5.663   3.070   5.175 -1.0484 -0.3979  0.7684
10638SOL     OW32812   2.102   6.066   5.068  0.3924  0.4066 -0.4919
10638SOL    HW132813   2.147   6.154   5.056  0.0476  0.7424  0.6299
10638SOL    HW232814   2.029   6.074   5.135  0.0893 -0.6466 -0.6709
10639SOL     OW32815   4.333   3.597   6.460  0.4407  0.3150 -0.3927
10639SOL    HW132816   4.357   3.622   6.554  0.7385  0.1527 -0.4246
10639SOL    HW232817   4.412   3.612   6.400  0.7281 -0.9905 -0.3678
10640SOL     OW32818   1.023   3.236   5.710  0.3170 -0.3549  0.1092
10640SOL    HW132819   1.096   3.168   5.722  0.7650 -0.4710 -2.6876
10640SOL    HW232820   1.059   3.315   5.662 -1.5576 -0.8600 -2.3149
10641SOL     OW32821   0.839   4.318   0.541 -0.1988 -0.0883  0.0925
10641SOL    HW132822   0.760   4.257   0.552  0.6723 -1.0702  1.0756
10641SOL    HW232823   0.823   4.402   0.592 -0.0052 -0.8982  1.5344
10642SOL     OW32824   0.373   2.926   0.632 -0.4226 -0.3127 -0.2586
10642SOL    HW132825   0.413   2.853   0.577 -0.8998 -0.5527 -0.2953
10642SOL    HW232826   0.276   2.907   0.648 -0.3207 -0.1881  0.5710
10643SOL     OW32827   1.858   6.400   1.826  0.0127  0.2631  0.1563
10643SOL    HW132828   1.926   6.383   1.898 -1.0122  1.9407  1.6364
10643SOL    HW232829   1.767   6.384   1.863 -0.5331  1.1271 -0.7842
10644SOL     OW32830   4.310   4.970   4.764 -0.0435  0.2569  0.3657
10644SOL    HW132831   4.314   4.873   4.737  1.5814 -0.3988  2.5824
10644SOL    HW232832   4.279   5.025   4.687 -0.5228 -1.9655 -1.1336
10645SOL     OW32833   6.896   0.970   5.356  0.2095  0.0687 -0.4659
10645SOL    HW132834   6.826   0.965   5.285  0.8094  2.2851 -1.2877
10645SOL    HW232835   6.986   0.981   5.313  1.0997 -2.3612  0.5728
10646SOL     OW32836   1.893   0.055   3.606 -0.6547 -0.4253 -0.0980
10646SOL    HW132837   1.819  -0.004   3.575  0.7498 -1.5450 -1.4459
10646SOL    HW232838   1.946   0.086   3.527  0.4303  0.2017  0.8533
10647SOL     OW32839   0.087   3.915   4.209  0.1079  0.5514  0.5159
10647SOL    HW132840   0.012   3.918   4.276 -0.3709  0.5667 -0.0073
10647SOL    HW232841   0.165   3.866   4.249  1.9082  4.9575  3.0628
10648SOL     OW32842   3.117   2.803   5.407 -0.2341 -0.5078 -0.1091
10648SOL    HW132843   3.160   2.720   5.373 -2.6783 -0.9098 -2.5289
10648SOL    HW232844   3.141   2.880   5.348  0.0896  0.0331  0.7042
10649SOL     OW32845   1.633   2.768   1.049  0.1511 -0.1386  0.2286
10649SOL    HW132846   1.643   2.687   0.990 -0.3138  0.8760 -1.3209
10649SOL    HW232847   1.685   2.755   1.133 -0.1252 -2.1495  0.1403
10650SOL     OW32848   3.175   1.799   1.300  0.0920  0.4060 -0.4224
10650SOL    HW132849   3.242   1.770   1.369 -1.4825 -0.2268  0.9123
10650SOL    HW232850   3.156   1.896   1.311  0.2330  0.4197 -0.2969
10651SOL     OW32851   4.771   5.835   5.145 -0.0287 -0.4766 -0.1635
10651SOL    HW132852   4.727   5.820   5.233  1.2645 -0.3488  0.5294
10651SOL    HW232853   4.710   5.887   5.086 -0.2614  0.9740  1.2790
10652SOL     OW32854   5.455   6.897   5.333 -0.1172  0.2279 -0.4839
10652SOL    HW132855   5.399   6.820   5.303 -0.0466  0.7980 -2.2189
10652SOL    HW232856   5.533   6.908   5.272 -0.1862  1.7194 -0.3523
10653SOL     OW32857   0.219   2.137   3.006  0.5621 -0.4598 -0.3288
10653SOL    HW132858   0.228   2.055   2.949 -0.2640 -0.1517 -0.9106
10653SOL    HW232859   0.227   2.218   2.950  0.8959 -0.1357  0.1770
10654SOL     OW32860   2.230   2.461   4.194  0.3983  0.1336  0.0420
10654SOL    HW132861   2.147   2.416   4.227  0.7245 -0.6642 -0.1835
10654SOL    HW232862   2.214   2.498   4.103  1.2992 -3.2945 -1.6616
10655SOL     OW32863   6.472   2.567   5.068  0.0774  0.4618 -0.1667
10655SOL    HW132864   6.392   2.616   5.035  1.0699  1.3404 -1.3728
10655SOL    HW232865   6.465   2.470   5.043 -1.0310  0.3386  0.5855
10656SOL     OW32866   3.338   1.758   3.456  0.1954  0.3726  0.3417
10656SOL    HW132867   3.288   1.721   3.377  0.3126  0.0852  0.4004
10656SOL    HW232868   3.435   1.765   3.433  0.0516  1.4975  0.0177
10657SOL     OW32869   1.064   4.216   4.803 -0.3467  0.1050  0.7436
10657SOL    HW132870   1.056   4.213   4.703  0.1303 -1.7729  0.7215
10657SOL    HW232871   1.005   4.146   4.843  0.2206  0.1693  1.7329
10658SOL     OW32872   5.517   2.143   2.002  0.2794  0.3745  0.2354
10658SOL    HW132873   5.475   2.220   2.048 -1.3618  0.7510 -1.7471
10658SOL    HW232874   5.453   2.066   1.999  0.3515  0.3420 -1.2918
10659SOL     OW32875   2.457   6.719   3.825  0.5394  0.1697  0.5084
10659SOL    HW132876   2.366   6.720   3.784 -0.2637  0.1216  2.1970
10659SOL    HW232877   2.522   6.675   3.763 -0.7092 -0.3390 -0.4706
10660SOL     OW32878   2.613   2.982   6.808 -0.2796  0.5144  0.2418
10660SOL    HW132879   2.515   2.970   6.821 -0.3790  1.3406  0.3298
10660SOL    HW232880   2.632   3.078   6.786  0.5485  0.4552  0.6487
10661SOL     OW32881   6.449   5.706   6.797 -0.0226  0.2193  0.1951
10661SOL    HW132882   6.363   5.754   6.783  0.3714  1.1402  0.8402
10661SOL    HW232883   6.524   5.772   6.803  0.2524 -0.2316  3.4526
10662SOL     OW32884   3.179   1.271   0.524  0.0479  0.3463 -0.0172
10662SOL    HW132885   3.125   1.207   0.580 -0.5688  1.6558  0.9327
10662SOL    HW232886   3.276   1.246   0.529 -0.0745  0.0391  1.1065
10663SOL     OW32887   1.327   1.451   0.267  0.0249 -0.1214  0.4258
10663SOL    HW132888   1.237   1.425   0.303  0.0382 -0.4156  0.2417
10663SOL    HW232889   1.328   1.550   0.251 -0.4603 -0.1998 -0.1249
10664SOL     OW32890   6.964   3.269   4.899  0.7010  0.4276  0.4625
10664SOL    HW132891   6.893   3.289   4.965  0.9746 -0.0678  0.9176
10664SOL    HW232892   7.054   3.291   4.938  0.7192  4.0932 -1.1953
10665SOL     OW32893   0.320   4.243   1.617 -0.4698  0.1554 -0.5095
10665SOL    HW132894   0.331   4.284   1.707 -1.1306  1.1280 -0.8578
10665SOL    HW232895   0.246   4.176   1.620 -0.9594  0.6902 -0.4852
10666SOL     OW32896   5.279   4.386   2.206  0.3921 -0.2387  0.1139
10666SOL    HW132897   5.218   4.324   2.256  1.0982 -1.3832 -0.3964
10666SOL    HW232898   5.341   4.431   2.270 -0.2957  0.1434  0.5183
10667SOL     OW32899   3.524   0.070   2.949 -0.4684  0.3715  0.0668
10667SOL    HW132900   3.543   0.071   2.851  1.3156  0.9214  0.3704
10667SOL    HW232901   3.438   0.024   2.966 -0.2693 -0.7320 -1.6675
10668SOL     OW32902   0.586   5.041   5.085 -0.0887 -0.0896  0.0233
10668SOL    HW132903   0.542   5.131   5.089  0.3883  0.1195  0.9442
10668SOL    HW232904   0.519   4.970   5.105 -0.4346  0.0703 -0.5555
10669SOL     OW32905   6.374   6.512   6.043  0.0205  0.8722 -0.0974
10669SOL    HW132906   6.276   6.506   6.023  0.2605  0.5986 -1.2789
10669SOL    HW232907   6.426   6.486   5.961  1.1014  3.2978 -0.2706
10670SOL     OW32908   0.648   1.950   3.911 -0.7239  0.4491 -0.5405
10670SOL    HW132909   0.725   2.006   3.880 -0.6706  0.5358 -0.2610
10670SOL    HW232910   0.563   1.982   3.869 -0.7883  1.1421  0.0879
10671SOL     OW32911   6.060   1.324   0.905  0.6607 -0.1427 -0.8242
10671SOL    HW132912   6.108   1.406   0.935 -0.5404  0.4405 -0.4421
10671SOL    HW232913   6.108   1.284   0.826  1.1058  1.0774 -1.1942
10672SOL     OW32914   5.348   4.769   4.044 -0.4324  0.1639 -0.6817
10672SOL    HW132915   5.274   4.701   4.045  1.4062 -1.9439 -1.1856
10672SOL    HW232916   5.377   4.787   4.138  0.2355 -1.1509 -0.6087
10673SOL     OW32917   3.573   3.032   2.017  0.0830 -0.0705  0.8030
10673SOL    HW132918   3.557   3.120   1.973 -0.7935 -0.8497 -0.5265
10673SOL    HW232919   3.665   3.030   2.057 -0.2234  1.7512  1.6831
10674SOL     OW32920   0.392   4.784   2.403  0.2473 -0.0087  0.1259
10674SOL    HW132921   0.396   4.725   2.483 -0.3896 -0.8486 -0.4457
10674SOL    HW232922   0.482   4.826   2.388  0.3588  0.2076  1.2975
10675SOL     OW32923   5.420   2.178   1.644  0.0224 -0.3551  0.2786
10675SOL    HW132924   5.507   2.143   1.678  0.5462  1.9863  1.5107
10675SOL    HW232925   5.348   2.158   1.711 -0.0783 -0.7496  0.0613
10676SOL     OW32926   6.229   4.051   3.671 -0.0957 -0.7888  0.4383
10676SOL    HW132927   6.231   4.147   3.642  0.7677 -0.2119  2.2026
10676SOL    HW232928   6.301   4.000   3.623  1.1648  0.0852  1.3063
10677SOL     OW32929   5.895   0.296   2.616  0.3059  0.2175  0.0687
10677SOL    HW132930   5.983   0.327   2.581 -0.6056 -0.0774 -2.7659
10677SOL    HW232931   5.851   0.371   2.666  1.9833  0.4685  1.2395
10678SOL     OW32932   5.611   6.527   0.865 -0.0052  0.3634 -0.6603
10678SOL    HW132933   5.693   6.568   0.904  1.2860 -1.8778 -0.8450
10678SOL    HW232934   5.609   6.544   0.766  0.0001  0.7837 -0.5900
10679SOL     OW32935   0.262   5.487   5.659  0.0721  0.0789 -0.1286
10679SOL    HW132936   0.204   5.546   5.714  1.0304 -1.1630  2.3457
10679SOL    HW232937   0.352   5.529   5.647 -0.0602  0.2408 -0.6102
10680SOL     OW32938   1.030   6.988   2.938  0.0907  0.0767 -0.3666
10680SOL    HW132939   0.962   6.991   3.012  0.3791  0.3089 -0.1071
10680SOL    HW232940   1.074   6.898   2.937  0.7069  0.3542  0.3206
10681SOL     OW32941   2.422   5.480   0.060 -0.3487  0.8940 -0.2463
10681SOL    HW132942   2.382   5.528  -0.019 -0.0079 -0.0034 -0.9863
10681SOL    HW232943   2.445   5.546   0.131 -0.5551  1.7422 -0.9515
10682SOL     OW32944   5.598   2.652   1.886  0.0426 -0.0653 -0.4601
10682SOL    HW132945   5.609   2.748   1.861 -2.3690  1.3671  3.1792
10682SOL    HW232946   5.676   2.623   1.942 -0.3371  0.5627  0.4119
10683SOL     OW32947   0.118   1.015   5.232 -0.3010  0.1525  0.2040
10683SOL    HW132948   0.159   1.091   5.283 -1.0336  2.0087 -1.8458
10683SOL    HW232949   0.190   0.960   5.191  0.2314 -0.1435  1.4629
10684SOL     OW32950   0.371   0.348   4.164 -0.0763 -0.6227  0.5939
10684SOL    HW132951   0.287   0.355   4.110  0.2346 -0.2375  0.1534
10684SOL    HW232952   0.395   0.252   4.176 -0.0740 -0.7160 -0.0848
10685SOL     OW32953   1.673   5.437   6.678  0.2398 -0.0965 -0.4455
10685SOL    HW132954   1.607   5.509   6.698  2.3408  1.2659  2.2627
10685SOL    HW232955   1.670   5.367   6.750  1.6100 -0.0826 -0.3563
10686SOL     OW32956   3.431   3.628   5.251 -0.4392  0.4413  0.0053
10686SOL    HW132957   3.494   3.559   5.215  0.9954  1.9276 -0.4593
10686SOL    HW232958   3.398   3.685   5.176 -1.8788  0.1081  0.3377
10687SOL     OW32959   6.949   4.412   6.120 -0.0713  0.2066 -0.2552
10687SOL    HW132960   6.927   4.474   6.195 -0.2397  0.9537 -0.9140
10687SOL    HW232961   6.917   4.450   6.034 -0.3456 -0.8868 -0.6564
10688SOL     OW32962   6.868   5.637   1.309  0.3226  0.6323 -0.5325
10688SOL    HW132963   6.821   5.549   1.293 -1.4405  1.5472 -0.6728
10688SOL    HW232964   6.944   5.623   1.372  1.6951 -1.4438 -2.4829
10689SOL     OW32965   6.977   1.111   4.702  0.7107 -0.6101  0.2732
10689SOL    HW132966   7.067   1.121   4.744  1.0114 -1.3730 -0.1600
10689SOL    HW232967   6.969   1.175   4.626  0.1882  0.7299  1.4178
10690SOL     OW32968   4.902   0.621   5.874  0.0083  0.1649  0.0838
10690SOL    HW132969   4.952   0.553   5.822  2.4311  2.5275 -0.8694
10690SOL    HW232970   4.818   0.580   5.911  1.1598 -3.1512 -0.7066
10691SOL     OW32971   4.342   4.949   1.822  0.3228  0.3331  0.1984
10691SOL    HW132972   4.434   4.962   1.861  0.8290 -0.2811 -0.7501
10691SOL    HW232973   4.311   4.856   1.840  0.4035  0.1618 -0.5089
10692SOL     OW32974   5.392   2.781   6.069  0.0627 -0.1822 -0.1742
10692SOL    HW132975   5.312   2.739   6.027  0.6719  0.1628 -1.7754
10692SOL    HW232976   5.471   2.721   6.058  0.5567  0.5678 -0.8976
10693SOL     OW32977   6.366   2.844   3.908 -0.7669 -0.5909  0.3158
10693SOL    HW132978   6.351   2.916   3.840  0.3143  0.9293  1.6363
10693SOL    HW232979   6.281   2.793   3.922 -1.2298 -0.4003 -1.5245
10694SOL     OW32980   1.055   5.811   1.403 -0.1313  0.4127 -0.4825
10694SOL    HW132981   1.067   5.717   1.370 -0.4508 -0.0267  0.6266
10694SOL    HW232982   1.139   5.863   1.386  0.5768 -0.4786  0.1829
10695SOL     OW32983   4.747   2.524   1.084  0.1609 -0.2113  0.0341
10695SOL    HW132984   4.784   2.547   0.994  2.2195  0.5814  1.0172
10695SOL    HW232985   4.774   2.594   1.151 -2.0529 -0.3162  1.1391
10696SOL     OW32986   4.037   5.588   4.247  0.0714 -0.3009  0.1000
10696SOL    HW132987   3.943   5.621   4.241 -0.1191 -0.8954 -0.3229
10696SOL    HW232988   4.088   5.620   4.167  1.0501  2.4670  1.7272
10697SOL     OW32989   5.766   1.483   2.591  0.5711  0.3033  0.2878
10697SOL    HW132990   5.711   1.402   2.570  0.1978  1.1596 -2.4290
10697SOL    HW232991   5.714   1.544   2.651  0.2781 -0.7758  1.1620
10698SOL     OW32992   4.800   2.861   0.357  0.4383  0.5843 -0.0568
10698SOL    HW132993   4.745   2.783   0.386  4.0405 -2.0145  0.4232
10698SOL    HW232994   4.789   2.875   0.258 -0.8133  0.0118 -0.0202
10699SOL     OW32995   6.627   5.998   1.355  0.0449  0.5473  0.3066
10699SOL    HW132996   6.543   6.046   1.332 -0.2739  0.0199  0.3557
10699SOL    HW232997   6.687   5.996   1.275  0.4961  1.8983  0.5867
10700SOL     OW32998   2.422   1.035   6.770  0.1974  0.0151  0.7598
10700SOL    HW132999   2.424   0.940   6.739  1.6949 -0.3995  2.0418
10700SOL    HW233000   2.393   1.038   6.865 -2.2132  1.0979  0.0741
10701SOL     OW33001   3.248   0.480   5.291 -0.0046 -0.2863 -0.1030
10701SOL    HW133002   3.222   0.452   5.199 -0.3678 -2.7464  0.6816
10701SOL    HW233003   3.219   0.410   5.357 -0.3531  1.7146  1.9833
10702SOL     OW33004   5.864   1.939   2.291  0.1318 -0.1826 -0.2551
10702SOL    HW133005   5.943   1.878   2.294  2.0716  2.0901 -1.5796
10702SOL    HW233006   5.851   1.972   2.198  0.8325  3.3560  0.7447
10703SOL     OW33007   1.196   2.308   4.389 -0.4855  0.1200 -0.3262
10703SOL    HW133008   1.177   2.333   4.294  2.1181 -1.4701 -1.3557
10703SOL    HW233009   1.182   2.210   4.401 -0.8283  0.3105  0.9812
10704SOL     OW33010   6.635   5.270   0.113 -0.2031 -0.2718 -0.0044
10704SOL    HW133011   6.659   5.348   0.171  0.0778 -0.4938  0.1817
10704SOL    HW233012   6.536   5.260   0.109 -0.2724  0.5706 -0.6603
10705SOL     OW33013   4.727   2.737   3.068 -0.8041  0.0165 -0.9911
10705SOL    HW133014   4.670   2.685   3.004  0.3941 -0.1741 -1.9497
10705SOL    HW233015   4.701   2.714   3.162 -3.1110  0.8682 -1.3516
10706SOL     OW33016   5.175   3.821   4.960  0.2394  0.3941  0.8976
10706SOL    HW133017   5.134   3.893   4.903  1.1771  0.5275  0.3733
10706SOL    HW233018   5.247   3.860   5.017  0.8830 -0.1495  0.4728
10707SOL     OW33019   6.015   5.465   3.186  0.7078 -0.1577 -0.0041
10707SOL    HW133020   6.023   5.564   3.183 -1.9898  0.2262  2.3353
10707SOL    HW233021   6.086   5.428   3.246 -1.5022  1.0215  3.6158
10708SOL     OW33022   4.411   0.206   6.749 -0.0391  0.0861 -0.0112
10708SOL    HW133023   4.450   0.176   6.836  2.3587  0.1277 -0.9884
10708SOL    HW233024   4.322   0.249   6.765  0.1853 -0.2154  2.3585
10709SOL     OW33025   0.001   4.720   5.578  0.6162 -0.0276  0.0762
10709SOL    HW133026  -0.012   4.621   5.586  0.8040  0.0596  2.1871
10709SOL    HW233027  -0.057   4.756   5.506 -0.3288 -1.5298  0.0485
10710SOL     OW33028   4.847   2.102   2.146 -0.3613  0.5342 -0.2003
10710SOL    HW133029   4.825   2.013   2.187 -0.5193  1.2550  1.3653
10710SOL    HW233030   4.946   2.118   2.154  0.3170 -0.9788 -3.6789
10711SOL     OW33031   5.049   3.329   5.578  0.8905  0.2948  0.4706
10711SOL    HW133032   5.083   3.276   5.500 -2.7102 -2.8957  0.7665
10711SOL    HW233033   5.005   3.413   5.545  2.3147  0.6788 -0.5437
10712SOL     OW33034   6.924   0.508   1.877 -0.1407  0.0198  0.0429
10712SOL    HW133035   6.902   0.593   1.924 -1.5264 -0.1638 -0.2408
10712SOL    HW233036   6.840   0.457   1.858  0.4105 -0.2564 -1.9541
10713SOL     OW33037   0.003   3.334   5.638 -0.6696  0.2710 -0.1212
10713SOL    HW133038   0.026   3.242   5.609  1.2447  0.3246  1.0602
10713SOL    HW233039   0.086   3.382   5.667 -1.8863  1.6966  1.1752
10714SOL     OW33040   4.768   6.702   1.453  0.0799  0.1091  0.0312
10714SOL    HW133041   4.769   6.802   1.457  1.7688  0.0856  2.0369
10714SOL    HW233042   4.856   6.670   1.417  0.0250 -0.6502  0.5659
10715SOL     OW33043   3.673   1.640   4.919 -0.0720  0.0903 -0.2879
10715SOL    HW133044   3.665   1.545   4.888  0.6306  0.6317 -2.2815
10715SOL    HW233045   3.720   1.694   4.850  1.5832  1.4492  1.7749
10716SOL     OW33046   6.827   5.532   2.940 -0.0931  0.4006  0.5391
10716SOL    HW133047   6.744   5.506   2.891  0.6913 -0.4611 -0.3694
10716SOL    HW233048   6.907   5.494   2.893  0.8358  1.3723  1.2863
10717SOL     OW33049   0.368   1.856   4.722  0.8597 -0.2028 -0.2943
10717SOL    HW133050   0.400   1.765   4.746  2.0254 -0.5859 -3.0243
10717SOL    HW233051   0.412   1.924   4.781  1.6617 -1.2401  0.3260
10718SOL     OW33052   2.224   6.373   2.988  0.5669 -0.4252  0.1076
10718SOL    HW133053   2.283   6.385   3.068  1.1747 -2.2048 -0.0246
10718SOL    HW233054   2.205   6.462   2.947  0.5631  0.4860  1.9850
10719SOL     OW33055   1.726   1.404   1.080  0.0280 -0.2441 -0.1524
10719SOL    HW133056   1.667   1.478   1.113  1.2377  1.8265 -2.3864
10719SOL    HW233057   1.799   1.442   1.024  0.0528 -3.2420 -2.3829
10720SOL     OW33058   5.920   5.430   6.773 -0.4524  0.1274  0.0778
10720SOL    HW133059   5.929   5.468   6.865  4.4987 -1.2588  0.4367
10720SOL    HW233060   5.881   5.338   6.778  0.4722 -0.2267  0.9099
10721SOL     OW33061   4.865   2.896   2.617  0.2317  0.2710 -0.3573
10721SOL    HW133062   4.830   2.802   2.615  2.0414 -0.5598  2.1713
10721SOL    HW233063   4.965   2.894   2.614  0.3086  2.1373 -0.1581
10722SOL     OW33064   5.095   0.430   2.344  0.6044 -0.7602  0.2120
10722SOL    HW133065   5.054   0.509   2.298  1.2227  0.4095  1.6092
10722SOL    HW233066   5.106   0.356   2.278 -2.0447 -0.5125 -0.6445
10723SOL     OW33067   1.208   5.731   4.919 -0.5503 -0.1218  0.5996
10723SOL    HW133068   1.233   5.764   5.010  0.3033  0.5249  0.1507
10723SOL    HW233069   1.109   5.723   4.912 -0.6786  0.7205  1.2867
10724SOL     OW33070   1.904   2.602   6.849 -0.8311  0.0546 -0.3536
10724SOL    HW133071   1.969   2.577   6.778 -0.1539 -0.4381  0.4311
10724SOL    HW233072   1.822   2.642   6.806 -1.0942 -1.6197 -1.5116
10725SOL     OW33073   5.022   3.457   2.083  0.1030 -0.4659 -0.0304
10725SOL    HW133074   5.003   3.399   2.161 -0.8602  0.5333  0.5148
10725SOL    HW233075   5.092   3.525   2.107 -0.0592 -0.2755 -0.0928
10726SOL     OW33076   1.493   1.331   0.088  0.3958 -0.1353  0.0553
10726SOL    HW133077   1.464   1.236   0.091 -0.6289  0.1521 -0.1354
10726SOL    HW233078   1.432   1.386   0.146  1.9814  0.1693  1.5150
10727SOL     OW33079   2.165   3.861   5.781  0.2440 -0.0336 -0.2014
10727SOL    HW133080   2.187   3.816   5.694  2.8574  0.0028  0.3841
10727SOL    HW233081   2.217   3.819   5.855 -0.0563  1.5386  0.9566
10728SOL     OW33082   0.780   5.123   6.631  0.2902 -0.1795 -0.1894
10728SOL    HW133083   0.697   5.070   6.621  1.8034 -2.9661  0.9763
10728SOL    HW233084   0.843   5.102   6.555  0.8992 -0.0411  0.2668
10729SOL     OW33085   4.337   0.636   3.434 -0.1595 -0.1130  0.0008
10729SOL    HW133086   4.430   0.673   3.426  0.5874 -1.9478 -0.4696
10729SOL    HW233087   4.286   0.656   3.350 -0.1473  0.7584  0.1920
10730SOL     OW33088   1.278   3.031   4.217  0.3718  0.2188  0.1950
10730SOL    HW133089   1.188   3.039   4.174  0.3922  1.0604  0.2833
10730SOL    HW233090   1.327   3.118   4.209  0.8822 -0.0007  0.7978
10731SOL     OW33091   4.593   4.897   0.578 -0.5777 -0.2898 -0.3246
10731SOL    HW133092   4.619   4.804   0.601 -1.2766 -0.6122 -0.7955
10731SOL    HW233093   4.661   4.936   0.516 -1.0192 -1.0201 -1.3103
10732SOL     OW33094   4.079   1.079   6.227  0.0824  0.0448  0.2277
10732SOL    HW133095   4.080   1.145   6.302 -0.0042  1.7155 -1.1827
10732SOL    HW233096   4.172   1.069   6.191 -0.0825  0.2416 -0.2595
10733SOL     OW33097   4.871   4.539   2.678 -0.8225  0.0642 -0.6070
10733SOL    HW133098   4.802   4.559   2.747 -1.0214  0.0458 -0.8017
10733SOL    HW233099   4.872   4.441   2.659  0.1791 -0.1425  0.3749
10734SOL     OW33100   6.247   6.159   5.181  0.3255 -0.3701 -0.1322
10734SOL    HW133101   6.323   6.126   5.236  0.2407  0.6622  0.6203
10734SOL    HW233102   6.188   6.217   5.236 -0.4364 -0.3075 -0.9885
10735SOL     OW33103   4.782   5.468   6.690  0.2419 -0.1506 -0.1361
10735SOL    HW133104   4.815   5.518   6.610  0.6240 -0.0272  0.0968
10735SOL    HW233105   4.709   5.521   6.735  0.3824  0.0186 -0.1087
10736SOL     OW33106   6.428   5.465   4.259  0.3852  0.3079  0.1000
10736SOL    HW133107   6.375   5.440   4.341  0.6015  0.2599  0.2253
10736SOL    HW233108   6.466   5.382   4.218  2.6169  0.5347  1.5376
10737SOL     OW33109   4.826   1.014   3.971 -0.1010  0.2926 -0.3081
10737SOL    HW133110   4.830   1.091   4.034  1.6435  0.5111 -0.6484
10737SOL    HW233111   4.823   0.928   4.022 -0.7658  0.5319  0.0628
10738SOL     OW33112   4.969   2.000   1.703  0.5506  1.2555 -0.0705
10738SOL    HW133113   5.067   1.991   1.721  0.6738  1.1273 -0.7845
10738SOL    HW233114   4.949   1.971   1.609 -0.2869  0.5554  0.3125
10739SOL     OW33115   0.146   0.098   1.919 -0.1047 -0.0713 -0.3170
10739SOL    HW133116   0.101   0.125   1.835  1.6301 -0.2510 -1.3556
10739SOL    HW233117   0.221   0.036   1.898 -0.6361 -1.4237  1.5272
10740SOL     OW33118   1.100   2.628   4.333 -0.7172 -0.3745  0.5239
10740SOL    HW133119   1.142   2.678   4.258 -1.0648 -0.8858 -0.0183
10740SOL    HW233120   1.100   2.686   4.415 -0.3358  0.1874  0.1385
10741SOL     OW33121   2.704   2.042   3.658 -0.3160 -0.6812 -0.6724
10741SOL    HW133122   2.771   2.100   3.612 -0.0541 -1.1085 -0.8470
10741SOL    HW233123   2.678   2.082   3.745 -0.3170 -0.1884 -0.8992
10742SOL     OW33124   2.814   4.600   6.568  0.3908  0.5606  0.1871
10742SOL    HW133125   2.855   4.672   6.513  1.1939 -0.1870 -0.2172
10742SOL    HW233126   2.749   4.548   6.513  1.2386 -0.2252 -0.0942
10743SOL     OW33127   6.070   2.173   6.384  0.2158 -0.4114 -0.3861
10743SOL    HW133128   6.089   2.270   6.399 -1.4050 -0.1833  0.4185
10743SOL    HW233129   6.134   2.137   6.316  0.1255  1.5087 -1.5682
10744SOL     OW33130   0.049   5.001   2.187 -0.4040  0.4731  0.1969
10744SOL    HW133131   0.076   4.963   2.098  1.4222 -0.1020  0.9542
10744SOL    HW233132   0.040   4.927   2.253 -1.1095  0.9618  0.6566
10745SOL     OW33133   1.061   6.946   1.004  0.1376 -0.0898 -0.5675
10745SOL    HW133134   1.002   6.873   0.970  0.8013 -1.4338  1.0197
10745SOL    HW233135   1.078   6.932   1.102 -1.6345  3.4925  0.4582
10746SOL     OW33136   4.998   4.221   5.189 -0.2347  0.5337 -0.5084
10746SOL    HW133137   5.061   4.253   5.259 -0.7863  1.1020 -0.2718
10746SOL    HW233138   4.945   4.298   5.153  0.8134  0.4740 -2.3476
10747SOL     OW33139   1.990   1.475   4.097 -0.1013 -0.4036  1.0536
10747SOL    HW133140   1.949   1.565   4.115  0.9737  0.6198 -1.2353
10747SOL    HW233141   1.966   1.413   4.171 -0.0852  2.0112  3.2476
10748SOL     OW33142   0.374   6.460   1.855 -0.0577  0.0817 -0.1093
10748SOL    HW133143   0.408   6.369   1.878 -0.5136  0.3646  1.8874
10748SOL    HW233144   0.275   6.461   1.859 -0.0247  0.9102  0.9741
10749SOL     OW33145   6.968   1.925   0.476  0.2624  0.1305 -0.0554
10749SOL    HW133146   6.887   1.969   0.514 -1.0973 -0.8873 -1.6248
10749SOL    HW233147   7.022   1.993   0.427  0.5430  0.8781  1.2529
10750SOL     OW33148   0.535   4.531   4.881 -0.2236  0.0731 -0.3637
10750SOL    HW133149   0.469   4.538   4.955  0.6443 -0.1628  0.4595
10750SOL    HW233150   0.620   4.576   4.907  0.2215 -0.3182 -1.0718
10751SOL     OW33151   6.444   6.219   2.730  0.3110  0.1665  0.2916
10751SOL    HW133152   6.457   6.155   2.655  0.2456  2.3479 -1.6709
10751SOL    HW233153   6.348   6.245   2.736  0.6408  1.5626 -0.2297
10752SOL     OW33154   5.294   2.843   1.529  0.2117  0.0124  0.2363
10752SOL    HW133155   5.362   2.910   1.500  0.6232  0.1321  1.3967
10752SOL    HW233156   5.239   2.882   1.603 -0.6041 -0.3673 -0.1624
10753SOL     OW33157   6.632   5.675   4.127  0.3551 -0.0911 -0.0551
10753SOL    HW133158   6.715   5.621   4.113 -0.7755 -1.6756 -0.9115
10753SOL    HW233159   6.563   5.620   4.173 -0.1964  1.2620  0.8087
10754SOL     OW33160   4.690   4.871   1.230  0.2875  0.0211  0.1149
10754SOL    HW133161   4.596   4.899   1.212  0.6304 -0.0275 -2.0853
10754SOL    HW233162   4.752   4.949   1.215  0.6084  0.0747  1.6198
10755SOL     OW33163   1.606   3.977   5.478 -0.1074 -0.2889 -0.0000
10755SOL    HW133164   1.648   3.898   5.522  0.0481 -0.6746 -0.8154
10755SOL    HW233165   1.608   3.964   5.379 -0.0734  0.7465 -0.1386
10756SOL     OW33166   4.583   6.608   4.592  0.0057 -0.3073  0.1439
10756SOL    HW133167   4.597   6.685   4.655 -0.3877  0.0918 -0.2545
10756SOL    HW233168   4.645   6.617   4.514 -1.1276  0.4745 -0.7007
10757SOL     OW33169   6.292   5.940   1.368  0.6328  0.0570  0.1034
10757SOL    HW133170   6.206   5.911   1.326  0.6634 -0.5670  0.4534
10757SOL    HW233171   6.318   5.875   1.440  1.0617  0.5948  0.4471
10758SOL     OW33172   0.200   4.519   6.422  0.0767  0.2682  0.4882
10758SOL    HW133173   0.147   4.537   6.504 -1.5932 -0.1912 -0.4307
10758SOL    HW233174   0.182   4.426   6.390  1.3153  0.1613  0.0229
10759SOL     OW33175   2.812   6.111   0.814  0.0964  0.0332  0.5665
10759SOL    HW133176   2.713   6.120   0.829  0.1705  2.3910  0.0295
10759SOL    HW233177   2.828   6.076   0.722 -0.2415  0.1674  0.4537
10760SOL     OW33178   5.432   2.360   2.111 -0.1939  0.6687 -0.1558
10760SOL    HW133179   5.410   2.386   2.205  0.5223  1.1862 -0.1314
10760SOL    HW233180   5.443   2.442   2.055  0.4024  0.3833 -0.4623
10761SOL     OW33181   6.796   3.462   4.755  0.6207  0.2659 -0.0643
10761SOL    HW133182   6.852   3.393   4.800 -0.9037 -0.7756  0.3249
10761SOL    HW233183   6.767   3.530   4.822 -0.1066 -0.2461  0.1554
10762SOL     OW33184   5.011   3.844   1.821 -0.3470 -0.5264  0.1235
10762SOL    HW133185   4.968   3.924   1.862  0.2263  0.1107 -0.5021
10762SOL    HW233186   4.975   3.761   1.865 -0.1757  0.1022  1.4987
10763SOL     OW33187   4.526   3.270   1.440 -0.1843 -0.3473 -0.1666
10763SOL    HW133188   4.550   3.310   1.352  2.0913  1.0907  1.0152
10763SOL    HW233189   4.481   3.182   1.426  0.2172 -0.1995 -2.7421
10764SOL     OW33190   5.885   3.332   6.395  0.0620  0.1549 -0.1403
10764SOL    HW133191   5.891   3.316   6.296  1.8029  0.8295 -0.1759
10764SOL    HW233192   5.909   3.248   6.443  0.4493  0.1748 -0.2975
10765SOL     OW33193   3.374   1.607   1.097  0.0299 -0.1505  0.0458
10765SOL    HW133194   3.426   1.690   1.120 -0.4409  0.0293  0.4699
10765SOL    HW233195   3.407   1.571   1.010  1.0988 -0.2290  0.4649
10766SOL     OW33196   5.771   0.799   2.285  0.3895  0.0481 -0.2694
10766SOL    HW133197   5.809   0.823   2.196  1.7652 -0.7333  0.0756
10766SOL    HW233198   5.781   0.700   2.300 -0.7788 -0.0040  0.3351
10767SOL     OW33199   3.287   1.369   3.282 -0.0997  0.1764  0.1921
10767SOL    HW133200   3.257   1.307   3.354  3.0395 -0.4281  1.1243
10767SOL    HW233201   3.332   1.317   3.210 -2.1231  0.9120 -1.7117
10768SOL     OW33202   1.824   6.680   0.278  1.1210  0.2241 -0.5118
10768SOL    HW133203   1.898   6.729   0.231  0.2955  0.2731 -1.8117
10768SOL    HW233204   1.768   6.746   0.329  1.2480  0.3557 -0.5395
10769SOL     OW33205   4.769   5.149   3.744 -0.5692 -0.3828  0.1435
10769SOL    HW133206   4.821   5.090   3.681  0.0723 -0.5221  0.7813
10769SOL    HW233207   4.824   5.166   3.826 -0.8320  0.9484  0.0642
10770SOL     OW33208   2.072   0.841   5.017 -0.4000 -0.9367 -0.2036
10770SOL    HW133209   2.124   0.844   5.103 -0.0128 -0.6236 -0.4456
10770SOL    HW233210   2.112   0.773   4.956 -0.0864 -0.4861 -0.5065
10771SOL     OW33211   6.101   4.953   1.772  0.1253 -0.3027 -0.3219
10771SOL    HW133212   6.084   5.051   1.772  0.1997 -0.2737 -1.6358
10771SOL    HW233213   6.168   4.930   1.843  0.4962  0.6617 -0.3523
10772SOL     OW33214   6.458   1.786   4.309  0.8562 -0.5576 -0.4387
10772SOL    HW133215   6.423   1.694   4.328 -0.1311 -0.3742 -1.2671
10772SOL    HW233216   6.390   1.854   4.337  0.3514 -0.1991 -2.3930
10773SOL     OW33217   3.327   6.635   1.740 -0.4748  0.3938 -0.4940
10773SOL    HW133218   3.302   6.613   1.835  0.8920 -0.0842 -0.2264
10773SOL    HW233219   3.286   6.567   1.679 -1.9890  1.1316 -0.3454
10774SOL     OW33220   5.788   1.170   4.847  0.9692 -0.2778 -0.3949
10774SOL    HW133221   5.691   1.149   4.829  0.6052  0.5626  0.5177
10774SOL    HW233222   5.807   1.155   4.944  2.0839 -1.6332 -0.7928
10775SOL     OW33223   5.775   5.178   3.322  0.4025  0.1460  0.2240
10775SOL    HW133224   5.698   5.116   3.336  0.7338 -0.0642  1.2036
10775SOL    HW233225   5.746   5.272   3.341 -0.1455  0.3340 -1.4264
10776SOL     OW33226   2.074   3.632   3.636 -0.5473 -0.2533 -0.0851
10776SOL    HW133227   2.061   3.729   3.657 -0.8239 -0.5789  1.3787
10776SOL    HW233228   2.159   3.599   3.677 -0.5106 -0.6656 -0.4749
10777SOL     OW33229   6.185   3.864   1.770  0.1207  0.2848  0.2529
10777SOL    HW133230   6.147   3.955   1.756 -1.8049 -0.5473 -0.3073
10777SOL    HW233231   6.166   3.807   1.690  2.5516 -0.2484 -0.0220
10778SOL     OW33232   1.175   2.295   6.170  0.4876  0.0037  0.1639
10778SOL    HW133233   1.213   2.353   6.098 -0.2119 -1.2074 -1.2345
10778SOL    HW233234   1.205   2.201   6.157 -0.5954 -0.4456  0.7683
10779SOL     OW33235   0.335   1.364   4.709 -0.0210  0.3479  0.7152
10779SOL    HW133236   0.276   1.340   4.786  0.9125 -1.7213  0.8639
10779SOL    HW233237   0.431   1.355   4.736  0.3290 -0.7786 -0.7414
10780SOL     OW33238   2.029   3.707   1.497  0.3034 -0.1909 -0.2782
10780SOL    HW133239   2.042   3.699   1.596  0.1239  2.0667 -0.0139
10780SOL    HW233240   2.098   3.652   1.449  1.3938 -0.0644  1.0960
10781SOL     OW33241   5.575   6.499   5.523 -0.1432  0.1477 -0.4378
10781SOL    HW133242   5.486   6.542   5.510 -0.3118 -0.3100 -0.8299
10781SOL    HW233243   5.610   6.469   5.435  0.3350  0.1907 -0.2661
10782SOL     OW33244   6.041   3.596   5.292  0.1226  0.8093  0.0621
10782SOL    HW133245   5.998   3.607   5.202 -2.5514  2.2197  1.3876
10782SOL    HW233246   6.033   3.501   5.321 -0.4185  0.6654 -0.5244
10783SOL     OW33247   5.027   0.984   3.382  0.2642  0.5799 -0.0144
10783SOL    HW133248   5.087   0.990   3.462 -0.1148 -1.2311  0.4718
10783SOL    HW233249   5.078   0.946   3.305  0.0695  0.2160  0.0336
10784SOL     OW33250   0.687   2.353   4.955  0.2412 -0.0079 -0.1843
10784SOL    HW133251   0.661   2.438   5.001  1.9637  0.3544  0.1706
10784SOL    HW233252   0.746   2.299   5.015 -1.0080 -1.5983 -0.3092
10785SOL     OW33253   6.900   5.067   1.670 -0.4162  0.1555 -0.0703
10785SOL    HW133254   6.905   5.134   1.596 -1.1072  0.4518  0.1505
10785SOL    HW233255   6.869   4.979   1.634 -0.4436  0.2113 -0.1827
10786SOL     OW33256   0.601   5.509   0.674  0.7095  0.0944  0.5365
10786SOL    HW133257   0.684   5.463   0.644  1.0179  1.6294 -1.1025
10786SOL    HW233258   0.531   5.505   0.603  0.9661  2.6033  0.0348
10787SOL     OW33259   6.576   6.568   4.490  0.7847  0.5250 -0.6712
10787SOL    HW133260   6.603   6.490   4.433  1.4438 -0.0345  0.3729
10787SOL    HW233261   6.476   6.572   4.494  0.7322 -0.5998 -0.3131
10788SOL     OW33262   0.290   5.678   3.839 -0.3894 -0.1761  0.1634
10788SOL    HW133263   0.339   5.702   3.923 -0.0043 -0.1573 -0.0617
10788SOL    HW233264   0.232   5.599   3.856  0.4776 -0.8198  0.1831
10789SOL     OW33265   6.008   2.886   5.680  0.1211 -0.4695  0.2414
10789SOL    HW133266   6.022   2.864   5.584  0.6466 -1.6140  0.5611
10789SOL    HW233267   6.097   2.905   5.723 -0.0177 -0.8294  0.6950
10790SOL     OW33268   0.989   4.056   6.024  0.0110  0.5031 -0.0481
10790SOL    HW133269   0.900   4.010   6.022 -0.0681  0.6287 -2.0106
10790SOL    HW233270   1.044   4.024   5.946  1.5832  0.6383  0.9733
10791SOL     OW33271   3.426   0.869   3.763 -0.0593  0.0559 -0.1663
10791SOL    HW133272   3.385   0.801   3.701  0.5670  0.6529 -1.2666
10791SOL    HW233273   3.476   0.822   3.835  0.1719 -0.6611 -0.7787
10792SOL     OW33274   1.941   3.080   0.316  0.3223  0.0917 -0.7115
10792SOL    HW133275   1.926   3.135   0.399  1.8336 -0.7204  0.1358
10792SOL    HW233276   1.896   2.991   0.327 -0.2108  0.2998 -1.1459
10793SOL     OW33277   5.273   4.020   0.492  0.0782  0.2999 -0.4293
10793SOL    HW133278   5.188   3.990   0.449  0.9839 -1.9269 -0.8152
10793SOL    HW233279   5.336   3.943   0.497  1.4309  1.4440  1.4587
10794SOL     OW33280   3.917   6.152   0.448 -0.3938  0.5511  0.2129
10794SOL    HW133281   3.953   6.176   0.358 -2.5184  1.4162 -0.4733
10794SOL    HW233282   3.817   6.149   0.444 -0.5097 -0.1638  2.3708
10795SOL     OW33283   1.824   3.924   3.498  0.4409 -0.2186 -0.2037
10795SOL    HW133284   1.805   3.954   3.591  0.8934 -2.1176  0.5556
10795SOL    HW233285   1.765   3.974   3.434 -2.9289 -1.7137  1.4644
10796SOL     OW33286   4.505   4.585   6.437 -0.0190  0.1077  0.5812
10796SOL    HW133287   4.548   4.586   6.527  1.5803  0.0257 -0.1581
10796SOL    HW233288   4.424   4.644   6.438  0.4136  0.7074  1.8496
10797SOL     OW33289   2.863   3.639   4.333 -1.0035  0.1166 -0.3068
10797SOL    HW133290   2.781   3.654   4.387 -0.0848  1.1170  0.8503
10797SOL    HW233291   2.917   3.565   4.374 -1.5461 -0.9090 -1.3672
10798SOL     OW33292   0.499   5.529   0.036 -0.2296 -0.1413  0.2548
10798SOL    HW133293   0.465   5.442  -0.000  0.2887 -0.3408  0.2443
10798SOL    HW233294   0.472   5.604  -0.025 -0.6727 -0.2926  0.2617
10799SOL     OW33295   5.625   4.315   4.397  0.0669 -0.7274  0.3267
10799SOL    HW133296   5.664   4.324   4.489 -0.1159 -1.3608  0.4713
10799SOL    HW233297   5.542   4.259   4.402  0.5649 -1.5390 -0.3603
10800SOL     OW33298   6.321   4.777   2.295 -0.3826  0.5209  0.2200
10800SOL    HW133299   6.263   4.717   2.350  0.7578 -0.0912  0.8016
10800SOL    HW233300   6.417   4.763   2.321  0.0215  1.6072 -0.6069
10801SOL     OW33301   4.692   1.246   0.607 -0.1685 -0.2881  0.3235
10801SOL    HW133302   4.738   1.163   0.639  0.0338 -0.4279 -0.3141
10801SOL    HW233303   4.760   1.316   0.587 -0.0550 -1.0203 -2.1568
10802SOL     OW33304   5.050   0.839   2.251 -0.5752  0.2822 -0.3767
10802SOL    HW133305   5.080   0.862   2.344  0.7052 -1.8175 -0.1992
10802SOL    HW233306   5.129   0.817   2.194 -1.4709 -0.8028 -1.2692
10803SOL     OW33307   4.550   6.474   6.364 -0.4598 -0.0359  0.6645
10803SOL    HW133308   4.482   6.402   6.378  0.2906 -0.7860  0.5334
10803SOL    HW233309   4.532   6.550   6.427  0.2008 -1.4089  2.6159
10804SOL     OW33310   5.534   0.632   3.646 -0.0405  0.7750 -0.3839
10804SOL    HW133311   5.559   0.535   3.639  0.5314  0.7934  0.9504
10804SOL    HW233312   5.437   0.640   3.667 -0.0278  0.4679 -0.1962
10805SOL     OW33313   4.144   1.373   6.874 -0.6046  0.7487  0.3896
10805SOL    HW133314   4.180   1.359   6.781 -0.6379  1.3430  0.2802
10805SOL    HW233315   4.220   1.381   6.938 -0.5752  0.5277  0.3807
10806SOL     OW33316   2.359   5.593   6.319 -0.0434  0.2523  0.2232
10806SOL    HW133317   2.373   5.690   6.341  2.0057  0.6816 -2.4088
10806SOL    HW233318   2.447   5.547   6.315 -0.7337 -1.0256 -1.2956
10807SOL     OW33319   5.399   0.025   6.352 -0.4983  0.0264  0.1242
10807SOL    HW133320   5.452  -0.033   6.413  0.4722  0.6626 -0.0787
10807SOL    HW233321   5.318  -0.024   6.319 -0.2106 -0.8480  0.7094
10808SOL     OW33322   4.683   3.696   5.896 -0.6272 -0.9253  0.0849
10808SOL    HW133323   4.782   3.684   5.902 -0.7177 -1.6710  0.1324
10808SOL    HW233324   4.643   3.620   5.845 -1.1163 -0.3421 -0.4142
10809SOL     OW33325   4.512   0.429   3.220 -0.3153 -0.3156  0.3536
10809SOL    HW133326   4.438   0.473   3.168 -0.4661 -1.3573 -0.3304
10809SOL    HW233327   4.476   0.398   3.308 -0.3252  0.4598  0.6384
10810SOL     OW33328   5.769   6.861   1.974 -0.6183 -0.2207 -0.3637
10810SOL    HW133329   5.769   6.959   1.952  2.3743 -0.0188  0.0426
10810SOL    HW233330   5.764   6.808   1.889 -0.6312  0.3182 -0.7053
10811SOL     OW33331   2.600   1.321   6.038 -0.2569  0.1770  0.7156
10811SOL    HW133332   2.588   1.386   6.113 -0.7657  1.9902 -0.8686
10811SOL    HW233333   2.580   1.366   5.951  0.1569 -1.9055 -0.5239
10812SOL     OW33334   1.634   5.010   1.156 -0.6118 -0.1314  0.1641
10812SOL    HW133335   1.559   5.057   1.109 -0.4334 -1.2115 -1.2679
10812SOL    HW233336   1.633   4.913   1.132  0.2217 -0.4974  1.4873
10813SOL     OW33337   3.596   5.879   6.033  0.6663 -0.1100 -0.0734
10813SOL    HW133338   3.653   5.811   5.988  1.8273  1.6660 -1.4213
10813SOL    HW233339   3.550   5.838   6.112  1.4929 -2.3470 -0.6959
10814SOL     OW33340   6.669   0.683   6.324 -0.2610 -0.6497 -0.4002
10814SOL    HW133341   6.577   0.710   6.295 -0.3425 -1.2717 -0.7379
10814SOL    HW233342   6.702   0.610   6.265  1.6119  1.4570 -2.0989
10815SOL     OW33343   0.450   5.189   3.529  0.2490  0.1667  0.2825
10815SOL    HW133344   0.521   5.183   3.600 -0.1619 -1.0152  0.6089
10815SOL    HW233345   0.372   5.133   3.555  0.7979 -1.7888 -1.9211
10816SOL     OW33346   6.523   2.659   6.603 -0.7091 -0.1673 -0.0308
10816SOL    HW133347   6.438   2.610   6.620  0.2307 -2.0549 -0.5636
10816SOL    HW233348   6.503   2.756   6.588 -2.7325 -0.5487 -0.0316
10817SOL     OW33349   0.955   3.525   2.929 -0.3767  0.3868  0.0962
10817SOL    HW133350   1.036   3.552   2.980  0.0435 -1.4620  0.4778
10817SOL    HW233351   0.977   3.517   2.832  0.3322 -1.5042  0.3720
10818SOL     OW33352   2.295   6.368   3.437 -0.2095  0.1418  0.6901
10818SOL    HW133353   2.197   6.349   3.445 -0.4703  1.8173  2.0393
10818SOL    HW233354   2.345   6.281   3.433 -1.7848 -0.7731 -1.3631
10819SOL     OW33355   0.109   5.233   4.437 -0.4801 -0.0647 -0.1927
10819SOL    HW133356   0.073   5.151   4.483 -2.1567 -1.1895 -3.2257
10819SOL    HW233357   0.074   5.315   4.484  0.1111 -1.0359  2.0785
10820SOL     OW33358   2.868   6.783   6.822  0.4367 -0.1872 -0.1835
10820SOL    HW133359   2.881   6.879   6.848 -0.0859 -0.6105  1.7556
10820SOL    HW233360   2.935   6.726   6.870 -0.3409 -0.9778 -0.0075
10821SOL     OW33361   4.109   1.276   5.868  0.4255 -0.5268 -0.1097
10821SOL    HW133362   4.092   1.182   5.899 -0.4618 -0.0379  0.9664
10821SOL    HW233363   4.032   1.307   5.812  0.6404 -0.3674 -0.3221
10822SOL     OW33364   2.117   2.068   4.080  0.5388 -0.0332 -0.2982
10822SOL    HW133365   2.058   2.135   4.126  1.6235  1.4614 -0.9902
10822SOL    HW233366   2.174   2.115   4.012  1.1673 -1.7190 -0.9922
10823SOL     OW33367   1.480   1.893   5.121  0.1795 -0.1831 -0.3314
10823SOL    HW133368   1.449   1.935   5.036  2.2277 -0.0690 -1.0803
10823SOL    HW233369   1.415   1.823   5.150 -1.2350  0.7199 -1.2465
10824SOL     OW33370   1.694   3.423   3.190 -0.0370  0.0579 -0.8886
10824SOL    HW133371   1.702   3.347   3.254  2.3751  0.2387 -0.8916
10824SOL    HW233372   1.637   3.495   3.230 -0.8788 -0.9858 -0.1583
10825SOL     OW33373   2.327   2.716   3.283  0.9850 -0.3074  0.1281
10825SOL    HW133374   2.249   2.704   3.345  0.0581 -1.0445 -1.1260
10825SOL    HW233375   2.404   2.661   3.316  1.1592  0.7513  1.6096
10826SOL     OW33376   0.961   3.402   0.688  0.7310  0.0580 -0.0331
10826SOL    HW133377   0.887   3.355   0.735 -0.4404  0.6821 -1.1881
10826SOL    HW233378   1.025   3.439   0.755 -0.6381  0.5370  1.0499
10827SOL     OW33379   6.968   6.391   1.051  0.4747  0.2708  0.5952
10827SOL    HW133380   6.973   6.364   0.954  0.7573  0.9146  0.4298
10827SOL    HW233381   6.872   6.400   1.077  0.3181 -1.8374  0.9294
10828SOL     OW33382   5.005   0.761   1.136  0.5754 -0.0975  0.1434
10828SOL    HW133383   5.022   0.851   1.097 -1.8490 -0.0518 -1.0265
10828SOL    HW233384   5.081   0.734   1.194  3.0640  1.1205 -2.3233
10829SOL     OW33385   2.308   2.769   4.943 -0.1582  0.2527 -0.1707
10829SOL    HW133386   2.334   2.681   4.984 -0.5617 -0.4020 -1.2673
10829SOL    HW233387   2.321   2.842   5.010  1.3940 -0.4700  0.3645
10830SOL     OW33388   1.868   5.965   6.837 -0.3210  0.2271  0.4827
10830SOL    HW133389   1.847   5.900   6.764 -0.2513  0.3086  0.3889
10830SOL    HW233390   1.848   6.058   6.806 -0.5311  0.2407  0.6578
10831SOL     OW33391   4.046   0.360   5.021 -0.0649 -0.2404 -0.7208
10831SOL    HW133392   3.953   0.357   5.058  0.1767 -1.1357 -0.1388
10831SOL    HW233393   4.090   0.446   5.046 -1.4363  1.1704 -2.8124
10832SOL     OW33394   3.375   4.944   2.046 -0.3545 -0.2836 -0.4360
10832SOL    HW133395   3.367   4.982   2.139 -0.0959  0.8995 -0.8685
10832SOL    HW233396   3.468   4.911   2.032 -0.4563 -0.6712 -0.1986
10833SOL     OW33397   4.870   2.763   0.741 -0.4225  0.4647 -0.1153
10833SOL    HW133398   4.835   2.731   0.828 -1.2547  0.3292 -0.4957
10833SOL    HW233399   4.900   2.685   0.686 -0.1130  0.5332 -0.0470
10834SOL     OW33400   6.707   0.269   3.652  0.5830  0.2192  0.2178
10834SOL    HW133401   6.616   0.257   3.612  0.9668  0.3832 -0.7432
10834SOL    HW233402   6.718   0.207   3.730  0.0809 -0.6907 -0.4114
10835SOL     OW33403   0.905   1.790   3.713  0.3713 -0.0788  0.0838
10835SOL    HW133404   0.923   1.826   3.622  0.7441  0.0691  0.2140
10835SOL    HW233405   0.832   1.722   3.709  0.5022 -0.1911 -0.3469
10836SOL     OW33406   0.243   1.971   0.145 -0.1063  0.3659  0.9915
10836SOL    HW133407   0.339   1.942   0.140 -0.6582 -1.4105 -1.3584
10836SOL    HW233408   0.186   1.892   0.170 -1.2263  0.5965 -0.7127
10837SOL     OW33409   0.386   2.765   1.739 -0.4345 -0.0346  0.3236
10837SOL    HW133410   0.484   2.754   1.756 -0.4996 -0.5773  0.3661
10837SOL    HW233411   0.347   2.677   1.710 -0.8238  0.2794 -0.1258
10838SOL     OW33412   6.971   6.983   4.119 -0.1589  0.1109 -0.1392
10838SOL    HW133413   6.991   6.891   4.085 -1.0305 -0.2281  0.2361
10838SOL    HW233414   6.873   6.991   4.138 -0.2713  1.4373 -1.1058
10839SOL     OW33415   5.754   6.707   1.040 -0.4967  0.4045 -0.4864
10839SOL    HW133416   5.848   6.741   1.054  0.3215 -1.1453 -1.8991
10839SOL    HW233417   5.737   6.631   1.103 -0.7106  0.5186 -0.4067
10840SOL     OW33418   0.771   6.098   6.073  0.3197  0.2893  0.4074
10840SOL    HW133419   0.770   6.009   6.117  0.9653  0.4164  0.6902
10840SOL    HW233420   0.735   6.167   6.136  0.6562  0.3713  0.5097
10841SOL     OW33421   5.489   4.364   5.906  0.0344  0.2801 -0.6408
10841SOL    HW133422   5.437   4.349   5.822  0.5746 -3.2297 -0.5222
10841SOL    HW233423   5.586   4.362   5.886  0.1729 -0.7244  0.0401
10842SOL     OW33424   0.977   6.023   2.651  0.3235 -0.3429  0.1963
10842SOL    HW133425   1.006   6.032   2.746  0.6659  0.2471  0.0405
10842SOL    HW233426   0.877   6.026   2.647  0.3306  0.8679  0.4300
10843SOL     OW33427   1.813   1.701   4.195  0.1369  0.2814  0.4347
10843SOL    HW133428   1.734   1.650   4.161  0.9361 -0.8507  0.2184
10843SOL    HW233429   1.819   1.690   4.294  0.5912 -0.4779  0.3294
10844SOL     OW33430   2.846   0.802   6.219  0.3101 -0.2045 -0.6770
10844SOL    HW133431   2.840   0.704   6.198  3.1063 -0.5872 -0.1106
10844SOL    HW233432   2.912   0.816   6.292 -0.4236  2.1175 -0.3700
10845SOL     OW33433   4.562   6.367   2.359  0.2735  0.2398  0.1215
10845SOL    HW133434   4.512   6.441   2.402 -0.5210  0.1958 -0.6996
10845SOL    HW233435   4.648   6.402   2.322  0.5137  0.4685  0.8711
10846SOL     OW33436   2.796   6.311   6.139 -0.5287 -0.1444 -0.6296
10846SOL    HW133437   2.805   6.333   6.237 -2.8959  1.0065 -0.6079
10846SOL    HW233438   2.840   6.383   6.085  1.0932 -0.9563 -0.4770
10847SOL     OW33439   2.063   6.156   3.063 -0.1098  0.6045 -0.4773
10847SOL    HW133440   2.124   6.235   3.053 -0.7708  1.3377  1.0114
10847SOL    HW233441   1.978   6.184   3.108  0.9422 -1.4605  3.2690
10848SOL     OW33442   5.539   5.292   1.941 -0.1570  0.1001  0.4509
10848SOL    HW133443   5.633   5.279   1.910  0.0252  0.8342  0.6806
10848SOL    HW233444   5.522   5.389   1.957 -0.5970 -0.1413  1.5388
10849SOL     OW33445   1.619   1.474   3.262  0.4074 -0.0728 -0.2917
10849SOL    HW133446   1.652   1.436   3.348  0.1469  0.7212  0.1644
10849SOL    HW233447   1.658   1.422   3.186  2.4582  0.6147  0.2305
10850SOL     OW33448   5.416   5.810   1.639 -0.7430 -0.0458  0.5465
10850SOL    HW133449   5.493   5.861   1.678  0.5358  0.0132 -1.8539
10850SOL    HW233450   5.448   5.718   1.615 -1.3210  0.0799 -0.7554
10851SOL     OW33451   0.015   1.022   1.421  0.1405 -0.0974 -0.1630
10851SOL    HW133452   0.082   1.072   1.475 -0.8515  1.0814  0.0245
10851SOL    HW233453  -0.026   1.083   1.353 -2.4975 -0.0254  1.3310
10852SOL     OW33454   6.210   4.908   5.674  0.1474  0.4853  0.1565
10852SOL    HW133455   6.163   4.942   5.592  0.1990 -0.3674 -0.2399
10852SOL    HW233456   6.183   4.963   5.753 -2.2357 -0.5036  0.1219
10853SOL     OW33457   0.120   2.818   1.122 -0.4822  0.4422  0.0672
10853SOL    HW133458   0.073   2.843   1.207 -0.6564  0.0101  0.1020
10853SOL    HW233459   0.219   2.825   1.136 -0.5335  1.4708 -0.0421
10854SOL     OW33460   3.024   5.610   5.620  0.0745  0.6195 -1.4390
10854SOL    HW133461   2.980   5.521   5.631  0.6587  0.5157  0.3985
10854SOL    HW233462   3.111   5.599   5.573 -1.0679  0.6304 -3.7085
10855SOL     OW33463   1.699   2.755   0.527  0.0559  0.0919 -0.5858
10855SOL    HW133464   1.712   2.670   0.477  2.9430 -0.7879  1.3844
10855SOL    HW233465   1.603   2.764   0.555 -0.1531 -3.0247 -0.0166
10856SOL     OW33466   5.375   6.601   1.021  0.2534  0.0204  0.4122
10856SOL    HW133467   5.431   6.592   0.939  0.1466 -1.8606  0.5140
10856SOL    HW233468   5.281   6.577   1.000  0.3104 -0.8989  1.1689
10857SOL     OW33469   0.661   0.581   6.549 -0.6594  0.3556  0.1666
10857SOL    HW133470   0.740   0.600   6.607  0.4707 -0.2786 -1.1025
10857SOL    HW233471   0.579   0.618   6.591  0.6952  3.7127  0.1639
10858SOL     OW33472   3.647   0.799   3.425 -0.0044 -0.1790 -0.1897
10858SOL    HW133473   3.578   0.855   3.380 -0.3991  0.4980  1.2061
10858SOL    HW233474   3.738   0.837   3.405 -0.1164 -0.2939 -0.9515
10859SOL     OW33475   2.176   0.852   0.319 -0.0928 -0.5355  0.5111
10859SOL    HW133476   2.086   0.888   0.298 -0.4216  0.3084  3.0055
10859SOL    HW233477   2.168   0.756   0.347 -0.0438 -0.7769 -0.2725
10860SOL     OW33478   3.695   0.333   1.834 -0.1830 -0.9022  0.1667
10860SOL    HW133479   3.728   0.398   1.902 -0.1266 -1.0105  0.2427
10860SOL    HW233480   3.753   0.338   1.753 -0.8309 -0.0730 -0.2639
10861SOL     OW33481   5.287   0.712   3.703 -0.7038  0.1660 -0.5053
10861SOL    HW133482   5.306   0.806   3.732  0.5620 -0.5751  1.2694
10861SOL    HW233483   5.232   0.667   3.773  2.0047 -1.5481  0.6863
10862SOL     OW33484   1.677   1.751   6.928 -0.2800  0.6164 -0.1866
10862SOL    HW133485   1.672   1.822   6.858 -1.2986  0.2337 -0.5151
10862SOL    HW233486   1.594   1.695   6.925  0.6653 -0.8429 -0.2016
10863SOL     OW33487   0.737   5.066   6.124  0.5456  0.2228  0.4447
10863SOL    HW133488   0.780   5.009   6.194  0.7879  0.5625  0.5723
10863SOL    HW233489   0.706   5.008   6.049  0.1583 -0.1610  0.8965
10864SOL     OW33490   4.023   3.485   4.628 -0.2528 -0.0296  0.0235
10864SOL    HW133491   4.056   3.527   4.543 -1.1056  2.0184  0.6339
10864SOL    HW233492   4.060   3.536   4.706 -0.1832 -1.3491  0.8830
10865SOL     OW33493   0.757   4.052   3.516 -0.9348 -0.1413  0.9170
10865SOL    HW133494   0.843   4.002   3.501 -2.3114 -2.9949  1.8635
10865SOL    HW233495   0.742   4.115   3.439  1.9502  0.4852  0.7263
10866SOL     OW33496   0.049   5.203   3.298 -0.2989 -0.0046 -0.0451
10866SOL    HW133497  -0.042   5.243   3.292 -0.1886  0.1987 -0.3509
10866SOL    HW233498   0.111   5.266   3.343 -0.3946 -0.2924  0.4966
10867SOL     OW33499   0.677   0.646   1.197  0.1683  0.0910  0.6036
10867SOL    HW133500   0.627   0.673   1.115 -1.1553  2.1104  1.9640
10867SOL    HW233501   0.635   0.689   1.277  3.0628  0.4601  2.0560
10868SOL     OW33502   3.795   1.918   5.507 -0.0440 -0.4038 -0.2680
10868SOL    HW133503   3.860   1.895   5.435  2.1545  1.3292  1.0010
10868SOL    HW233504   3.752   2.006   5.487 -1.4540 -1.1582 -0.6985
10869NA      NA33505   6.229   3.862   6.068  0.0171  0.5520 -0.0204
10870NA      NA33506   3.456   3.627   4.429 -0.2375 -0.0985  0.0332
10871NA      NA33507   1.356   4.015   4.083  0.1270  0.0481 -0.0172
10872NA      NA33508   2.759   2.421   5.358  0.1327 -0.5937 -0.2276
10873NA      NA33509   5.056   0.935   4.860  0.5970 -0.2862 -0.4379
10874NA      NA33510   2.694   4.502   1.668 -0.5403  0.0599  0.0560
10875NA      NA33511   3.698   4.881   1.800  0.2549 -0.5999 -0.1721
10876NA      NA33512   4.602   2.822   1.586 -0.1000  0.3745  0.3929
10877NA      NA33513   0.601   3.622   1.189 -0.1103 -0.2574  0.2521
10878NA      NA33514   1.927   5.574   0.407  0.3128 -0.9910  0.0403
10879NA      NA33515   5.606   3.532   2.390  0.0470 -0.1824 -0.3182
10880NA      NA33516   2.798   1.640   1.887  0.0573 -0.1462 -0.0458
10881NA      NA33517   5.798   3.435   4.035  0.1616  0.0740  0.1249
10882NA      NA33518   2.260   6.900   2.681 -0.5958  0.0600 -0.0381
   7.01756   7.01756   7.01756
