Title
  824
    0         C    1   2.278   4.498   3.305
    0         C    2   2.155   4.490   3.233
    0         C    3   2.036   4.504   3.305
    0         C    4   2.767   4.494   3.308
    0         C    5   2.645   4.478   3.239
    0         C    6   2.522   4.494   3.308
    0         C    7   2.401   4.434   3.105
    0         C    8   2.400   4.480   3.238
    0         C    9   2.280   4.410   3.037
    0         C   10   2.157   4.453   3.094
    0         C   11   2.042   4.370   2.895
    0         C   12   2.042   4.449   3.011
    0         C   13   3.256   4.495   3.308
    0         C   14   3.134   4.479   3.239
    0         C   15   3.012   4.495   3.308
    0         C   16   2.890   4.432   3.106
    0         C   17   2.889   4.478   3.239
    0         C   18   2.768   4.402   3.042
    0         C   19   2.645   4.431   3.106
    0         C   20   2.523   4.329   2.921
    0         C   21   2.523   4.402   3.042
    0         C   22   2.401   4.288   2.864
    0         C   23   2.280   4.336   2.916
    0         C   24   2.156   4.198   2.756
    0         C   25   2.158   4.302   2.854
    0         C   26   2.036   4.141   2.711
    0         C   27   3.745   4.495   3.308
    0         C   28   3.623   4.479   3.239
    0         C   29   3.501   4.495   3.308
    0         C   30   3.378   4.433   3.106
    0         C   31   3.378   4.479   3.239
    0         C   32   3.256   4.403   3.042
    0         C   33   3.134   4.433   3.106
    0         C   34   3.012   4.330   2.921
    0         C   35   3.012   4.402   3.042
    0         C   36   2.890   4.287   2.865
    0         C   37   2.768   4.329   2.921
    0         C   38   2.645   4.191   2.761
    0         C   39   2.646   4.286   2.865
    0         C   40   2.523   4.138   2.715
    0         C   41   2.401   4.192   2.760
    0         C   42   2.278   4.024   2.631
    0         C   43   2.278   4.140   2.713
    0         C   44   2.155   3.964   2.591
    0         C   45   2.035   4.026   2.634
    0         C   46   4.234   4.493   3.309
    0         C   47   4.112   4.478   3.240
    0         C   48   3.990   4.494   3.308
    0         C   49   3.867   4.433   3.106
    0         C   50   3.867   4.479   3.240
    0         C   51   3.745   4.403   3.042
    0         C   52   3.623   4.433   3.106
    0         C   53   3.501   4.330   2.921
    0         C   54   3.501   4.403   3.042
    0         C   55   3.379   4.287   2.865
    0         C   56   3.256   4.330   2.921
    0         C   57   3.134   4.191   2.761
    0         C   58   3.134   4.287   2.864
    0         C   59   3.012   4.138   2.715
    0         C   60   2.890   4.191   2.761
    0         C   61   2.767   4.022   2.634
    0         C   62   2.768   4.138   2.715
    0         C   63   2.645   3.961   2.600
    0         C   64   2.523   4.022   2.634
    0         C   65   2.401   3.831   2.544
    0         C   66   2.400   3.961   2.598
    0         C   67   2.279   3.765   2.518
    0         C   68   2.156   3.836   2.527
    0         C   69   2.041   3.634   2.455
    0         C   70   2.041   3.772   2.475
    0         C   71   4.723   4.499   3.308
    0         C   72   4.601   4.478   3.240
    0         C   73   4.479   4.492   3.309
    0         C   74   4.357   4.431   3.107
    0         C   75   4.356   4.477   3.240
    0         C   76   4.234   4.402   3.043
    0         C   77   4.112   4.432   3.106
    0         C   78   3.990   4.330   2.921
    0         C   79   3.990   4.403   3.042
    0         C   80   3.868   4.287   2.865
    0         C   81   3.745   4.330   2.921
    0         C   82   3.623   4.191   2.761
    0         C   83   3.623   4.287   2.865
    0         C   84   3.501   4.138   2.715
    0         C   85   3.379   4.191   2.761
    0         C   86   3.256   4.022   2.634
    0         C   87   3.256   4.138   2.715
    0         C   88   3.134   3.960   2.599
    0         C   89   3.012   4.022   2.634
    0         C   90   2.890   3.831   2.544
    0         C   91   2.890   3.961   2.600
    0         C   92   2.767   3.763   2.524
    0         C   93   2.645   3.831   2.545
    0         C   94   2.523   3.625   2.498
    0         C   95   2.523   3.763   2.525
    0         C   96   2.401   3.555   2.491
    0         C   97   2.279   3.626   2.492
    0         C   98   2.155   3.415   2.486
    0         C   99   2.157   3.557   2.476
    0         C  100   2.035   3.343   2.498
    0         C  101   4.961   4.542   3.304
    0         C  102   4.847   4.439   3.105
    0         C  103   4.845   4.495   3.237
    0         C  104   4.724   4.404   3.042
    0         C  105   4.601   4.432   3.106
    0         C  106   4.479   4.329   2.922
    0         C  107   4.479   4.402   3.043
    0         C  108   4.357   4.286   2.866
    0         C  109   4.234   4.329   2.922
    0         C  110   4.112   4.190   2.762
    0         C  111   4.112   4.287   2.865
    0         C  112   3.990   4.137   2.715
    0         C  113   3.868   4.191   2.762
    0         C  114   3.745   4.022   2.634
    0         C  115   3.745   4.138   2.715
    0         C  116   3.623   3.960   2.600
    0         C  117   3.501   4.022   2.634
    0         C  118   3.378   3.830   2.544
    0         C  119   3.379   3.960   2.599
    0         C  120   3.256   3.763   2.523
    0         C  121   3.134   3.831   2.544
    0         C  122   3.012   3.624   2.496
    0         C  123   3.012   3.763   2.524
    0         C  124   2.889   3.554   2.491
    0         C  125   2.767   3.625   2.498
    0         C  126   2.645   3.413   2.494
    0         C  127   2.645   3.554   2.492
    0         C  128   2.522   3.343   2.502
    0         C  129   2.400   3.414   2.493
    0         C  130   2.277   3.205   2.530
    0         C  131   2.277   3.344   2.499
    0         C  132   2.154   3.135   2.549
    0         C  133   2.035   3.208   2.531
    0         C  134   4.966   4.331   2.921
    0         C  135   4.966   4.402   3.041
    0         C  136   4.846   4.291   2.860
    0         C  137   4.724   4.330   2.920
    0         C  138   4.601   4.190   2.762
    0         C  139   4.601   4.286   2.865
    0         C  140   4.479   4.136   2.717
    0         C  141   4.356   4.189   2.763
    0         C  142   4.234   4.021   2.635
    0         C  143   4.234   4.136   2.716
    0         C  144   4.112   3.960   2.600
    0         C  145   3.990   4.022   2.634
    0         C  146   3.867   3.830   2.545
    0         C  147   3.867   3.960   2.600
    0         C  148   3.745   3.763   2.524
    0         C  149   3.623   3.830   2.544
    0         C  150   3.501   3.624   2.496
    0         C  151   3.501   3.763   2.523
    0         C  152   3.378   3.554   2.490
    0         C  153   3.256   3.624   2.496
    0         C  154   3.134   3.413   2.492
    0         C  155   3.134   3.554   2.490
    0         C  156   3.011   3.343   2.501
    0         C  157   2.889   3.413   2.493
    0         C  158   2.767   3.206   2.533
    0         C  159   2.767   3.343   2.502
    0         C  160   2.644   3.139   2.556
    0         C  161   2.522   3.206   2.533
    0         C  162   2.400   3.011   2.615
    0         C  163   2.399   3.139   2.555
    0         C  164   2.278   2.948   2.647
    0         C  165   2.156   3.002   2.600
    0         C  166   2.040   2.813   2.704
    0         C  167   2.040   2.921   2.614
    0         C  168   4.960   4.161   2.681
    0         C  169   4.844   4.199   2.751
    0         C  170   4.723   4.024   2.630
    0         C  171   4.722   4.140   2.712
    0         C  172   4.601   3.960   2.600
    0         C  173   4.479   4.020   2.636
    0         C  174   4.357   3.829   2.546
    0         C  175   4.356   3.959   2.601
    0         C  176   4.234   3.762   2.525
    0         C  177   4.112   3.830   2.545
    0         C  178   3.990   3.624   2.497
    0         C  179   3.990   3.762   2.524
    0         C  180   3.867   3.554   2.490
    0         C  181   3.745   3.624   2.497
    0         C  182   3.623   3.412   2.492
    0         C  183   3.623   3.554   2.490
    0         C  184   3.500   3.342   2.501
    0         C  185   3.378   3.413   2.492
    0         C  186   3.256   3.205   2.532
    0         C  187   3.256   3.343   2.501
    0         C  188   3.133   3.138   2.555
    0         C  189   3.011   3.205   2.533
    0         C  190   2.889   3.011   2.616
    0         C  191   2.889   3.139   2.556
    0         C  192   2.766   2.951   2.653
    0         C  193   2.644   3.012   2.617
    0         C  194   2.522   2.839   2.739
    0         C  195   2.522   2.952   2.653
    0         C  196   2.400   2.787   2.786
    0         C  197   2.278   2.836   2.734
    0         C  198   2.154   2.691   2.888
    0         C  199   2.156   2.778   2.775
    0         C  200   2.034   2.654   2.951
    0         C  201   4.961   4.050   2.595
    0         C  202   4.847   3.834   2.538
    0         C  203   4.845   3.969   2.585
    0         C  204   4.724   3.763   2.522
    0         C  205   4.601   3.830   2.544
    0         C  206   4.479   3.624   2.498
    0         C  207   4.479   3.762   2.525
    0         C  208   4.356   3.553   2.492
    0         C  209   4.234   3.624   2.498
    0         C  210   4.112   3.412   2.494
    0         C  211   4.112   3.553   2.491
    0         C  212   3.989   3.342   2.502
    0         C  213   3.867   3.412   2.493
    0         C  214   3.745   3.205   2.533
    0         C  215   3.745   3.342   2.501
    0         C  216   3.622   3.138   2.556
    0         C  217   3.500   3.205   2.533
    0         C  218   3.378   3.010   2.615
    0         C  219   3.378   3.138   2.555
    0         C  220   3.256   2.950   2.651
    0         C  221   3.133   3.010   2.615
    0         C  222   3.011   2.837   2.737
    0         C  223   3.011   2.950   2.652
    0         C  224   2.888   2.786   2.785
    0         C  225   2.766   2.838   2.738
    0         C  226   2.644   2.695   2.893
    0         C  227   2.644   2.787   2.787
    0         C  228   2.521   2.654   2.951
    0         C  229   2.399   2.695   2.893
    0         C  230   2.276   2.584   3.074
    0         C  231   2.276   2.653   2.950
    0         C  232   2.153   2.551   3.138
    0         C  233   2.034   2.588   3.073
    0         C  234   4.966   3.624   2.495
    0         C  235   4.966   3.761   2.523
    0         C  236   4.846   3.552   2.485
    0         C  237   4.724   3.623   2.496
    0         C  238   4.600   3.412   2.495
    0         C  239   4.601   3.553   2.492
    0         C  240   4.478   3.342   2.504
    0         C  241   4.356   3.412   2.495
    0         C  242   4.234   3.205   2.535
    0         C  243   4.234   3.342   2.503
    0         C  244   4.111   3.138   2.557
    0         C  245   3.989   3.205   2.533
    0         C  246   3.867   3.010   2.616
    0         C  247   3.867   3.138   2.556
    0         C  248   3.745   2.949   2.652
    0         C  249   3.622   3.010   2.615
    0         C  250   3.500   2.836   2.736
    0         C  251   3.500   2.949   2.652
    0         C  252   3.378   2.785   2.785
    0         C  253   3.255   2.837   2.736
    0         C  254   3.133   2.693   2.891
    0         C  255   3.133   2.785   2.785
    0         C  256   3.011   2.652   2.949
    0         C  257   2.888   2.693   2.892
    0         C  258   2.766   2.585   3.073
    0         C  259   2.766   2.653   2.950
    0         C  260   2.644   2.558   3.138
    0         C  261   2.521   2.586   3.074
    0         C  262   2.399   2.516   3.274
    0         C  263   2.399   2.557   3.139
    0         C  264   2.278   2.496   3.342
    0         C  265   2.155   2.499   3.272
    0         C  266   2.040   2.445   3.481
    0         C  267   2.039   2.454   3.340
    0         C  268   4.960   3.332   2.461
    0         C  269   4.844   3.410   2.480
    0         C  270   4.722   3.203   2.529
    0         C  271   4.722   3.341   2.498
    0         C  272   4.600   3.137   2.557
    0         C  273   4.478   3.205   2.536
    0         C  274   4.356   3.010   2.617
    0         C  275   4.356   3.138   2.558
    0         C  276   4.234   2.949   2.653
    0         C  277   4.111   3.010   2.616
    0         C  278   3.989   2.836   2.737
    0         C  279   3.989   2.949   2.652
    0         C  280   3.867   2.785   2.785
    0         C  281   3.744   2.836   2.737
    0         C  282   3.622   2.692   2.891
    0         C  283   3.622   2.785   2.785
    0         C  284   3.500   2.652   2.949
    0         C  285   3.378   2.692   2.891
    0         C  286   3.255   2.584   3.073
    0         C  287   3.255   2.652   2.949
    0         C  288   3.133   2.556   3.138
    0         C  289   3.011   2.584   3.073
    0         C  290   2.888   2.516   3.273
    0         C  291   2.888   2.557   3.138
    0         C  292   2.766   2.503   3.342
    0         C  293   2.644   2.517   3.273
    0         C  294   2.522   2.491   3.483
    0         C  295   2.522   2.504   3.343
    0         C  296   2.400   2.490   3.554
    0         C  297   2.278   2.482   3.484
    0         C  298   2.157   2.486   3.697
    0         C  299   2.157   2.469   3.555
    0         C  300   2.040   2.478   3.776
    0         C  301   4.960   3.194   2.486
    0         C  302   4.846   3.007   2.609
    0         C  303   4.845   3.132   2.540
    0         C  304   4.723   2.948   2.651
    0         C  305   4.601   3.009   2.616
    0         C  306   4.478   2.837   2.738
    0         C  307   4.478   2.949   2.653
    0         C  308   4.356   2.786   2.787
    0         C  309   4.234   2.837   2.738
    0         C  310   4.111   2.693   2.892
    0         C  311   4.111   2.785   2.786
    0         C  312   3.989   2.652   2.950
    0         C  313   3.867   2.692   2.892
    0         C  314   3.744   2.583   3.073
    0         C  315   3.744   2.652   2.949
    0         C  316   3.622   2.556   3.138
    0         C  317   3.500   2.584   3.073
    0         C  318   3.377   2.515   3.273
    0         C  319   3.377   2.556   3.138
    0         C  320   3.255   2.502   3.342
    0         C  321   3.133   2.515   3.273
    0         C  322   3.011   2.490   3.483
    0         C  323   3.011   2.502   3.342
    0         C  324   2.889   2.492   3.554
    0         C  325   2.766   2.491   3.483
    0         C  326   2.644   2.510   3.693
    0         C  327   2.644   2.493   3.553
    0         C  328   2.522   2.526   3.762
    0         C  329   2.400   2.507   3.693
    0         C  330   2.278   2.563   3.897
    0         C  331   2.278   2.516   3.763
    0         C  332   2.155   2.582   3.965
    0         C  333   2.040   2.521   3.910
    0         C  334   4.965   2.835   2.736
    0         C  335   4.966   2.947   2.653
    0         C  336   4.845   2.779   2.783
    0         C  337   4.723   2.835   2.737
    0         C  338   4.600   2.693   2.893
    0         C  339   4.600   2.785   2.786
    0         C  340   4.478   2.653   2.951
    0         C  341   4.355   2.694   2.893
    0         C  342   4.233   2.584   3.074
    0         C  343   4.233   2.653   2.951
    0         C  344   4.111   2.556   3.139
    0         C  345   3.989   2.584   3.073
    0         C  346   3.866   2.515   3.273
    0         C  347   3.866   2.556   3.138
    0         C  348   3.744   2.501   3.343
    0         C  349   3.622   2.515   3.273
    0         C  350   3.499   2.489   3.483
    0         C  351   3.500   2.502   3.343
    0         C  352   3.377   2.491   3.554
    0         C  353   3.255   2.490   3.483
    0         C  354   3.133   2.508   3.694
    0         C  355   3.133   2.491   3.554
    0         C  356   3.011   2.524   3.763
    0         C  357   2.888   2.509   3.694
    0         C  358   2.766   2.571   3.896
    0         C  359   2.766   2.526   3.762
    0         C  360   2.644   2.601   3.959
    0         C  361   2.522   2.571   3.895
    0         C  362   2.398   2.672   4.080
    0         C  363   2.399   2.599   3.959
    0         C  364   2.275   2.713   4.136
    0         C  365   2.153   2.665   4.082
    0         C  366   2.033   2.810   4.237
    0         C  367   2.033   2.715   4.136
    0         C  368   4.959   2.614   2.930
    0         C  369   4.843   2.680   2.885
    0         C  370   4.721   2.578   3.072
    0         C  371   4.721   2.648   2.948
    0         C  372   4.600   2.555   3.139
    0         C  373   4.477   2.585   3.075
    0         C  374   4.355   2.515   3.274
    0         C  375   4.355   2.557   3.139
    0         C  376   4.233   2.502   3.343
    0         C  377   4.111   2.515   3.274
    0         C  378   3.988   2.489   3.484
    0         C  379   3.988   2.501   3.343
    0         C  380   3.866   2.490   3.554
    0         C  381   3.744   2.489   3.483
    0         C  382   3.622   2.508   3.694
    0         C  383   3.622   2.490   3.554
    0         C  384   3.499   2.524   3.763
    0         C  385   3.377   2.508   3.694
    0         C  386   3.255   2.570   3.897
    0         C  387   3.255   2.524   3.763
    0         C  388   3.133   2.599   3.961
    0         C  389   3.010   2.570   3.896
    0         C  390   2.888   2.672   4.081
    0         C  391   2.888   2.600   3.960
    0         C  392   2.765   2.715   4.137
    0         C  393   2.643   2.673   4.080
    0         C  394   2.520   2.813   4.239
    0         C  395   2.520   2.716   4.136
    0         C  396   2.398   2.866   4.285
    0         C  397   2.275   2.812   4.239
    0         C  398   2.153   2.979   4.373
    0         C  399   2.152   2.865   4.288
    0         C  400   2.035   3.038   4.423
    0         C  401   4.960   2.540   3.049
    0         C  402   4.845   2.507   3.271
    0         C  403   4.844   2.539   3.131
    0         C  404   4.723   2.498   3.342
    0         C  405   4.600   2.514   3.274
    0         C  406   4.478   2.490   3.484
    0         C  407   4.478   2.502   3.343
    0         C  408   4.355   2.491   3.554
    0         C  409   4.233   2.490   3.484
    0         C  410   4.110   2.508   3.694
    0         C  411   4.111   2.491   3.554
    0         C  412   3.988   2.523   3.763
    0         C  413   3.866   2.507   3.694
    0         C  414   3.744   2.569   3.897
    0         C  415   3.744   2.523   3.763
    0         C  416   3.621   2.599   3.961
    0         C  417   3.499   2.569   3.897
    0         C  418   3.377   2.671   4.082
    0         C  419   3.377   2.599   3.961
    0         C  420   3.255   2.714   4.138
    0         C  421   3.132   2.672   4.082
    0         C  422   3.010   2.811   4.241
    0         C  423   3.010   2.714   4.138
    0         C  424   2.888   2.864   4.287
    0         C  425   2.765   2.811   4.240
    0         C  426   2.643   2.981   4.366
    0         C  427   2.643   2.865   4.286
    0         C  428   2.521   3.043   4.400
    0         C  429   2.398   2.982   4.365
    0         C  430   2.277   3.173   4.461
    0         C  431   2.276   3.043   4.403
    0         C  432   2.155   3.238   4.493
    0         C  433   2.036   3.164   4.481
    0         C  434   4.965   2.486   3.483
    0         C  435   4.965   2.499   3.345
    0         C  436   4.844   2.483   3.556
    0         C  437   4.722   2.487   3.484
    0         C  438   4.599   2.508   3.694
    0         C  439   4.600   2.490   3.554
    0         C  440   4.477   2.525   3.763
    0         C  441   4.355   2.509   3.694
    0         C  442   4.233   2.570   3.896
    0         C  443   4.233   2.524   3.763
    0         C  444   4.110   2.599   3.961
    0         C  445   3.988   2.569   3.897
    0         C  446   3.866   2.671   4.082
    0         C  447   3.866   2.599   3.961
    0         C  448   3.744   2.714   4.139
    0         C  449   3.621   2.671   4.082
    0         C  450   3.499   2.810   4.242
    0         C  451   3.499   2.714   4.139
    0         C  452   3.377   2.863   4.288
    0         C  453   3.255   2.810   4.242
    0         C  454   3.132   2.979   4.369
    0         C  455   3.132   2.864   4.288
    0         C  456   3.010   3.041   4.403
    0         C  457   2.888   2.980   4.368
    0         C  458   2.766   3.172   4.456
    0         C  459   2.765   3.042   4.401
    0         C  460   2.644   3.240   4.476
    0         C  461   2.521   3.173   4.455
    0         C  462   2.400   3.379   4.505
    0         C  463   2.399   3.241   4.478
    0         C  464   2.278   3.449   4.518
    0         C  465   2.157   3.377   4.524
    0         C  466   2.040   3.590   4.560
    0         C  467   2.040   3.450   4.558
    0         C  468   4.959   2.482   3.777
    0         C  469   4.843   2.493   3.699
    0         C  470   4.721   2.564   3.899
    0         C  471   4.721   2.518   3.765
    0         C  472   4.599   2.598   3.961
    0         C  473   4.477   2.571   3.896
    0         C  474   4.355   2.672   4.082
    0         C  475   4.355   2.600   3.960
    0         C  476   4.233   2.714   4.138
    0         C  477   4.110   2.671   4.082
    0         C  478   3.988   2.810   4.242
    0         C  479   3.988   2.714   4.139
    0         C  480   3.866   2.863   4.288
    0         C  481   3.744   2.810   4.242
    0         C  482   3.621   2.979   4.370
    0         C  483   3.621   2.863   4.288
    0         C  484   3.499   3.041   4.404
    0         C  485   3.377   2.979   4.369
    0         C  486   3.255   3.171   4.458
    0         C  487   3.255   3.041   4.403
    0         C  488   3.133   3.239   4.479
    0         C  489   3.010   3.171   4.458
    0         C  490   2.888   3.378   4.505
    0         C  491   2.888   3.239   4.478
    0         C  492   2.766   3.448   4.510
    0         C  493   2.644   3.378   4.503
    0         C  494   2.522   3.590   4.508
    0         C  495   2.522   3.449   4.510
    0         C  496   2.400   3.660   4.501
    0         C  497   2.278   3.591   4.516
    0         C  498   2.154   3.799   4.477
    0         C  499   2.156   3.662   4.519
    0         C  500   2.035   3.866   4.446
    0         C  501   4.959   2.522   3.912
    0         C  502   4.845   2.663   4.086
    0         C  503   4.844   2.582   3.968
    0         C  504   4.722   2.711   4.140
    0         C  505   4.600   2.670   4.083
    0         C  506   4.477   2.810   4.241
    0         C  507   4.477   2.714   4.138
    0         C  508   4.355   2.863   4.287
    0         C  509   4.233   2.810   4.241
    0         C  510   4.110   2.979   4.369
    0         C  511   4.110   2.863   4.288
    0         C  512   3.988   3.041   4.403
    0         C  513   3.866   2.979   4.369
    0         C  514   3.744   3.171   4.459
    0         C  515   3.744   3.041   4.404
    0         C  516   3.622   3.238   4.480
    0         C  517   3.499   3.171   4.459
    0         C  518   3.377   3.377   4.506
    0         C  519   3.377   3.238   4.479
    0         C  520   3.255   3.448   4.512
    0         C  521   3.133   3.377   4.506
    0         C  522   3.011   3.589   4.509
    0         C  523   3.011   3.448   4.511
    0         C  524   2.889   3.659   4.500
    0         C  525   2.767   3.589   4.508
    0         C  526   2.644   3.797   4.469
    0         C  527   2.644   3.660   4.500
    0         C  528   2.522   3.864   4.446
    0         C  529   2.400   3.798   4.470
    0         C  530   2.277   3.993   4.388
    0         C  531   2.277   3.865   4.449
    0         C  532   2.155   4.058   4.355
    0         C  533   2.035   3.993   4.389
    0         C  534   4.964   2.807   4.244
    0         C  535   4.965   2.714   4.141
    0         C  536   4.844   2.859   4.295
    0         C  537   4.722   2.808   4.244
    0         C  538   4.599   2.978   4.369
    0         C  539   4.599   2.863   4.288
    0         C  540   4.477   3.041   4.402
    0         C  541   4.355   2.979   4.368
    0         C  542   4.233   3.171   4.458
    0         C  543   4.233   3.041   4.402
    0         C  544   4.111   3.238   4.479
    0         C  545   3.988   3.171   4.459
    0         C  546   3.866   3.377   4.506
    0         C  547   3.866   3.238   4.479
    0         C  548   3.744   3.447   4.512
    0         C  549   3.622   3.377   4.506
    0         C  550   3.500   3.589   4.510
    0         C  551   3.500   3.447   4.512
    0         C  552   3.378   3.659   4.501
    0         C  553   3.255   3.589   4.510
    0         C  554   3.133   3.797   4.469
    0         C  555   3.133   3.659   4.501
    0         C  556   3.011   3.864   4.446
    0         C  557   2.889   3.797   4.469
    0         C  558   2.767   3.991   4.386
    0         C  559   2.767   3.864   4.446
    0         C  560   2.645   4.052   4.349
    0         C  561   2.522   3.992   4.386
    0         C  562   2.401   4.165   4.265
    0         C  563   2.400   4.053   4.350
    0         C  564   2.279   4.221   4.221
    0         C  565   2.157   4.177   4.277
    0         C  566   2.042   4.349   4.147
    0         C  567   2.042   4.251   4.248
    0         C  568   4.958   3.022   4.445
    0         C  569   4.842   2.971   4.383
    0         C  570   4.721   3.168   4.465
    0         C  571   4.721   3.037   4.409
    0         C  572   4.599   3.237   4.480
    0         C  573   4.477   3.171   4.457
    0         C  574   4.356   3.377   4.505
    0         C  575   4.355   3.238   4.478
    0         C  576   4.233   3.447   4.511
    0         C  577   4.111   3.377   4.506
    0         C  578   3.989   3.588   4.510
    0         C  579   3.989   3.447   4.512
    0         C  580   3.867   3.658   4.501
    0         C  581   3.744   3.588   4.510
    0         C  582   3.622   3.796   4.469
    0         C  583   3.622   3.659   4.501
    0         C  584   3.500   3.863   4.446
    0         C  585   3.378   3.796   4.469
    0         C  586   3.256   3.991   4.386
    0         C  587   3.256   3.863   4.446
    0         C  588   3.134   4.052   4.350
    0         C  589   3.011   3.992   4.386
    0         C  590   2.889   4.164   4.264
    0         C  591   2.889   4.052   4.350
    0         C  592   2.767   4.216   4.216
    0         C  593   2.645   4.164   4.264
    0         C  594   2.523   4.308   4.109
    0         C  595   2.523   4.215   4.216
    0         C  596   2.401   4.351   4.053
    0         C  597   2.279   4.315   4.115
    0         C  598   2.155   4.428   3.937
    0         C  599   2.157   4.367   4.066
    0         C  600   2.035   4.455   3.868
    0         C  601   4.959   3.148   4.506
    0         C  602   4.845   3.373   4.515
    0         C  603   4.843   3.230   4.498
    0         C  604   4.723   3.445   4.515
    0         C  605   4.600   3.376   4.507
    0         C  606   4.479   3.588   4.508
    0         C  607   4.478   3.447   4.511
    0         C  608   4.356   3.658   4.499
    0         C  609   4.234   3.588   4.509
    0         C  610   4.111   3.796   4.468
    0         C  611   4.111   3.658   4.500
    0         C  612   3.989   3.862   4.446
    0         C  613   3.867   3.796   4.469
    0         C  614   3.745   3.991   4.386
    0         C  615   3.745   3.863   4.446
    0         C  616   3.622   4.051   4.350
    0         C  617   3.500   3.991   4.386
    0         C  618   3.378   4.165   4.265
    0         C  619   3.378   4.052   4.350
    0         C  620   3.256   4.216   4.217
    0         C  621   3.134   4.165   4.265
    0         C  622   3.011   4.309   4.110
    0         C  623   3.011   4.216   4.216
    0         C  624   2.889   4.349   4.052
    0         C  625   2.767   4.308   4.109
    0         C  626   2.645   4.417   3.928
    0         C  627   2.645   4.348   4.051
    0         C  628   2.522   4.445   3.863
    0         C  629   2.400   4.419   3.930
    0         C  630   2.277   4.487   3.729
    0         C  631   2.277   4.449   3.867
    0         C  632   2.154   4.503   3.660
    0         C  633   2.035   4.494   3.735
    0         C  634   4.966   3.585   4.512
    0         C  635   4.965   3.446   4.516
    0         C  636   4.846   3.659   4.504
    0         C  637   4.723   3.588   4.510
    0         C  638   4.601   3.795   4.467
    0         C  639   4.601   3.658   4.499
    0         C  640   4.478   3.862   4.443
    0         C  641   4.356   3.795   4.467
    0         C  642   4.234   3.990   4.385
    0         C  643   4.234   3.862   4.445
    0         C  644   4.111   4.050   4.349
    0         C  645   3.989   3.990   4.386
    0         C  646   3.867   4.164   4.264
    0         C  647   3.867   4.051   4.349
    0         C  648   3.745   4.216   4.217
    0         C  649   3.622   4.164   4.265
    0         C  650   3.500   4.309   4.110
    0         C  651   3.500   4.216   4.217
    0         C  652   3.378   4.350   4.052
    0         C  653   3.256   4.309   4.110
    0         C  654   3.134   4.418   3.929
    0         C  655   3.134   4.350   4.052
    0         C  656   3.011   4.446   3.864
    0         C  657   2.889   4.418   3.928
    0         C  658   2.766   4.487   3.729
    0         C  659   2.767   4.445   3.863
    0         C  660   2.644   4.499   3.659
    0         C  661   2.522   4.485   3.728
    0         C  662   2.399   4.511   3.518
    0         C  663   2.399   4.499   3.659
    0         C  664   2.277   4.512   3.447
    0         C  665   2.154   4.516   3.518
    0         C  666   2.035   4.520   3.443
    0         C  667   4.964   3.875   4.465
    0         C  668   4.845   3.799   4.475
    0         C  669   4.722   3.993   4.389
    0         C  670   4.723   3.863   4.447
    0         C  671   4.600   4.051   4.349
    0         C  672   4.478   3.989   4.384
    0         C  673   4.356   4.163   4.263
    0         C  674   4.356   4.050   4.348
    0         C  675   4.233   4.215   4.215
    0         C  676   4.111   4.163   4.264
    0         C  677   3.989   4.309   4.110
    0         C  678   3.989   4.215   4.216
    0         C  679   3.867   4.349   4.052
    0         C  680   3.745   4.309   4.110
    0         C  681   3.623   4.418   3.929
    0         C  682   3.623   4.350   4.052
    0         C  683   3.500   4.446   3.864
    0         C  684   3.378   4.419   3.929
    0         C  685   3.256   4.488   3.729
    0         C  686   3.256   4.446   3.864
    0         C  687   3.134   4.501   3.660
    0         C  688   3.011   4.488   3.729
    0         C  689   2.889   4.513   3.519
    0         C  690   2.889   4.501   3.659
    0         C  691   2.767   4.511   3.448
    0         C  692   2.644   4.512   3.519
    0         C  693   2.522   4.510   3.448
    0         C  694   4.963   4.002   4.409
    0         C  695   4.843   4.177   4.279
    0         C  696   4.844   4.061   4.362
    0         C  697   4.721   4.220   4.222
    0         C  698   4.600   4.164   4.265
    0         C  699   4.478   4.307   4.109
    0         C  700   4.478   4.214   4.215
    0         C  701   4.356   4.348   4.052
    0         C  702   4.234   4.308   4.109
    0         C  703   4.112   4.418   3.929
    0         C  704   4.111   4.349   4.052
    0         C  705   3.989   4.446   3.864
    0         C  706   3.867   4.418   3.929
    0         C  707   3.745   4.488   3.729
    0         C  708   3.745   4.446   3.864
    0         C  709   3.623   4.501   3.660
    0         C  710   3.500   4.488   3.729
    0         C  711   3.378   4.514   3.519
    0         C  712   3.378   4.501   3.660
    0         C  713   3.256   4.513   3.448
    0         C  714   3.134   4.514   3.519
    0         C  715   3.011   4.512   3.448
    0         C  716   4.960   4.346   4.145
    0         C  717   4.959   4.250   4.248
    0         C  718   4.844   4.364   4.065
    0         C  719   4.722   4.314   4.115
    0         C  720   4.601   4.418   3.930
    0         C  721   4.600   4.349   4.053
    0         C  722   4.479   4.445   3.864
    0         C  723   4.356   4.417   3.929
    0         C  724   4.234   4.486   3.729
    0         C  725   4.234   4.445   3.864
    0         C  726   4.112   4.500   3.660
    0         C  727   3.989   4.487   3.729
    0         C  728   3.867   4.513   3.519
    0         C  729   3.867   4.501   3.660
    0         C  730   3.745   4.512   3.448
    0         C  731   3.623   4.514   3.519
    0         C  732   3.501   4.513   3.448
    0         C  733   4.966   4.445   3.863
    0         C  734   4.846   4.424   3.935
    0         C  735   4.724   4.488   3.730
    0         C  736   4.724   4.447   3.866
    0         C  737   4.601   4.499   3.660
    0         C  738   4.479   4.486   3.729
    0         C  739   4.356   4.511   3.519
    0         C  740   4.356   4.499   3.660
    0         C  741   4.234   4.510   3.449
    0         C  742   4.112   4.512   3.519
    0         C  743   3.990   4.512   3.449
    0         C  744   4.966   4.487   3.731
    0         C  745   4.844   4.526   3.519
    0         C  746   4.846   4.506   3.660
    0         C  747   4.722   4.515   3.449
    0         C  748   4.601   4.511   3.520
    0         C  749   4.479   4.509   3.449
    0         C  750   4.961   4.552   3.444
    0         O  751   5.071   2.494   3.991
    0         H  752   5.147   2.449   3.941
    0         O  753   5.070   3.187   4.581
    0         H  754   5.146   3.120   4.582
    0         O  755   5.072   2.463   3.082
    0         H  756   5.148   2.470   3.015
    0         O  757   5.072   4.428   4.129
    0         H  758   5.148   4.408   4.193
    0         O  759   5.073   4.586   3.233
    0         H  760   5.149   4.619   3.291
    0         O  761   5.072   3.118   2.450
    0         H  762   5.148   3.173   2.411
    0         O  763   5.073   4.026   2.514
    0         H  764   5.149   4.092   2.529
    0         O  765   1.927   2.494   3.989
    0         H  766   1.852   2.447   3.940
    0         O  767   1.926   2.411   3.270
    0         H  768   1.850   2.379   3.329
    0         O  769   1.928   3.657   4.610
    0         H  770   1.852   3.596   4.638
    0         O  771   1.928   2.942   2.532
    0         H  772   1.852   2.877   2.549
    0         O  773   1.929   3.847   2.437
    0         H  774   1.852   3.791   2.399
    0         O  775   1.931   4.530   3.039
    0         H  776   1.856   4.521   2.971
    0         O  777   1.931   4.434   4.134
    0         H  778   1.855   4.413   4.199
    0         H  779   5.061   2.692   4.099
    0         H  780   5.061   2.845   4.274
    0         H  781   5.049   2.964   4.448
    0         H  782   5.062   3.400   4.506
    0         H  783   5.063   3.631   4.507
    0         H  784   5.050   2.442   3.737
    0         H  785   5.061   2.489   3.532
    0         H  786   5.062   2.516   3.301
    0         H  787   5.051   2.617   2.873
    0         H  788   5.062   2.802   2.771
    0         H  789   5.062   2.991   2.637
    0         H  790   5.051   3.377   2.425
    0         H  791   5.062   3.576   2.494
    0         H  792   5.063   3.803   2.545
    0         H  793   5.052   4.218   2.689
    0         H  794   5.063   4.300   2.884
    0         H  795   5.063   4.414   3.086
    0         H  796   5.052   4.583   3.492
    0         H  797   5.062   4.493   3.683
    0         H  798   5.063   4.419   3.903
    0         H  799   5.051   4.236   4.302
    0         H  800   5.059   4.049   4.397
    0         H  801   5.060   3.838   4.496
    0         H  802   1.948   3.400   4.583
    0         H  803   1.940   3.205   4.508
    0         H  804   1.939   2.990   4.416
    0         H  805   1.936   2.846   4.267
    0         H  806   1.937   2.693   4.094
    0         H  807   1.948   2.440   3.736
    0         H  808   1.947   2.419   3.528
    0         H  809   1.937   2.579   3.120
    0         H  810   1.938   2.685   2.913
    0         H  811   1.949   2.757   2.715
    0         H  812   1.938   3.166   2.553
    0         H  813   1.939   3.391   2.495
    0         H  814   1.950   3.588   2.420
    0         H  815   1.939   3.981   2.618
    0         H  816   1.951   4.366   2.837
    0         H  817   1.940   4.176   2.745
    0         H  818   1.939   4.492   3.260
    0         H  819   1.937   4.526   3.488
    0         H  820   1.937   4.509   3.692
    0         H  821   1.938   4.435   3.910
    0         H  822   1.951   4.237   4.304
    0         H  823   1.939   4.033   4.361
    0         H  824   1.938   3.820   4.453
   7.00000   7.00000   7.00000
