CNT in water
33632
    1C        C    1   2.242   4.540   3.294
    1C        C    2   2.116   4.531   3.218
    1C        C    3   1.994   4.540   3.292
    1C        C    4   2.747   4.534   3.301
    1C        C    5   2.622   4.524   3.228
    1C        C    6   2.495   4.537   3.299
    1C        C    7   2.371   4.477   3.088
    1C        C    8   2.369   4.524   3.225
    1C        C    9   2.246   4.453   3.017
    1C        C   10   2.118   4.492   3.076
    1C        C   11   2.009   4.435   2.861
    1C        C   12   2.012   4.515   2.979
    1C        C   13   3.251   4.539   3.303
    1C        C   14   3.126   4.524   3.231
    1C        C   15   2.999   4.534   3.303
    1C        C   16   2.875   4.479   3.090
    1C        C   17   2.874   4.522   3.230
    1C        C   18   2.749   4.452   3.021
    1C        C   19   2.623   4.479   3.089
    1C        C   20   2.498   4.375   2.895
    1C        C   21   2.497   4.451   3.020
    1C        C   22   2.372   4.332   2.835
    1C        C   23   2.246   4.377   2.891
    1C        C   24   2.119   4.246   2.717
    1C        C   25   2.122   4.358   2.816
    1C        C   26   1.996   4.189   2.667
    1C        C   27   3.757   4.544   3.305
    1C        C   28   3.631   4.531   3.232
    1C        C   29   3.504   4.542   3.304
    1C        C   30   3.379   4.481   3.093
    1C        C   31   3.378   4.527   3.231
    1C        C   32   3.254   4.452   3.025
    1C        C   33   3.127   4.479   3.092
    1C        C   34   3.002   4.380   2.896
    1C        C   35   3.001   4.454   3.022
    1C        C   36   2.876   4.336   2.836
    1C        C   37   2.750   4.376   2.896
    1C        C   38   2.624   4.231   2.732
    1C        C   39   2.624   4.334   2.836
    1C        C   40   2.498   4.174   2.685
    1C        C   41   2.372   4.228   2.733
    1C        C   42   2.244   4.056   2.599
    1C        C   43   2.246   4.181   2.677
    1C        C   44   2.116   3.996   2.557
    1C        C   45   1.997   4.074   2.584
    1C        C   46   4.262   4.541   3.309
    1C        C   47   4.136   4.529   3.236
    1C        C   48   4.009   4.543   3.307
    1C        C   49   3.884   4.483   3.095
    1C        C   50   3.883   4.531   3.233
    1C        C   51   3.758   4.452   3.028
    1C        C   52   3.632   4.481   3.095
    1C        C   53   3.507   4.372   2.904
    1C        C   54   3.506   4.452   3.027
    1C        C   55   3.381   4.328   2.845
    1C        C   56   3.254   4.374   2.902
    1C        C   57   3.129   4.232   2.736
    1C        C   58   3.129   4.336   2.838
    1C        C   59   3.003   4.176   2.688
    1C        C   60   2.876   4.232   2.734
    1C        C   61   2.750   4.054   2.605
    1C        C   62   2.750   4.177   2.683
    1C        C   63   2.624   3.989   2.570
    1C        C   64   2.497   4.052   2.606
    1C        C   65   2.370   3.853   2.517
    1C        C   66   2.370   3.990   2.567
    1C        C   67   2.243   3.784   2.494
    1C        C   68   2.114   3.855   2.507
    1C        C   69   2.004   3.649   2.413
    1C        C   70   1.994   3.781   2.463
    1C        C   71   4.767   4.527   3.316
    1C        C   72   4.641   4.517   3.243
    1C        C   73   4.514   4.534   3.313
    1C        C   74   4.389   4.480   3.101
    1C        C   75   4.389   4.525   3.239
    1C        C   76   4.263   4.451   3.033
    1C        C   77   4.137   4.481   3.098
    1C        C   78   4.012   4.375   2.905
    1C        C   79   4.011   4.455   3.028
    1C        C   80   3.886   4.329   2.846
    1C        C   81   3.759   4.372   2.906
    1C        C   82   3.634   4.229   2.739
    1C        C   83   3.634   4.330   2.845
    1C        C   84   3.508   4.174   2.691
    1C        C   85   3.382   4.226   2.742
    1C        C   86   3.255   4.051   2.613
    1C        C   87   3.255   4.175   2.690
    1C        C   88   3.129   3.985   2.582
    1C        C   89   3.002   4.050   2.614
    1C        C   90   2.876   3.851   2.523
    1C        C   91   2.876   3.987   2.575
    1C        C   92   2.750   3.783   2.496
    1C        C   93   2.623   3.853   2.517
    1C        C   94   2.497   3.641   2.464
    1C        C   95   2.497   3.784   2.494
    1C        C   96   2.371   3.568   2.454
    1C        C   97   2.245   3.639   2.463
    1C        C   98   2.119   3.421   2.446
    1C        C   99   2.121   3.569   2.432
    1C        C  100   1.996   3.345   2.456
    1C        C  101   5.012   4.582   3.319
    1C        C  102   4.896   4.483   3.104
    1C        C  103   4.896   4.528   3.245
    1C        C  104   4.769   4.455   3.034
    1C        C  105   4.642   4.478   3.102
    1C        C  106   4.516   4.374   2.911
    1C        C  107   4.516   4.453   3.033
    1C        C  108   4.390   4.327   2.853
    1C        C  109   4.264   4.372   2.910
    1C        C  110   4.139   4.223   2.748
    1C        C  111   4.138   4.330   2.848
    1C        C  112   4.013   4.172   2.694
    1C        C  113   3.887   4.228   2.741
    1C        C  114   3.761   4.054   2.606
    1C        C  115   3.761   4.175   2.689
    1C        C  116   3.634   3.990   2.571
    1C        C  117   3.508   4.053   2.609
    1C        C  118   3.381   3.852   2.526
    1C        C  119   3.381   3.989   2.575
    1C        C  120   3.255   3.781   2.508
    1C        C  121   3.129   3.849   2.531
    1C        C  122   3.003   3.640   2.465
    1C        C  123   3.002   3.782   2.502
    1C        C  124   2.876   3.568   2.450
    1C        C  125   2.750   3.641   2.462
    1C        C  126   2.624   3.422   2.458
    1C        C  127   2.624   3.568   2.454
    1C        C  128   2.498   3.349   2.463
    1C        C  129   2.372   3.421   2.454
    1C        C  130   2.245   3.205   2.492
    1C        C  131   2.246   3.348   2.456
    1C        C  132   2.118   3.133   2.512
    1C        C  133   1.997   3.207   2.488
    1C        C  134   5.018   4.363   2.920
    1C        C  135   5.017   4.446   3.034
    1C        C  136   4.896   4.324   2.855
    1C        C  137   4.769   4.374   2.911
    1C        C  138   4.642   4.209   2.769
    1C        C  139   4.643   4.326   2.856
    1C        C  140   4.517   4.150   2.725
    1C        C  141   4.391   4.213   2.762
    1C        C  142   4.265   4.035   2.636
    1C        C  143   4.265   4.160   2.711
    1C        C  144   4.139   3.977   2.591
    1C        C  145   4.013   4.048   2.615
    1C        C  146   3.886   3.852   2.518
    1C        C  147   3.887   3.988   2.572
    1C        C  148   3.760   3.782   2.498
    1C        C  149   3.634   3.853   2.521
    1C        C  150   3.507   3.638   2.483
    1C        C  151   3.508   3.782   2.503
    1C        C  152   3.381   3.566   2.475
    1C        C  153   3.255   3.638   2.481
    1C        C  154   3.128   3.422   2.465
    1C        C  155   3.129   3.567   2.461
    1C        C  156   3.002   3.350   2.474
    1C        C  157   2.876   3.422   2.459
    1C        C  158   2.750   3.210   2.511
    1C        C  159   2.750   3.350   2.468
    1C        C  160   2.623   3.140   2.532
    1C        C  161   2.498   3.209   2.505
    1C        C  162   2.371   3.014   2.599
    1C        C  163   2.372   3.139   2.524
    1C        C  164   2.245   2.953   2.637
    1C        C  165   2.118   3.003   2.583
    1C        C  166   2.005   2.801   2.678
    1C        C  167   2.010   2.905   2.580
    1C        C  168   5.005   4.189   2.666
    1C        C  169   4.894   4.221   2.751
    1C        C  170   4.770   4.023   2.652
    1C        C  171   4.768   4.152   2.724
    1C        C  172   4.643   3.961   2.615
    1C        C  173   4.517   4.026   2.649
    1C        C  174   4.391   3.840   2.535
    1C        C  175   4.391   3.968   2.604
    1C        C  176   4.264   3.775   2.504
    1C        C  177   4.138   3.846   2.528
    1C        C  178   4.011   3.636   2.470
    1C        C  179   4.012   3.780   2.496
    1C        C  180   3.885   3.564   2.465
    1C        C  181   3.759   3.638   2.476
    1C        C  182   3.632   3.419   2.468
    1C        C  183   3.633   3.565   2.472
    1C        C  184   3.506   3.347   2.475
    1C        C  185   3.381   3.420   2.472
    1C        C  186   3.253   3.208   2.515
    1C        C  187   3.254   3.348   2.474
    1C        C  188   3.127   3.143   2.546
    1C        C  189   3.001   3.212   2.520
    1C        C  190   2.875   3.010   2.602
    1C        C  191   2.875   3.141   2.539
    1C        C  192   2.748   2.944   2.634
    1C        C  193   2.623   3.009   2.597
    1C        C  194   2.495   2.834   2.726
    1C        C  195   2.496   2.948   2.635
    1C        C  196   2.369   2.784   2.779
    1C        C  197   2.243   2.841   2.733
    1C        C  198   2.114   2.693   2.887
    1C        C  199   2.118   2.772   2.763
    1C        C  200   1.993   2.673   2.963
    1C        C  201   5.006   4.071   2.587
    1C        C  202   4.897   3.838   2.537
    1C        C  203   4.896   3.974   2.594
    1C        C  204   4.769   3.771   2.505
    1C        C  205   4.643   3.835   2.542
    1C        C  206   4.516   3.632   2.466
    1C        C  207   4.517   3.772   2.506
    1C        C  208   4.389   3.560   2.457
    1C        C  209   4.263   3.633   2.471
    1C        C  210   4.136   3.416   2.463
    1C        C  211   4.137   3.562   2.459
    1C        C  212   4.010   3.345   2.475
    1C        C  213   3.884   3.418   2.468
    1C        C  214   3.758   3.203   2.507
    1C        C  215   3.758   3.345   2.472
    1C        C  216   3.631   3.135   2.534
    1C        C  217   3.506   3.205   2.512
    1C        C  218   3.379   3.008   2.604
    1C        C  219   3.379   3.137   2.535
    1C        C  220   3.252   2.949   2.646
    1C        C  221   3.126   3.014   2.613
    1C        C  222   3.000   2.830   2.729
    1C        C  223   3.000   2.948   2.643
    1C        C  224   2.873   2.773   2.774
    1C        C  225   2.747   2.827   2.722
    1C        C  226   2.620   2.682   2.885
    1C        C  227   2.621   2.775   2.772
    1C        C  228   2.494   2.643   2.947
    1C        C  229   2.368   2.689   2.890
    1C        C  230   2.240   2.571   3.074
    1C        C  231   2.241   2.644   2.946
    1C        C  232   2.113   2.545   3.143
    1C        C  233   1.993   2.601   3.085
    1C        C  234   5.017   3.627   2.482
    1C        C  235   5.016   3.758   2.533
    1C        C  236   4.895   3.555   2.452
    1C        C  237   4.768   3.630   2.460
    1C        C  238   4.640   3.413   2.453
    1C        C  239   4.641   3.559   2.448
    1C        C  240   4.514   3.341   2.467
    1C        C  241   4.388   3.414   2.461
    1C        C  242   4.262   3.201   2.507
    1C        C  243   4.262   3.342   2.467
    1C        C  244   4.136   3.133   2.534
    1C        C  245   4.010   3.204   2.513
    1C        C  246   3.883   2.999   2.592
    1C        C  247   3.883   3.132   2.530
    1C        C  248   3.757   2.937   2.631
    1C        C  249   3.631   3.005   2.600
    1C        C  250   3.504   2.829   2.729
    1C        C  251   3.504   2.945   2.640
    1C        C  252   3.378   2.777   2.780
    1C        C  253   3.252   2.833   2.734
    1C        C  254   3.125   2.675   2.884
    1C        C  255   3.126   2.773   2.776
    1C        C  256   2.998   2.633   2.943
    1C        C  257   2.872   2.679   2.885
    1C        C  258   2.746   2.571   3.075
    1C        C  259   2.746   2.637   2.944
    1C        C  260   2.620   2.547   3.143
    1C        C  261   2.493   2.578   3.077
    1C        C  262   2.368   2.511   3.284
    1C        C  263   2.367   2.547   3.143
    1C        C  264   2.242   2.491   3.354
    1C        C  265   2.114   2.494   3.281
    1C        C  266   2.004   2.404   3.487
    1C        C  267   2.003   2.425   3.346
    1C        C  268   5.009   3.327   2.417
    1C        C  269   4.893   3.409   2.441
    1C        C  270   4.766   3.198   2.499
    1C        C  271   4.766   3.339   2.457
    1C        C  272   4.640   3.130   2.527
    1C        C  273   4.514   3.200   2.507
    1C        C  274   4.388   3.000   2.594
    1C        C  275   4.388   3.131   2.530
    1C        C  276   4.262   2.938   2.632
    1C        C  277   4.135   3.002   2.597
    1C        C  278   4.009   2.821   2.720
    1C        C  279   4.009   2.936   2.630
    1C        C  280   3.883   2.767   2.769
    1C        C  281   3.756   2.822   2.720
    1C        C  282   3.630   2.675   2.883
    1C        C  283   3.630   2.769   2.772
    1C        C  284   3.504   2.635   2.945
    1C        C  285   3.378   2.682   2.890
    1C        C  286   3.251   2.563   3.073
    1C        C  287   3.251   2.633   2.944
    1C        C  288   3.124   2.536   3.140
    1C        C  289   2.998   2.567   3.074
    1C        C  290   2.872   2.492   3.280
    1C        C  291   2.872   2.538   3.141
    1C        C  292   2.746   2.475   3.351
    1C        C  293   2.620   2.503   3.283
    1C        C  294   2.495   2.462   3.498
    1C        C  295   2.494   2.490   3.354
    1C        C  296   2.369   2.455   3.570
    1C        C  297   2.243   2.465   3.499
    1C        C  298   2.116   2.454   3.714
    1C        C  299   2.119   2.432   3.569
    1C        C  300   1.996   2.485   3.785
    1C        C  301   5.011   3.189   2.453
    1C        C  302   4.895   3.004   2.596
    1C        C  303   4.893   3.125   2.512
    1C        C  304   4.768   2.939   2.634
    1C        C  305   4.641   3.000   2.594
    1C        C  306   4.515   2.821   2.720
    1C        C  307   4.515   2.935   2.629
    1C        C  308   4.388   2.770   2.772
    1C        C  309   4.262   2.824   2.723
    1C        C  310   4.135   2.676   2.884
    1C        C  311   4.135   2.768   2.771
    1C        C  312   4.009   2.632   2.942
    1C        C  313   3.883   2.673   2.882
    1C        C  314   3.756   2.563   3.071
    1C        C  315   3.756   2.630   2.941
    1C        C  316   3.630   2.536   3.139
    1C        C  317   3.504   2.565   3.073
    1C        C  318   3.377   2.490   3.279
    1C        C  319   3.377   2.531   3.138
    1C        C  320   3.251   2.475   3.350
    1C        C  321   3.125   2.495   3.280
    1C        C  322   2.999   2.457   3.496
    1C        C  323   2.998   2.476   3.351
    1C        C  324   2.873   2.446   3.569
    1C        C  325   2.746   2.450   3.496
    1C        C  326   2.621   2.444   3.716
    1C        C  327   2.620   2.445   3.569
    1C        C  328   2.495   2.456   3.789
    1C        C  329   2.369   2.455   3.716
    1C        C  330   2.242   2.492   3.933
    1C        C  331   2.242   2.460   3.789
    1C        C  332   2.114   2.515   4.003
    1C        C  333   1.992   2.487   3.926
    1C        C  334   5.017   2.838   2.739
    1C        C  335   5.016   2.953   2.658
    1C        C  336   4.895   2.772   2.779
    1C        C  337   4.768   2.823   2.725
    1C        C  338   4.640   2.679   2.887
    1C        C  339   4.641   2.768   2.772
    1C        C  340   4.514   2.639   2.948
    1C        C  341   4.388   2.680   2.887
    1C        C  342   4.261   2.571   3.076
    1C        C  343   4.261   2.636   2.946
    1C        C  344   4.135   2.541   3.142
    1C        C  345   4.009   2.565   3.072
    1C        C  346   3.882   2.501   3.281
    1C        C  347   3.883   2.535   3.139
    1C        C  348   3.756   2.487   3.352
    1C        C  349   3.630   2.500   3.281
    1C        C  350   3.504   2.458   3.495
    1C        C  351   3.504   2.477   3.351
    1C        C  352   3.377   2.453   3.568
    1C        C  353   3.251   2.459   3.495
    1C        C  354   3.125   2.460   3.714
    1C        C  355   3.125   2.455   3.568
    1C        C  356   2.999   2.464   3.787
    1C        C  357   2.873   2.450   3.715
    1C        C  358   2.747   2.502   3.927
    1C        C  359   2.747   2.454   3.789
    1C        C  360   2.621   2.533   3.994
    1C        C  361   2.495   2.501   3.928
    1C        C  362   2.368   2.615   4.115
    1C        C  363   2.369   2.525   3.999
    1C        C  364   2.242   2.661   4.170
    1C        C  365   2.115   2.607   4.117
    1C        C  366   1.993   2.787   4.239
    1C        C  367   1.993   2.664   4.170
    1C        C  368   5.008   2.592   2.926
    1C        C  369   4.893   2.667   2.883
    1C        C  370   4.765   2.567   3.077
    1C        C  371   4.765   2.633   2.946
    1C        C  372   4.639   2.538   3.144
    1C        C  373   4.513   2.572   3.078
    1C        C  374   4.387   2.500   3.284
    1C        C  375   4.387   2.543   3.145
    1C        C  376   4.260   2.485   3.355
    1C        C  377   4.134   2.504   3.283
    1C        C  378   4.008   2.467   3.498
    1C        C  379   4.008   2.486   3.353
    1C        C  380   3.881   2.465   3.570
    1C        C  381   3.756   2.470   3.497
    1C        C  382   3.629   2.468   3.715
    1C        C  383   3.630   2.458   3.569
    1C        C  384   3.503   2.475   3.787
    1C        C  385   3.377   2.463   3.714
    1C        C  386   3.251   2.513   3.926
    1C        C  387   3.251   2.471   3.787
    1C        C  388   3.125   2.542   3.992
    1C        C  389   2.999   2.510   3.926
    1C        C  390   2.872   2.628   4.107
    1C        C  391   2.873   2.537   3.993
    1C        C  392   2.746   2.676   4.162
    1C        C  393   2.620   2.624   4.108
    1C        C  394   2.493   2.786   4.254
    1C        C  395   2.494   2.669   4.166
    1C        C  396   2.366   2.845   4.295
    1C        C  397   2.241   2.783   4.255
    1C        C  398   2.112   2.970   4.372
    1C        C  399   2.113   2.848   4.289
    1C        C  400   1.992   3.027   4.429
    1C        C  401   5.009   2.522   3.050
    1C        C  402   4.892   2.488   3.280
    1C        C  403   4.891   2.521   3.136
    1C        C  404   4.765   2.466   3.351
    1C        C  405   4.639   2.489   3.282
    1C        C  406   4.512   2.448   3.498
    1C        C  407   4.512   2.473   3.354
    1C        C  408   4.385   2.446   3.571
    1C        C  409   4.260   2.460   3.499
    1C        C  410   4.133   2.457   3.717
    1C        C  411   4.133   2.454   3.571
    1C        C  412   4.007   2.472   3.789
    1C        C  413   3.881   2.471   3.716
    1C        C  414   3.755   2.517   3.928
    1C        C  415   3.755   2.478   3.788
    1C        C  416   3.628   2.543   3.996
    1C        C  417   3.503   2.516   3.927
    1C        C  418   3.376   2.623   4.117
    1C        C  419   3.377   2.541   3.996
    1C        C  420   3.249   2.674   4.168
    1C        C  421   3.124   2.630   4.109
    1C        C  422   2.997   2.792   4.254
    1C        C  423   2.997   2.678   4.162
    1C        C  424   2.870   2.848   4.298
    1C        C  425   2.745   2.789   4.254
    1C        C  426   2.618   2.970   4.375
    1C        C  427   2.618   2.845   4.298
    1C        C  428   2.491   3.034   4.408
    1C        C  429   2.366   2.971   4.369
    1C        C  430   2.240   3.164   4.475
    1C        C  431   2.240   3.035   4.405
    1C        C  432   2.113   3.226   4.518
    1C        C  433   1.993   3.149   4.500
    1C        C  434   5.012   2.487   3.500
    1C        C  435   5.012   2.499   3.360
    1C        C  436   4.891   2.459   3.573
    1C        C  437   4.765   2.448   3.498
    1C        C  438   4.637   2.443   3.718
    1C        C  439   4.638   2.438   3.571
    1C        C  440   4.511   2.455   3.791
    1C        C  441   4.385   2.450   3.717
    1C        C  442   4.259   2.510   3.929
    1C        C  443   4.259   2.463   3.790
    1C        C  444   4.133   2.541   3.996
    1C        C  445   4.007   2.514   3.929
    1C        C  446   3.881   2.623   4.119
    1C        C  447   3.881   2.542   3.997
    1C        C  448   3.754   2.670   4.175
    1C        C  449   3.628   2.625   4.118
    1C        C  450   3.501   2.780   4.271
    1C        C  451   3.502   2.669   4.175
    1C        C  452   3.375   2.841   4.311
    1C        C  453   3.249   2.787   4.262
    1C        C  454   3.122   2.966   4.387
    1C        C  455   3.123   2.846   4.303
    1C        C  456   2.996   3.029   4.423
    1C        C  457   2.870   2.969   4.381
    1C        C  458   2.743   3.164   4.477
    1C        C  459   2.743   3.032   4.415
    1C        C  460   2.617   3.233   4.501
    1C        C  461   2.491   3.166   4.472
    1C        C  462   2.365   3.374   4.537
    1C        C  463   2.366   3.232   4.502
    1C        C  464   2.239   3.445   4.553
    1C        C  465   2.113   3.370   4.550
    1C        C  466   1.989   3.584   4.578
    1C        C  467   1.993   3.443   4.581
    1C        C  468   5.009   2.435   3.800
    1C        C  469   4.891   2.448   3.719
    1C        C  470   4.763   2.509   3.927
    1C        C  471   4.763   2.456   3.790
    1C        C  472   4.638   2.542   3.993
    1C        C  473   4.511   2.508   3.928
    1C        C  474   4.386   2.627   4.113
    1C        C  475   4.386   2.540   3.995
    1C        C  476   4.260   2.673   4.170
    1C        C  477   4.133   2.624   4.116
    1C        C  478   4.007   2.780   4.270
    1C        C  479   4.007   2.669   4.176
    1C        C  480   3.880   2.839   4.314
    1C        C  481   3.754   2.781   4.271
    1C        C  482   3.627   2.961   4.396
    1C        C  483   3.628   2.837   4.318
    1C        C  484   3.501   3.026   4.429
    1C        C  485   3.375   2.964   4.391
    1C        C  486   3.248   3.161   4.484
    1C        C  487   3.248   3.027   4.427
    1C        C  488   3.122   3.231   4.508
    1C        C  489   2.996   3.162   4.483
    1C        C  490   2.869   3.374   4.540
    1C        C  491   2.869   3.231   4.509
    1C        C  492   2.743   3.447   4.549
    1C        C  493   2.617   3.375   4.535
    1C        C  494   2.490   3.594   4.553
    1C        C  495   2.491   3.447   4.550
    1C        C  496   2.363   3.667   4.549
    1C        C  497   2.238   3.592   4.553
    1C        C  498   2.110   3.798   4.491
    1C        C  499   2.109   3.664   4.553
    1C        C  500   1.995   3.850   4.420
    1C        C  501   5.009   2.474   3.937
    1C        C  502   4.892   2.636   4.103
    1C        C  503   4.891   2.534   3.997
    1C        C  504   4.765   2.685   4.158
    1C        C  505   4.638   2.634   4.106
    1C        C  506   4.512   2.789   4.260
    1C        C  507   4.512   2.678   4.165
    1C        C  508   4.385   2.845   4.306
    1C        C  509   4.259   2.785   4.264
    1C        C  510   4.132   2.966   4.387
    1C        C  511   4.133   2.840   4.312
    1C        C  512   4.006   3.030   4.422
    1C        C  513   3.880   2.965   4.389
    1C        C  514   3.753   3.161   4.486
    1C        C  515   3.754   3.027   4.428
    1C        C  516   3.627   3.231   4.509
    1C        C  517   3.501   3.162   4.484
    1C        C  518   3.374   3.373   4.540
    1C        C  519   3.375   3.230   4.510
    1C        C  520   3.248   3.446   4.548
    1C        C  521   3.122   3.374   4.535
    1C        C  522   2.995   3.592   4.543
    1C        C  523   2.995   3.446   4.547
    1C        C  524   2.869   3.665   4.538
    1C        C  525   2.742   3.593   4.548
    1C        C  526   2.616   3.810   4.516
    1C        C  527   2.616   3.667   4.548
    1C        C  528   2.489   3.880   4.492
    1C        C  529   2.362   3.809   4.514
    1C        C  530   2.236   4.008   4.417
    1C        C  531   2.235   3.875   4.482
    1C        C  532   2.109   4.065   4.366
    1C        C  533   1.993   3.980   4.366
    1C        C  534   5.013   2.812   4.234
    1C        C  535   5.014   2.699   4.149
    1C        C  536   4.891   2.859   4.296
    1C        C  537   4.764   2.797   4.254
    1C        C  538   4.636   2.969   4.386
    1C        C  539   4.638   2.849   4.303
    1C        C  540   4.510   3.032   4.421
    1C        C  541   4.384   2.969   4.384
    1C        C  542   4.258   3.164   4.481
    1C        C  543   4.258   3.031   4.422
    1C        C  544   4.132   3.233   4.504
    1C        C  545   4.006   3.164   4.481
    1C        C  546   3.879   3.373   4.544
    1C        C  547   3.879   3.230   4.512
    1C        C  548   3.753   3.446   4.553
    1C        C  549   3.627   3.374   4.540
    1C        C  550   3.500   3.592   4.557
    1C        C  551   3.500   3.446   4.553
    1C        C  552   3.374   3.665   4.548
    1C        C  553   3.248   3.592   4.548
    1C        C  554   3.121   3.806   4.505
    1C        C  555   3.121   3.664   4.540
    1C        C  556   2.995   3.876   4.482
    1C        C  557   2.869   3.807   4.505
    1C        C  558   2.742   4.006   4.418
    1C        C  559   2.742   3.879   4.489
    1C        C  560   2.616   4.068   4.379
    1C        C  561   2.489   4.007   4.420
    1C        C  562   2.364   4.180   4.285
    1C        C  563   2.363   4.069   4.379
    1C        C  564   2.239   4.237   4.236
    1C        C  565   2.111   4.187   4.285
    1C        C  566   1.996   4.372   4.164
    1C        C  567   1.997   4.273   4.266
    1C        C  568   5.004   3.007   4.474
    1C        C  569   4.889   2.964   4.399
    1C        C  570   4.760   3.157   4.499
    1C        C  571   4.761   3.026   4.433
    1C        C  572   4.635   3.229   4.519
    1C        C  573   4.509   3.164   4.484
    1C        C  574   4.384   3.375   4.542
    1C        C  575   4.384   3.232   4.510
    1C        C  576   4.258   3.447   4.551
    1C        C  577   4.132   3.375   4.537
    1C        C  578   4.006   3.593   4.552
    1C        C  579   4.006   3.446   4.553
    1C        C  580   3.879   3.665   4.544
    1C        C  581   3.753   3.592   4.551
    1C        C  582   3.626   3.805   4.507
    1C        C  583   3.627   3.665   4.549
    1C        C  584   3.500   3.875   4.483
    1C        C  585   3.374   3.806   4.508
    1C        C  586   3.248   4.002   4.410
    1C        C  587   3.248   3.875   4.482
    1C        C  588   3.121   4.063   4.371
    1C        C  589   2.995   4.003   4.412
    1C        C  590   2.869   4.178   4.282
    1C        C  591   2.869   4.067   4.376
    1C        C  592   2.743   4.233   4.234
    1C        C  593   2.616   4.179   4.284
    1C        C  594   2.491   4.332   4.126
    1C        C  595   2.491   4.234   4.235
    1C        C  596   2.366   4.379   4.069
    1C        C  597   2.240   4.337   4.128
    1C        C  598   2.112   4.449   3.945
    1C        C  599   2.114   4.399   4.083
    1C        C  600   1.992   4.455   3.866
    1C        C  601   5.004   3.130   4.546
    1C        C  602   4.890   3.365   4.550
    1C        C  603   4.887   3.219   4.542
    1C        C  604   4.764   3.442   4.555
    1C        C  605   4.636   3.372   4.546
    1C        C  606   4.512   3.592   4.552
    1C        C  607   4.511   3.446   4.555
    1C        C  608   4.385   3.666   4.547
    1C        C  609   4.259   3.593   4.551
    1C        C  610   4.132   3.808   4.512
    1C        C  611   4.132   3.666   4.548
    1C        C  612   4.005   3.875   4.483
    1C        C  613   3.879   3.805   4.504
    1C        C  614   3.753   4.004   4.415
    1C        C  615   3.753   3.874   4.480
    1C        C  616   3.626   4.068   4.380
    1C        C  617   3.500   4.005   4.416
    1C        C  618   3.374   4.181   4.286
    1C        C  619   3.374   4.066   4.376
    1C        C  620   3.247   4.234   4.235
    1C        C  621   3.121   4.177   4.279
    1C        C  622   2.995   4.334   4.127
    1C        C  623   2.995   4.232   4.232
    1C        C  624   2.869   4.381   4.071
    1C        C  625   2.743   4.333   4.127
    1C        C  626   2.617   4.450   3.942
    1C        C  627   2.617   4.378   4.069
    1C        C  628   2.491   4.480   3.875
    1C        C  629   2.365   4.448   3.941
    1C        C  630   2.239   4.524   3.734
    1C        C  631   2.239   4.481   3.876
    1C        C  632   2.111   4.534   3.660
    1C        C  633   1.990   4.502   3.734
    1C        C  634   5.013   3.579   4.511
    1C        C  635   5.011   3.439   4.522
    1C        C  636   4.892   3.658   4.517
    1C        C  637   4.764   3.589   4.541
    1C        C  638   4.638   3.806   4.506
    1C        C  639   4.638   3.664   4.540
    1C        C  640   4.512   3.877   4.487
    1C        C  641   4.385   3.809   4.514
    1C        C  642   4.258   4.008   4.423
    1C        C  643   4.258   3.880   4.493
    1C        C  644   4.132   4.068   4.380
    1C        C  645   4.005   4.004   4.415
    1C        C  646   3.879   4.184   4.290
    1C        C  647   3.879   4.068   4.379
    1C        C  648   3.752   4.239   4.243
    1C        C  649   3.626   4.184   4.290
    1C        C  650   3.500   4.336   4.132
    1C        C  651   3.500   4.238   4.241
    1C        C  652   3.374   4.382   4.074
    1C        C  653   3.248   4.335   4.129
    1C        C  654   3.122   4.462   3.949
    1C        C  655   3.122   4.384   4.073
    1C        C  656   2.996   4.494   3.883
    1C        C  657   2.869   4.458   3.947
    1C        C  658   2.744   4.525   3.738
    1C        C  659   2.743   4.487   3.879
    1C        C  660   2.618   4.537   3.665
    1C        C  661   2.491   4.521   3.735
    1C        C  662   2.366   4.546   3.517
    1C        C  663   2.365   4.539   3.663
    1C        C  664   2.241   4.544   3.442
    1C        C  665   2.112   4.544   3.514
    1C        C  666   1.992   4.548   3.433
    1C        C  667   5.013   3.877   4.468
    1C        C  668   4.892   3.802   4.489
    1C        C  669   4.763   4.006   4.411
    1C        C  670   4.764   3.874   4.477
    1C        C  671   4.637   4.068   4.375
    1C        C  672   4.511   4.006   4.417
    1C        C  673   4.383   4.181   4.287
    1C        C  674   4.384   4.069   4.381
    1C        C  675   4.257   4.234   4.237
    1C        C  676   4.131   4.181   4.287
    1C        C  677   4.005   4.336   4.133
    1C        C  678   4.005   4.238   4.242
    1C        C  679   3.879   4.380   4.075
    1C        C  680   3.752   4.335   4.133
    1C        C  681   3.627   4.450   3.946
    1C        C  682   3.626   4.380   4.075
    1C        C  683   3.501   4.481   3.880
    1C        C  684   3.374   4.453   3.946
    1C        C  685   3.249   4.528   3.741
    1C        C  686   3.249   4.490   3.882
    1C        C  687   3.123   4.542   3.668
    1C        C  688   2.997   4.530   3.740
    1C        C  689   2.872   4.540   3.521
    1C        C  690   2.871   4.540   3.667
    1C        C  691   2.746   4.537   3.447
    1C        C  692   2.619   4.542   3.519
    1C        C  693   2.493   4.543   3.445
    1C        C  694   5.013   3.998   4.397
    1C        C  695   4.888   4.189   4.286
    1C        C  696   4.890   4.069   4.370
    1C        C  697   4.761   4.239   4.236
    1C        C  698   4.635   4.182   4.284
    1C        C  699   4.508   4.342   4.136
    1C        C  700   4.509   4.238   4.239
    1C        C  701   4.382   4.386   4.078
    1C        C  702   4.257   4.335   4.132
    1C        C  703   4.130   4.460   3.952
    1C        C  704   4.130   4.384   4.077
    1C        C  705   4.005   4.488   3.884
    1C        C  706   3.879   4.451   3.947
    1C        C  707   3.754   4.522   3.740
    1C        C  708   3.753   4.481   3.880
    1C        C  709   3.628   4.535   3.668
    1C        C  710   3.501   4.521   3.739
    1C        C  711   3.376   4.547   3.523
    1C        C  712   3.376   4.541   3.669
    1C        C  713   3.251   4.544   3.449
    1C        C  714   3.124   4.545   3.522
    1C        C  715   2.998   4.539   3.449
    1C        C  716   5.002   4.387   4.183
    1C        C  717   5.002   4.275   4.271
    1C        C  718   4.885   4.416   4.100
    1C        C  719   4.760   4.348   4.138
    1C        C  720   4.634   4.472   3.960
    1C        C  721   4.634   4.395   4.084
    1C        C  722   4.508   4.498   3.891
    1C        C  723   4.382   4.462   3.954
    1C        C  724   4.257   4.534   3.747
    1C        C  725   4.256   4.495   3.888
    1C        C  726   4.132   4.546   3.673
    1C        C  727   4.006   4.529   3.744
    1C        C  728   3.881   4.550   3.525
    1C        C  729   3.880   4.542   3.671
    1C        C  730   3.755   4.547   3.451
    1C        C  731   3.629   4.543   3.523
    1C        C  732   3.503   4.546   3.450
    1C        C  733   5.010   4.496   3.891
    1C        C  734   4.888   4.479   3.966
    1C        C  735   4.762   4.544   3.754
    1C        C  736   4.761   4.510   3.897
    1C        C  737   4.636   4.546   3.679
    1C        C  738   4.510   4.532   3.749
    1C        C  739   4.386   4.549   3.530
    1C        C  740   4.384   4.547   3.676
    1C        C  741   4.260   4.547   3.455
    1C        C  742   4.133   4.550   3.527
    1C        C  743   4.008   4.549   3.453
    1C        C  744   5.011   4.538   3.757
    1C        C  745   4.889   4.565   3.534
    1C        C  746   4.889   4.560   3.682
    1C        C  747   4.765   4.538   3.462
    1C        C  748   4.638   4.541   3.533
    1C        C  749   4.513   4.543   3.458
    1C        C  750   4.998   4.617   3.456
    1C        O  751   5.108   2.419   4.019
    1C        H  752   5.182   2.366   3.973
    1C        O  753   5.107   3.150   4.639
    1C        H  754   5.177   3.076   4.637
    1C        O  755   5.109   2.426   3.069
    1C        H  756   5.201   2.442   3.018
    1C        O  757   5.095   4.486   4.215
    1C        H  758   5.169   4.457   4.288
    1C        O  759   5.143   4.539   3.292
    1C        H  760   5.220   4.610   3.321
    1C        O  761   5.118   3.113   2.406
    1C        H  762   5.197   3.165   2.366
    1C        O  763   5.094   4.071   2.479
    1C        H  764   5.153   4.161   2.464
    1C        O  765   1.882   2.420   3.980
    1C        H  766   1.802   2.408   3.914
    1C        O  767   1.923   2.335   3.276
    1C        H  768   1.845   2.285   3.335
    1C        O  769   1.870   3.639   4.627
    1C        H  770   1.793   3.571   4.624
    1C        O  771   1.954   2.871   2.456
    1C        H  772   1.888   2.793   2.457
    1C        O  773   1.864   3.811   2.506
    1C        H  774   1.787   3.747   2.469
    1C        O  775   1.967   4.647   2.961
    1C        H  776   1.889   4.660   2.888
    1C        O  777   1.887   4.461   4.162
    1C        H  778   1.797   4.421   4.206
    1C        H  779   5.106   2.643   4.155
    1C        H  780   5.095   2.881   4.217
    1C        H  781   5.075   2.933   4.507
    1C        H  782   5.107   3.391   4.515
    1C        H  783   5.111   3.622   4.522
    1C        H  784   5.090   2.371   3.769
    1C        H  785   5.095   2.538   3.548
    1C        H  786   5.110   2.510   3.316
    1C        H  787   5.071   2.548   2.849
    1C        H  788   5.111   2.785   2.740
    1C        H  789   5.113   2.979   2.619
    1C        H  790   5.075   3.355   2.336
    1C        H  791   5.107   3.602   2.427
    1C        H  792   5.114   3.804   2.536
    1C        H  793   5.072   4.267   2.636
    1C        H  794   5.105   4.298   2.916
    1C        H  795   5.114   4.484   3.061
    1C        H  796   5.043   4.711   3.484
    1C        H  797   5.109   4.552   3.713
    1C        H  798   5.102   4.447   3.922
    1C        H  799   5.073   4.282   4.352
    1C        H  800   5.098   4.009   4.331
    1C        H  801   5.100   3.863   4.531
    1C        H  802   1.919   3.396   4.644
    1C        H  803   1.908   3.162   4.565
    1C        H  804   1.904   2.966   4.446
    1C        H  805   1.908   2.849   4.212
    1C        H  806   1.907   2.602   4.189
    1C        H  807   1.918   2.544   3.738
    1C        H  808   1.907   2.384   3.532
    1C        H  809   1.895   2.589   3.130
    1C        H  810   1.907   2.736   2.947
    1C        H  811   1.928   2.728   2.668
    1C        H  812   1.901   3.169   2.522
    1C        H  813   1.902   3.394   2.476
    1C        H  814   1.939   3.627   2.330
    1C        H  815   1.898   4.039   2.556
    1C        H  816   1.910   4.416   2.820
    1C        H  817   1.905   4.198   2.724
    1C        H  818   1.900   4.566   3.245
    1C        H  819   1.898   4.586   3.472
    1C        H  820   1.892   4.525   3.697
    1C        H  821   1.899   4.409   3.898
    1C        H  822   1.932   4.293   4.350
    1C        H  823   1.895   4.015   4.335
    1C        H  824   1.908   3.790   4.397
    2SOL     OW  825   0.249   0.666   0.095
    2SOL    HW1  826   0.161   0.617   0.092
    2SOL    HW2  827   0.303   0.642   0.015
    3SOL     OW  828   0.190   0.290   1.000
    3SOL    HW1  829   0.248   0.245   1.068
    3SOL    HW2  830   0.096   0.257   1.010
    4SOL     OW  831   0.009   0.372   0.663
    4SOL    HW1  832   6.953   0.386   0.745
    4SOL    HW2  833   0.016   0.274   0.645
    5SOL     OW  834   0.584   1.320   1.228
    5SOL    HW1  835   0.502   1.315   1.171
    5SOL    HW2  836   0.602   1.414   1.254
    6SOL     OW  837   1.595   1.526   0.708
    6SOL    HW1  838   1.546   1.496   0.790
    6SOL    HW2  839   1.530   1.538   0.633
    7SOL     OW  840   1.138   0.709   0.679
    7SOL    HW1  841   1.191   0.794   0.671
    7SOL    HW2  842   1.081   0.713   0.761
    8SOL     OW  843   1.801   0.587   0.143
    8SOL    HW1  844   1.757   0.675   0.128
    8SOL    HW2  845   1.753   0.537   0.215
    9SOL     OW  846   0.722   1.129   1.064
    9SOL    HW1  847   0.664   1.163   1.138
    9SOL    HW2  848   0.763   1.207   1.016
   10SOL     OW  849   0.885   0.748   1.824
   10SOL    HW1  850   0.897   0.816   1.897
   10SOL    HW2  851   0.906   0.790   1.736
   11SOL     OW  852   0.689   0.980   0.657
   11SOL    HW1  853   0.762   0.979   0.725
   11SOL    HW2  854   0.616   1.041   0.686
   12SOL     OW  855   0.710   1.159   1.839
   12SOL    HW1  856   0.769   1.227   1.881
   12SOL    HW2  857   0.632   1.204   1.796
   13SOL     OW  858   0.365   1.391   1.067
   13SOL    HW1  859   0.312   1.322   1.017
   13SOL    HW2  860   0.404   1.456   1.003
   14SOL     OW  861   1.444   1.509   1.380
   14SOL    HW1  862   1.503   1.589   1.391
   14SOL    HW2  863   1.366   1.518   1.442
   15SOL     OW  864   0.437   0.382   1.467
   15SOL    HW1  865   0.524   0.336   1.489
   15SOL    HW2  866   0.362   0.335   1.513
   16SOL     OW  867   1.632   0.481   0.753
   16SOL    HW1  868   1.618   0.525   0.664
   16SOL    HW2  869   1.579   0.529   0.823
   17SOL     OW  870   0.205   1.756   0.447
   17SOL    HW1  871   0.237   1.823   0.514
   17SOL    HW2  872   0.284   1.715   0.402
   18SOL     OW  873   1.131   1.339   1.703
   18SOL    HW1  874   1.182   1.329   1.788
   18SOL    HW2  875   1.073   1.259   1.689
   19SOL     OW  876   0.289   1.468   0.576
   19SOL    HW1  877   0.276   1.562   0.609
   19SOL    HW2  878   0.251   1.404   0.642
   20SOL     OW  879   0.307   1.086   0.930
   20SOL    HW1  880   0.310   0.987   0.934
   20SOL    HW2  881   0.216   1.118   0.960
   21SOL     OW  882   0.566   1.831   1.410
   21SOL    HW1  883   0.483   1.807   1.460
   21SOL    HW2  884   0.610   1.910   1.452
   22SOL     OW  885   0.566   0.960   0.180
   22SOL    HW1  886   0.618   0.978   0.097
   22SOL    HW2  887   0.608   1.008   0.257
   23SOL     OW  888   1.565   0.120   1.452
   23SOL    HW1  889   1.623   0.194   1.417
   23SOL    HW2  890   1.534   0.143   1.545
   24SOL     OW  891   0.134   0.612   0.579
   24SOL    HW1  892   0.082   0.532   0.609
   24SOL    HW2  893   0.115   0.688   0.641
   25SOL     OW  894   1.846   1.740   0.336
   25SOL    HW1  895   1.923   1.709   0.392
   25SOL    HW2  896   1.858   1.837   0.313
   26SOL     OW  897   6.986   1.551   0.148
   26SOL    HW1  898   6.968   1.455   0.170
   26SOL    HW2  899   0.080   1.575   0.173
   27SOL     OW  900   1.703   0.935   0.667
   27SOL    HW1  901   1.792   0.889   0.660
   27SOL    HW2  902   1.683   0.982   0.582
   28SOL     OW  903   1.653   1.105   0.446
   28SOL    HW1  904   1.704   1.128   0.363
   28SOL    HW2  905   1.674   1.172   0.518
   29SOL     OW  906   0.199   0.736   1.556
   29SOL    HW1  907   0.296   0.744   1.536
   29SOL    HW2  908   0.166   0.822   1.595
   30SOL     OW  909   0.626   1.382   0.737
   30SOL    HW1  910   0.579   1.294   0.745
   30SOL    HW2  911   0.615   1.417   0.644
   31SOL     OW  912   1.260   1.219   1.420
   31SOL    HW1  913   1.281   1.147   1.353
   31SOL    HW2  914   1.326   1.215   1.494
   32SOL     OW  915   0.846   0.049   0.542
   32SOL    HW1  916   0.903   0.128   0.520
   32SOL    HW2  917   0.750   0.074   0.530
   33SOL     OW  918   0.209   0.960   1.273
   33SOL    HW1  919   0.293   0.910   1.255
   33SOL    HW2  920   0.140   0.934   1.205
   34SOL     OW  921   1.462   1.042   0.203
   34SOL    HW1  922   1.393   0.982   0.242
   34SOL    HW2  923   1.553   1.005   0.221
   35SOL     OW  924   1.182   1.817   1.633
   35SOL    HW1  925   1.182   1.887   1.561
   35SOL    HW2  926   1.193   1.727   1.591
   36SOL     OW  927   0.346   0.293   1.858
   36SOL    HW1  928   0.378   0.361   1.924
   36SOL    HW2  929   0.246   0.285   1.863
   37SOL     OW  930   1.461   1.427   0.924
   37SOL    HW1  931   1.405   1.447   1.004
   37SOL    HW2  932   1.455   1.330   0.901
   38SOL     OW  933   1.624   1.817   0.567
   38SOL    HW1  934   1.618   1.765   0.482
   38SOL    HW2  935   1.637   1.754   0.644
   39SOL     OW  936   0.588   0.704   0.272
   39SOL    HW1  937   0.582   0.798   0.238
   39SOL    HW2  938   0.522   0.692   0.346
   40SOL     OW  939   1.291   0.389   0.945
   40SOL    HW1  940   1.199   0.353   0.956
   40SOL    HW2  941   1.354   0.341   1.006
   41SOL     OW  942   1.583   1.677   0.329
   41SOL    HW1  943   1.683   1.687   0.324
   41SOL    HW2  944   1.547   1.666   0.236
   42SOL     OW  945   0.805   0.591   1.464
   42SOL    HW1  946   0.770   0.562   1.552
   42SOL    HW2  947   0.778   0.526   1.393
   43SOL     OW  948   1.394   0.485   1.678
   43SOL    HW1  949   1.400   0.528   1.768
   43SOL    HW2  950   1.440   0.397   1.679
   44SOL     OW  951   0.950   0.879   1.586
   44SOL    HW1  952   1.008   0.811   1.541
   44SOL    HW2  953   0.897   0.929   1.518
   45SOL     OW  954   1.016   0.407   1.195
   45SOL    HW1  955   0.923   0.420   1.228
   45SOL    HW2  956   1.015   0.367   1.104
   46SOL     OW  957   1.060   0.714   0.415
   46SOL    HW1  958   1.085   0.711   0.512
   46SOL    HW2  959   0.971   0.671   0.402
   47SOL     OW  960   0.088   0.806   0.789
   47SOL    HW1  961   0.182   0.813   0.824
   47SOL    HW2  962   0.024   0.811   0.866
   48SOL     OW  963   0.096   1.886   1.630
   48SOL    HW1  964   0.116   1.858   1.724
   48SOL    HW2  965   6.999   1.870   1.611
   49SOL     OW  966   0.877   0.360   0.226
   49SOL    HW1  967   0.923   0.412   0.154
   49SOL    HW2  968   0.870   0.264   0.199
   50SOL     OW  969   1.688   0.569   1.827
   50SOL    HW1  970   1.662   0.651   1.776
   50SOL    HW2  971   1.707   0.494   1.763
   51SOL     OW  972   1.393   1.149   0.544
   51SOL    HW1  973   1.478   1.135   0.494
   51SOL    HW2  974   1.340   1.222   0.501
   52SOL     OW  975   0.498   0.212   0.931
   52SOL    HW1  976   0.541   0.226   1.020
   52SOL    HW2  977   0.513   0.292   0.874
   53SOL     OW  978   0.994   1.441   0.477
   53SOL    HW1  979   0.967   1.523   0.426
   53SOL    HW2  980   0.967   1.451   0.573
   54SOL     OW  981   0.366   1.811   0.872
   54SOL    HW1  982   0.406   1.720   0.884
   54SOL    HW2  983   0.431   1.881   0.902
   55SOL     OW  984   1.801   1.048   0.905
   55SOL    HW1  985   1.754   1.032   0.818
   55SOL    HW2  986   1.734   1.057   0.978
   56SOL     OW  987   1.202   1.537   1.517
   56SOL    HW1  988   1.195   1.467   1.588
   56SOL    HW2  989   1.141   1.514   1.441
   57SOL     OW  990   0.288   0.925   0.195
   57SOL    HW1  991   0.386   0.944   0.187
   57SOL    HW2  992   0.270   0.831   0.167
   58SOL     OW  993   1.487   0.779   0.728
   58SOL    HW1  994   1.486   0.728   0.814
   58SOL    HW2  995   1.569   0.836   0.723
   59SOL     OW  996   0.473   1.294   1.745
   59SOL    HW1  997   0.450   1.296   1.648
   59SOL    HW2  998   0.389   1.289   1.799
   60SOL     OW  999   1.121   1.765   0.237
   60SOL    HW1 1000   1.048   1.727   0.294
   60SOL    HW2 1001   1.156   1.694   0.176
   61SOL     OW 1002   0.182   0.306   1.572
   61SOL    HW1 1003   0.141   0.390   1.535
   61SOL    HW2 1004   0.154   0.294   1.667
   62SOL     OW 1005   1.658   1.429   0.126
   62SOL    HW1 1006   1.617   1.509   0.081
   62SOL    HW2 1007   1.590   1.388   0.186
   63SOL     OW 1008   0.473   1.730   0.350
   63SOL    HW1 1009   0.513   1.795   0.416
   63SOL    HW2 1010   0.547   1.682   0.303
   64SOL     OW 1011   1.462   0.164   0.381
   64SOL    HW1 1012   1.455   0.065   0.368
   64SOL    HW2 1013   1.552   0.186   0.420
   65SOL     OW 1014   0.246   1.773   1.206
   65SOL    HW1 1015   0.284   1.687   1.243
   65SOL    HW2 1016   0.190   1.753   1.126
   66SOL     OW 1017   0.954   1.698   0.889
   66SOL    HW1 1018   1.044   1.660   0.910
   66SOL    HW2 1019   0.910   1.643   0.818
   67SOL     OW 1020   0.405   0.652   0.474
   67SOL    HW1 1021   0.427   0.555   0.487
   67SOL    HW2 1022   0.309   0.668   0.499
   68SOL     OW 1023   1.495   0.219   1.713
   68SOL    HW1 1024   1.537   0.217   1.804
   68SOL    HW2 1025   1.399   0.194   1.720
   69SOL     OW 1026   0.653   0.108   0.055
   69SOL    HW1 1027   0.750   0.110   0.080
   69SOL    HW2 1028   0.641   0.152   6.966
   70SOL     OW 1029   0.793   0.279   1.777
   70SOL    HW1 1030   0.886   0.244   1.762
   70SOL    HW2 1031   0.744   0.218   1.839
   71SOL     OW 1032   0.860   1.522   1.187
   71SOL    HW1 1033   0.838   1.473   1.103
   71SOL    HW2 1034   0.930   1.472   1.238
   72SOL     OW 1035   1.331   0.591   1.432
   72SOL    HW1 1036   1.364   0.563   1.522
   72SOL    HW2 1037   1.361   0.684   1.413
   73SOL     OW 1038   0.811   1.367   0.954
   73SOL    HW1 1039   0.903   1.368   0.916
   73SOL    HW2 1040   0.744   1.375   0.880
   74SOL     OW 1041   0.929   0.525   0.881
   74SOL    HW1 1042   0.902   0.517   0.784
   74SOL    HW2 1043   0.963   0.436   0.913
   75SOL     OW 1044   0.591   0.130   0.480
   75SOL    HW1 1045   0.514   0.102   0.537
   75SOL    HW2 1046   0.558   0.154   0.389
   76SOL     OW 1047   1.390   1.200   6.986
   76SOL    HW1 1048   1.427   1.133   0.051
   76SOL    HW2 1049   1.315   1.250   0.029
   77SOL     OW 1050   0.266   0.065   0.189
   77SOL    HW1 1051   0.342   0.125   0.214
   77SOL    HW2 1052   0.253   6.996   0.260
   78SOL     OW 1053   0.981   0.275   0.466
   78SOL    HW1 1054   0.938   0.307   0.382
   78SOL    HW2 1055   1.081   0.285   0.458
   79SOL     OW 1056   1.068   0.689   1.430
   79SOL    HW1 1057   0.993   0.626   1.451
   79SOL    HW2 1058   1.155   0.640   1.433
   80SOL     OW 1059   1.216   1.581   0.805
   80SOL    HW1 1060   1.228   1.654   0.738
   80SOL    HW2 1061   1.303   1.563   0.850
   81SOL     OW 1062   0.484   1.148   0.730
   81SOL    HW1 1063   0.421   1.130   0.806
   81SOL    HW2 1064   0.439   1.128   0.643
   82SOL     OW 1065   1.247   1.795   0.625
   82SOL    HW1 1066   1.302   1.862   0.576
   82SOL    HW2 1067   1.166   1.840   0.664
   83SOL     OW 1068   1.009   0.516   0.046
   83SOL    HW1 1069   0.941   0.589   0.044
   83SOL    HW2 1070   1.082   0.540   0.110
   84SOL     OW 1071   0.090   0.531   1.392
   84SOL    HW1 1072   0.180   0.525   1.351
   84SOL    HW2 1073   0.086   0.609   1.455
   85SOL     OW 1074   0.578   0.232   1.198
   85SOL    HW1 1075   0.631   0.159   1.242
   85SOL    HW2 1076   0.481   0.217   1.217
   86SOL     OW 1077   0.876   0.479   0.622
   86SOL    HW1 1078   0.834   0.536   0.551
   86SOL    HW2 1079   0.913   0.396   0.581
   87SOL     OW 1080   0.968   0.002   0.804
   87SOL    HW1 1081   0.919   0.016   0.718
   87SOL    HW2 1082   1.017   6.915   0.802
   88SOL     OW 1083   1.460   1.158   0.856
   88SOL    HW1 1084   1.380   1.099   0.843
   88SOL    HW2 1085   1.509   1.167   0.769
   89SOL     OW 1086   1.466   0.613   0.949
   89SOL    HW1 1087   1.399   0.539   0.955
   89SOL    HW2 1088   1.526   0.609   1.029
   90SOL     OW 1089   1.796   0.801   0.392
   90SOL    HW1 1090   1.874   0.746   0.422
   90SOL    HW2 1091   1.798   0.810   0.292
   91SOL     OW 1092   0.483   1.418   0.198
   91SOL    HW1 1093   0.445   1.362   0.272
   91SOL    HW2 1094   0.447   1.388   0.110
   92SOL     OW 1095   1.697   1.266   0.661
   92SOL    HW1 1096   1.796   1.253   0.667
   92SOL    HW2 1097   1.675   1.363   0.670
   93SOL     OW 1098   1.369   0.522   0.048
   93SOL    HW1 1099   1.313   0.526   0.131
   93SOL    HW2 1100   1.443   0.455   0.061
   94SOL     OW 1101   0.487   0.213   0.240
   94SOL    HW1 1102   0.550   0.176   0.172
   94SOL    HW2 1103   0.474   0.311   0.224
   95SOL     OW 1104   1.741   1.239   1.532
   95SOL    HW1 1105   1.832   1.201   1.513
   95SOL    HW2 1106   1.751   1.330   1.572
   96SOL     OW 1107   1.034   1.359   1.344
   96SOL    HW1 1108   0.949   1.327   1.385
   96SOL    HW2 1109   1.111   1.308   1.384
   97SOL     OW 1110   1.618   1.645   1.675
   97SOL    HW1 1111   1.598   1.682   1.584
   97SOL    HW2 1112   1.697   1.583   1.669
   98SOL     OW 1113   1.148   1.258   1.111
   98SOL    HW1 1114   1.087   1.289   1.185
   98SOL    HW2 1115   1.111   1.287   1.023
   99SOL     OW 1116   1.605   1.093   1.092
   99SOL    HW1 1117   1.597   1.161   1.165
   99SOL    HW2 1118   1.540   1.114   1.019
  100SOL     OW 1119   0.874   0.175   1.363
  100SOL    HW1 1120   0.893   0.144   1.270
  100SOL    HW2 1121   0.960   0.198   1.409
  101SOL     OW 1122   0.966   1.118   1.716
  101SOL    HW1 1123   0.873   1.134   1.748
  101SOL    HW2 1124   0.970   1.033   1.664
  102SOL     OW 1125   0.720   1.058   0.388
  102SOL    HW1 1126   0.704   1.030   0.483
  102SOL    HW2 1127   0.798   1.007   0.351
  103SOL     OW 1128   0.440   0.808   1.251
  103SOL    HW1 1129   0.515   0.817   1.316
  103SOL    HW2 1130   0.397   0.718   1.261
  104SOL     OW 1131   1.267   0.366   1.292
  104SOL    HW1 1132   1.298   0.447   1.342
  104SOL    HW2 1133   1.175   0.383   1.255
  105SOL     OW 1134   0.065   1.527   1.362
  105SOL    HW1 1135   0.013   1.566   1.438
  105SOL    HW2 1136   0.161   1.554   1.370
  106SOL     OW 1137   0.370   1.083   0.491
  106SOL    HW1 1138   0.341   1.164   0.439
  106SOL    HW2 1139   0.349   1.000   0.439
  107SOL     OW 1140   0.538   0.523   0.868
  107SOL    HW1 1141   0.549   0.584   0.789
  107SOL    HW2 1142   0.607   0.546   0.937
  108SOL     OW 1143   1.253   1.368   0.420
  108SOL    HW1 1144   1.305   1.444   0.460
  108SOL    HW2 1145   1.156   1.378   0.442
  109SOL     OW 1146   1.313   1.476   1.143
  109SOL    HW1 1147   1.361   1.485   1.231
  109SOL    HW2 1148   1.257   1.393   1.144
  110SOL     OW 1149   1.606   0.639   0.519
  110SOL    HW1 1150   1.540   0.690   0.575
  110SOL    HW2 1151   1.668   0.704   0.475
  111SOL     OW 1152   0.346   1.528   1.304
  111SOL    HW1 1153   0.337   1.473   1.221
  111SOL    HW2 1154   0.441   1.556   1.315
  112SOL     OW 1155   0.487   0.717   1.623
  112SOL    HW1 1156   0.538   0.762   1.550
  112SOL    HW2 1157   0.543   0.643   1.662
  113SOL     OW 1158   1.623   0.798   1.696
  113SOL    HW1 1159   1.529   0.833   1.688
  113SOL    HW2 1160   1.678   0.834   1.621
  114SOL     OW 1161   1.025   0.128   1.729
  114SOL    HW1 1162   1.058   0.160   1.641
  114SOL    HW2 1163   1.003   0.030   1.724
  115SOL     OW 1164   0.472   0.054   1.794
  115SOL    HW1 1165   0.399   6.987   1.811
  115SOL    HW2 1166   0.435   0.146   1.802
  116SOL     OW 1167   0.596   0.874   1.032
  116SOL    HW1 1168   0.632   0.968   1.035
  116SOL    HW2 1169   0.535   0.860   1.109
  117SOL     OW 1170   1.298   0.841   1.010
  117SOL    HW1 1171   1.205   0.818   0.981
  117SOL    HW2 1172   1.358   0.764   0.991
  118SOL     OW 1173   1.193   0.530   0.258
  118SOL    HW1 1174   1.218   0.454   0.319
  118SOL    HW2 1175   1.152   0.603   0.312
  119SOL     OW 1176   0.311   0.158   1.209
  119SOL    HW1 1177   0.233   0.149   1.271
  119SOL    HW2 1178   0.329   0.070   1.165
  120SOL     OW 1179   0.104   1.283   1.251
  120SOL    HW1 1180   0.114   1.216   1.324
  120SOL    HW2 1181   0.089   1.374   1.290
  121SOL     OW 1182   0.726   0.631   1.042
  121SOL    HW1 1183   0.799   0.611   0.976
  121SOL    HW2 1184   0.689   0.722   1.025
  122SOL     OW 1185   1.751   0.975   1.868
  122SOL    HW1 1186   1.708   0.903   1.814
  122SOL    HW2 1187   1.691   1.001   1.943
  123SOL     OW 1188   0.367   0.079   0.619
  123SOL    HW1 1189   0.334   0.161   0.666
  123SOL    HW2 1190   0.304   0.004   0.635
  124SOL     OW 1191   1.661   0.444   0.336
  124SOL    HW1 1192   1.694   0.364   0.385
  124SOL    HW2 1193   1.628   0.512   0.402
  125SOL     OW 1194   1.031   0.764   0.956
  125SOL    HW1 1195   1.009   0.784   1.051
  125SOL    HW2 1196   1.000   0.672   0.933
  126SOL     OW 1197   0.981   1.563   1.760
  126SOL    HW1 1198   0.948   1.619   1.685
  126SOL    HW2 1199   1.021   1.479   1.724
  127SOL     OW 1200   1.840   1.493   1.602
  127SOL    HW1 1201   1.862   1.519   1.508
  127SOL    HW2 1202   1.922   1.501   1.659
  128SOL     OW 1203   0.386   0.897   1.806
  128SOL    HW1 1204   0.456   0.928   1.871
  128SOL    HW2 1205   0.426   0.830   1.744
  129SOL     OW 1206   1.526   0.310   0.138
  129SOL    HW1 1207   1.482   0.228   0.174
  129SOL    HW2 1208   1.571   0.359   0.212
  130SOL     OW 1209   1.273   0.780   0.031
  130SOL    HW1 1210   1.316   0.690   0.021
  130SOL    HW2 1211   1.298   0.838   6.953
  131SOL     OW 1212   1.066   1.359   0.867
  131SOL    HW1 1213   1.080   1.278   0.809
  131SOL    HW2 1214   1.122   1.435   0.832
  132SOL     OW 1215   0.334   0.808   0.924
  132SOL    HW1 1216   0.432   0.826   0.923
  132SOL    HW2 1217   0.317   0.715   0.956
  133SOL     OW 1218   0.304   0.536   1.002
  133SOL    HW1 1219   0.254   0.450   0.995
  133SOL    HW2 1220   0.388   0.530   0.947
  134SOL     OW 1221   1.119   0.447   1.664
  134SOL    HW1 1222   1.076   0.469   1.752
  134SOL    HW2 1223   1.216   0.469   1.669
  135SOL     OW 1224   1.109   0.242   1.493
  135SOL    HW1 1225   1.106   0.322   1.552
  135SOL    HW2 1226   1.176   0.256   1.421
  136SOL     OW 1227   6.976   1.286   0.223
  136SOL    HW1 1228   6.922   1.316   0.302
  136SOL    HW2 1229   0.011   1.194   0.240
  137SOL     OW 1230   0.114   1.742   0.961
  137SOL    HW1 1231   0.085   1.670   0.899
  137SOL    HW2 1232   0.199   1.783   0.929
  138SOL     OW 1233   0.495   1.566   0.897
  138SOL    HW1 1234   0.566   1.631   0.924
  138SOL    HW2 1235   0.533   1.498   0.835
  139SOL     OW 1236   0.940   0.796   1.210
  139SOL    HW1 1237   0.997   0.767   1.286
  139SOL    HW2 1238   0.855   0.742   1.209
  140SOL     OW 1239   0.064   0.642   1.124
  140SOL    HW1 1240   0.147   0.609   1.079
  140SOL    HW2 1241   0.062   0.608   1.218
  141SOL     OW 1242   0.236   0.556   1.757
  141SOL    HW1 1243   0.312   0.490   1.751
  141SOL    HW2 1244   0.243   0.620   1.681
  142SOL     OW 1245   1.385   0.924   1.640
  142SOL    HW1 1246   1.406   1.022   1.639
  142SOL    HW2 1247   1.377   0.892   1.545
  143SOL     OW 1248   0.820   0.590   0.369
  143SOL    HW1 1249   0.828   0.504   0.319
  143SOL    HW2 1250   0.737   0.638   0.341
  144SOL     OW 1251   1.641   0.604   1.160
  144SOL    HW1 1252   1.620   0.536   1.230
  144SOL    HW2 1253   1.739   0.600   1.138
  145SOL     OW 1254   0.271   1.576   1.744
  145SOL    HW1 1255   0.218   1.641   1.799
  145SOL    HW2 1256   0.261   1.484   1.782
  146SOL     OW 1257   0.743   0.447   1.241
  146SOL    HW1 1258   0.680   0.370   1.230
  146SOL    HW2 1259   0.728   0.514   1.169
  147SOL     OW 1260   0.869   1.704   1.533
  147SOL    HW1 1261   0.837   1.638   1.465
  147SOL    HW2 1262   0.894   1.789   1.487
  148SOL     OW 1263   0.452   0.478   0.186
  148SOL    HW1 1264   0.516   0.550   0.211
  148SOL    HW2 1265   0.360   0.516   0.175
  149SOL     OW 1266   0.163   1.119   1.482
  149SOL    HW1 1267   0.161   1.062   1.565
  149SOL    HW2 1268   0.181   1.061   1.403
  150SOL     OW 1269   1.282   1.035   1.202
  150SOL    HW1 1270   1.293   0.965   1.132
  150SOL    HW2 1271   1.234   1.114   1.164
  151SOL     OW 1272   1.279   0.862   0.292
  151SOL    HW1 1273   1.209   0.819   0.349
  151SOL    HW2 1274   1.277   0.821   0.201
  152SOL     OW 1275   1.776   1.719   1.168
  152SOL    HW1 1276   1.845   1.744   1.099
  152SOL    HW2 1277   1.738   1.629   1.147
  153SOL     OW 1278   1.250   1.744   1.094
  153SOL    HW1 1279   1.339   1.779   1.064
  153SOL    HW2 1280   1.259   1.646   1.116
  154SOL     OW 1281   0.069   1.212   0.994
  154SOL    HW1 1282   0.088   1.238   1.088
  154SOL    HW2 1283   6.971   1.201   0.981
  155SOL     OW 1284   0.689   1.708   1.742
  155SOL    HW1 1285   0.620   1.779   1.736
  155SOL    HW2 1286   0.757   1.721   1.669
  156SOL     OW 1287   0.910   0.100   0.148
  156SOL    HW1 1288   1.006   0.111   0.121
  156SOL    HW2 1289   0.902   0.021   0.208
  157SOL     OW 1290   1.742   0.216   0.465
  157SOL    HW1 1291   1.807   0.178   0.400
  157SOL    HW2 1292   1.719   0.146   0.534
  158SOL     OW 1293   1.400   1.582   0.514
  158SOL    HW1 1294   1.459   1.615   0.440
  158SOL    HW2 1295   1.341   1.657   0.545
  159SOL     OW 1296   0.129   1.785   1.889
  159SOL    HW1 1297   0.085   1.705   1.931
  159SOL    HW2 1298   0.184   1.833   1.957
  160SOL     OW 1299   1.281   0.942   0.672
  160SOL    HW1 1300   1.356   0.880   0.695
  160SOL    HW2 1301   1.316   1.017   0.615
  161SOL     OW 1302   0.779   1.287   1.424
  161SOL    HW1 1303   0.753   1.338   1.506
  161SOL    HW2 1304   0.705   1.292   1.357
  162SOL     OW 1305   0.677   1.617   0.200
  162SOL    HW1 1306   0.666   1.669   0.115
  162SOL    HW2 1307   0.625   1.532   0.193
  163SOL     OW 1308   1.609   1.733   1.402
  163SOL    HW1 1309   1.667   1.725   1.321
  163SOL    HW2 1310   1.595   1.829   1.424
  164SOL     OW 1311   1.885   0.124   0.955
  164SOL    HW1 1312   1.889   0.024   0.963
  164SOL    HW2 1313   1.792   0.151   0.929
  165SOL     OW 1314   0.274   0.313   0.733
  165SOL    HW1 1315   0.187   0.350   0.699
  165SOL    HW2 1316   0.267   0.296   0.831
  166SOL     OW 1317   1.218   1.580   0.056
  166SOL    HW1 1318   1.213   1.483   0.081
  166SOL    HW2 1319   1.137   1.604   0.002
  167SOL     OW 1320   0.825   1.018   1.388
  167SOL    HW1 1321   0.870   1.002   1.300
  167SOL    HW2 1322   0.812   1.116   1.402
  168SOL     OW 1323   0.925   0.921   0.279
  168SOL    HW1 1324   0.968   0.937   0.191
  168SOL    HW2 1325   0.979   0.855   0.332
  169SOL     OW 1326   1.477   1.670   0.064
  169SOL    HW1 1327   1.384   1.633   0.061
  169SOL    HW2 1328   1.504   1.700   6.972
  170SOL     OW 1329   0.370   1.312   1.497
  170SOL    HW1 1330   0.360   1.386   1.431
  170SOL    HW2 1331   0.299   1.243   1.479
  171SOL     OW 1332   1.594   1.290   1.295
  171SOL    HW1 1333   1.653   1.262   1.370
  171SOL    HW2 1334   1.529   1.359   1.327
  172SOL     OW 1335   1.081   1.121   0.742
  172SOL    HW1 1336   1.001   1.073   0.778
  172SOL    HW2 1337   1.149   1.054   0.711
  173SOL     OW 1338   1.032   0.268   0.950
  173SOL    HW1 1339   1.022   0.226   0.860
  173SOL    HW2 1340   1.008   0.201   1.021
  174SOL     OW 1341   0.614   1.483   0.488
  174SOL    HW1 1342   0.665   1.430   0.420
  174SOL    HW2 1343   0.524   1.506   0.452
  175SOL     OW 1344   1.766   0.375   1.395
  175SOL    HW1 1345   1.838   0.444   1.392
  175SOL    HW2 1346   1.789   0.301   1.331
  176SOL     OW 1347   0.284   1.308   0.359
  176SOL    HW1 1348   0.196   1.309   0.311
  176SOL    HW2 1349   0.280   1.371   0.437
  177SOL     OW 1350   0.141   0.963   1.713
  177SOL    HW1 1351   0.089   1.021   1.777
  177SOL    HW2 1352   0.230   0.943   1.752
  178SOL     OW 1353   0.675   0.254   1.528
  178SOL    HW1 1354   0.747   0.239   1.460
  178SOL    HW2 1355   0.717   0.279   1.616
  179SOL     OW 1356   0.027   0.503   0.052
  179SOL    HW1 1357   6.961   0.510   0.127
  179SOL    HW2 1358   0.051   0.407   0.037
  180SOL     OW 1359   1.402   0.853   1.376
  180SOL    HW1 1360   1.343   0.913   1.321
  180SOL    HW2 1361   1.495   0.856   1.340
  181SOL     OW 1362   0.026   0.219   0.297
  181SOL    HW1 1363   0.093   0.288   0.323
  181SOL    HW2 1364   0.073   0.139   0.260
  182SOL     OW 1365   1.185   1.317   0.133
  182SOL    HW1 1366   1.087   1.334   0.120
  182SOL    HW2 1367   1.205   1.315   0.231
  183SOL     OW 1368   0.650   0.813   1.424
  183SOL    HW1 1369   0.704   0.897   1.415
  183SOL    HW2 1370   0.711   0.735   1.437
  184SOL     OW 1371   1.504   1.826   1.024
  184SOL    HW1 1372   1.533   1.892   0.955
  184SOL    HW2 1373   1.584   1.778   1.060
  185SOL     OW 1374   0.711   0.549   1.721
  185SOL    HW1 1375   0.765   0.618   1.768
  185SOL    HW2 1376   0.738   0.458   1.753
  186SOL     OW 1377   1.467   1.187   1.624
  186SOL    HW1 1378   1.454   1.208   1.721
  186SOL    HW2 1379   1.561   1.209   1.597
  187SOL     OW 1380   0.350   1.777   1.576
  187SOL    HW1 1381   0.261   1.821   1.566
  187SOL    HW2 1382   0.339   1.689   1.623
  188SOL     OW 1383   1.648   0.871   1.254
  188SOL    HW1 1384   1.649   0.782   1.207
  188SOL    HW2 1385   1.635   0.943   1.187
  189SOL     OW 1386   1.250   0.327   0.431
  189SOL    HW1 1387   1.325   0.264   0.416
  189SOL    HW2 1388   1.259   0.370   0.521
  190SOL     OW 1389   0.576   0.723   0.680
  190SOL    HW1 1390   0.621   0.812   0.670
  190SOL    HW2 1391   0.514   0.707   0.603
  191SOL     OW 1392   1.734   0.349   1.664
  191SOL    HW1 1393   1.750   0.363   1.567
  191SOL    HW2 1394   1.653   0.292   1.677
  192SOL     OW 1395   1.755   0.928   1.498
  192SOL    HW1 1396   1.740   1.025   1.517
  192SOL    HW2 1397   1.723   0.907   1.406
  193SOL     OW 1398   0.930   1.398   0.108
  193SOL    HW1 1399   0.860   1.374   0.176
  193SOL    HW2 1400   0.909   1.487   0.068
  194SOL     OW 1401   0.680   1.759   0.935
  194SOL    HW1 1402   0.655   1.856   0.926
  194SOL    HW2 1403   0.779   1.749   0.926
  195SOL     OW 1404   0.875   0.983   0.866
  195SOL    HW1 1405   0.929   0.905   0.898
  195SOL    HW2 1406   0.825   1.022   0.943
  196SOL     OW 1407   1.065   0.959   0.043
  196SOL    HW1 1408   1.102   1.052   0.042
  196SOL    HW2 1409   1.141   0.893   0.042
  197SOL     OW 1410   1.846   1.542   0.841
  197SOL    HW1 1411   1.760   1.538   0.789
  197SOL    HW2 1412   1.862   1.454   0.886
  198SOL     OW 1413   0.234   1.321   1.879
  198SOL    HW1 1414   0.138   1.295   1.869
  198SOL    HW2 1415   0.256   1.331   1.976
  199SOL     OW 1416   0.142   1.303   0.742
  199SOL    HW1 1417   0.128   1.260   0.831
  199SOL    HW2 1418   0.099   1.248   0.671
  200SOL     OW 1419   0.692   1.437   1.641
  200SOL    HW1 1420   0.609   1.392   1.675
  200SOL    HW2 1421   0.696   1.530   1.677
  201SOL     OW 1422   1.820   0.169   1.229
  201SOL    HW1 1423   1.737   0.119   1.203
  201SOL    HW2 1424   1.880   0.178   1.150
  202SOL     OW 1425   0.439   0.386   0.523
  202SOL    HW1 1426   0.511   0.318   0.509
  202SOL    HW2 1427   0.389   0.365   0.607
  203SOL     OW 1428   1.669   1.482   1.106
  203SOL    HW1 1429   1.604   1.465   1.032
  203SOL    HW2 1430   1.663   1.409   1.174
  204SOL     OW 1431   0.339   0.553   1.282
  204SOL    HW1 1432   0.388   0.490   1.343
  204SOL    HW2 1433   0.351   0.524   1.187
  205SOL     OW 1434   0.834   1.564   0.685
  205SOL    HW1 1435   0.803   1.616   0.606
  205SOL    HW2 1436   0.765   1.497   0.711
  206SOL     OW 1437   1.460   0.268   1.120
  206SOL    HW1 1438   1.507   0.184   1.147
  206SOL    HW2 1439   1.398   0.296   1.193
  207SOL     OW 1440   0.950   0.065   1.113
  207SOL    HW1 1441   0.926   0.021   1.026
  207SOL    HW2 1442   0.989   6.997   1.174
  208SOL     OW 1443   0.782   1.322   0.335
  208SOL    HW1 1444   0.754   1.227   0.349
  208SOL    HW2 1445   0.864   1.341   0.389
  209SOL     OW 1446   0.618   1.587   1.296
  209SOL    HW1 1447   0.606   1.680   1.332
  209SOL    HW2 1448   0.707   1.580   1.251
  210SOL     OW 1449   1.404   0.020   0.068
  210SOL    HW1 1450   1.389   6.922   0.055
  210SOL    HW2 1451   1.315   0.066   0.072
  211SOL     OW 1452   1.250   0.444   0.679
  211SOL    HW1 1453   1.209   0.535   0.668
  211SOL    HW2 1454   1.273   0.430   0.775
  212SOL     OW 1455   1.640   0.236   0.887
  212SOL    HW1 1456   1.579   0.243   0.966
  212SOL    HW2 1457   1.639   0.322   0.837
  213SOL     OW 1458   0.069   1.043   0.313
  213SOL    HW1 1459   0.152   1.001   0.277
  213SOL    HW2 1460   6.994   0.977   0.310
  214SOL     OW 1461   0.894   1.673   0.365
  214SOL    HW1 1462   0.816   1.650   0.307
  214SOL    HW2 1463   0.872   1.753   0.421
  215SOL     OW 1464   0.163   0.691   1.991
  215SOL    HW1 1465   0.157   0.625   2.066
  215SOL    HW2 1466   0.203   0.647   1.911
  216SOL     OW 1467   0.190   0.290   2.856
  216SOL    HW1 1468   0.248   0.245   2.924
  216SOL    HW2 1469   0.096   0.259   2.866
  217SOL     OW 1470   0.008   0.369   2.510
  217SOL    HW1 1471   6.954   0.387   2.592
  217SOL    HW2 1472   0.012   0.271   2.494
  218SOL     OW 1473   0.580   1.320   3.085
  218SOL    HW1 1474   0.496   1.317   3.031
  218SOL    HW2 1475   0.599   1.415   3.112
  219SOL     OW 1476   1.587   1.521   2.559
  219SOL    HW1 1477   1.538   1.486   2.639
  219SOL    HW2 1478   1.523   1.531   2.483
  220SOL     OW 1479   1.132   0.714   2.540
  220SOL    HW1 1480   1.185   0.797   2.520
  220SOL    HW2 1481   1.083   0.727   2.627
  221SOL     OW 1482   1.796   0.577   2.071
  221SOL    HW1 1483   1.765   0.583   1.976
  221SOL    HW2 1484   1.742   0.509   2.120
  222SOL     OW 1485   0.720   1.132   2.923
  222SOL    HW1 1486   0.662   1.166   2.997
  222SOL    HW2 1487   0.763   1.209   2.876
  223SOL     OW 1488   0.885   0.748   3.686
  223SOL    HW1 1489   0.898   0.816   3.758
  223SOL    HW2 1490   0.906   0.790   3.597
  224SOL     OW 1491   0.688   0.985   2.518
  224SOL    HW1 1492   0.759   0.986   2.587
  224SOL    HW2 1493   0.615   1.049   2.544
  225SOL     OW 1494   0.709   1.158   3.701
  225SOL    HW1 1495   0.769   1.227   3.743
  225SOL    HW2 1496   0.631   1.203   3.658
  226SOL     OW 1497   0.354   1.394   2.932
  226SOL    HW1 1498   0.276   1.348   2.889
  226SOL    HW2 1499   0.396   1.456   2.865
  227SOL     OW 1500   1.443   1.499   3.238
  227SOL    HW1 1501   1.504   1.577   3.251
  227SOL    HW2 1502   1.364   1.508   3.299
  228SOL     OW 1503   0.437   0.381   3.328
  228SOL    HW1 1504   0.523   0.336   3.351
  228SOL    HW2 1505   0.362   0.334   3.374
  229SOL     OW 1506   1.627   0.476   2.608
  229SOL    HW1 1507   1.609   0.514   2.517
  229SOL    HW2 1508   1.577   0.528   2.677
  230SOL     OW 1509   0.242   1.715   2.334
  230SOL    HW1 1510   0.260   1.794   2.392
  230SOL    HW2 1511   0.304   1.716   2.255
  231SOL     OW 1512   1.132   1.338   3.565
  231SOL    HW1 1513   1.181   1.329   3.651
  231SOL    HW2 1514   1.073   1.258   3.551
  232SOL     OW 1515   0.333   1.459   2.392
  232SOL    HW1 1516   0.294   1.551   2.391
  232SOL    HW2 1517   0.287   1.404   2.462
  233SOL     OW 1518   0.293   1.088   2.751
  233SOL    HW1 1519   0.301   0.990   2.771
  233SOL    HW2 1520   0.220   1.128   2.806
  234SOL     OW 1521   0.564   1.831   3.270
  234SOL    HW1 1522   0.482   1.807   3.322
  234SOL    HW2 1523   0.609   1.909   3.313
  235SOL     OW 1524   0.569   0.989   2.020
  235SOL    HW1 1525   0.619   1.036   1.947
  235SOL    HW2 1526   0.608   1.014   2.109
  236SOL     OW 1527   1.566   0.108   3.318
  236SOL    HW1 1528   1.623   0.180   3.280
  236SOL    HW2 1529   1.535   0.135   3.409
  237SOL     OW 1530   0.128   0.614   2.438
  237SOL    HW1 1531   0.080   0.531   2.467
  237SOL    HW2 1532   0.111   0.688   2.503
  238SOL     OW 1533   1.852   1.747   2.180
  238SOL    HW1 1534   1.929   1.732   2.241
  238SOL    HW2 1535   1.856   1.841   2.144
  239SOL     OW 1536   0.001   1.572   1.986
  239SOL    HW1 1537   0.012   1.486   2.037
  239SOL    HW2 1538   6.908   1.578   1.951
  240SOL     OW 1539   1.705   0.930   2.527
  240SOL    HW1 1540   1.797   0.891   2.531
  240SOL    HW2 1541   1.693   0.979   2.441
  241SOL     OW 1542   1.672   1.110   2.303
  241SOL    HW1 1543   1.757   1.093   2.254
  241SOL    HW2 1544   1.688   1.176   2.376
  242SOL     OW 1545   0.199   0.737   3.417
  242SOL    HW1 1546   0.297   0.744   3.398
  242SOL    HW2 1547   0.167   0.823   3.457
  243SOL     OW 1548   0.630   1.388   2.598
  243SOL    HW1 1549   0.583   1.300   2.601
  243SOL    HW2 1550   0.620   1.428   2.507
  244SOL     OW 1551   1.257   1.215   3.282
  244SOL    HW1 1552   1.279   1.144   3.215
  244SOL    HW2 1553   1.324   1.213   3.356
  245SOL     OW 1554   0.856   0.038   2.401
  245SOL    HW1 1555   0.901   0.122   2.370
  245SOL    HW2 1556   0.757   0.048   2.393
  246SOL     OW 1557   0.210   0.961   3.134
  246SOL    HW1 1558   0.294   0.910   3.116
  246SOL    HW2 1559   0.141   0.935   3.068
  247SOL     OW 1560   1.546   1.030   2.067
  247SOL    HW1 1561   1.473   0.966   2.090
  247SOL    HW2 1562   1.592   1.061   2.151
  248SOL     OW 1563   1.161   1.806   3.490
  248SOL    HW1 1564   1.176   1.879   3.423
  248SOL    HW2 1565   1.183   1.718   3.448
  249SOL     OW 1566   0.346   0.293   3.719
  249SOL    HW1 1567   0.378   0.361   3.785
  249SOL    HW2 1568   0.246   0.286   3.725
  250SOL     OW 1569   1.460   1.417   2.780
  250SOL    HW1 1570   1.404   1.440   2.859
  250SOL    HW2 1571   1.446   1.321   2.756
  251SOL     OW 1572   1.621   1.821   2.409
  251SOL    HW1 1573   1.613   1.763   2.327
  251SOL    HW2 1574   1.633   1.763   2.489
  252SOL     OW 1575   0.562   0.707   2.123
  252SOL    HW1 1576   0.575   0.799   2.086
  252SOL    HW2 1577   0.504   0.712   2.204
  253SOL     OW 1578   1.289   0.396   2.811
  253SOL    HW1 1579   1.197   0.358   2.821
  253SOL    HW2 1580   1.352   0.348   2.872
  254SOL     OW 1581   1.588   1.671   2.179
  254SOL    HW1 1582   1.687   1.687   2.174
  254SOL    HW2 1583   1.551   1.661   2.087
  255SOL     OW 1584   0.806   0.591   3.326
  255SOL    HW1 1585   0.770   0.561   3.414
  255SOL    HW2 1586   0.778   0.526   3.255
  256SOL     OW 1587   1.393   0.485   3.539
  256SOL    HW1 1588   1.400   0.527   3.630
  256SOL    HW2 1589   1.440   0.397   3.540
  257SOL     OW 1590   0.949   0.879   3.447
  257SOL    HW1 1591   1.007   0.812   3.402
  257SOL    HW2 1592   0.897   0.930   3.379
  258SOL     OW 1593   1.016   0.407   3.054
  258SOL    HW1 1594   0.923   0.419   3.088
  258SOL    HW2 1595   1.014   0.366   2.963
  259SOL     OW 1596   1.040   0.698   2.277
  259SOL    HW1 1597   1.065   0.698   2.374
  259SOL    HW2 1598   0.950   0.655   2.266
  260SOL     OW 1599   0.086   0.805   2.648
  260SOL    HW1 1600   0.180   0.813   2.683
  260SOL    HW2 1601   0.022   0.811   2.724
  261SOL     OW 1602   0.097   1.886   3.491
  261SOL    HW1 1603   0.117   1.858   3.585
  261SOL    HW2 1604   0.000   1.870   3.471
  262SOL     OW 1605   0.860   0.359   2.070
  262SOL    HW1 1606   0.917   0.410   2.005
  262SOL    HW2 1607   0.811   0.287   2.021
  263SOL     OW 1608   1.687   0.569   3.689
  263SOL    HW1 1609   1.662   0.651   3.637
  263SOL    HW2 1610   1.707   0.494   3.625
  264SOL     OW 1611   1.402   1.161   2.400
  264SOL    HW1 1612   1.488   1.148   2.351
  264SOL    HW2 1613   1.345   1.225   2.349
  265SOL     OW 1614   0.498   0.210   2.790
  265SOL    HW1 1615   0.541   0.227   2.879
  265SOL    HW2 1616   0.513   0.289   2.731
  266SOL     OW 1617   0.990   1.461   2.325
  266SOL    HW1 1618   0.969   1.539   2.266
  266SOL    HW2 1619   0.962   1.482   2.419
  267SOL     OW 1620   0.367   1.812   2.736
  267SOL    HW1 1621   0.406   1.720   2.746
  267SOL    HW2 1622   0.433   1.880   2.766
  268SOL     OW 1623   1.797   1.054   2.765
  268SOL    HW1 1624   1.752   1.042   2.677
  268SOL    HW2 1625   1.729   1.062   2.837
  269SOL     OW 1626   1.202   1.533   3.376
  269SOL    HW1 1627   1.194   1.464   3.449
  269SOL    HW2 1628   1.140   1.509   3.301
  270SOL     OW 1629   0.300   0.936   2.113
  270SOL    HW1 1630   0.389   0.958   2.074
  270SOL    HW2 1631   0.267   0.849   2.074
  271SOL     OW 1632   1.484   0.778   2.577
  271SOL    HW1 1633   1.481   0.728   2.663
  271SOL    HW2 1634   1.567   0.834   2.573
  272SOL     OW 1635   0.472   1.294   3.608
  272SOL    HW1 1636   0.450   1.296   3.510
  272SOL    HW2 1637   0.388   1.288   3.661
  273SOL     OW 1638   1.146   1.772   2.092
  273SOL    HW1 1639   1.058   1.748   2.132
  273SOL    HW2 1640   1.171   1.704   2.023
  274SOL     OW 1641   0.182   0.304   3.433
  274SOL    HW1 1642   0.141   0.389   3.400
  274SOL    HW2 1643   0.156   0.290   3.529
  275SOL     OW 1644   1.639   1.387   1.959
  275SOL    HW1 1645   1.608   1.481   1.944
  275SOL    HW2 1646   1.566   1.324   1.934
  276SOL     OW 1647   0.467   1.750   2.163
  276SOL    HW1 1648   0.514   1.793   2.240
  276SOL    HW2 1649   0.533   1.703   2.105
  277SOL     OW 1650   1.421   0.135   2.264
  277SOL    HW1 1651   1.395   0.081   2.184
  277SOL    HW2 1652   1.520   0.151   2.263
  278SOL     OW 1653   0.247   1.775   3.065
  278SOL    HW1 1654   0.284   1.690   3.104
  278SOL    HW2 1655   0.191   1.752   2.986
  279SOL     OW 1656   0.956   1.700   2.747
  279SOL    HW1 1657   1.047   1.662   2.762
  279SOL    HW2 1658   0.910   1.649   2.675
  280SOL     OW 1659   0.398   0.669   2.343
  280SOL    HW1 1660   0.422   0.573   2.353
  280SOL    HW2 1661   0.303   0.683   2.371
  281SOL     OW 1662   1.495   0.218   3.575
  281SOL    HW1 1663   1.537   0.216   3.666
  281SOL    HW2 1664   1.398   0.193   3.582
  282SOL     OW 1665   0.680   0.109   1.966
  282SOL    HW1 1666   0.711   0.032   2.023
  282SOL    HW2 1667   0.605   0.079   1.908
  283SOL     OW 1668   0.793   0.279   3.639
  283SOL    HW1 1669   0.886   0.244   3.624
  283SOL    HW2 1670   0.744   0.218   3.701
  284SOL     OW 1671   0.860   1.522   3.049
  284SOL    HW1 1672   0.839   1.474   2.964
  284SOL    HW2 1673   0.929   1.472   3.100
  285SOL     OW 1674   1.329   0.591   3.294
  285SOL    HW1 1675   1.363   0.563   3.384
  285SOL    HW2 1676   1.360   0.684   3.275
  286SOL     OW 1677   0.813   1.368   2.814
  286SOL    HW1 1678   0.905   1.369   2.776
  286SOL    HW2 1679   0.746   1.378   2.740
  287SOL     OW 1680   0.926   0.524   2.735
  287SOL    HW1 1681   0.900   0.517   2.639
  287SOL    HW2 1682   0.960   0.435   2.767
  288SOL     OW 1683   0.593   0.072   2.343
  288SOL    HW1 1684   0.514   0.064   2.405
  288SOL    HW2 1685   0.570   0.132   2.267
  289SOL     OW 1686   1.429   1.216   1.899
  289SOL    HW1 1687   1.467   1.143   1.954
  289SOL    HW2 1688   1.340   1.242   1.936
  290SOL     OW 1689   0.313   0.032   2.106
  290SOL    HW1 1690   0.372   0.114   2.101
  290SOL    HW2 1691   0.295   0.011   2.202
  291SOL     OW 1692   0.967   0.274   2.309
  291SOL    HW1 1693   0.927   0.303   2.222
  291SOL    HW2 1694   1.066   0.288   2.306
  292SOL     OW 1695   1.067   0.690   3.289
  292SOL    HW1 1696   0.992   0.628   3.312
  292SOL    HW2 1697   1.153   0.640   3.294
  293SOL     OW 1698   1.212   1.587   2.666
  293SOL    HW1 1699   1.224   1.654   2.593
  293SOL    HW2 1700   1.300   1.573   2.713
  294SOL     OW 1701   0.482   1.159   2.569
  294SOL    HW1 1702   0.418   1.133   2.642
  294SOL    HW2 1703   0.436   1.150   2.481
  295SOL     OW 1704   1.241   1.791   2.477
  295SOL    HW1 1705   1.293   1.854   2.420
  295SOL    HW2 1706   1.162   1.839   2.516
  296SOL     OW 1707   1.017   0.519   1.911
  296SOL    HW1 1708   0.976   0.607   1.885
  296SOL    HW2 1709   1.089   0.534   1.979
  297SOL     OW 1710   0.088   0.533   3.253
  297SOL    HW1 1711   0.179   0.526   3.212
  297SOL    HW2 1712   0.085   0.610   3.316
  298SOL     OW 1713   0.577   0.234   3.058
  298SOL    HW1 1714   0.631   0.162   3.103
  298SOL    HW2 1715   0.480   0.219   3.076
  299SOL     OW 1716   0.869   0.476   2.476
  299SOL    HW1 1717   0.816   0.530   2.410
  299SOL    HW2 1718   0.905   0.394   2.431
  300SOL     OW 1719   0.970   6.999   2.661
  300SOL    HW1 1720   0.926   0.013   2.573
  300SOL    HW2 1721   1.021   6.913   2.660
  301SOL     OW 1722   1.432   1.149   2.715
  301SOL    HW1 1723   1.357   1.085   2.728
  301SOL    HW2 1724   1.453   1.156   2.617
  302SOL     OW 1725   1.465   0.618   2.803
  302SOL    HW1 1726   1.398   0.544   2.812
  302SOL    HW2 1727   1.527   0.615   2.882
  303SOL     OW 1728   1.808   0.782   2.250
  303SOL    HW1 1729   1.878   0.750   2.314
  303SOL    HW2 1730   1.802   0.718   2.174
  304SOL     OW 1731   0.519   1.430   2.000
  304SOL    HW1 1732   0.443   1.398   2.057
  304SOL    HW2 1733   0.512   1.389   1.909
  305SOL     OW 1734   1.726   1.273   2.507
  305SOL    HW1 1735   1.823   1.267   2.527
  305SOL    HW2 1736   1.694   1.366   2.526
  306SOL     OW 1737   1.397   0.583   1.932
  306SOL    HW1 1738   1.335   0.562   2.008
  306SOL    HW2 1739   1.492   0.575   1.963
  307SOL     OW 1740   0.513   0.239   2.142
  307SOL    HW1 1741   0.580   0.205   2.077
  307SOL    HW2 1742   0.482   0.330   2.114
  308SOL     OW 1743   1.739   1.236   3.394
  308SOL    HW1 1744   1.830   1.198   3.377
  308SOL    HW2 1745   1.749   1.328   3.434
  309SOL     OW 1746   1.033   1.357   3.205
  309SOL    HW1 1747   0.947   1.326   3.246
  309SOL    HW2 1748   1.109   1.305   3.245
  310SOL     OW 1749   1.620   1.647   3.537
  310SOL    HW1 1750   1.600   1.678   3.444
  310SOL    HW2 1751   1.698   1.583   3.534
  311SOL     OW 1752   1.146   1.256   2.972
  311SOL    HW1 1753   1.086   1.287   3.045
  311SOL    HW2 1754   1.110   1.285   2.884
  312SOL     OW 1755   1.597   1.091   2.947
  312SOL    HW1 1756   1.590   1.159   3.020
  312SOL    HW2 1757   1.528   1.110   2.877
  313SOL     OW 1758   0.874   0.175   3.224
  313SOL    HW1 1759   0.893   0.145   3.131
  313SOL    HW2 1760   0.959   0.198   3.270
  314SOL     OW 1761   0.966   1.118   3.578
  314SOL    HW1 1762   0.873   1.134   3.610
  314SOL    HW2 1763   0.969   1.032   3.526
  315SOL     OW 1764   0.713   1.058   2.249
  315SOL    HW1 1765   0.697   1.033   2.344
  315SOL    HW2 1766   0.792   1.008   2.214
  316SOL     OW 1767   0.440   0.807   3.112
  316SOL    HW1 1768   0.515   0.816   3.177
  316SOL    HW2 1769   0.397   0.717   3.122
  317SOL     OW 1770   1.265   0.365   3.155
  317SOL    HW1 1771   1.296   0.447   3.204
  317SOL    HW2 1772   1.175   0.382   3.116
  318SOL     OW 1773   0.066   1.531   3.227
  318SOL    HW1 1774   0.016   1.571   3.303
  318SOL    HW2 1775   0.163   1.556   3.233
  319SOL     OW 1776   0.356   1.125   2.325
  319SOL    HW1 1777   0.340   1.202   2.262
  319SOL    HW2 1778   0.340   1.039   2.276
  320SOL     OW 1779   0.537   0.527   2.734
  320SOL    HW1 1780   0.548   0.587   2.654
  320SOL    HW2 1781   0.608   0.548   2.801
  321SOL     OW 1782   1.244   1.362   2.265
  321SOL    HW1 1783   1.306   1.434   2.296
  321SOL    HW2 1784   1.150   1.384   2.293
  322SOL     OW 1785   1.313   1.473   3.000
  322SOL    HW1 1786   1.360   1.480   3.087
  322SOL    HW2 1787   1.255   1.391   3.000
  323SOL     OW 1788   1.593   0.628   2.369
  323SOL    HW1 1789   1.531   0.682   2.426
  323SOL    HW2 1790   1.661   0.689   2.327
  324SOL     OW 1791   0.346   1.530   3.168
  324SOL    HW1 1792   0.335   1.475   3.085
  324SOL    HW2 1793   0.441   1.557   3.179
  325SOL     OW 1794   0.488   0.717   3.485
  325SOL    HW1 1795   0.538   0.762   3.412
  325SOL    HW2 1796   0.543   0.644   3.524
  326SOL     OW 1797   1.622   0.798   3.558
  326SOL    HW1 1798   1.529   0.832   3.550
  326SOL    HW2 1799   1.677   0.833   3.482
  327SOL     OW 1800   1.025   0.128   3.592
  327SOL    HW1 1801   1.057   0.160   3.503
  327SOL    HW2 1802   1.005   0.030   3.586
  328SOL     OW 1803   0.472   0.054   3.656
  328SOL    HW1 1804   0.400   6.988   3.672
  328SOL    HW2 1805   0.435   0.147   3.664
  329SOL     OW 1806   0.596   0.876   2.893
  329SOL    HW1 1807   0.633   0.969   2.898
  329SOL    HW2 1808   0.535   0.860   2.970
  330SOL     OW 1809   1.297   0.849   2.859
  330SOL    HW1 1810   1.204   0.821   2.835
  330SOL    HW2 1811   1.359   0.773   2.843
  331SOL     OW 1812   1.200   0.539   2.121
  331SOL    HW1 1813   1.219   0.458   2.177
  331SOL    HW2 1814   1.148   0.605   2.175
  332SOL     OW 1815   0.310   0.160   3.067
  332SOL    HW1 1816   0.233   0.151   3.129
  332SOL    HW2 1817   0.329   0.071   3.024
  333SOL     OW 1818   0.100   1.285   3.122
  333SOL    HW1 1819   0.112   1.217   3.195
  333SOL    HW2 1820   0.085   1.375   3.162
  334SOL     OW 1821   0.730   0.633   2.904
  334SOL    HW1 1822   0.799   0.612   2.835
  334SOL    HW2 1823   0.692   0.724   2.885
  335SOL     OW 1824   1.750   0.973   3.731
  335SOL    HW1 1825   1.707   0.902   3.676
  335SOL    HW2 1826   1.689   0.999   3.806
  336SOL     OW 1827   0.356   0.078   2.470
  336SOL    HW1 1828   0.330   0.162   2.518
  336SOL    HW2 1829   0.293   0.004   2.497
  337SOL     OW 1830   1.602   0.418   2.187
  337SOL    HW1 1831   1.637   0.341   2.240
  337SOL    HW2 1832   1.577   0.492   2.249
  338SOL     OW 1833   1.031   0.762   2.811
  338SOL    HW1 1834   1.010   0.782   2.907
  338SOL    HW2 1835   0.999   0.670   2.788
  339SOL     OW 1836   0.979   1.560   3.624
  339SOL    HW1 1837   0.949   1.619   3.549
  339SOL    HW2 1838   1.021   1.477   3.586
  340SOL     OW 1839   1.839   1.490   3.466
  340SOL    HW1 1840   1.863   1.517   3.372
  340SOL    HW2 1841   1.920   1.498   3.524
  341SOL     OW 1842   0.386   0.898   3.668
  341SOL    HW1 1843   0.456   0.928   3.733
  341SOL    HW2 1844   0.426   0.831   3.606
  342SOL     OW 1845   1.530   0.232   1.985
  342SOL    HW1 1846   1.431   0.238   1.971
  342SOL    HW2 1847   1.559   0.302   2.050
  343SOL     OW 1848   1.278   0.822   1.868
  343SOL    HW1 1849   1.320   0.732   1.882
  343SOL    HW2 1850   1.312   0.861   1.783
  344SOL     OW 1851   1.068   1.359   2.728
  344SOL    HW1 1852   1.084   1.278   2.671
  344SOL    HW2 1853   1.122   1.435   2.692
  345SOL     OW 1854   0.332   0.811   2.783
  345SOL    HW1 1855   0.430   0.827   2.783
  345SOL    HW2 1856   0.314   0.719   2.817
  346SOL     OW 1857   0.301   0.537   2.863
  346SOL    HW1 1858   0.252   0.451   2.854
  346SOL    HW2 1859   0.386   0.533   2.811
  347SOL     OW 1860   1.119   0.448   3.526
  347SOL    HW1 1861   1.075   0.469   3.614
  347SOL    HW2 1862   1.216   0.469   3.531
  348SOL     OW 1863   1.107   0.242   3.355
  348SOL    HW1 1864   1.105   0.323   3.414
  348SOL    HW2 1865   1.175   0.256   3.283
  349SOL     OW 1866   0.015   1.330   2.121
  349SOL    HW1 1867   6.946   1.360   2.186
  349SOL    HW2 1868   0.019   1.230   2.120
  350SOL     OW 1869   0.114   1.736   2.821
  350SOL    HW1 1870   0.089   1.660   2.762
  350SOL    HW2 1871   0.199   1.777   2.788
  351SOL     OW 1872   0.495   1.566   2.764
  351SOL    HW1 1873   0.566   1.630   2.792
  351SOL    HW2 1874   0.533   1.499   2.701
  352SOL     OW 1875   0.942   0.795   3.066
  352SOL    HW1 1876   0.997   0.767   3.144
  352SOL    HW2 1877   0.858   0.740   3.063
  353SOL     OW 1878   0.063   0.644   2.985
  353SOL    HW1 1879   0.146   0.610   2.940
  353SOL    HW2 1880   0.060   0.610   3.079
  354SOL     OW 1881   0.236   0.555   3.617
  354SOL    HW1 1882   0.312   0.490   3.612
  354SOL    HW2 1883   0.243   0.620   3.542
  355SOL     OW 1884   1.385   0.923   3.501
  355SOL    HW1 1885   1.405   1.021   3.501
  355SOL    HW2 1886   1.377   0.891   3.406
  356SOL     OW 1887   0.795   0.583   2.223
  356SOL    HW1 1888   0.810   0.500   2.169
  356SOL    HW2 1889   0.715   0.632   2.188
  357SOL     OW 1890   1.640   0.606   3.015
  357SOL    HW1 1891   1.617   0.538   3.084
  357SOL    HW2 1892   1.738   0.602   2.995
  358SOL     OW 1893   0.269   1.575   3.605
  358SOL    HW1 1894   0.217   1.640   3.661
  358SOL    HW2 1895   0.259   1.483   3.643
  359SOL     OW 1896   0.744   0.449   3.103
  359SOL    HW1 1897   0.680   0.372   3.090
  359SOL    HW2 1898   0.730   0.516   3.030
  360SOL     OW 1899   0.865   1.701   3.393
  360SOL    HW1 1900   0.833   1.636   3.325
  360SOL    HW2 1901   0.893   1.786   3.348
  361SOL     OW 1902   0.417   0.478   2.050
  361SOL    HW1 1903   0.476   0.558   2.062
  361SOL    HW2 1904   0.334   0.490   2.105
  362SOL     OW 1905   0.163   1.119   3.344
  362SOL    HW1 1906   0.161   1.062   3.427
  362SOL    HW2 1907   0.182   1.061   3.265
  363SOL     OW 1908   1.281   1.033   3.062
  363SOL    HW1 1909   1.292   0.965   2.990
  363SOL    HW2 1910   1.232   1.113   3.026
  364SOL     OW 1911   1.334   0.874   2.135
  364SOL    HW1 1912   1.262   0.847   2.199
  364SOL    HW2 1913   1.303   0.855   2.041
  365SOL     OW 1914   1.756   1.701   3.016
  365SOL    HW1 1915   1.830   1.734   2.956
  365SOL    HW2 1916   1.732   1.607   2.991
  366SOL     OW 1917   1.260   1.745   2.962
  366SOL    HW1 1918   1.351   1.779   2.942
  366SOL    HW2 1919   1.263   1.646   2.978
  367SOL     OW 1920   0.094   1.236   2.861
  367SOL    HW1 1921   0.096   1.249   2.960
  367SOL    HW2 1922   6.999   1.237   2.829
  368SOL     OW 1923   0.689   1.707   3.604
  368SOL    HW1 1924   0.620   1.779   3.598
  368SOL    HW2 1925   0.756   1.719   3.531
  369SOL     OW 1926   1.702   0.208   2.321
  369SOL    HW1 1927   1.777   0.176   2.263
  369SOL    HW2 1928   1.688   0.143   2.396
  370SOL     OW 1929   1.398   1.575   2.359
  370SOL    HW1 1930   1.459   1.609   2.287
  370SOL    HW2 1931   1.336   1.649   2.387
  371SOL     OW 1932   0.130   1.784   3.750
  371SOL    HW1 1933   0.085   1.705   3.793
  371SOL    HW2 1934   0.184   1.832   3.818
  372SOL     OW 1935   1.281   0.942   2.505
  372SOL    HW1 1936   1.355   0.880   2.532
  372SOL    HW2 1937   1.318   1.020   2.456
  373SOL     OW 1938   0.777   1.287   3.283
  373SOL    HW1 1939   0.751   1.337   3.366
  373SOL    HW2 1940   0.702   1.292   3.217
  374SOL     OW 1941   0.685   1.645   2.010
  374SOL    HW1 1942   0.699   1.667   1.913
  374SOL    HW2 1943   0.634   1.560   2.017
  375SOL     OW 1944   1.610   1.718   3.261
  375SOL    HW1 1945   1.666   1.711   3.179
  375SOL    HW2 1946   1.573   1.811   3.268
  376SOL     OW 1947   1.883   0.123   2.817
  376SOL    HW1 1948   1.888   0.024   2.824
  376SOL    HW2 1949   1.790   0.150   2.790
  377SOL     OW 1950   0.274   0.312   2.587
  377SOL    HW1 1951   0.187   0.349   2.553
  377SOL    HW2 1952   0.267   0.297   2.686
  378SOL     OW 1953   1.220   1.582   1.907
  378SOL    HW1 1954   1.213   1.489   1.943
  378SOL    HW2 1955   1.144   1.600   1.845
  379SOL     OW 1956   0.825   1.018   3.248
  379SOL    HW1 1957   0.871   1.002   3.161
  379SOL    HW2 1958   0.811   1.116   3.262
  380SOL     OW 1959   0.921   0.918   2.156
  380SOL    HW1 1960   0.975   0.946   2.076
  380SOL    HW2 1961   0.968   0.842   2.202
  381SOL     OW 1962   1.489   1.655   1.919
  381SOL    HW1 1963   1.393   1.628   1.906
  381SOL    HW2 1964   1.535   1.659   1.831
  382SOL     OW 1965   0.370   1.312   3.359
  382SOL    HW1 1966   0.360   1.387   3.294
  382SOL    HW2 1967   0.300   1.243   3.341
  383SOL     OW 1968   1.597   1.286   3.149
  383SOL    HW1 1969   1.657   1.259   3.224
  383SOL    HW2 1970   1.531   1.354   3.181
  384SOL     OW 1971   1.090   1.117   2.608
  384SOL    HW1 1972   1.008   1.070   2.640
  384SOL    HW2 1973   1.151   1.052   2.564
  385SOL     OW 1974   1.032   0.267   2.809
  385SOL    HW1 1975   1.023   0.225   2.719
  385SOL    HW2 1976   1.008   0.200   2.879
  386SOL     OW 1977   0.608   1.494   2.351
  386SOL    HW1 1978   0.651   1.441   2.278
  386SOL    HW2 1979   0.509   1.482   2.346
  387SOL     OW 1980   1.768   0.374   3.258
  387SOL    HW1 1981   1.839   0.444   3.254
  387SOL    HW2 1982   1.790   0.300   3.194
  388SOL     OW 1983   0.285   1.351   2.151
  388SOL    HW1 1984   0.185   1.349   2.145
  388SOL    HW2 1985   0.313   1.396   2.236
  389SOL     OW 1986   0.141   0.963   3.575
  389SOL    HW1 1987   0.090   1.022   3.638
  389SOL    HW2 1988   0.231   0.943   3.614
  390SOL     OW 1989   0.675   0.255   3.390
  390SOL    HW1 1990   0.747   0.239   3.322
  390SOL    HW2 1991   0.717   0.279   3.477
  391SOL     OW 1992   0.064   0.296   1.850
  391SOL    HW1 1993   6.993   0.226   1.854
  391SOL    HW2 1994   0.023   0.384   1.828
  392SOL     OW 1995   1.402   0.853   3.237
  392SOL    HW1 1996   1.343   0.912   3.182
  392SOL    HW2 1997   1.495   0.856   3.201
  393SOL     OW 1998   0.051   0.242   2.129
  393SOL    HW1 1999   0.060   0.269   2.033
  393SOL    HW2 2000   0.046   0.142   2.135
  394SOL     OW 2001   1.180   1.321   1.992
  394SOL    HW1 2002   1.082   1.306   1.982
  394SOL    HW2 2003   1.203   1.324   2.090
  395SOL     OW 2004   0.650   0.813   3.286
  395SOL    HW1 2005   0.704   0.896   3.276
  395SOL    HW2 2006   0.711   0.735   3.298
  396SOL     OW 2007   1.519   1.828   2.916
  396SOL    HW1 2008   1.548   1.886   2.840
  396SOL    HW2 2009   1.599   1.781   2.954
  397SOL     OW 2010   0.710   0.549   3.583
  397SOL    HW1 2011   0.765   0.619   3.630
  397SOL    HW2 2012   0.737   0.458   3.616
  398SOL     OW 2013   1.465   1.187   3.484
  398SOL    HW1 2014   1.453   1.207   3.581
  398SOL    HW2 2015   1.559   1.208   3.457
  399SOL     OW 2016   0.350   1.776   3.439
  399SOL    HW1 2017   0.261   1.820   3.429
  399SOL    HW2 2018   0.339   1.688   3.485
  400SOL     OW 2019   1.647   0.871   3.112
  400SOL    HW1 2020   1.649   0.782   3.067
  400SOL    HW2 2021   1.633   0.943   3.045
  401SOL     OW 2022   1.236   0.333   2.302
  401SOL    HW1 2023   1.303   0.259   2.294
  401SOL    HW2 2024   1.245   0.378   2.391
  402SOL     OW 2025   0.576   0.728   2.548
  402SOL    HW1 2026   0.623   0.816   2.536
  402SOL    HW2 2027   0.514   0.713   2.471
  403SOL     OW 2028   1.734   0.349   3.527
  403SOL    HW1 2029   1.750   0.363   3.429
  403SOL    HW2 2030   1.652   0.292   3.539
  404SOL     OW 2031   1.754   0.928   3.358
  404SOL    HW1 2032   1.738   1.024   3.378
  404SOL    HW2 2033   1.722   0.907   3.266
  405SOL     OW 2034   0.890   1.350   1.945
  405SOL    HW1 2035   0.841   1.360   2.032
  405SOL    HW2 2036   0.896   1.438   1.899
  406SOL     OW 2037   0.682   1.758   2.801
  406SOL    HW1 2038   0.657   1.854   2.791
  406SOL    HW2 2039   0.781   1.748   2.790
  407SOL     OW 2040   0.875   0.985   2.726
  407SOL    HW1 2041   0.926   0.905   2.757
  407SOL    HW2 2042   0.825   1.024   2.803
  408SOL     OW 2043   1.058   0.970   1.931
  408SOL    HW1 2044   1.036   1.036   1.860
  408SOL    HW2 2045   1.139   0.918   1.904
  409SOL     OW 2046   1.819   1.553   2.707
  409SOL    HW1 2047   1.743   1.550   2.642
  409SOL    HW2 2048   1.798   1.495   2.786
  410SOL     OW 2049   0.233   1.320   3.741
  410SOL    HW1 2050   0.138   1.291   3.731
  410SOL    HW2 2051   0.256   1.330   3.837
  411SOL     OW 2052   0.175   1.302   2.567
  411SOL    HW1 2053   0.208   1.240   2.638
  411SOL    HW2 2054   0.115   1.252   2.504
  412SOL     OW 2055   0.691   1.435   3.501
  412SOL    HW1 2056   0.609   1.391   3.537
  412SOL    HW2 2057   0.698   1.528   3.538
  413SOL     OW 2058   1.819   0.168   3.092
  413SOL    HW1 2059   1.736   0.119   3.064
  413SOL    HW2 2060   1.880   0.178   3.014
  414SOL     OW 2061   0.440   0.406   2.381
  414SOL    HW1 2062   0.475   0.329   2.328
  414SOL    HW2 2063   0.392   0.372   2.462
  415SOL     OW 2064   1.689   1.449   2.936
  415SOL    HW1 2065   1.608   1.437   2.878
  415SOL    HW2 2066   1.685   1.384   3.012
  416SOL     OW 2067   0.338   0.553   3.144
  416SOL    HW1 2068   0.387   0.490   3.204
  416SOL    HW2 2069   0.350   0.523   3.049
  417SOL     OW 2070   0.835   1.575   2.539
  417SOL    HW1 2071   0.795   1.632   2.467
  417SOL    HW2 2072   0.770   1.505   2.567
  418SOL     OW 2073   1.459   0.270   2.982
  418SOL    HW1 2074   1.506   0.185   3.007
  418SOL    HW2 2075   1.397   0.296   3.055
  419SOL     OW 2076   0.949   0.065   2.973
  419SOL    HW1 2077   0.924   0.021   2.887
  419SOL    HW2 2078   0.990   6.998   3.035
  420SOL     OW 2079   0.776   1.328   2.199
  420SOL    HW1 2080   0.752   1.232   2.215
  420SOL    HW2 2081   0.857   1.352   2.252
  421SOL     OW 2082   0.617   1.587   3.157
  421SOL    HW1 2083   0.606   1.680   3.192
  421SOL    HW2 2084   0.706   1.579   3.112
  422SOL     OW 2085   1.295   6.983   2.064
  422SOL    HW1 2086   1.335   6.906   2.014
  422SOL    HW2 2087   1.218   6.951   2.120
  423SOL     OW 2088   1.243   0.452   2.548
  423SOL    HW1 2089   1.202   0.542   2.534
  423SOL    HW2 2090   1.267   0.440   2.644
  424SOL     OW 2091   1.637   0.234   2.749
  424SOL    HW1 2092   1.576   0.244   2.828
  424SOL    HW2 2093   1.635   0.318   2.695
  425SOL     OW 2094   0.056   1.057   2.145
  425SOL    HW1 2095   0.147   1.016   2.141
  425SOL    HW2 2096   6.987   0.985   2.156
  426SOL     OW 2097   0.899   1.686   2.191
  426SOL    HW1 2098   0.821   1.669   2.130
  426SOL    HW2 2099   0.875   1.758   2.256
  427SOL     OW 2100   0.162   0.690   3.853
  427SOL    HW1 2101   0.157   0.624   3.928
  427SOL    HW2 2102   0.202   0.646   3.773
  428SOL     OW 2103   0.190   0.290   4.718
  428SOL    HW1 2104   0.248   0.245   4.786
  428SOL    HW2 2105   0.096   0.259   4.728
  429SOL     OW 2106   0.008   0.370   4.372
  429SOL    HW1 2107   6.954   0.387   4.454
  429SOL    HW2 2108   0.012   0.271   4.355
  430SOL     OW 2109   0.581   1.320   4.947
  430SOL    HW1 2110   0.497   1.316   4.893
  430SOL    HW2 2111   0.599   1.414   4.973
  431SOL     OW 2112   1.585   1.516   4.426
  431SOL    HW1 2113   1.539   1.482   4.508
  431SOL    HW2 2114   1.519   1.523   4.352
  432SOL     OW 2115   1.132   0.715   4.402
  432SOL    HW1 2116   1.185   0.797   4.382
  432SOL    HW2 2117   1.083   0.727   4.489
  433SOL     OW 2118   1.796   0.577   3.933
  433SOL    HW1 2119   1.765   0.583   3.838
  433SOL    HW2 2120   1.741   0.509   3.982
  434SOL     OW 2121   0.721   1.133   4.784
  434SOL    HW1 2122   0.663   1.168   4.858
  434SOL    HW2 2123   0.765   1.209   4.737
  435SOL     OW 2124   0.886   0.749   5.547
  435SOL    HW1 2125   0.900   0.817   5.619
  435SOL    HW2 2126   0.906   0.790   5.458
  436SOL     OW 2127   0.687   0.985   4.380
  436SOL    HW1 2128   0.760   0.986   4.449
  436SOL    HW2 2129   0.615   1.049   4.406
  437SOL     OW 2130   0.710   1.158   5.563
  437SOL    HW1 2131   0.770   1.227   5.604
  437SOL    HW2 2132   0.632   1.203   5.519
  438SOL     OW 2133   0.354   1.394   4.793
  438SOL    HW1 2134   0.277   1.348   4.751
  438SOL    HW2 2135   0.396   1.456   4.727
  439SOL     OW 2136   1.446   1.509   5.101
  439SOL    HW1 2137   1.505   1.588   5.112
  439SOL    HW2 2138   1.367   1.516   5.163
  440SOL     OW 2139   0.437   0.382   5.192
  440SOL    HW1 2140   0.523   0.336   5.214
  440SOL    HW2 2141   0.361   0.334   5.237
  441SOL     OW 2142   1.627   0.475   4.470
  441SOL    HW1 2143   1.609   0.514   4.379
  441SOL    HW2 2144   1.578   0.528   4.539
  442SOL     OW 2145   0.242   1.715   4.196
  442SOL    HW1 2146   0.260   1.795   4.254
  442SOL    HW2 2147   0.304   1.717   4.118
  443SOL     OW 2148   1.132   1.339   5.426
  443SOL    HW1 2149   1.186   1.328   5.510
  443SOL    HW2 2150   1.073   1.259   5.413
  444SOL     OW 2151   0.332   1.459   4.254
  444SOL    HW1 2152   0.293   1.551   4.253
  444SOL    HW2 2153   0.286   1.404   4.324
  445SOL     OW 2154   0.294   1.088   4.614
  445SOL    HW1 2155   0.301   0.990   4.634
  445SOL    HW2 2156   0.220   1.128   4.669
  446SOL     OW 2157   0.565   1.830   5.133
  446SOL    HW1 2158   0.483   1.807   5.184
  446SOL    HW2 2159   0.609   1.909   5.175
  447SOL     OW 2160   0.569   0.989   3.882
  447SOL    HW1 2161   0.619   1.036   3.809
  447SOL    HW2 2162   0.608   1.014   3.971
  448SOL     OW 2163   1.566   0.107   5.181
  448SOL    HW1 2164   1.623   0.179   5.142
  448SOL    HW2 2165   1.534   0.135   5.272
  449SOL     OW 2166   0.128   0.614   4.299
  449SOL    HW1 2167   0.080   0.532   4.328
  449SOL    HW2 2168   0.111   0.688   4.365
  450SOL     OW 2169   1.856   1.750   4.048
  450SOL    HW1 2170   1.928   1.728   4.113
  450SOL    HW2 2171   1.857   1.848   4.028
  451SOL     OW 2172   0.000   1.573   3.850
  451SOL    HW1 2173   0.011   1.487   3.900
  451SOL    HW2 2174   6.907   1.578   3.814
  452SOL     OW 2175   1.705   0.929   4.390
  452SOL    HW1 2176   1.797   0.891   4.396
  452SOL    HW2 2177   1.694   0.978   4.304
  453SOL     OW 2178   1.671   1.109   4.165
  453SOL    HW1 2179   1.757   1.091   4.117
  453SOL    HW2 2180   1.687   1.174   4.239
  454SOL     OW 2181   0.198   0.736   5.281
  454SOL    HW1 2182   0.296   0.744   5.259
  454SOL    HW2 2183   0.166   0.823   5.320
  455SOL     OW 2184   0.631   1.389   4.459
  455SOL    HW1 2185   0.584   1.301   4.464
  455SOL    HW2 2186   0.620   1.428   4.368
  456SOL     OW 2187   1.259   1.218   5.143
  456SOL    HW1 2188   1.281   1.147   5.076
  456SOL    HW2 2189   1.326   1.215   5.217
  457SOL     OW 2190   0.856   0.039   4.265
  457SOL    HW1 2191   0.901   0.123   4.234
  457SOL    HW2 2192   0.757   0.049   4.256
  458SOL     OW 2193   0.210   0.961   4.997
  458SOL    HW1 2194   0.294   0.910   4.978
  458SOL    HW2 2195   0.140   0.936   4.930
  459SOL     OW 2196   1.546   1.030   3.929
  459SOL    HW1 2197   1.472   0.966   3.952
  459SOL    HW2 2198   1.591   1.060   4.013
  460SOL     OW 2199   1.180   1.817   5.357
  460SOL    HW1 2200   1.181   1.887   5.286
  460SOL    HW2 2201   1.193   1.727   5.315
  461SOL     OW 2202   0.343   0.285   5.593
  461SOL    HW1 2203   0.375   0.358   5.654
  461SOL    HW2 2204   0.243   0.284   5.591
  462SOL     OW 2205   1.472   1.410   4.652
  462SOL    HW1 2206   1.409   1.437   4.725
  462SOL    HW2 2207   1.454   1.315   4.627
  463SOL     OW 2208   1.644   1.770   4.300
  463SOL    HW1 2209   1.621   1.736   4.209
  463SOL    HW2 2210   1.635   1.697   4.367
  464SOL     OW 2211   0.562   0.707   3.985
  464SOL    HW1 2212   0.575   0.799   3.948
  464SOL    HW2 2213   0.504   0.712   4.066
  465SOL     OW 2214   1.289   0.396   4.673
  465SOL    HW1 2215   1.197   0.358   4.683
  465SOL    HW2 2216   1.352   0.348   4.734
  466SOL     OW 2217   1.591   1.670   4.045
  466SOL    HW1 2218   1.689   1.691   4.040
  466SOL    HW2 2219   1.554   1.661   3.952
  467SOL     OW 2220   0.806   0.591   5.188
  467SOL    HW1 2221   0.769   0.561   5.277
  467SOL    HW2 2222   0.778   0.526   5.117
  468SOL     OW 2223   1.393   0.485   5.402
  468SOL    HW1 2224   1.400   0.528   5.492
  468SOL    HW2 2225   1.440   0.397   5.403
  469SOL     OW 2226   0.949   0.879   5.309
  469SOL    HW1 2227   1.007   0.812   5.263
  469SOL    HW2 2228   0.897   0.930   5.241
  470SOL     OW 2229   1.016   0.407   4.917
  470SOL    HW1 2230   0.923   0.419   4.950
  470SOL    HW2 2231   1.014   0.367   4.825
  471SOL     OW 2232   1.040   0.698   4.139
  471SOL    HW1 2233   1.065   0.698   4.236
  471SOL    HW2 2234   0.951   0.655   4.128
  472SOL     OW 2235   0.086   0.805   4.510
  472SOL    HW1 2236   0.180   0.813   4.545
  472SOL    HW2 2237   0.022   0.810   4.586
  473SOL     OW 2238   0.097   1.886   5.354
  473SOL    HW1 2239   0.116   1.858   5.448
  473SOL    HW2 2240   7.000   1.870   5.334
  474SOL     OW 2241   0.860   0.359   3.932
  474SOL    HW1 2242   0.917   0.410   3.867
  474SOL    HW2 2243   0.811   0.286   3.883
  475SOL     OW 2244   1.686   0.568   5.550
  475SOL    HW1 2245   1.662   0.651   5.499
  475SOL    HW2 2246   1.706   0.494   5.487
  476SOL     OW 2247   1.401   1.160   4.259
  476SOL    HW1 2248   1.488   1.148   4.212
  476SOL    HW2 2249   1.344   1.225   4.209
  477SOL     OW 2250   0.498   0.210   4.652
  477SOL    HW1 2251   0.541   0.227   4.741
  477SOL    HW2 2252   0.513   0.289   4.593
  478SOL     OW 2253   0.989   1.460   4.187
  478SOL    HW1 2254   0.969   1.538   4.128
  478SOL    HW2 2255   0.961   1.482   4.281
  479SOL     OW 2256   0.367   1.812   4.597
  479SOL    HW1 2257   0.406   1.721   4.608
  479SOL    HW2 2258   0.433   1.881   4.627
  480SOL     OW 2259   1.798   1.056   4.629
  480SOL    HW1 2260   1.752   1.046   4.541
  480SOL    HW2 2261   1.730   1.065   4.702
  481SOL     OW 2262   1.203   1.536   5.239
  481SOL    HW1 2263   1.196   1.466   5.310
  481SOL    HW2 2264   1.142   1.513   5.164
  482SOL     OW 2265   0.301   0.936   3.975
  482SOL    HW1 2266   0.390   0.959   3.937
  482SOL    HW2 2267   0.268   0.850   3.937
  483SOL     OW 2268   1.483   0.778   4.439
  483SOL    HW1 2269   1.480   0.728   4.525
  483SOL    HW2 2270   1.566   0.834   4.435
  484SOL     OW 2271   0.473   1.294   5.469
  484SOL    HW1 2272   0.450   1.296   5.372
  484SOL    HW2 2273   0.388   1.288   5.523
  485SOL     OW 2274   1.144   1.774   3.949
  485SOL    HW1 2275   1.056   1.749   3.990
  485SOL    HW2 2276   1.170   1.705   3.881
  486SOL     OW 2277   0.181   0.305   5.296
  486SOL    HW1 2278   0.141   0.389   5.260
  486SOL    HW2 2279   0.152   0.292   5.391
  487SOL     OW 2280   1.638   1.386   3.822
  487SOL    HW1 2281   1.604   1.480   3.811
  487SOL    HW2 2282   1.565   1.322   3.796
  488SOL     OW 2283   0.466   1.750   4.025
  488SOL    HW1 2284   0.514   1.793   4.102
  488SOL    HW2 2285   0.533   1.703   3.967
  489SOL     OW 2286   1.421   0.135   4.127
  489SOL    HW1 2287   1.395   0.080   4.047
  489SOL    HW2 2288   1.520   0.151   4.125
  490SOL     OW 2289   0.246   1.774   4.927
  490SOL    HW1 2290   0.284   1.690   4.966
  490SOL    HW2 2291   0.190   1.752   4.848
  491SOL     OW 2292   0.954   1.704   4.609
  491SOL    HW1 2293   1.045   1.667   4.626
  491SOL    HW2 2294   0.910   1.652   4.536
  492SOL     OW 2295   0.398   0.669   4.205
  492SOL    HW1 2296   0.422   0.573   4.215
  492SOL    HW2 2297   0.303   0.683   4.233
  493SOL     OW 2298   1.495   0.217   5.438
  493SOL    HW1 2299   1.537   0.215   5.529
  493SOL    HW2 2300   1.398   0.193   5.445
  494SOL     OW 2301   0.681   0.109   3.829
  494SOL    HW1 2302   0.712   0.032   3.885
  494SOL    HW2 2303   0.605   0.079   3.770
  495SOL     OW 2304   0.792   0.278   5.502
  495SOL    HW1 2305   0.885   0.243   5.488
  495SOL    HW2 2306   0.743   0.217   5.564
  496SOL     OW 2307   0.860   1.521   4.910
  496SOL    HW1 2308   0.840   1.474   4.825
  496SOL    HW2 2309   0.930   1.471   4.961
  497SOL     OW 2310   1.329   0.591   5.156
  497SOL    HW1 2311   1.363   0.563   5.246
  497SOL    HW2 2312   1.360   0.684   5.137
  498SOL     OW 2313   0.816   1.368   4.674
  498SOL    HW1 2314   0.909   1.370   4.637
  498SOL    HW2 2315   0.750   1.379   4.600
  499SOL     OW 2316   0.925   0.524   4.598
  499SOL    HW1 2317   0.899   0.517   4.501
  499SOL    HW2 2318   0.960   0.435   4.629
  500SOL     OW 2319   0.593   0.072   4.205
  500SOL    HW1 2320   0.515   0.064   4.267
  500SOL    HW2 2321   0.570   0.132   4.129
  501SOL     OW 2322   1.428   1.215   3.760
  501SOL    HW1 2323   1.466   1.142   3.816
  501SOL    HW2 2324   1.339   1.242   3.797
  502SOL     OW 2325   0.313   0.032   3.967
  502SOL    HW1 2326   0.372   0.113   3.963
  502SOL    HW2 2327   0.294   0.009   4.063
  503SOL     OW 2328   0.967   0.273   4.171
  503SOL    HW1 2329   0.927   0.303   4.084
  503SOL    HW2 2330   1.066   0.288   4.169
  504SOL     OW 2331   1.067   0.690   5.151
  504SOL    HW1 2332   0.992   0.627   5.173
  504SOL    HW2 2333   1.153   0.641   5.155
  505SOL     OW 2334   1.213   1.597   4.529
  505SOL    HW1 2335   1.229   1.658   4.451
  505SOL    HW2 2336   1.283   1.612   4.598
  506SOL     OW 2337   0.482   1.160   4.432
  506SOL    HW1 2338   0.418   1.134   4.505
  506SOL    HW2 2339   0.436   1.150   4.343
  507SOL     OW 2340   1.257   1.796   4.334
  507SOL    HW1 2341   1.315   1.858   4.282
  507SOL    HW2 2342   1.178   1.846   4.370
  508SOL     OW 2343   1.017   0.519   3.773
  508SOL    HW1 2344   0.976   0.607   3.747
  508SOL    HW2 2345   1.089   0.534   3.841
  509SOL     OW 2346   0.088   0.532   5.116
  509SOL    HW1 2347   0.179   0.526   5.074
  509SOL    HW2 2348   0.085   0.609   5.179
  510SOL     OW 2349   0.577   0.234   4.920
  510SOL    HW1 2350   0.631   0.162   4.965
  510SOL    HW2 2351   0.480   0.219   4.938
  511SOL     OW 2352   0.869   0.476   4.338
  511SOL    HW1 2353   0.816   0.530   4.272
  511SOL    HW2 2354   0.905   0.394   4.293
  512SOL     OW 2355   0.969   6.997   4.526
  512SOL    HW1 2356   0.924   0.012   4.437
  512SOL    HW2 2357   1.020   6.912   4.523
  513SOL     OW 2358   1.435   1.146   4.580
  513SOL    HW1 2359   1.359   1.082   4.593
  513SOL    HW2 2360   1.456   1.153   4.483
  514SOL     OW 2361   1.465   0.618   4.665
  514SOL    HW1 2362   1.398   0.544   4.674
  514SOL    HW2 2363   1.527   0.616   4.744
  515SOL     OW 2364   1.808   0.780   4.113
  515SOL    HW1 2365   1.878   0.749   4.177
  515SOL    HW2 2366   1.802   0.716   4.036
  516SOL     OW 2367   0.518   1.429   3.862
  516SOL    HW1 2368   0.442   1.398   3.919
  516SOL    HW2 2369   0.512   1.388   3.771
  517SOL     OW 2370   1.726   1.270   4.371
  517SOL    HW1 2371   1.824   1.265   4.390
  517SOL    HW2 2372   1.693   1.362   4.391
  518SOL     OW 2373   1.397   0.583   3.794
  518SOL    HW1 2374   1.336   0.562   3.870
  518SOL    HW2 2375   1.492   0.575   3.824
  519SOL     OW 2376   0.512   0.239   4.003
  519SOL    HW1 2377   0.580   0.204   3.939
  519SOL    HW2 2378   0.482   0.330   3.975
  520SOL     OW 2379   1.740   1.238   5.258
  520SOL    HW1 2380   1.831   1.199   5.239
  520SOL    HW2 2381   1.750   1.329   5.297
  521SOL     OW 2382   1.034   1.358   5.067
  521SOL    HW1 2383   0.948   1.327   5.108
  521SOL    HW2 2384   1.110   1.307   5.107
  522SOL     OW 2385   1.618   1.645   5.399
  522SOL    HW1 2386   1.598   1.682   5.309
  522SOL    HW2 2387   1.696   1.583   5.393
  523SOL     OW 2388   1.148   1.257   4.834
  523SOL    HW1 2389   1.087   1.289   4.907
  523SOL    HW2 2390   1.113   1.288   4.746
  524SOL     OW 2391   1.599   1.093   4.813
  524SOL    HW1 2392   1.592   1.162   4.885
  524SOL    HW2 2393   1.531   1.112   4.743
  525SOL     OW 2394   0.873   0.175   5.086
  525SOL    HW1 2395   0.892   0.144   4.993
  525SOL    HW2 2396   0.959   0.198   5.132
  526SOL     OW 2397   0.967   1.118   5.440
  526SOL    HW1 2398   0.874   1.134   5.471
  526SOL    HW2 2399   0.970   1.033   5.387
  527SOL     OW 2400   0.713   1.057   4.111
  527SOL    HW1 2401   0.697   1.032   4.207
  527SOL    HW2 2402   0.792   1.007   4.076
  528SOL     OW 2403   0.440   0.807   4.974
  528SOL    HW1 2404   0.515   0.816   5.039
  528SOL    HW2 2405   0.397   0.717   4.984
  529SOL     OW 2406   1.265   0.365   5.017
  529SOL    HW1 2407   1.296   0.447   5.066
  529SOL    HW2 2408   1.175   0.382   4.978
  530SOL     OW 2409   0.065   1.530   5.088
  530SOL    HW1 2410   0.014   1.570   5.164
  530SOL    HW2 2411   0.161   1.557   5.096
  531SOL     OW 2412   0.355   1.126   4.187
  531SOL    HW1 2413   0.340   1.203   4.125
  531SOL    HW2 2414   0.340   1.040   4.138
  532SOL     OW 2415   0.537   0.527   4.596
  532SOL    HW1 2416   0.548   0.587   4.517
  532SOL    HW2 2417   0.608   0.548   4.663
  533SOL     OW 2418   1.243   1.362   4.126
  533SOL    HW1 2419   1.305   1.434   4.158
  533SOL    HW2 2420   1.150   1.384   4.154
  534SOL     OW 2421   1.314   1.475   4.864
  534SOL    HW1 2422   1.362   1.484   4.951
  534SOL    HW2 2423   1.258   1.393   4.864
  535SOL     OW 2424   1.593   0.628   4.231
  535SOL    HW1 2425   1.531   0.682   4.288
  535SOL    HW2 2426   1.661   0.688   4.189
  536SOL     OW 2427   0.346   1.530   5.030
  536SOL    HW1 2428   0.336   1.475   4.947
  536SOL    HW2 2429   0.442   1.557   5.041
  537SOL     OW 2430   0.488   0.717   5.348
  537SOL    HW1 2431   0.538   0.762   5.274
  537SOL    HW2 2432   0.545   0.644   5.386
  538SOL     OW 2433   1.623   0.798   5.420
  538SOL    HW1 2434   1.529   0.833   5.412
  538SOL    HW2 2435   1.678   0.833   5.344
  539SOL     OW 2436   1.025   0.127   5.454
  539SOL    HW1 2437   1.057   0.160   5.366
  539SOL    HW2 2438   1.004   0.030   5.448
  540SOL     OW 2439   0.471   0.052   5.516
  540SOL    HW1 2440   0.399   6.984   5.529
  540SOL    HW2 2441   0.433   0.144   5.528
  541SOL     OW 2442   0.597   0.876   4.755
  541SOL    HW1 2443   0.633   0.969   4.759
  541SOL    HW2 2444   0.535   0.860   4.832
  542SOL     OW 2445   1.297   0.849   4.722
  542SOL    HW1 2446   1.204   0.822   4.697
  542SOL    HW2 2447   1.360   0.773   4.705
  543SOL     OW 2448   1.200   0.538   3.983
  543SOL    HW1 2449   1.219   0.457   4.038
  543SOL    HW2 2450   1.149   0.605   4.037
  544SOL     OW 2451   0.310   0.159   4.929
  544SOL    HW1 2452   0.233   0.151   4.991
  544SOL    HW2 2453   0.329   0.071   4.886
  545SOL     OW 2454   0.101   1.284   4.983
  545SOL    HW1 2455   0.112   1.217   5.057
  545SOL    HW2 2456   0.086   1.375   5.023
  546SOL     OW 2457   0.730   0.634   4.766
  546SOL    HW1 2458   0.799   0.612   4.697
  546SOL    HW2 2459   0.692   0.724   4.748
  547SOL     OW 2460   1.751   0.974   5.592
  547SOL    HW1 2461   1.708   0.902   5.538
  547SOL    HW2 2462   1.690   1.000   5.667
  548SOL     OW 2463   0.356   0.078   4.333
  548SOL    HW1 2464   0.330   0.162   4.380
  548SOL    HW2 2465   0.294   0.004   4.359
  549SOL     OW 2466   1.601   0.418   4.049
  549SOL    HW1 2467   1.637   0.340   4.102
  549SOL    HW2 2468   1.577   0.492   4.111
  550SOL     OW 2469   1.031   0.763   4.673
  550SOL    HW1 2470   1.010   0.782   4.769
  550SOL    HW2 2471   0.999   0.671   4.650
  551SOL     OW 2472   0.982   1.562   5.484
  551SOL    HW1 2473   0.949   1.619   5.408
  551SOL    HW2 2474   1.022   1.478   5.448
  552SOL     OW 2475   1.839   1.492   5.327
  552SOL    HW1 2476   1.861   1.520   5.233
  552SOL    HW2 2477   1.920   1.500   5.384
  553SOL     OW 2478   0.386   0.898   5.530
  553SOL    HW1 2479   0.456   0.928   5.595
  553SOL    HW2 2480   0.426   0.831   5.467
  554SOL     OW 2481   1.530   0.232   3.847
  554SOL    HW1 2482   1.431   0.238   3.833
  554SOL    HW2 2483   1.558   0.302   3.912
  555SOL     OW 2484   1.277   0.821   3.730
  555SOL    HW1 2485   1.319   0.732   3.744
  555SOL    HW2 2486   1.311   0.861   3.644
  556SOL     OW 2487   1.074   1.363   4.590
  556SOL    HW1 2488   1.089   1.282   4.533
  556SOL    HW2 2489   1.127   1.439   4.553
  557SOL     OW 2490   0.332   0.811   4.645
  557SOL    HW1 2491   0.431   0.827   4.644
  557SOL    HW2 2492   0.314   0.718   4.680
  558SOL     OW 2493   0.301   0.537   4.726
  558SOL    HW1 2494   0.252   0.451   4.716
  558SOL    HW2 2495   0.386   0.533   4.673
  559SOL     OW 2496   1.119   0.447   5.388
  559SOL    HW1 2497   1.076   0.469   5.476
  559SOL    HW2 2498   1.216   0.469   5.393
  560SOL     OW 2499   1.107   0.242   5.218
  560SOL    HW1 2500   1.104   0.322   5.277
  560SOL    HW2 2501   1.174   0.256   5.145
  561SOL     OW 2502   0.014   1.330   3.983
  561SOL    HW1 2503   6.945   1.360   4.049
  561SOL    HW2 2504   0.018   1.230   3.982
  562SOL     OW 2505   0.114   1.736   4.683
  562SOL    HW1 2506   0.089   1.660   4.623
  562SOL    HW2 2507   0.199   1.777   4.650
  563SOL     OW 2508   0.495   1.566   4.626
  563SOL    HW1 2509   0.566   1.631   4.654
  563SOL    HW2 2510   0.534   1.499   4.563
  564SOL     OW 2511   0.942   0.795   4.928
  564SOL    HW1 2512   0.997   0.766   5.006
  564SOL    HW2 2513   0.858   0.740   4.925
  565SOL     OW 2514   0.063   0.643   4.848
  565SOL    HW1 2515   0.146   0.610   4.803
  565SOL    HW2 2516   0.060   0.610   4.942
  566SOL     OW 2517   0.238   0.555   5.479
  566SOL    HW1 2518   0.317   0.494   5.472
  566SOL    HW2 2519   0.241   0.621   5.405
  567SOL     OW 2520   1.385   0.924   5.363
  567SOL    HW1 2521   1.406   1.022   5.363
  567SOL    HW2 2522   1.377   0.892   5.269
  568SOL     OW 2523   0.795   0.583   4.085
  568SOL    HW1 2524   0.810   0.500   4.031
  568SOL    HW2 2525   0.715   0.631   4.050
  569SOL     OW 2526   1.640   0.607   4.877
  569SOL    HW1 2527   1.616   0.539   4.946
  569SOL    HW2 2528   1.738   0.603   4.857
  570SOL     OW 2529   0.270   1.575   5.468
  570SOL    HW1 2530   0.218   1.640   5.523
  570SOL    HW2 2531   0.260   1.483   5.506
  571SOL     OW 2532   0.744   0.449   4.965
  571SOL    HW1 2533   0.680   0.372   4.952
  571SOL    HW2 2534   0.729   0.516   4.892
  572SOL     OW 2535   0.869   1.703   5.255
  572SOL    HW1 2536   0.837   1.637   5.187
  572SOL    HW2 2537   0.894   1.789   5.209
  573SOL     OW 2538   0.417   0.478   3.912
  573SOL    HW1 2539   0.476   0.558   3.923
  573SOL    HW2 2540   0.334   0.490   3.967
  574SOL     OW 2541   0.163   1.119   5.207
  574SOL    HW1 2542   0.161   1.062   5.289
  574SOL    HW2 2543   0.182   1.061   5.127
  575SOL     OW 2544   1.281   1.034   4.924
  575SOL    HW1 2545   1.292   0.965   4.852
  575SOL    HW2 2546   1.233   1.113   4.888
  576SOL     OW 2547   1.333   0.873   3.996
  576SOL    HW1 2548   1.261   0.847   4.061
  576SOL    HW2 2549   1.302   0.854   3.903
  577SOL     OW 2550   1.769   1.710   4.887
  577SOL    HW1 2551   1.839   1.741   4.821
  577SOL    HW2 2552   1.740   1.618   4.863
  578SOL     OW 2553   1.251   1.740   4.811
  578SOL    HW1 2554   1.342   1.777   4.788
  578SOL    HW2 2555   1.260   1.644   4.838
  579SOL     OW 2556   0.093   1.235   4.722
  579SOL    HW1 2557   0.097   1.248   4.821
  579SOL    HW2 2558   6.998   1.237   4.691
  580SOL     OW 2559   0.689   1.707   5.464
  580SOL    HW1 2560   0.620   1.779   5.458
  580SOL    HW2 2561   0.757   1.720   5.391
  581SOL     OW 2562   1.702   0.208   4.183
  581SOL    HW1 2563   1.777   0.176   4.124
  581SOL    HW2 2564   1.688   0.142   4.257
  582SOL     OW 2565   1.400   1.573   4.222
  582SOL    HW1 2566   1.462   1.605   4.150
  582SOL    HW2 2567   1.343   1.649   4.253
  583SOL     OW 2568   0.129   1.784   5.613
  583SOL    HW1 2569   0.085   1.705   5.655
  583SOL    HW2 2570   0.184   1.833   5.681
  584SOL     OW 2571   1.281   0.943   4.368
  584SOL    HW1 2572   1.355   0.881   4.394
  584SOL    HW2 2573   1.318   1.021   4.318
  585SOL     OW 2574   0.777   1.287   5.146
  585SOL    HW1 2575   0.752   1.337   5.228
  585SOL    HW2 2576   0.703   1.292   5.079
  586SOL     OW 2577   0.684   1.645   3.872
  586SOL    HW1 2578   0.699   1.666   3.776
  586SOL    HW2 2579   0.633   1.559   3.879
  587SOL     OW 2580   1.610   1.731   5.124
  587SOL    HW1 2581   1.666   1.724   5.041
  587SOL    HW2 2582   1.595   1.827   5.146
  588SOL     OW 2583   1.883   0.124   4.679
  588SOL    HW1 2584   1.888   0.024   4.686
  588SOL    HW2 2585   1.790   0.150   4.652
  589SOL     OW 2586   0.273   0.312   4.450
  589SOL    HW1 2587   0.187   0.349   4.415
  589SOL    HW2 2588   0.266   0.297   4.548
  590SOL     OW 2589   1.222   1.583   3.768
  590SOL    HW1 2590   1.213   1.490   3.804
  590SOL    HW2 2591   1.146   1.601   3.705
  591SOL     OW 2592   0.825   1.018   5.110
  591SOL    HW1 2593   0.870   1.003   5.022
  591SOL    HW2 2594   0.811   1.116   5.124
  592SOL     OW 2595   0.921   0.918   4.018
  592SOL    HW1 2596   0.974   0.946   3.938
  592SOL    HW2 2597   0.968   0.842   4.064
  593SOL     OW 2598   1.491   1.651   3.783
  593SOL    HW1 2599   1.396   1.626   3.770
  593SOL    HW2 2600   1.537   1.657   3.694
  594SOL     OW 2601   0.371   1.312   5.220
  594SOL    HW1 2602   0.360   1.387   5.155
  594SOL    HW2 2603   0.300   1.243   5.203
  595SOL     OW 2604   1.596   1.290   5.015
  595SOL    HW1 2605   1.656   1.263   5.091
  595SOL    HW2 2606   1.533   1.360   5.046
  596SOL     OW 2607   1.091   1.120   4.472
  596SOL    HW1 2608   1.009   1.073   4.504
  596SOL    HW2 2609   1.152   1.054   4.428
  597SOL     OW 2610   1.032   0.268   4.671
  597SOL    HW1 2611   1.024   0.226   4.581
  597SOL    HW2 2612   1.008   0.200   4.741
  598SOL     OW 2613   0.607   1.494   4.213
  598SOL    HW1 2614   0.651   1.440   4.140
  598SOL    HW2 2615   0.508   1.482   4.208
  599SOL     OW 2616   1.769   0.373   5.121
  599SOL    HW1 2617   1.840   0.444   5.116
  599SOL    HW2 2618   1.790   0.300   5.057
  600SOL     OW 2619   0.285   1.351   4.013
  600SOL    HW1 2620   0.185   1.349   4.007
  600SOL    HW2 2621   0.312   1.396   4.097
  601SOL     OW 2622   0.141   0.963   5.437
  601SOL    HW1 2623   0.089   1.022   5.500
  601SOL    HW2 2624   0.230   0.943   5.476
  602SOL     OW 2625   0.675   0.254   5.252
  602SOL    HW1 2626   0.746   0.239   5.184
  602SOL    HW2 2627   0.716   0.278   5.340
  603SOL     OW 2628   0.064   0.296   3.713
  603SOL    HW1 2629   6.992   0.226   3.717
  603SOL    HW2 2630   0.023   0.384   3.691
  604SOL     OW 2631   1.402   0.854   5.100
  604SOL    HW1 2632   1.343   0.913   5.045
  604SOL    HW2 2633   1.495   0.856   5.063
  605SOL     OW 2634   0.051   0.241   3.991
  605SOL    HW1 2635   0.060   0.269   3.895
  605SOL    HW2 2636   0.046   0.142   3.997
  606SOL     OW 2637   1.179   1.321   3.854
  606SOL    HW1 2638   1.081   1.306   3.844
  606SOL    HW2 2639   1.203   1.325   3.951
  607SOL     OW 2640   0.650   0.813   5.147
  607SOL    HW1 2641   0.704   0.897   5.137
  607SOL    HW2 2642   0.711   0.735   5.160
  608SOL     OW 2643   1.507   1.821   4.752
  608SOL    HW1 2644   1.530   1.887   4.681
  608SOL    HW2 2645   1.590   1.780   4.788
  609SOL     OW 2646   0.710   0.549   5.446
  609SOL    HW1 2647   0.765   0.618   5.492
  609SOL    HW2 2648   0.737   0.458   5.478
  610SOL     OW 2649   1.466   1.187   5.347
  610SOL    HW1 2650   1.454   1.209   5.444
  610SOL    HW2 2651   1.560   1.208   5.319
  611SOL     OW 2652   0.350   1.776   5.301
  611SOL    HW1 2653   0.261   1.820   5.291
  611SOL    HW2 2654   0.339   1.688   5.347
  612SOL     OW 2655   1.647   0.872   4.976
  612SOL    HW1 2656   1.649   0.784   4.928
  612SOL    HW2 2657   1.634   0.945   4.909
  613SOL     OW 2658   1.236   0.333   4.164
  613SOL    HW1 2659   1.303   0.259   4.156
  613SOL    HW2 2660   1.245   0.378   4.253
  614SOL     OW 2661   0.576   0.729   4.410
  614SOL    HW1 2662   0.622   0.816   4.398
  614SOL    HW2 2663   0.514   0.713   4.333
  615SOL     OW 2664   1.734   0.348   5.389
  615SOL    HW1 2665   1.750   0.362   5.292
  615SOL    HW2 2666   1.652   0.292   5.401
  616SOL     OW 2667   1.755   0.928   5.221
  616SOL    HW1 2668   1.740   1.025   5.240
  616SOL    HW2 2669   1.723   0.907   5.128
  617SOL     OW 2670   0.890   1.349   3.807
  617SOL    HW1 2671   0.841   1.360   3.893
  617SOL    HW2 2672   0.896   1.437   3.760
  618SOL     OW 2673   0.681   1.759   4.663
  618SOL    HW1 2674   0.656   1.855   4.652
  618SOL    HW2 2675   0.780   1.749   4.651
  619SOL     OW 2676   0.876   0.986   4.588
  619SOL    HW1 2677   0.927   0.906   4.619
  619SOL    HW2 2678   0.826   1.025   4.665
  620SOL     OW 2679   1.057   0.969   3.793
  620SOL    HW1 2680   1.035   1.036   3.722
  620SOL    HW2 2681   1.138   0.917   3.766
  621SOL     OW 2682   1.819   1.555   4.577
  621SOL    HW1 2683   1.745   1.548   4.510
  621SOL    HW2 2684   1.797   1.501   4.658
  622SOL     OW 2685   0.233   1.320   5.602
  622SOL    HW1 2686   0.137   1.294   5.592
  622SOL    HW2 2687   0.255   1.330   5.699
  623SOL     OW 2688   0.175   1.302   4.429
  623SOL    HW1 2689   0.207   1.240   4.501
  623SOL    HW2 2690   0.115   1.252   4.366
  624SOL     OW 2691   0.691   1.436   5.364
  624SOL    HW1 2692   0.609   1.391   5.399
  624SOL    HW2 2693   0.696   1.529   5.400
  625SOL     OW 2694   1.819   0.167   4.954
  625SOL    HW1 2695   1.736   0.119   4.926
  625SOL    HW2 2696   1.880   0.178   4.876
  626SOL     OW 2697   0.440   0.406   4.243
  626SOL    HW1 2698   0.474   0.329   4.190
  626SOL    HW2 2699   0.392   0.372   4.324
  627SOL     OW 2700   1.692   1.461   4.810
  627SOL    HW1 2701   1.613   1.445   4.750
  627SOL    HW2 2702   1.691   1.394   4.885
  628SOL     OW 2703   0.339   0.553   5.006
  628SOL    HW1 2704   0.388   0.490   5.067
  628SOL    HW2 2705   0.350   0.523   4.912
  629SOL     OW 2706   0.836   1.578   4.400
  629SOL    HW1 2707   0.797   1.638   4.330
  629SOL    HW2 2708   0.769   1.508   4.425
  630SOL     OW 2709   1.459   0.270   4.844
  630SOL    HW1 2710   1.506   0.185   4.869
  630SOL    HW2 2711   1.396   0.296   4.918
  631SOL     OW 2712   0.949   0.065   4.834
  631SOL    HW1 2713   0.926   0.021   4.748
  631SOL    HW2 2714   0.990   6.997   4.896
  632SOL     OW 2715   0.775   1.328   4.060
  632SOL    HW1 2716   0.752   1.232   4.077
  632SOL    HW2 2717   0.856   1.352   4.113
  633SOL     OW 2718   0.618   1.587   5.019
  633SOL    HW1 2719   0.607   1.679   5.055
  633SOL    HW2 2720   0.707   1.579   4.974
  634SOL     OW 2721   1.295   6.983   3.926
  634SOL    HW1 2722   1.335   6.906   3.877
  634SOL    HW2 2723   1.218   6.951   3.982
  635SOL     OW 2724   1.243   0.452   4.410
  635SOL    HW1 2725   1.202   0.542   4.396
  635SOL    HW2 2726   1.267   0.441   4.506
  636SOL     OW 2727   1.636   0.234   4.611
  636SOL    HW1 2728   1.576   0.244   4.690
  636SOL    HW2 2729   1.635   0.318   4.557
  637SOL     OW 2730   0.056   1.057   4.006
  637SOL    HW1 2731   0.147   1.017   4.003
  637SOL    HW2 2732   6.988   0.985   4.017
  638SOL     OW 2733   0.898   1.685   4.052
  638SOL    HW1 2734   0.821   1.668   3.991
  638SOL    HW2 2735   0.874   1.756   4.117
  639SOL     OW 2736   0.163   0.690   5.715
  639SOL    HW1 2737   0.157   0.624   5.790
  639SOL    HW2 2738   0.204   0.646   5.635
  640SOL     OW 2739   0.196   0.305   6.590
  640SOL    HW1 2740   0.255   0.257   6.654
  640SOL    HW2 2741   0.100   0.292   6.617
  641SOL     OW 2742   0.004   0.362   6.235
  641SOL    HW1 2743   6.947   0.372   6.316
  641SOL    HW2 2744   0.016   0.265   6.214
  642SOL     OW 2745   0.557   1.276   6.792
  642SOL    HW1 2746   0.472   1.291   6.741
  642SOL    HW2 2747   0.582   1.360   6.840
  643SOL     OW 2748   1.596   1.511   6.305
  643SOL    HW1 2749   1.537   1.480   6.380
  643SOL    HW2 2750   1.540   1.527   6.224
  644SOL     OW 2751   1.126   0.706   6.261
  644SOL    HW1 2752   1.175   0.793   6.253
  644SOL    HW2 2753   1.066   0.709   6.340
  645SOL     OW 2754   1.795   0.577   5.795
  645SOL    HW1 2755   1.764   0.583   5.700
  645SOL    HW2 2756   1.741   0.508   5.843
  646SOL     OW 2757   0.720   1.131   6.626
  646SOL    HW1 2758   0.654   1.162   6.695
  646SOL    HW2 2759   0.757   1.210   6.578
  647SOL     OW 2760   0.686   0.987   6.242
  647SOL    HW1 2761   0.757   0.985   6.312
  647SOL    HW2 2762   0.612   1.048   6.272
  648SOL     OW 2763   0.353   1.375   6.621
  648SOL    HW1 2764   0.326   1.294   6.570
  648SOL    HW2 2765   0.396   1.441   6.560
  649SOL     OW 2766   1.622   0.482   6.327
  649SOL    HW1 2767   1.603   0.520   6.237
  649SOL    HW2 2768   1.570   0.532   6.396
  650SOL     OW 2769   0.243   1.716   6.054
  650SOL    HW1 2770   0.258   1.796   6.111
  650SOL    HW2 2771   0.306   1.717   5.977
  651SOL     OW 2772   0.331   1.458   6.116
  651SOL    HW1 2773   0.292   1.551   6.115
  651SOL    HW2 2774   0.286   1.404   6.188
  652SOL     OW 2775   0.302   1.096   6.505
  652SOL    HW1 2776   0.316   0.999   6.522
  652SOL    HW2 2777   0.207   1.121   6.524
  653SOL     OW 2778   0.606   1.789   6.988
  653SOL    HW1 2779   0.509   1.793   0.012
  653SOL    HW2 2780   0.651   1.874   0.015
  654SOL     OW 2781   0.570   0.989   5.744
  654SOL    HW1 2782   0.620   1.036   5.671
  654SOL    HW2 2783   0.608   1.014   5.833
  655SOL     OW 2784   0.125   0.610   6.164
  655SOL    HW1 2785   0.074   0.529   6.192
  655SOL    HW2 2786   0.114   0.682   6.232
  656SOL     OW 2787   1.855   1.749   5.908
  656SOL    HW1 2788   1.932   1.735   5.970
  656SOL    HW2 2789   1.857   1.843   5.873
  657SOL     OW 2790   0.001   1.571   5.711
  657SOL    HW1 2791   0.012   1.486   5.762
  657SOL    HW2 2792   6.908   1.578   5.675
  658SOL     OW 2793   1.713   0.934   6.249
  658SOL    HW1 2794   1.801   0.887   6.242
  658SOL    HW2 2795   1.695   0.984   6.164
  659SOL     OW 2796   1.670   1.110   6.026
  659SOL    HW1 2797   1.754   1.090   5.975
  659SOL    HW2 2798   1.689   1.179   6.095
  660SOL     OW 2799   0.618   1.387   6.304
  660SOL    HW1 2800   0.570   1.300   6.309
  660SOL    HW2 2801   0.610   1.424   6.212
  661SOL     OW 2802   0.856   0.034   6.091
  661SOL    HW1 2803   0.894   0.125   6.073
  661SOL    HW2 2804   0.756   0.041   6.098
  662SOL     OW 2805   0.197   0.902   6.794
  662SOL    HW1 2806   0.296   0.888   6.800
  662SOL    HW2 2807   0.153   0.814   6.775
  663SOL     OW 2808   1.544   1.030   5.790
  663SOL    HW1 2809   1.471   0.966   5.813
  663SOL    HW2 2810   1.589   1.062   5.874
  664SOL     OW 2811   1.426   1.421   6.506
  664SOL    HW1 2812   1.378   1.430   6.593
  664SOL    HW2 2813   1.426   1.326   6.477
  665SOL     OW 2814   1.630   1.833   6.131
  665SOL    HW1 2815   1.620   1.772   6.052
  665SOL    HW2 2816   1.642   1.778   6.214
  666SOL     OW 2817   0.563   0.707   5.846
  666SOL    HW1 2818   0.577   0.798   5.808
  666SOL    HW2 2819   0.504   0.712   5.926
  667SOL     OW 2820   1.284   0.401   6.532
  667SOL    HW1 2821   1.193   0.360   6.536
  667SOL    HW2 2822   1.347   0.348   6.589
  668SOL     OW 2823   1.591   1.671   5.908
  668SOL    HW1 2824   1.690   1.687   5.901
  668SOL    HW2 2825   1.553   1.661   5.816
  669SOL     OW 2826   0.776   0.660   0.017
  669SOL    HW1 2827   0.722   0.687   0.097
  669SOL    HW2 2828   0.728   0.588   6.968
  670SOL     OW 2829   1.012   0.423   6.790
  670SOL    HW1 2830   1.003   0.461   6.882
  670SOL    HW2 2831   0.941   0.353   6.776
  671SOL     OW 2832   1.040   0.696   5.999
  671SOL    HW1 2833   1.067   0.695   6.095
  671SOL    HW2 2834   0.950   0.654   5.989
  672SOL     OW 2835   0.097   0.801   6.377
  672SOL    HW1 2836   0.190   0.816   6.412
  672SOL    HW2 2837   0.033   0.803   6.454
  673SOL     OW 2838   0.061   1.886   0.252
  673SOL    HW1 2839   0.113   1.831   0.317
  673SOL    HW2 2840   6.991   1.829   0.209
  674SOL     OW 2841   0.859   0.361   5.794
  674SOL    HW1 2842   0.917   0.412   5.730
  674SOL    HW2 2843   0.809   0.290   5.744
  675SOL     OW 2844   1.402   1.163   6.134
  675SOL    HW1 2845   1.487   1.147   6.085
  675SOL    HW2 2846   1.345   1.227   6.083
  676SOL     OW 2847   0.493   0.207   6.500
  676SOL    HW1 2848   0.557   0.255   6.560
  676SOL    HW2 2849   0.473   0.264   6.420
  677SOL     OW 2850   0.991   1.464   6.050
  677SOL    HW1 2851   0.970   1.540   5.987
  677SOL    HW2 2852   0.958   1.487   6.142
  678SOL     OW 2853   0.368   1.809   6.450
  678SOL    HW1 2854   0.406   1.717   6.461
  678SOL    HW2 2855   0.434   1.876   6.485
  679SOL     OW 2856   1.811   1.062   6.479
  679SOL    HW1 2857   1.769   1.040   6.391
  679SOL    HW2 2858   1.741   1.059   6.550
  680SOL     OW 2859   0.301   0.935   5.837
  680SOL    HW1 2860   0.390   0.958   5.799
  680SOL    HW2 2861   0.269   0.849   5.798
  681SOL     OW 2862   1.487   0.784   6.295
  681SOL    HW1 2863   1.480   0.733   6.382
  681SOL    HW2 2864   1.570   0.839   6.296
  682SOL     OW 2865   1.146   1.771   5.813
  682SOL    HW1 2866   1.057   1.747   5.851
  682SOL    HW2 2867   1.172   1.703   5.744
  683SOL     OW 2868   1.639   1.387   5.685
  683SOL    HW1 2869   1.608   1.481   5.670
  683SOL    HW2 2870   1.566   1.324   5.659
  684SOL     OW 2871   0.467   1.750   5.884
  684SOL    HW1 2872   0.514   1.793   5.962
  684SOL    HW2 2873   0.534   1.703   5.827
  685SOL     OW 2874   1.423   0.129   6.004
  685SOL    HW1 2875   1.390   0.078   5.924
  685SOL    HW2 2876   1.519   0.153   5.990
  686SOL     OW 2877   0.240   1.804   6.758
  686SOL    HW1 2878   0.287   1.720   6.786
  686SOL    HW2 2879   0.181   1.784   6.680
  687SOL     OW 2880   0.964   1.692   6.468
  687SOL    HW1 2881   1.055   1.649   6.471
  687SOL    HW2 2882   0.909   1.647   6.397
  688SOL     OW 2883   0.394   0.671   6.062
  688SOL    HW1 2884   0.417   0.575   6.075
  688SOL    HW2 2885   0.300   0.688   6.090
  689SOL     OW 2886   0.677   0.109   5.692
  689SOL    HW1 2887   0.709   0.032   5.748
  689SOL    HW2 2888   0.602   0.079   5.633
  690SOL     OW 2889   0.869   1.474   6.755
  690SOL    HW1 2890   0.826   1.456   6.667
  690SOL    HW2 2891   0.945   1.410   6.769
  691SOL     OW 2892   0.799   1.366   6.509
  691SOL    HW1 2893   0.893   1.368   6.473
  691SOL    HW2 2894   0.735   1.375   6.433
  692SOL     OW 2895   0.939   0.524   6.475
  692SOL    HW1 2896   0.910   0.513   6.380
  692SOL    HW2 2897   0.977   0.438   6.508
  693SOL     OW 2898   0.585   0.062   6.068
  693SOL    HW1 2899   0.510   0.061   6.134
  693SOL    HW2 2900   0.565   0.128   5.995
  694SOL     OW 2901   1.428   1.217   5.622
  694SOL    HW1 2902   1.467   1.143   5.677
  694SOL    HW2 2903   1.340   1.244   5.660
  695SOL     OW 2904   0.311   0.030   5.815
  695SOL    HW1 2905   0.351   0.120   5.797
  695SOL    HW2 2906   0.318   0.008   5.912
  696SOL     OW 2907   0.964   0.279   6.034
  696SOL    HW1 2908   0.925   0.310   5.947
  696SOL    HW2 2909   1.063   0.293   6.033
  697SOL     OW 2910   1.215   1.581   6.391
  697SOL    HW1 2911   1.236   1.651   6.322
  697SOL    HW2 2912   1.301   1.543   6.425
  698SOL     OW 2913   0.473   1.155   6.296
  698SOL    HW1 2914   0.411   1.135   6.373
  698SOL    HW2 2915   0.424   1.144   6.210
  699SOL     OW 2916   1.253   1.786   6.203
  699SOL    HW1 2917   1.304   1.850   6.145
  699SOL    HW2 2918   1.172   1.831   6.239
  700SOL     OW 2919   1.018   0.520   5.635
  700SOL    HW1 2920   0.977   0.608   5.609
  700SOL    HW2 2921   1.090   0.535   5.703
  701SOL     OW 2922   0.589   0.199   6.800
  701SOL    HW1 2923   0.613   0.106   6.772
  701SOL    HW2 2924   0.489   0.207   6.805
  702SOL     OW 2925   0.871   0.477   6.213
  702SOL    HW1 2926   0.815   0.532   6.151
  702SOL    HW2 2927   0.906   0.397   6.165
  703SOL     OW 2928   1.036   0.018   6.319
  703SOL    HW1 2929   0.971   0.022   6.243
  703SOL    HW2 2930   1.052   6.922   6.344
  704SOL     OW 2931   1.420   1.149   6.433
  704SOL    HW1 2932   1.353   1.078   6.453
  704SOL    HW2 2933   1.430   1.158   6.333
  705SOL     OW 2934   1.459   0.628   6.522
  705SOL    HW1 2935   1.394   0.554   6.537
  705SOL    HW2 2936   1.526   0.630   6.596
  706SOL     OW 2937   1.809   0.782   5.972
  706SOL    HW1 2938   1.878   0.750   6.037
  706SOL    HW2 2939   1.802   0.718   5.896
  707SOL     OW 2940   0.519   1.427   5.725
  707SOL    HW1 2941   0.442   1.397   5.781
  707SOL    HW2 2942   0.512   1.386   5.634
  708SOL     OW 2943   1.734   1.280   6.219
  708SOL    HW1 2944   1.830   1.272   6.247
  708SOL    HW2 2945   1.697   1.367   6.252
  709SOL     OW 2946   1.397   0.583   5.656
  709SOL    HW1 2947   1.336   0.562   5.732
  709SOL    HW2 2948   1.492   0.576   5.686
  710SOL     OW 2949   0.518   0.244   5.874
  710SOL    HW1 2950   0.582   0.206   5.808
  710SOL    HW2 2951   0.487   0.334   5.843
  711SOL     OW 2952   1.763   1.160   0.178
  711SOL    HW1 2953   1.856   1.154   0.141
  711SOL    HW2 2954   1.726   1.251   0.160
  712SOL     OW 2955   1.077   1.289   6.706
  712SOL    HW1 2956   1.060   1.192   6.719
  712SOL    HW2 2957   1.069   1.311   6.608
  713SOL     OW 2958   1.600   1.082   6.652
  713SOL    HW1 2959   1.598   1.161   6.713
  713SOL    HW2 2960   1.535   1.096   6.577
  714SOL     OW 2961   0.712   1.058   5.973
  714SOL    HW1 2962   0.697   1.034   6.069
  714SOL    HW2 2963   0.792   1.008   5.939
  715SOL     OW 2964   0.465   0.852   6.849
  715SOL    HW1 2965   0.530   0.896   6.911
  715SOL    HW2 2966   0.450   0.758   6.879
  716SOL     OW 2967   1.257   0.341   6.876
  716SOL    HW1 2968   1.298   0.416   6.927
  716SOL    HW2 2969   1.174   0.372   6.830
  717SOL     OW 2970   0.088   1.515   6.890
  717SOL    HW1 2971   0.058   1.551   6.978
  717SOL    HW2 2972   0.181   1.547   6.871
  718SOL     OW 2973   0.347   1.124   6.050
  718SOL    HW1 2974   0.335   1.202   5.988
  718SOL    HW2 2975   0.335   1.039   6.000
  719SOL     OW 2976   0.526   0.542   6.458
  719SOL    HW1 2977   0.540   0.600   6.377
  719SOL    HW2 2978   0.603   0.554   6.521
  720SOL     OW 2979   1.247   1.364   5.996
  720SOL    HW1 2980   1.310   1.435   6.028
  720SOL    HW2 2981   1.153   1.389   6.021
  721SOL     OW 2982   1.302   1.438   6.750
  721SOL    HW1 2983   1.357   1.396   6.822
  721SOL    HW2 2984   1.216   1.389   6.742
  722SOL     OW 2985   1.590   0.632   6.087
  722SOL    HW1 2986   1.530   0.686   6.145
  722SOL    HW2 2987   1.659   0.691   6.045
  723SOL     OW 2988   0.351   1.563   6.820
  723SOL    HW1 2989   0.338   1.493   6.750
  723SOL    HW2 2990   0.445   1.559   6.855
  724SOL     OW 2991   0.613   0.867   6.622
  724SOL    HW1 2992   0.651   0.959   6.613
  724SOL    HW2 2993   0.556   0.862   6.704
  725SOL     OW 2994   1.288   0.868   6.572
  725SOL    HW1 2995   1.193   0.837   6.571
  725SOL    HW2 2996   1.348   0.789   6.555
  726SOL     OW 2997   1.201   0.537   5.846
  726SOL    HW1 2998   1.219   0.456   5.902
  726SOL    HW2 2999   1.149   0.603   5.899
  727SOL     OW 3000   0.316   0.172   6.798
  727SOL    HW1 3001   0.244   0.171   6.867
  727SOL    HW2 3002   0.317   0.084   6.751
  728SOL     OW 3003   0.062   1.259   6.798
  728SOL    HW1 3004   0.099   1.195   6.865
  728SOL    HW2 3005   0.077   1.353   6.830
  729SOL     OW 3006   0.724   0.606   6.634
  729SOL    HW1 3007   0.806   0.584   6.579
  729SOL    HW2 3008   0.703   0.703   6.625
  730SOL     OW 3009   0.360   0.081   6.213
  730SOL    HW1 3010   0.324   0.164   6.257
  730SOL    HW2 3011   0.298   0.005   6.230
  731SOL     OW 3012   1.600   0.417   5.912
  731SOL    HW1 3013   1.638   0.342   5.967
  731SOL    HW2 3014   1.576   0.493   5.971
  732SOL     OW 3015   1.018   0.771   6.582
  732SOL    HW1 3016   0.988   0.786   6.676
  732SOL    HW2 3017   0.999   0.677   6.556
  733SOL     OW 3018   1.954   1.475   0.195
  733SOL    HW1 3019   1.951   1.497   0.097
  733SOL    HW2 3020   1.862   1.481   0.233
  734SOL     OW 3021   1.528   0.230   5.712
  734SOL    HW1 3022   1.430   0.237   5.695
  734SOL    HW2 3023   1.557   0.302   5.775
  735SOL     OW 3024   1.278   0.822   5.593
  735SOL    HW1 3025   1.320   0.732   5.606
  735SOL    HW2 3026   1.312   0.862   5.507
  736SOL     OW 3027   1.061   1.357   6.440
  736SOL    HW1 3028   1.081   1.274   6.389
  736SOL    HW2 3029   1.119   1.432   6.406
  737SOL     OW 3030   0.346   0.816   6.515
  737SOL    HW1 3031   0.445   0.830   6.518
  737SOL    HW2 3032   0.324   0.726   6.553
  738SOL     OW 3033   0.309   0.548   6.616
  738SOL    HW1 3034   0.260   0.462   6.605
  738SOL    HW2 3035   0.390   0.548   6.556
  739SOL     OW 3036   1.173   0.184   0.090
  739SOL    HW1 3037   1.191   0.243   0.169
  739SOL    HW2 3038   1.198   0.231   0.006
  740SOL     OW 3039   0.015   1.328   5.844
  740SOL    HW1 3040   6.945   1.357   5.909
  740SOL    HW2 3041   0.019   1.228   5.842
  741SOL     OW 3042   0.109   1.746   6.521
  741SOL    HW1 3043   0.083   1.668   6.465
  741SOL    HW2 3044   0.198   1.780   6.491
  742SOL     OW 3045   0.495   1.565   6.475
  742SOL    HW1 3046   0.567   1.625   6.509
  742SOL    HW2 3047   0.534   1.500   6.409
  743SOL     OW 3048   0.920   0.829   6.845
  743SOL    HW1 3049   0.982   0.876   6.908
  743SOL    HW2 3050   0.870   0.758   6.895
  744SOL     OW 3051   0.080   0.647   6.753
  744SOL    HW1 3052   0.156   0.609   6.701
  744SOL    HW2 3053   0.060   0.589   6.832
  745SOL     OW 3054   0.795   0.582   5.951
  745SOL    HW1 3055   0.809   0.499   5.896
  745SOL    HW2 3056   0.715   0.631   5.916
  746SOL     OW 3057   1.659   0.631   6.709
  746SOL    HW1 3058   1.643   0.571   6.787
  746SOL    HW2 3059   1.753   0.621   6.677
  747SOL     OW 3060   0.652   0.468   6.858
  747SOL    HW1 3061   0.639   0.371   6.840
  747SOL    HW2 3062   0.682   0.514   6.775
  748SOL     OW 3063   0.972   1.646   6.944
  748SOL    HW1 3064   0.934   1.592   6.869
  748SOL    HW2 3065   0.964   1.743   6.922
  749SOL     OW 3066   0.416   0.478   5.775
  749SOL    HW1 3067   0.476   0.558   5.786
  749SOL    HW2 3068   0.334   0.490   5.830
  750SOL     OW 3069   0.173   1.085   6.988
  750SOL    HW1 3070   0.203   1.037   0.071
  750SOL    HW2 3071   0.174   1.021   6.911
  751SOL     OW 3072   1.309   0.961   6.834
  751SOL    HW1 3073   1.311   0.940   6.736
  751SOL    HW2 3074   1.349   1.051   6.849
  752SOL     OW 3075   1.332   0.874   5.860
  752SOL    HW1 3076   1.261   0.845   5.925
  752SOL    HW2 3077   1.301   0.855   5.767
  753SOL     OW 3078   1.788   1.723   6.774
  753SOL    HW1 3079   1.846   1.742   6.695
  753SOL    HW2 3080   1.722   1.651   6.750
  754SOL     OW 3081   1.269   1.722   6.724
  754SOL    HW1 3082   1.349   1.753   6.673
  754SOL    HW2 3083   1.275   1.623   6.739
  755SOL     OW 3084   0.053   1.207   6.533
  755SOL    HW1 3085   0.060   1.229   6.630
  755SOL    HW2 3086   6.957   1.190   6.510
  756SOL     OW 3087   1.705   0.211   6.051
  756SOL    HW1 3088   1.777   0.179   5.990
  756SOL    HW2 3089   1.690   0.144   6.124
  757SOL     OW 3090   1.413   1.572   6.096
  757SOL    HW1 3091   1.470   1.604   6.021
  757SOL    HW2 3092   1.350   1.646   6.123
  758SOL     OW 3093   1.276   0.937   6.227
  758SOL    HW1 3094   1.351   0.876   6.252
  758SOL    HW2 3095   1.312   1.017   6.179
  759SOL     OW 3096   0.683   1.643   5.731
  759SOL    HW1 3097   0.697   1.665   5.635
  759SOL    HW2 3098   0.632   1.557   5.739
  760SOL     OW 3099   1.874   0.145   6.570
  760SOL    HW1 3100   1.882   0.046   6.569
  760SOL    HW2 3101   1.785   0.172   6.532
  761SOL     OW 3102   0.270   0.315   6.323
  761SOL    HW1 3103   0.188   0.352   6.279
  761SOL    HW2 3104   0.255   0.309   6.421
  762SOL     OW 3105   1.222   1.581   5.630
  762SOL    HW1 3106   1.214   1.488   5.666
  762SOL    HW2 3107   1.146   1.599   5.567
  763SOL     OW 3108   0.704   0.993   6.946
  763SOL    HW1 3109   0.779   0.942   6.903
  763SOL    HW2 3110   0.710   1.089   6.920
  764SOL     OW 3111   0.922   0.919   5.882
  764SOL    HW1 3112   0.974   0.946   5.801
  764SOL    HW2 3113   0.968   0.842   5.927
  765SOL     OW 3114   1.491   1.653   5.646
  765SOL    HW1 3115   1.395   1.627   5.632
  765SOL    HW2 3116   1.537   1.658   5.557
  766SOL     OW 3117   1.601   1.294   6.829
  766SOL    HW1 3118   1.695   1.288   6.861
  766SOL    HW2 3119   1.539   1.261   6.901
  767SOL     OW 3120   1.089   1.111   6.335
  767SOL    HW1 3121   1.008   1.063   6.368
  767SOL    HW2 3122   1.151   1.046   6.291
  768SOL     OW 3123   1.043   0.251   6.517
  768SOL    HW1 3124   1.034   0.188   6.440
  768SOL    HW2 3125   1.026   0.203   6.603
  769SOL     OW 3126   0.606   1.497   6.061
  769SOL    HW1 3127   0.651   1.443   5.989
  769SOL    HW2 3128   0.507   1.486   6.054
  770SOL     OW 3129   1.685   0.461   6.915
  770SOL    HW1 3130   1.724   0.486   0.003
  770SOL    HW2 3131   1.706   0.365   6.896
  771SOL     OW 3132   0.284   1.351   5.874
  771SOL    HW1 3133   0.184   1.348   5.868
  771SOL    HW2 3134   0.311   1.396   5.960
  772SOL     OW 3135   0.063   0.296   5.574
  772SOL    HW1 3136   6.992   0.226   5.578
  772SOL    HW2 3137   0.022   0.384   5.552
  773SOL     OW 3138   0.051   0.241   5.853
  773SOL    HW1 3139   0.058   0.268   5.757
  773SOL    HW2 3140   0.044   0.141   5.859
  774SOL     OW 3141   1.182   1.322   5.720
  774SOL    HW1 3142   1.084   1.306   5.708
  774SOL    HW2 3143   1.204   1.324   5.817
  775SOL     OW 3144   1.498   1.807   6.599
  775SOL    HW1 3145   1.531   1.878   6.537
  775SOL    HW2 3146   1.573   1.744   6.620
  776SOL     OW 3147   1.476   1.306   0.275
  776SOL    HW1 3148   1.395   1.331   0.327
  776SOL    HW2 3149   1.474   1.209   0.254
  777SOL     OW 3150   0.367   1.825   0.111
  777SOL    HW1 3151   0.315   1.910   0.101
  777SOL    HW2 3152   0.398   1.815   0.205
  778SOL     OW 3153   1.726   0.878   6.827
  778SOL    HW1 3154   1.699   0.789   6.790
  778SOL    HW2 3155   1.683   0.950   6.773
  779SOL     OW 3156   1.235   0.330   6.027
  779SOL    HW1 3157   1.303   0.257   6.021
  779SOL    HW2 3158   1.245   0.378   6.114
  780SOL     OW 3159   0.576   0.729   6.262
  780SOL    HW1 3160   0.622   0.818   6.253
  780SOL    HW2 3161   0.513   0.716   6.186
  781SOL     OW 3162   1.755   0.877   0.111
  781SOL    HW1 3163   1.761   0.974   0.139
  781SOL    HW2 3164   1.745   0.871   0.012
  782SOL     OW 3165   0.892   1.349   5.667
  782SOL    HW1 3166   0.844   1.359   5.754
  782SOL    HW2 3167   0.898   1.438   5.622
  783SOL     OW 3168   0.684   1.752   6.530
  783SOL    HW1 3169   0.657   1.848   6.519
  783SOL    HW2 3170   0.784   1.745   6.525
  784SOL     OW 3171   0.877   0.979   6.453
  784SOL    HW1 3172   0.923   0.901   6.495
  784SOL    HW2 3173   0.822   1.027   6.521
  785SOL     OW 3174   1.056   0.968   5.655
  785SOL    HW1 3175   1.035   1.036   5.584
  785SOL    HW2 3176   1.138   0.917   5.629
  786SOL     OW 3177   1.842   1.543   6.452
  786SOL    HW1 3178   1.760   1.533   6.396
  786SOL    HW2 3179   1.865   1.455   6.494
  787SOL     OW 3180   0.163   1.303   6.293
  787SOL    HW1 3181   0.144   1.263   6.383
  787SOL    HW2 3182   0.117   1.249   6.223
  788SOL     OW 3183   1.788   0.204   6.832
  788SOL    HW1 3184   1.706   0.146   6.826
  788SOL    HW2 3185   1.836   0.202   6.745
  789SOL     OW 3186   0.433   0.409   6.106
  789SOL    HW1 3187   0.471   0.333   6.054
  789SOL    HW2 3188   0.389   0.374   6.189
  790SOL     OW 3189   1.610   1.534   6.695
  790SOL    HW1 3190   1.556   1.514   6.613
  790SOL    HW2 3191   1.616   1.452   6.752
  791SOL     OW 3192   0.400   0.587   6.879
  791SOL    HW1 3193   0.482   0.533   6.897
  791SOL    HW2 3194   0.367   0.569   6.787
  792SOL     OW 3195   0.830   1.591   6.254
  792SOL    HW1 3196   0.805   1.663   6.189
  792SOL    HW2 3197   0.755   1.526   6.263
  793SOL     OW 3198   1.449   0.262   6.697
  793SOL    HW1 3199   1.497   0.178   6.723
  793SOL    HW2 3200   1.385   0.287   6.770
  794SOL     OW 3201   0.964   0.088   6.732
  794SOL    HW1 3202   0.890   0.035   6.692
  794SOL    HW2 3203   1.004   0.037   6.808
  795SOL     OW 3204   0.779   1.327   5.920
  795SOL    HW1 3205   0.754   1.231   5.938
  795SOL    HW2 3206   0.859   1.351   5.975
  796SOL     OW 3207   0.627   1.540   6.875
  796SOL    HW1 3208   0.627   1.635   6.904
  796SOL    HW2 3209   0.714   1.518   6.832
  797SOL     OW 3210   1.294   6.985   5.796
  797SOL    HW1 3211   1.337   6.910   5.745
  797SOL    HW2 3212   1.215   6.950   5.846
  798SOL     OW 3213   1.251   0.454   6.267
  798SOL    HW1 3214   1.205   0.543   6.255
  798SOL    HW2 3215   1.269   0.439   6.364
  799SOL     OW 3216   1.637   0.249   6.484
  799SOL    HW1 3217   1.568   0.258   6.556
  799SOL    HW2 3218   1.631   0.327   6.422
  800SOL     OW 3219   0.055   1.055   5.864
  800SOL    HW1 3220   0.146   1.014   5.862
  800SOL    HW2 3221   6.987   0.982   5.876
  801SOL     OW 3222   0.898   1.685   5.909
  801SOL    HW1 3223   0.821   1.666   5.848
  801SOL    HW2 3224   0.873   1.756   5.974
  802SOL     OW 3225   0.250   2.519   0.150
  802SOL    HW1 3226   0.189   2.459   0.202
  802SOL    HW2 3227   0.245   2.496   0.053
  803SOL     OW 3228   0.212   2.131   1.012
  803SOL    HW1 3229   0.264   2.093   1.089
  803SOL    HW2 3230   0.115   2.108   1.023
  804SOL     OW 3231   0.023   2.246   0.661
  804SOL    HW1 3232   6.962   2.216   0.735
  804SOL    HW2 3233   0.022   2.179   0.587
  805SOL     OW 3234   0.583   3.180   1.227
  805SOL    HW1 3235   0.501   3.176   1.171
  805SOL    HW2 3236   0.601   3.275   1.253
  806SOL     OW 3237   1.591   3.385   0.705
  806SOL    HW1 3238   1.543   3.355   0.787
  806SOL    HW2 3239   1.525   3.398   0.631
  807SOL     OW 3240   1.143   2.586   0.692
  807SOL    HW1 3241   1.198   2.669   0.682
  807SOL    HW2 3242   1.090   2.591   0.777
  808SOL     OW 3243   1.788   2.403   0.141
  808SOL    HW1 3244   1.747   2.493   0.128
  808SOL    HW2 3245   1.743   2.357   0.217
  809SOL     OW 3246   0.722   2.987   1.066
  809SOL    HW1 3247   0.663   3.021   1.139
  809SOL    HW2 3248   0.764   3.064   1.017
  810SOL     OW 3249   0.891   2.598   1.819
  810SOL    HW1 3250   0.909   2.664   1.892
  810SOL    HW2 3251   0.905   2.642   1.730
  811SOL     OW 3252   0.694   2.843   0.656
  811SOL    HW1 3253   0.766   2.844   0.726
  811SOL    HW2 3254   0.619   2.903   0.685
  812SOL     OW 3255   0.710   3.021   1.839
  812SOL    HW1 3256   0.769   3.090   1.880
  812SOL    HW2 3257   0.632   3.065   1.795
  813SOL     OW 3258   0.363   3.254   1.068
  813SOL    HW1 3259   0.303   3.191   1.019
  813SOL    HW2 3260   0.403   3.319   1.003
  814SOL     OW 3261   1.444   3.370   1.377
  814SOL    HW1 3262   1.503   3.451   1.387
  814SOL    HW2 3263   1.366   3.378   1.440
  815SOL     OW 3264   0.456   2.219   1.463
  815SOL    HW1 3265   0.538   2.162   1.475
  815SOL    HW2 3266   0.375   2.165   1.486
  816SOL     OW 3267   1.579   2.304   0.752
  816SOL    HW1 3268   1.506   2.311   0.683
  816SOL    HW2 3269   1.562   2.371   0.824
  817SOL     OW 3270   0.205   3.619   0.445
  817SOL    HW1 3271   0.236   3.686   0.513
  817SOL    HW2 3272   0.284   3.576   0.402
  818SOL     OW 3273   1.130   3.198   1.702
  818SOL    HW1 3274   1.180   3.189   1.788
  818SOL    HW2 3275   1.072   3.117   1.689
  819SOL     OW 3276   0.288   3.332   0.580
  819SOL    HW1 3277   0.279   3.424   0.618
  819SOL    HW2 3278   0.248   3.266   0.643
  820SOL     OW 3279   0.308   2.943   0.925
  820SOL    HW1 3280   0.311   2.843   0.933
  820SOL    HW2 3281   0.220   2.977   0.958
  821SOL     OW 3282   0.567   3.691   1.411
  821SOL    HW1 3283   0.483   3.668   1.461
  821SOL    HW2 3284   0.610   3.771   1.452
  822SOL     OW 3285   0.578   2.818   0.171
  822SOL    HW1 3286   0.631   2.838   0.089
  822SOL    HW2 3287   0.616   2.868   0.248
  823SOL     OW 3288   1.592   1.995   1.471
  823SOL    HW1 3289   1.639   2.073   1.430
  823SOL    HW2 3290   1.549   2.022   1.557
  824SOL     OW 3291   0.121   2.494   0.584
  824SOL    HW1 3292   0.079   2.410   0.619
  824SOL    HW2 3293   0.107   2.568   0.649
  825SOL     OW 3294   1.847   3.600   0.336
  825SOL    HW1 3295   1.924   3.571   0.392
  825SOL    HW2 3296   1.857   3.697   0.313
  826SOL     OW 3297   6.987   3.417   0.148
  826SOL    HW1 3298   6.968   3.322   0.170
  826SOL    HW2 3299   0.081   3.439   0.171
  827SOL     OW 3300   1.706   2.794   0.660
  827SOL    HW1 3301   1.796   2.751   0.655
  827SOL    HW2 3302   1.686   2.840   0.574
  828SOL     OW 3303   1.652   2.971   0.438
  828SOL    HW1 3304   1.711   2.994   0.361
  828SOL    HW2 3305   1.672   3.032   0.514
  829SOL     OW 3306   0.206   2.597   1.561
  829SOL    HW1 3307   0.306   2.600   1.555
  829SOL    HW2 3308   0.172   2.683   1.600
  830SOL     OW 3309   0.624   3.241   0.736
  830SOL    HW1 3310   0.577   3.153   0.743
  830SOL    HW2 3311   0.614   3.277   0.644
  831SOL     OW 3312   1.259   3.079   1.421
  831SOL    HW1 3313   1.280   3.008   1.354
  831SOL    HW2 3314   1.327   3.076   1.494
  832SOL     OW 3315   0.836   1.893   0.521
  832SOL    HW1 3316   0.882   1.978   0.494
  832SOL    HW2 3317   0.738   1.908   0.526
  833SOL     OW 3318   0.209   2.819   1.271
  833SOL    HW1 3319   0.292   2.765   1.257
  833SOL    HW2 3320   0.140   2.792   1.205
  834SOL     OW 3321   1.461   2.911   0.221
  834SOL    HW1 3322   1.390   2.848   0.253
  834SOL    HW2 3323   1.546   2.893   0.271
  835SOL     OW 3324   1.183   3.679   1.634
  835SOL    HW1 3325   1.183   3.750   1.563
  835SOL    HW2 3326   1.194   3.589   1.592
  836SOL     OW 3327   0.346   2.123   1.883
  836SOL    HW1 3328   0.380   2.203   1.933
  836SOL    HW2 3329   0.248   2.131   1.868
  837SOL     OW 3330   1.463   3.286   0.924
  837SOL    HW1 3331   1.405   3.305   1.003
  837SOL    HW2 3332   1.457   3.189   0.901
  838SOL     OW 3333   1.624   3.679   0.567
  838SOL    HW1 3334   1.617   3.626   0.482
  838SOL    HW2 3335   1.636   3.616   0.644
  839SOL     OW 3336   0.607   2.567   0.275
  839SOL    HW1 3337   0.603   2.660   0.238
  839SOL    HW2 3338   0.541   2.559   0.350
  840SOL     OW 3339   1.280   2.255   0.941
  840SOL    HW1 3340   1.188   2.218   0.941
  840SOL    HW2 3341   1.339   2.199   1.000
  841SOL     OW 3342   1.583   3.538   0.329
  841SOL    HW1 3343   1.683   3.548   0.325
  841SOL    HW2 3344   1.547   3.528   0.236
  842SOL     OW 3345   0.803   2.444   1.449
  842SOL    HW1 3346   0.766   2.421   1.539
  842SOL    HW2 3347   0.776   2.374   1.383
  843SOL     OW 3348   1.390   2.334   1.672
  843SOL    HW1 3349   1.395   2.382   1.760
  843SOL    HW2 3350   1.434   2.245   1.681
  844SOL     OW 3351   0.944   2.738   1.584
  844SOL    HW1 3352   1.003   2.672   1.537
  844SOL    HW2 3353   0.893   2.791   1.516
  845SOL     OW 3354   1.013   2.245   1.195
  845SOL    HW1 3355   0.918   2.258   1.223
  845SOL    HW2 3356   1.015   2.196   1.108
  846SOL     OW 3357   1.063   2.579   0.428
  846SOL    HW1 3358   1.087   2.580   0.525
  846SOL    HW2 3359   0.976   2.531   0.415
  847SOL     OW 3360   0.087   2.678   0.797
  847SOL    HW1 3361   0.181   2.678   0.833
  847SOL    HW2 3362   0.023   2.682   0.874
  848SOL     OW 3363   0.095   3.748   1.630
  848SOL    HW1 3364   0.116   3.720   1.724
  848SOL    HW2 3365   6.999   3.731   1.611
  849SOL     OW 3366   0.901   2.213   0.214
  849SOL    HW1 3367   0.946   2.276   0.151
  849SOL    HW2 3368   0.923   2.119   0.189
  850SOL     OW 3369   1.678   2.431   1.847
  850SOL    HW1 3370   1.660   2.512   1.791
  850SOL    HW2 3371   1.701   2.354   1.788
  851SOL     OW 3372   1.391   3.014   0.538
  851SOL    HW1 3373   1.476   3.003   0.487
  851SOL    HW2 3374   1.336   3.086   0.496
  852SOL     OW 3375   0.559   2.014   0.928
  852SOL    HW1 3376   0.569   2.034   1.026
  852SOL    HW2 3377   0.555   2.100   0.877
  853SOL     OW 3378   0.990   3.304   0.479
  853SOL    HW1 3379   0.965   3.386   0.427
  853SOL    HW2 3380   0.963   3.315   0.574
  854SOL     OW 3381   0.366   3.673   0.871
  854SOL    HW1 3382   0.406   3.582   0.883
  854SOL    HW2 3383   0.430   3.743   0.902
  855SOL     OW 3384   1.800   2.902   0.903
  855SOL    HW1 3385   1.752   2.888   0.816
  855SOL    HW2 3386   1.733   2.913   0.976
  856SOL     OW 3387   1.203   3.397   1.517
  856SOL    HW1 3388   1.195   3.327   1.588
  856SOL    HW2 3389   1.141   3.376   1.441
  857SOL     OW 3390   0.314   2.771   0.253
  857SOL    HW1 3391   0.403   2.797   0.215
  857SOL    HW2 3392   0.289   2.680   0.221
  858SOL     OW 3393   1.496   2.627   0.713
  858SOL    HW1 3394   1.493   2.580   0.801
  858SOL    HW2 3395   1.577   2.684   0.708
  859SOL     OW 3396   0.472   3.155   1.745
  859SOL    HW1 3397   0.450   3.157   1.648
  859SOL    HW2 3398   0.388   3.150   1.799
  860SOL     OW 3399   1.122   3.626   0.236
  860SOL    HW1 3400   1.048   3.589   0.293
  860SOL    HW2 3401   1.157   3.555   0.176
  861SOL     OW 3402   0.199   2.105   1.491
  861SOL    HW1 3403   0.128   2.174   1.481
  861SOL    HW2 3404   0.163   2.028   1.545
  862SOL     OW 3405   1.659   3.292   0.122
  862SOL    HW1 3406   1.621   3.372   0.076
  862SOL    HW2 3407   1.590   3.253   0.183
  863SOL     OW 3408   0.473   3.590   0.351
  863SOL    HW1 3409   0.512   3.655   0.417
  863SOL    HW2 3410   0.547   3.544   0.303
  864SOL     OW 3411   1.405   1.966   0.478
  864SOL    HW1 3412   1.400   1.937   0.382
  864SOL    HW2 3413   1.490   1.932   0.519
  865SOL     OW 3414   0.246   3.634   1.206
  865SOL    HW1 3415   0.283   3.549   1.243
  865SOL    HW2 3416   0.190   3.614   1.126
  866SOL     OW 3417   0.954   3.560   0.890
  866SOL    HW1 3418   1.044   3.522   0.909
  866SOL    HW2 3419   0.908   3.505   0.820
  867SOL     OW 3420   0.416   2.532   0.472
  867SOL    HW1 3421   0.414   2.433   0.486
  867SOL    HW2 3422   0.324   2.569   0.488
  868SOL     OW 3423   1.485   2.073   1.721
  868SOL    HW1 3424   1.501   2.094   1.817
  868SOL    HW2 3425   1.414   2.004   1.713
  869SOL     OW 3426   0.761   2.137   1.760
  869SOL    HW1 3427   0.850   2.091   1.753
  869SOL    HW2 3428   0.705   2.090   1.828
  870SOL     OW 3429   0.859   3.381   1.187
  870SOL    HW1 3430   0.838   3.331   1.103
  870SOL    HW2 3431   0.929   3.331   1.239
  871SOL     OW 3432   1.321   2.452   1.434
  871SOL    HW1 3433   1.355   2.419   1.522
  871SOL    HW2 3434   1.356   2.544   1.416
  872SOL     OW 3435   0.810   3.224   0.954
  872SOL    HW1 3436   0.903   3.227   0.916
  872SOL    HW2 3437   0.743   3.232   0.880
  873SOL     OW 3438   0.924   2.369   0.888
  873SOL    HW1 3439   0.899   2.362   0.792
  873SOL    HW2 3440   0.954   2.279   0.922
  874SOL     OW 3441   0.565   1.937   0.504
  874SOL    HW1 3442   0.481   1.937   0.558
  874SOL    HW2 3443   0.556   2.001   0.428
  875SOL     OW 3444   1.395   3.056   6.991
  875SOL    HW1 3445   1.432   2.991   0.058
  875SOL    HW2 3446   1.318   3.105   0.031
  876SOL     OW 3447   0.971   2.124   0.463
  876SOL    HW1 3448   0.939   2.161   0.376
  876SOL    HW2 3449   1.070   2.137   0.471
  877SOL     OW 3450   1.061   2.551   1.425
  877SOL    HW1 3451   0.987   2.486   1.438
  877SOL    HW2 3452   1.149   2.502   1.428
  878SOL     OW 3453   1.214   3.445   0.805
  878SOL    HW1 3454   1.226   3.517   0.737
  878SOL    HW2 3455   1.299   3.432   0.856
  879SOL     OW 3456   0.482   3.006   0.723
  879SOL    HW1 3457   0.420   2.987   0.799
  879SOL    HW2 3458   0.438   2.983   0.637
  880SOL     OW 3459   1.246   3.658   0.625
  880SOL    HW1 3460   1.302   3.725   0.576
  880SOL    HW2 3461   1.166   3.703   0.664
  881SOL     OW 3462   1.016   2.392   0.047
  881SOL    HW1 3463   0.944   2.462   0.051
  881SOL    HW2 3464   1.084   2.412   0.117
  882SOL     OW 3465   0.085   2.413   1.374
  882SOL    HW1 3466   0.179   2.396   1.344
  882SOL    HW2 3467   0.085   2.483   1.445
  883SOL     OW 3468   0.577   2.055   1.199
  883SOL    HW1 3469   0.619   1.981   1.250
  883SOL    HW2 3470   0.479   2.058   1.218
  884SOL     OW 3471   0.871   2.323   0.628
  884SOL    HW1 3472   0.837   2.385   0.558
  884SOL    HW2 3473   0.907   2.240   0.585
  885SOL     OW 3474   1.017   1.915   0.735
  885SOL    HW1 3475   0.953   1.912   0.659
  885SOL    HW2 3476   0.996   1.841   0.799
  886SOL     OW 3477   1.473   3.019   0.851
  886SOL    HW1 3478   1.396   2.961   0.824
  886SOL    HW2 3479   1.532   3.034   0.772
  887SOL     OW 3480   1.462   2.477   0.949
  887SOL    HW1 3481   1.393   2.406   0.958
  887SOL    HW2 3482   1.523   2.475   1.028
  888SOL     OW 3483   1.798   2.672   0.380
  888SOL    HW1 3484   1.871   2.611   0.410
  888SOL    HW2 3485   1.801   2.680   0.280
  889SOL     OW 3486   0.483   3.279   0.196
  889SOL    HW1 3487   0.446   3.226   0.272
  889SOL    HW2 3488   0.447   3.244   0.110
  890SOL     OW 3489   1.691   3.121   0.665
  890SOL    HW1 3490   1.790   3.109   0.671
  890SOL    HW2 3491   1.669   3.219   0.670
  891SOL     OW 3492   1.365   2.393   0.066
  891SOL    HW1 3493   1.302   2.398   0.143
  891SOL    HW2 3494   1.426   2.314   0.078
  892SOL     OW 3495   0.543   2.103   0.292
  892SOL    HW1 3496   0.598   2.058   0.222
  892SOL    HW2 3497   0.505   2.188   0.255
  893SOL     OW 3498   1.738   3.106   1.533
  893SOL    HW1 3499   1.828   3.066   1.515
  893SOL    HW2 3500   1.750   3.198   1.571
  894SOL     OW 3501   1.033   3.219   1.345
  894SOL    HW1 3502   0.947   3.187   1.386
  894SOL    HW2 3503   1.110   3.168   1.384
  895SOL     OW 3504   1.612   3.507   1.670
  895SOL    HW1 3505   1.592   3.545   1.580
  895SOL    HW2 3506   1.692   3.446   1.664
  896SOL     OW 3507   1.147   3.118   1.112
  896SOL    HW1 3508   1.087   3.149   1.185
  896SOL    HW2 3509   1.110   3.147   1.023
  897SOL     OW 3510   1.606   2.952   1.093
  897SOL    HW1 3511   1.598   3.021   1.165
  897SOL    HW2 3512   1.542   2.973   1.019
  898SOL     OW 3513   0.926   1.940   1.385
  898SOL    HW1 3514   0.945   1.919   1.289
  898SOL    HW2 3515   1.006   1.984   1.426
  899SOL     OW 3516   0.966   2.975   1.718
  899SOL    HW1 3517   0.873   2.993   1.750
  899SOL    HW2 3518   0.967   2.891   1.665
  900SOL     OW 3519   0.721   2.919   0.386
  900SOL    HW1 3520   0.704   2.892   0.481
  900SOL    HW2 3521   0.797   2.866   0.350
  901SOL     OW 3522   0.435   2.659   1.254
  901SOL    HW1 3523   0.511   2.671   1.318
  901SOL    HW2 3524   0.395   2.568   1.267
  902SOL     OW 3525   1.264   2.226   1.292
  902SOL    HW1 3526   1.292   2.310   1.340
  902SOL    HW2 3527   1.172   2.238   1.254
  903SOL     OW 3528   0.064   3.388   1.363
  903SOL    HW1 3529   0.012   3.428   1.438
  903SOL    HW2 3530   0.160   3.416   1.371
  904SOL     OW 3531   0.370   2.938   0.482
  904SOL    HW1 3532   0.343   3.024   0.438
  904SOL    HW2 3533   0.356   2.862   0.418
  905SOL     OW 3534   0.534   2.388   0.867
  905SOL    HW1 3535   0.549   2.450   0.790
  905SOL    HW2 3536   0.603   2.405   0.938
  906SOL     OW 3537   1.249   3.233   0.420
  906SOL    HW1 3538   1.300   3.308   0.460
  906SOL    HW2 3539   1.152   3.242   0.443
  907SOL     OW 3540   1.312   3.337   1.141
  907SOL    HW1 3541   1.360   3.346   1.229
  907SOL    HW2 3542   1.256   3.254   1.142
  908SOL     OW 3543   1.599   2.500   0.479
  908SOL    HW1 3544   1.544   2.537   0.555
  908SOL    HW2 3545   1.661   2.571   0.445
  909SOL     OW 3546   0.346   3.390   1.305
  909SOL    HW1 3547   0.337   3.335   1.222
  909SOL    HW2 3548   0.441   3.417   1.316
  910SOL     OW 3549   0.486   2.582   1.623
  910SOL    HW1 3550   0.537   2.626   1.549
  910SOL    HW2 3551   0.541   2.507   1.661
  911SOL     OW 3552   1.629   2.654   1.699
  911SOL    HW1 3553   1.537   2.692   1.688
  911SOL    HW2 3554   1.687   2.684   1.623
  912SOL     OW 3555   0.996   2.001   1.752
  912SOL    HW1 3556   1.056   2.080   1.740
  912SOL    HW2 3557   1.047   1.917   1.731
  913SOL     OW 3558   0.491   1.916   1.768
  913SOL    HW1 3559   0.440   1.866   1.698
  913SOL    HW2 3560   0.438   1.995   1.798
  914SOL     OW 3561   0.601   2.726   1.039
  914SOL    HW1 3562   0.635   2.820   1.041
  914SOL    HW2 3563   0.535   2.712   1.114
  915SOL     OW 3564   1.293   2.698   1.014
  915SOL    HW1 3565   1.201   2.673   0.984
  915SOL    HW2 3566   1.357   2.626   0.989
  916SOL     OW 3567   1.186   2.389   0.272
  916SOL    HW1 3568   1.210   2.310   0.328
  916SOL    HW2 3569   1.150   2.462   0.331
  917SOL     OW 3570   0.310   2.031   1.247
  917SOL    HW1 3571   0.269   2.060   1.333
  917SOL    HW2 3572   0.291   1.934   1.232
  918SOL     OW 3573   0.107   3.145   1.251
  918SOL    HW1 3574   0.116   3.077   1.324
  918SOL    HW2 3575   0.090   3.235   1.291
  919SOL     OW 3576   0.721   2.476   1.049
  919SOL    HW1 3577   0.796   2.457   0.986
  919SOL    HW2 3578   0.688   2.570   1.034
  920SOL     OW 3579   1.751   2.840   1.865
  920SOL    HW1 3580   1.711   2.765   1.813
  920SOL    HW2 3581   1.692   2.861   1.943
  921SOL     OW 3582   0.321   1.925   0.631
  921SOL    HW1 3583   0.294   2.019   0.656
  921SOL    HW2 3584   0.334   1.871   0.714
  922SOL     OW 3585   1.645   2.268   0.342
  922SOL    HW1 3586   1.676   2.196   0.404
  922SOL    HW2 3587   1.620   2.349   0.396
  923SOL     OW 3588   1.027   2.613   0.951
  923SOL    HW1 3589   1.003   2.636   1.046
  923SOL    HW2 3590   0.997   2.520   0.931
  924SOL     OW 3591   0.979   3.423   1.757
  924SOL    HW1 3592   0.946   3.479   1.682
  924SOL    HW2 3593   1.019   3.338   1.721
  925SOL     OW 3594   1.838   3.360   1.598
  925SOL    HW1 3595   1.858   3.384   1.503
  925SOL    HW2 3596   1.920   3.372   1.653
  926SOL     OW 3597   0.388   2.762   1.809
  926SOL    HW1 3598   0.459   2.793   1.873
  926SOL    HW2 3599   0.427   2.695   1.746
  927SOL     OW 3600   1.457   2.150   0.171
  927SOL    HW1 3601   1.442   2.054   0.192
  927SOL    HW2 3602   1.522   2.189   0.237
  928SOL     OW 3603   1.270   2.649   0.037
  928SOL    HW1 3604   1.316   2.561   0.032
  928SOL    HW2 3605   1.294   2.704   6.957
  929SOL     OW 3606   1.066   3.220   0.867
  929SOL    HW1 3607   1.081   3.139   0.810
  929SOL    HW2 3608   1.121   3.296   0.832
  930SOL     OW 3609   0.334   2.664   0.928
  930SOL    HW1 3610   0.433   2.680   0.925
  930SOL    HW2 3611   0.316   2.572   0.963
  931SOL     OW 3612   0.303   2.387   1.007
  931SOL    HW1 3613   0.260   2.297   1.005
  931SOL    HW2 3614   0.385   2.386   0.949
  932SOL     OW 3615   1.138   2.230   1.694
  932SOL    HW1 3616   1.088   2.279   1.766
  932SOL    HW2 3617   1.227   2.272   1.679
  933SOL     OW 3618   1.159   2.054   1.481
  933SOL    HW1 3619   1.144   2.116   1.557
  933SOL    HW2 3620   1.206   2.102   1.407
  934SOL     OW 3621   6.970   3.152   0.220
  934SOL    HW1 3622   6.919   3.181   0.301
  934SOL    HW2 3623   0.010   3.062   0.236
  935SOL     OW 3624   0.114   3.603   0.961
  935SOL    HW1 3625   0.085   3.530   0.899
  935SOL    HW2 3626   0.199   3.644   0.928
  936SOL     OW 3627   0.494   3.427   0.896
  936SOL    HW1 3628   0.566   3.492   0.922
  936SOL    HW2 3629   0.532   3.358   0.834
  937SOL     OW 3630   0.935   2.654   1.203
  937SOL    HW1 3631   0.993   2.630   1.280
  937SOL    HW2 3632   0.849   2.602   1.207
  938SOL     OW 3633   0.066   2.507   1.111
  938SOL    HW1 3634   0.147   2.467   1.068
  938SOL    HW2 3635   0.062   2.478   1.207
  939SOL     OW 3636   0.223   2.390   1.733
  939SOL    HW1 3637   0.293   2.322   1.711
  939SOL    HW2 3638   0.226   2.463   1.665
  940SOL     OW 3639   1.394   2.785   1.641
  940SOL    HW1 3640   1.413   2.883   1.640
  940SOL    HW2 3641   1.382   2.752   1.547
  941SOL     OW 3642   0.833   2.439   0.373
  941SOL    HW1 3643   0.842   2.357   0.317
  941SOL    HW2 3644   0.753   2.491   0.342
  942SOL     OW 3645   1.640   2.467   1.158
  942SOL    HW1 3646   1.620   2.401   1.231
  942SOL    HW2 3647   1.737   2.463   1.135
  943SOL     OW 3648   0.271   3.437   1.744
  943SOL    HW1 3649   0.218   3.502   1.799
  943SOL    HW2 3650   0.261   3.346   1.782
  944SOL     OW 3651   0.741   2.279   1.239
  944SOL    HW1 3652   0.679   2.202   1.228
  944SOL    HW2 3653   0.721   2.348   1.170
  945SOL     OW 3654   0.869   3.565   1.531
  945SOL    HW1 3655   0.836   3.500   1.463
  945SOL    HW2 3656   0.894   3.651   1.485
  946SOL     OW 3657   0.472   2.345   0.185
  946SOL    HW1 3658   0.535   2.416   0.214
  946SOL    HW2 3659   0.380   2.383   0.176
  947SOL     OW 3660   0.164   2.979   1.481
  947SOL    HW1 3661   0.162   2.922   1.563
  947SOL    HW2 3662   0.182   2.921   1.401
  948SOL     OW 3663   1.281   2.894   1.204
  948SOL    HW1 3664   1.290   2.824   1.134
  948SOL    HW2 3665   1.234   2.974   1.165
  949SOL     OW 3666   1.272   2.731   0.298
  949SOL    HW1 3667   1.208   2.682   0.356
  949SOL    HW2 3668   1.272   2.690   0.207
  950SOL     OW 3669   1.770   3.578   1.159
  950SOL    HW1 3670   1.840   3.604   1.093
  950SOL    HW2 3671   1.737   3.486   1.138
  951SOL     OW 3672   1.254   3.605   1.093
  951SOL    HW1 3673   1.343   3.641   1.066
  951SOL    HW2 3674   1.261   3.508   1.114
  952SOL     OW 3675   0.074   3.073   0.994
  952SOL    HW1 3676   0.092   3.099   1.089
  952SOL    HW2 3677   6.976   3.060   0.980
  953SOL     OW 3678   0.689   3.569   1.741
  953SOL    HW1 3679   0.620   3.641   1.735
  953SOL    HW2 3680   0.756   3.582   1.668
  954SOL     OW 3681   0.976   1.968   0.116
  954SOL    HW1 3682   1.053   2.019   0.076
  954SOL    HW2 3683   1.011   1.888   0.164
  955SOL     OW 3684   1.754   2.055   0.491
  955SOL    HW1 3685   1.814   2.029   0.416
  955SOL    HW2 3686   1.713   1.974   0.532
  956SOL     OW 3687   1.397   3.445   0.512
  956SOL    HW1 3688   1.458   3.478   0.439
  956SOL    HW2 3689   1.339   3.521   0.544
  957SOL     OW 3690   0.129   3.645   1.888
  957SOL    HW1 3691   0.085   3.566   1.931
  957SOL    HW2 3692   0.184   3.694   1.957
  958SOL     OW 3693   1.298   2.810   0.681
  958SOL    HW1 3694   1.371   2.742   0.691
  958SOL    HW2 3695   1.327   2.882   0.619
  959SOL     OW 3696   0.777   3.147   1.425
  959SOL    HW1 3697   0.752   3.198   1.507
  959SOL    HW2 3698   0.704   3.153   1.358
  960SOL     OW 3699   0.676   3.479   0.199
  960SOL    HW1 3700   0.666   3.531   0.115
  960SOL    HW2 3701   0.625   3.393   0.192
  961SOL     OW 3702   1.608   3.594   1.396
  961SOL    HW1 3703   1.665   3.586   1.315
  961SOL    HW2 3704   1.593   3.690   1.418
  962SOL     OW 3705   1.847   2.012   0.959
  962SOL    HW1 3706   1.877   1.919   0.939
  962SOL    HW2 3707   1.755   2.026   0.921
  963SOL     OW 3708   0.273   2.170   0.740
  963SOL    HW1 3709   0.188   2.213   0.711
  963SOL    HW2 3710   0.268   2.150   0.838
  964SOL     OW 3711   1.218   3.440   0.056
  964SOL    HW1 3712   1.214   3.343   0.081
  964SOL    HW2 3713   1.138   3.464   0.002
  965SOL     OW 3714   0.822   2.879   1.386
  965SOL    HW1 3715   0.864   2.866   1.296
  965SOL    HW2 3716   0.808   2.976   1.402
  966SOL     OW 3717   0.921   2.775   0.280
  966SOL    HW1 3718   0.966   2.795   0.193
  966SOL    HW2 3719   0.980   2.715   0.334
  967SOL     OW 3720   1.477   3.533   0.063
  967SOL    HW1 3721   1.384   3.495   0.061
  967SOL    HW2 3722   1.503   3.564   6.972
  968SOL     OW 3723   0.370   3.172   1.496
  968SOL    HW1 3724   0.360   3.247   1.431
  968SOL    HW2 3725   0.300   3.103   1.479
  969SOL     OW 3726   1.594   3.151   1.293
  969SOL    HW1 3727   1.653   3.125   1.369
  969SOL    HW2 3728   1.529   3.221   1.324
  970SOL     OW 3729   1.086   2.981   0.745
  970SOL    HW1 3730   1.007   2.931   0.779
  970SOL    HW2 3731   1.158   2.916   0.718
  971SOL     OW 3732   1.033   2.101   0.954
  971SOL    HW1 3733   1.032   2.062   0.862
  971SOL    HW2 3734   1.028   2.028   1.021
  972SOL     OW 3735   0.614   3.345   0.488
  972SOL    HW1 3736   0.664   3.292   0.419
  972SOL    HW2 3737   0.526   3.372   0.451
  973SOL     OW 3738   1.768   2.221   1.406
  973SOL    HW1 3739   1.834   2.296   1.397
  973SOL    HW2 3740   1.787   2.151   1.337
  974SOL     OW 3741   0.290   3.171   0.364
  974SOL    HW1 3742   0.207   3.179   0.308
  974SOL    HW2 3743   0.284   3.234   0.441
  975SOL     OW 3744   0.142   2.824   1.713
  975SOL    HW1 3745   0.088   2.879   1.777
  975SOL    HW2 3746   0.232   2.805   1.753
  976SOL     OW 3747   0.693   2.055   1.503
  976SOL    HW1 3748   0.778   2.026   1.459
  976SOL    HW2 3749   0.713   2.089   1.594
  977SOL     OW 3750   0.105   2.279   6.972
  977SOL    HW1 3751   0.020   2.292   6.921
  977SOL    HW2 3752   0.178   2.333   6.931
  978SOL     OW 3753   1.402   2.712   1.378
  978SOL    HW1 3754   1.343   2.771   1.323
  978SOL    HW2 3755   1.495   2.716   1.342
  979SOL     OW 3756   0.032   2.105   0.418
  979SOL    HW1 3757   0.085   2.182   0.382
  979SOL    HW2 3758   0.043   2.026   0.358
  980SOL     OW 3759   1.185   3.175   0.131
  980SOL    HW1 3760   1.087   3.194   0.118
  980SOL    HW2 3761   1.205   3.173   0.229
  981SOL     OW 3762   0.649   2.671   1.422
  981SOL    HW1 3763   0.703   2.754   1.413
  981SOL    HW2 3764   0.710   2.592   1.430
  982SOL     OW 3765   1.510   3.688   1.029
  982SOL    HW1 3766   1.536   3.753   0.958
  982SOL    HW2 3767   1.592   3.646   1.068
  983SOL     OW 3768   0.705   2.410   1.706
  983SOL    HW1 3769   0.764   2.470   1.760
  983SOL    HW2 3770   0.722   2.315   1.732
  984SOL     OW 3771   1.468   3.049   1.622
  984SOL    HW1 3772   1.457   3.074   1.719
  984SOL    HW2 3773   1.561   3.071   1.593
  985SOL     OW 3774   0.350   3.639   1.577
  985SOL    HW1 3775   0.261   3.682   1.566
  985SOL    HW2 3776   0.339   3.551   1.623
  986SOL     OW 3777   1.650   2.731   1.257
  986SOL    HW1 3778   1.650   2.644   1.209
  986SOL    HW2 3779   1.637   2.806   1.191
  987SOL     OW 3780   1.239   2.188   0.465
  987SOL    HW1 3781   1.301   2.110   0.466
  987SOL    HW2 3782   1.260   2.249   0.542
  988SOL     OW 3783   0.584   2.586   0.683
  988SOL    HW1 3784   0.629   2.675   0.675
  988SOL    HW2 3785   0.523   2.573   0.605
  989SOL     OW 3786   1.728   2.209   1.682
  989SOL    HW1 3787   1.742   2.219   1.583
  989SOL    HW2 3788   1.648   2.152   1.698
  990SOL     OW 3789   1.770   2.776   1.500
  990SOL    HW1 3790   1.758   2.873   1.522
  990SOL    HW2 3791   1.734   2.758   1.409
  991SOL     OW 3792   0.930   3.259   0.107
  991SOL    HW1 3793   0.861   3.236   0.175
  991SOL    HW2 3794   0.910   3.348   0.068
  992SOL     OW 3795   0.678   3.621   0.934
  992SOL    HW1 3796   0.654   3.717   0.926
  992SOL    HW2 3797   0.778   3.611   0.926
  993SOL     OW 3798   0.878   2.842   0.867
  993SOL    HW1 3799   0.927   2.760   0.897
  993SOL    HW2 3800   0.827   2.881   0.944
  994SOL     OW 3801   1.061   2.825   0.045
  994SOL    HW1 3802   1.094   2.919   0.046
  994SOL    HW2 3803   1.139   2.762   0.046
  995SOL     OW 3804   1.837   3.409   0.837
  995SOL    HW1 3805   1.754   3.404   0.783
  995SOL    HW2 3806   1.845   3.328   0.895
  996SOL     OW 3807   0.234   3.182   1.879
  996SOL    HW1 3808   0.138   3.156   1.868
  996SOL    HW2 3809   0.256   3.192   1.976
  997SOL     OW 3810   0.140   3.161   0.738
  997SOL    HW1 3811   0.128   3.117   0.827
  997SOL    HW2 3812   0.099   3.104   0.667
  998SOL     OW 3813   0.691   3.298   1.641
  998SOL    HW1 3814   0.608   3.253   1.676
  998SOL    HW2 3815   0.696   3.391   1.677
  999SOL     OW 3816   1.809   2.020   1.231
  999SOL    HW1 3817   1.806   1.922   1.249
  999SOL    HW2 3818   1.826   2.035   1.133
 1000SOL     OW 3819   0.402   2.262   0.506
 1000SOL    HW1 3820   0.468   2.198   0.467
 1000SOL    HW2 3821   0.376   2.231   0.597
 1001SOL     OW 3822   1.678   3.333   1.097
 1001SOL    HW1 3823   1.607   3.319   1.028
 1001SOL    HW2 3824   1.670   3.262   1.167
 1002SOL     OW 3825   0.345   2.400   1.290
 1002SOL    HW1 3826   0.396   2.337   1.348
 1002SOL    HW2 3827   0.354   2.372   1.194
 1003SOL     OW 3828   0.832   3.426   0.687
 1003SOL    HW1 3829   0.800   3.479   0.609
 1003SOL    HW2 3830   0.763   3.358   0.712
 1004SOL     OW 3831   1.425   2.097   1.112
 1004SOL    HW1 3832   1.434   1.999   1.130
 1004SOL    HW2 3833   1.375   2.140   1.188
 1005SOL     OW 3834   1.012   1.876   1.120
 1005SOL    HW1 3835   0.951   1.812   1.074
 1005SOL    HW2 3836   1.104   1.838   1.123
 1006SOL     OW 3837   0.782   3.184   0.334
 1006SOL    HW1 3838   0.754   3.089   0.348
 1006SOL    HW2 3839   0.863   3.203   0.389
 1007SOL     OW 3840   0.618   3.448   1.296
 1007SOL    HW1 3841   0.607   3.540   1.333
 1007SOL    HW2 3842   0.706   3.440   1.251
 1008SOL     OW 3843   1.373   1.889   0.218
 1008SOL    HW1 3844   1.420   1.822   0.162
 1008SOL    HW2 3845   1.276   1.864   0.226
 1009SOL     OW 3846   1.293   2.347   0.680
 1009SOL    HW1 3847   1.245   2.434   0.676
 1009SOL    HW2 3848   1.289   2.310   0.773
 1010SOL     OW 3849   1.587   2.062   0.891
 1010SOL    HW1 3850   1.533   2.087   0.971
 1010SOL    HW2 3851   1.587   2.138   0.826
 1011SOL     OW 3852   0.077   2.908   0.288
 1011SOL    HW1 3853   0.166   2.863   0.285
 1011SOL    HW2 3854   0.005   2.839   0.296
 1012SOL     OW 3855   0.894   3.535   0.364
 1012SOL    HW1 3856   0.816   3.513   0.306
 1012SOL    HW2 3857   0.872   3.615   0.420
 1013SOL     OW 3858   0.155   2.521   1.974
 1013SOL    HW1 3859   0.154   2.460   2.052
 1013SOL    HW2 3860   0.193   2.473   1.894
 1014SOL     OW 3861   0.207   2.128   2.862
 1014SOL    HW1 3862   0.263   2.091   2.936
 1014SOL    HW2 3863   0.111   2.105   2.878
 1015SOL     OW 3864   6.981   2.242   2.513
 1015SOL    HW1 3865   6.928   2.233   2.597
 1015SOL    HW2 3866   0.052   2.171   2.510
 1016SOL     OW 3867   0.579   3.179   3.083
 1016SOL    HW1 3868   0.495   3.176   3.029
 1016SOL    HW2 3869   0.598   3.274   3.110
 1017SOL     OW 3870   1.573   3.415   2.559
 1017SOL    HW1 3871   1.531   3.373   2.640
 1017SOL    HW2 3872   1.508   3.412   2.483
 1018SOL     OW 3873   1.136   2.574   2.540
 1018SOL    HW1 3874   1.188   2.657   2.516
 1018SOL    HW2 3875   1.086   2.590   2.625
 1019SOL     OW 3876   1.789   2.446   2.094
 1019SOL    HW1 3877   1.755   2.454   2.001
 1019SOL    HW2 3878   1.739   2.373   2.141
 1020SOL     OW 3879   0.723   2.993   2.922
 1020SOL    HW1 3880   0.663   3.028   2.994
 1020SOL    HW2 3881   0.766   3.069   2.874
 1021SOL     OW 3882   0.887   2.597   3.686
 1021SOL    HW1 3883   0.890   2.662   3.762
 1021SOL    HW2 3884   0.906   2.646   3.601
 1022SOL     OW 3885   0.687   2.845   2.519
 1022SOL    HW1 3886   0.761   2.850   2.586
 1022SOL    HW2 3887   0.615   2.910   2.544
 1023SOL     OW 3888   0.708   3.019   3.700
 1023SOL    HW1 3889   0.766   3.089   3.742
 1023SOL    HW2 3890   0.630   3.063   3.656
 1024SOL     OW 3891   0.353   3.255   2.930
 1024SOL    HW1 3892   0.275   3.209   2.888
 1024SOL    HW2 3893   0.395   3.317   2.864
 1025SOL     OW 3894   1.419   3.382   3.239
 1025SOL    HW1 3895   1.482   3.459   3.251
 1025SOL    HW2 3896   1.342   3.392   3.303
 1026SOL     OW 3897   0.457   2.217   3.323
 1026SOL    HW1 3898   0.538   2.161   3.335
 1026SOL    HW2 3899   0.375   2.164   3.346
 1027SOL     OW 3900   1.567   2.289   2.616
 1027SOL    HW1 3901   1.498   2.297   2.544
 1027SOL    HW2 3902   1.549   2.357   2.687
 1028SOL     OW 3903   0.242   3.577   2.334
 1028SOL    HW1 3904   0.259   3.657   2.392
 1028SOL    HW2 3905   0.304   3.578   2.256
 1029SOL     OW 3906   1.124   3.199   3.563
 1029SOL    HW1 3907   1.178   3.192   3.647
 1029SOL    HW2 3908   1.068   3.117   3.552
 1030SOL     OW 3909   0.332   3.320   2.393
 1030SOL    HW1 3910   0.294   3.413   2.391
 1030SOL    HW2 3911   0.286   3.266   2.463
 1031SOL     OW 3912   0.300   2.943   2.756
 1031SOL    HW1 3913   0.305   2.845   2.776
 1031SOL    HW2 3914   0.227   2.984   2.810
 1032SOL     OW 3915   0.567   3.688   3.274
 1032SOL    HW1 3916   0.484   3.666   3.325
 1032SOL    HW2 3917   0.611   3.768   3.314
 1033SOL     OW 3918   0.571   2.852   2.021
 1033SOL    HW1 3919   0.621   2.900   1.948
 1033SOL    HW2 3920   0.611   2.875   2.110
 1034SOL     OW 3921   1.537   1.980   3.271
 1034SOL    HW1 3922   1.614   2.009   3.215
 1034SOL    HW2 3923   1.473   2.056   3.282
 1035SOL     OW 3924   0.129   2.465   2.447
 1035SOL    HW1 3925   0.063   2.392   2.467
 1035SOL    HW2 3926   0.112   2.543   2.508
 1036SOL     OW 3927   0.001   3.432   1.987
 1036SOL    HW1 3928   0.012   3.347   2.038
 1036SOL    HW2 3929   6.908   3.438   1.951
 1037SOL     OW 3930   1.669   3.001   2.292
 1037SOL    HW1 3931   1.747   2.949   2.258
 1037SOL    HW2 3932   1.702   3.082   2.341
 1038SOL     OW 3933   0.207   2.597   3.422
 1038SOL    HW1 3934   0.307   2.600   3.418
 1038SOL    HW2 3935   0.173   2.682   3.462
 1039SOL     OW 3936   0.631   3.250   2.597
 1039SOL    HW1 3937   0.583   3.162   2.602
 1039SOL    HW2 3938   0.620   3.289   2.506
 1040SOL     OW 3939   1.254   3.077   3.282
 1040SOL    HW1 3940   1.286   3.012   3.213
 1040SOL    HW2 3941   1.316   3.077   3.360
 1041SOL     OW 3942   0.838   1.888   2.372
 1041SOL    HW1 3943   0.880   1.974   2.343
 1041SOL    HW2 3944   0.739   1.899   2.378
 1042SOL     OW 3945   0.212   2.819   3.132
 1042SOL    HW1 3946   0.294   2.764   3.117
 1042SOL    HW2 3947   0.141   2.792   3.067
 1043SOL     OW 3948   1.548   2.900   2.063
 1043SOL    HW1 3949   1.475   2.837   2.089
 1043SOL    HW2 3950   1.592   2.936   2.146
 1044SOL     OW 3951   1.183   3.686   3.505
 1044SOL    HW1 3952   1.185   3.755   3.433
 1044SOL    HW2 3953   1.194   3.595   3.466
 1045SOL     OW 3954   0.346   2.123   3.744
 1045SOL    HW1 3955   0.379   2.203   3.795
 1045SOL    HW2 3956   0.247   2.131   3.729
 1046SOL     OW 3957   1.478   3.283   2.780
 1046SOL    HW1 3958   1.410   3.304   2.850
 1046SOL    HW2 3959   1.458   3.193   2.740
 1047SOL     OW 3960   1.662   3.655   2.422
 1047SOL    HW1 3961   1.641   3.625   2.329
 1047SOL    HW2 3962   1.637   3.584   2.487
 1048SOL     OW 3963   0.565   2.561   2.128
 1048SOL    HW1 3964   0.579   2.652   2.090
 1048SOL    HW2 3965   0.506   2.567   2.208
 1049SOL     OW 3966   1.273   2.245   2.798
 1049SOL    HW1 3967   1.181   2.205   2.797
 1049SOL    HW2 3968   1.333   2.189   2.855
 1050SOL     OW 3969   1.604   3.556   2.165
 1050SOL    HW1 3970   1.700   3.545   2.138
 1050SOL    HW2 3971   1.546   3.551   2.084
 1051SOL     OW 3972   0.804   2.443   3.312
 1051SOL    HW1 3973   0.766   2.419   3.402
 1051SOL    HW2 3974   0.778   2.373   3.246
 1052SOL     OW 3975   1.391   2.333   3.539
 1052SOL    HW1 3976   1.390   2.376   3.629
 1052SOL    HW2 3977   1.449   2.252   3.541
 1053SOL     OW 3978   0.945   2.737   3.449
 1053SOL    HW1 3979   1.003   2.670   3.402
 1053SOL    HW2 3980   0.894   2.790   3.382
 1054SOL     OW 3981   1.015   2.244   3.052
 1054SOL    HW1 3982   0.921   2.258   3.083
 1054SOL    HW2 3983   1.014   2.195   2.964
 1055SOL     OW 3984   1.044   2.548   2.276
 1055SOL    HW1 3985   1.068   2.549   2.374
 1055SOL    HW2 3986   0.955   2.504   2.264
 1056SOL     OW 3987   0.086   2.663   2.648
 1056SOL    HW1 3988   0.179   2.670   2.685
 1056SOL    HW2 3989   0.020   2.671   2.722
 1057SOL     OW 3990   0.096   3.747   3.491
 1057SOL    HW1 3991   0.116   3.719   3.585
 1057SOL    HW2 3992   6.999   3.731   3.472
 1058SOL     OW 3993   0.866   2.209   2.062
 1058SOL    HW1 3994   0.924   2.259   1.997
 1058SOL    HW2 3995   0.820   2.134   2.014
 1059SOL     OW 3996   1.676   2.393   3.747
 1059SOL    HW1 3997   1.655   2.476   3.695
 1059SOL    HW2 3998   1.650   2.313   3.692
 1060SOL     OW 3999   1.402   3.025   2.385
 1060SOL    HW1 4000   1.490   3.015   2.339
 1060SOL    HW2 4001   1.345   3.090   2.334
 1061SOL     OW 4002   0.562   2.013   2.790
 1061SOL    HW1 4003   0.571   2.034   2.888
 1061SOL    HW2 4004   0.562   2.098   2.738
 1062SOL     OW 4005   0.991   3.322   2.326
 1062SOL    HW1 4006   0.969   3.400   2.266
 1062SOL    HW2 4007   0.964   3.344   2.420
 1063SOL     OW 4008   0.365   3.675   2.735
 1063SOL    HW1 4009   0.405   3.584   2.745
 1063SOL    HW2 4010   0.432   3.743   2.766
 1064SOL     OW 4011   1.693   3.025   2.775
 1064SOL    HW1 4012   1.614   3.035   2.714
 1064SOL    HW2 4013   1.661   2.997   2.866
 1065SOL     OW 4014   1.190   3.409   3.388
 1065SOL    HW1 4015   1.184   3.333   3.453
 1065SOL    HW2 4016   1.122   3.396   3.316
 1066SOL     OW 4017   0.303   2.798   2.113
 1066SOL    HW1 4018   0.392   2.824   2.075
 1066SOL    HW2 4019   0.274   2.711   2.073
 1067SOL     OW 4020   1.493   2.638   2.591
 1067SOL    HW1 4021   1.467   2.575   2.663
 1067SOL    HW2 4022   1.567   2.698   2.623
 1068SOL     OW 4023   0.471   3.154   3.607
 1068SOL    HW1 4024   0.449   3.156   3.510
 1068SOL    HW2 4025   0.386   3.149   3.660
 1069SOL     OW 4026   1.142   3.634   2.088
 1069SOL    HW1 4027   1.054   3.610   2.130
 1069SOL    HW2 4028   1.166   3.566   2.020
 1070SOL     OW 4029   0.199   2.104   3.349
 1070SOL    HW1 4030   0.128   2.173   3.341
 1070SOL    HW2 4031   0.165   2.027   3.403
 1071SOL     OW 4032   1.632   3.279   1.958
 1071SOL    HW1 4033   1.583   3.366   1.946
 1071SOL    HW2 4034   1.573   3.203   1.931
 1072SOL     OW 4035   0.466   3.611   2.163
 1072SOL    HW1 4036   0.513   3.654   2.240
 1072SOL    HW2 4037   0.533   3.564   2.105
 1073SOL     OW 4038   1.396   1.958   2.321
 1073SOL    HW1 4039   1.396   1.936   2.223
 1073SOL    HW2 4040   1.482   1.927   2.361
 1074SOL     OW 4041   0.246   3.635   3.065
 1074SOL    HW1 4042   0.284   3.551   3.104
 1074SOL    HW2 4043   0.190   3.614   2.986
 1075SOL     OW 4044   0.948   3.565   2.754
 1075SOL    HW1 4045   1.037   3.527   2.778
 1075SOL    HW2 4046   0.908   3.513   2.678
 1076SOL     OW 4047   0.396   2.528   2.346
 1076SOL    HW1 4048   0.422   2.432   2.357
 1076SOL    HW2 4049   0.300   2.539   2.370
 1077SOL     OW 4050   1.548   2.107   3.565
 1077SOL    HW1 4051   1.545   2.106   3.665
 1077SOL    HW2 4052   1.524   2.017   3.530
 1078SOL     OW 4053   0.671   1.966   1.969
 1078SOL    HW1 4054   0.727   1.887   1.993
 1078SOL    HW2 4055   0.602   1.939   1.902
 1079SOL     OW 4056   0.759   2.137   3.620
 1079SOL    HW1 4057   0.848   2.091   3.613
 1079SOL    HW2 4058   0.703   2.091   3.688
 1080SOL     OW 4059   0.859   3.381   3.046
 1080SOL    HW1 4060   0.839   3.334   2.960
 1080SOL    HW2 4061   0.926   3.328   3.098
 1081SOL     OW 4062   1.322   2.446   3.298
 1081SOL    HW1 4063   1.353   2.416   3.388
 1081SOL    HW2 4064   1.347   2.542   3.284
 1082SOL     OW 4065   0.818   3.227   2.810
 1082SOL    HW1 4066   0.910   3.229   2.772
 1082SOL    HW2 4067   0.751   3.240   2.736
 1083SOL     OW 4068   0.920   2.368   2.737
 1083SOL    HW1 4069   0.897   2.361   2.640
 1083SOL    HW2 4070   0.950   2.279   2.771
 1084SOL     OW 4071   0.565   1.919   2.359
 1084SOL    HW1 4072   0.483   1.918   2.416
 1084SOL    HW2 4073   0.559   1.994   2.294
 1085SOL     OW 4074   1.436   3.089   1.897
 1085SOL    HW1 4075   1.474   3.013   1.951
 1085SOL    HW2 4076   1.345   3.112   1.932
 1086SOL     OW 4077   0.280   1.927   2.070
 1086SOL    HW1 4078   0.318   1.996   2.008
 1086SOL    HW2 4079   0.353   1.866   2.101
 1087SOL     OW 4080   0.964   2.121   2.304
 1087SOL    HW1 4081   0.930   2.152   2.215
 1087SOL    HW2 4082   1.063   2.136   2.309
 1088SOL     OW 4083   1.059   2.549   3.286
 1088SOL    HW1 4084   0.981   2.489   3.301
 1088SOL    HW2 4085   1.144   2.496   3.291
 1089SOL     OW 4086   1.209   3.455   2.666
 1089SOL    HW1 4087   1.225   3.513   2.586
 1089SOL    HW2 4088   1.248   3.499   2.747
 1090SOL     OW 4089   0.482   3.020   2.570
 1090SOL    HW1 4090   0.419   2.993   2.643
 1090SOL    HW2 4091   0.435   3.011   2.482
 1091SOL     OW 4092   1.241   3.653   2.470
 1091SOL    HW1 4093   1.297   3.717   2.418
 1091SOL    HW2 4094   1.163   3.701   2.511
 1092SOL     OW 4095   1.025   2.368   1.902
 1092SOL    HW1 4096   0.984   2.455   1.876
 1092SOL    HW2 4097   1.094   2.384   1.973
 1093SOL     OW 4098   0.084   2.414   3.236
 1093SOL    HW1 4099   0.177   2.397   3.205
 1093SOL    HW2 4100   0.084   2.484   3.307
 1094SOL     OW 4101   0.577   2.059   3.060
 1094SOL    HW1 4102   0.619   1.985   3.113
 1094SOL    HW2 4103   0.479   2.061   3.078
 1095SOL     OW 4104   0.868   2.321   2.475
 1095SOL    HW1 4105   0.820   2.377   2.408
 1095SOL    HW2 4106   0.905   2.240   2.430
 1096SOL     OW 4107   1.013   1.917   2.591
 1096SOL    HW1 4108   0.952   1.912   2.513
 1096SOL    HW2 4109   0.992   1.842   2.655
 1097SOL     OW 4110   1.432   3.038   2.659
 1097SOL    HW1 4111   1.355   2.987   2.697
 1097SOL    HW2 4112   1.424   3.041   2.559
 1098SOL     OW 4113   1.442   2.468   2.806
 1098SOL    HW1 4114   1.375   2.394   2.809
 1098SOL    HW2 4115   1.503   2.461   2.885
 1099SOL     OW 4116   1.830   2.621   2.305
 1099SOL    HW1 4117   1.891   2.574   2.369
 1099SOL    HW2 4118   1.820   2.567   2.222
 1100SOL     OW 4119   0.519   3.289   2.000
 1100SOL    HW1 4120   0.443   3.258   2.057
 1100SOL    HW2 4121   0.511   3.249   1.909
 1101SOL     OW 4122   1.394   2.442   1.923
 1101SOL    HW1 4123   1.339   2.412   2.002
 1101SOL    HW2 4124   1.491   2.426   1.942
 1102SOL     OW 4125   0.550   2.113   2.170
 1102SOL    HW1 4126   0.599   2.062   2.100
 1102SOL    HW2 4127   0.506   2.193   2.129
 1103SOL     OW 4128   1.713   3.136   3.419
 1103SOL    HW1 4129   1.799   3.087   3.404
 1103SOL    HW2 4130   1.733   3.226   3.459
 1104SOL     OW 4131   1.026   3.214   3.203
 1104SOL    HW1 4132   0.941   3.183   3.245
 1104SOL    HW2 4133   1.104   3.168   3.245
 1105SOL     OW 4134   1.598   3.519   3.544
 1105SOL    HW1 4135   1.579   3.550   3.451
 1105SOL    HW2 4136   1.681   3.463   3.545
 1106SOL     OW 4137   1.144   3.112   2.972
 1106SOL    HW1 4138   1.085   3.145   3.045
 1106SOL    HW2 4139   1.110   3.145   2.884
 1107SOL     OW 4140   1.564   2.958   3.010
 1107SOL    HW1 4141   1.583   3.035   3.070
 1107SOL    HW2 4142   1.466   2.937   3.012
 1108SOL     OW 4143   0.926   1.937   3.246
 1108SOL    HW1 4144   0.946   1.917   3.150
 1108SOL    HW2 4145   1.006   1.979   3.288
 1109SOL     OW 4146   0.967   2.973   3.585
 1109SOL    HW1 4147   0.874   2.991   3.617
 1109SOL    HW2 4148   0.968   2.888   3.531
 1110SOL     OW 4149   0.717   2.917   2.250
 1110SOL    HW1 4150   0.699   2.892   2.345
 1110SOL    HW2 4151   0.797   2.867   2.217
 1111SOL     OW 4152   0.436   2.657   3.112
 1111SOL    HW1 4153   0.512   2.669   3.176
 1111SOL    HW2 4154   0.395   2.567   3.127
 1112SOL     OW 4155   1.264   2.223   3.156
 1112SOL    HW1 4156   1.290   2.306   3.204
 1112SOL    HW2 4157   1.173   2.234   3.115
 1113SOL     OW 4158   0.068   3.391   3.227
 1113SOL    HW1 4159   0.020   3.434   3.303
 1113SOL    HW2 4160   0.164   3.415   3.230
 1114SOL     OW 4161   0.356   2.986   2.325
 1114SOL    HW1 4162   0.340   3.064   2.264
 1114SOL    HW2 4163   0.341   2.901   2.275
 1115SOL     OW 4164   0.528   2.389   2.733
 1115SOL    HW1 4165   0.541   2.451   2.656
 1115SOL    HW2 4166   0.600   2.405   2.801
 1116SOL     OW 4167   1.246   3.229   2.261
 1116SOL    HW1 4168   1.307   3.304   2.287
 1116SOL    HW2 4169   1.153   3.250   2.290
 1117SOL     OW 4170   1.312   3.332   2.993
 1117SOL    HW1 4171   1.354   3.347   3.083
 1117SOL    HW2 4172   1.256   3.249   2.997
 1118SOL     OW 4173   1.584   2.487   2.367
 1118SOL    HW1 4174   1.531   2.534   2.438
 1118SOL    HW2 4175   1.662   2.543   2.341
 1119SOL     OW 4176   0.345   3.391   3.167
 1119SOL    HW1 4177   0.335   3.336   3.084
 1119SOL    HW2 4178   0.441   3.418   3.178
 1120SOL     OW 4179   0.487   2.582   3.485
 1120SOL    HW1 4180   0.537   2.625   3.410
 1120SOL    HW2 4181   0.541   2.507   3.523
 1121SOL     OW 4182   1.627   2.620   3.601
 1121SOL    HW1 4183   1.551   2.673   3.563
 1121SOL    HW2 4184   1.712   2.646   3.554
 1122SOL     OW 4185   0.992   1.999   3.612
 1122SOL    HW1 4186   1.055   2.076   3.603
 1122SOL    HW2 4187   1.039   1.915   3.589
 1123SOL     OW 4188   0.491   1.916   3.630
 1123SOL    HW1 4189   0.440   1.866   3.560
 1123SOL    HW2 4190   0.438   1.995   3.660
 1124SOL     OW 4191   0.608   2.727   2.902
 1124SOL    HW1 4192   0.638   2.822   2.903
 1124SOL    HW2 4193   0.538   2.713   2.971
 1125SOL     OW 4194   1.282   2.693   2.868
 1125SOL    HW1 4195   1.189   2.671   2.838
 1125SOL    HW2 4196   1.343   2.616   2.847
 1126SOL     OW 4197   1.202   2.384   2.120
 1126SOL    HW1 4198   1.222   2.304   2.177
 1126SOL    HW2 4199   1.152   2.451   2.175
 1127SOL     OW 4200   0.309   2.034   3.101
 1127SOL    HW1 4201   0.269   2.064   3.188
 1127SOL    HW2 4202   0.290   1.936   3.088
 1128SOL     OW 4203   0.101   3.145   3.120
 1128SOL    HW1 4204   0.113   3.078   3.193
 1128SOL    HW2 4205   0.086   3.235   3.160
 1129SOL     OW 4206   0.724   2.476   2.907
 1129SOL    HW1 4207   0.795   2.456   2.840
 1129SOL    HW2 4208   0.691   2.570   2.894
 1130SOL     OW 4209   1.718   2.832   3.768
 1130SOL    HW1 4210   1.701   2.751   3.711
 1130SOL    HW2 4211   1.637   2.852   3.823
 1131SOL     OW 4212   0.323   1.925   2.494
 1131SOL    HW1 4213   0.291   2.017   2.514
 1131SOL    HW2 4214   0.336   1.874   2.579
 1132SOL     OW 4215   1.614   2.264   2.207
 1132SOL    HW1 4216   1.655   2.189   2.259
 1132SOL    HW2 4217   1.588   2.337   2.269
 1133SOL     OW 4218   1.020   2.614   2.803
 1133SOL    HW1 4219   0.997   2.633   2.898
 1133SOL    HW2 4220   0.990   2.521   2.780
 1134SOL     OW 4221   0.971   3.421   3.618
 1134SOL    HW1 4222   0.941   3.477   3.541
 1134SOL    HW2 4223   1.011   3.336   3.585
 1135SOL     OW 4224   1.829   3.380   3.485
 1135SOL    HW1 4225   1.855   3.394   3.389
 1135SOL    HW2 4226   1.911   3.386   3.542
 1136SOL     OW 4227   0.388   2.763   3.670
 1136SOL    HW1 4228   0.458   2.793   3.735
 1136SOL    HW2 4229   0.428   2.696   3.607
 1137SOL     OW 4230   1.518   2.126   1.983
 1137SOL    HW1 4231   1.468   2.047   2.019
 1137SOL    HW2 4232   1.553   2.180   2.059
 1138SOL     OW 4233   1.283   2.687   1.872
 1138SOL    HW1 4234   1.322   2.595   1.885
 1138SOL    HW2 4235   1.319   2.726   1.787
 1139SOL     OW 4236   1.076   3.219   2.726
 1139SOL    HW1 4237   1.097   3.138   2.672
 1139SOL    HW2 4238   1.129   3.297   2.692
 1140SOL     OW 4239   0.332   2.664   2.783
 1140SOL    HW1 4240   0.429   2.673   2.763
 1140SOL    HW2 4241   0.314   2.577   2.828
 1141SOL     OW 4242   0.298   2.385   2.870
 1141SOL    HW1 4243   0.256   2.294   2.866
 1141SOL    HW2 4244   0.382   2.385   2.816
 1142SOL     OW 4245   1.137   2.227   3.555
 1142SOL    HW1 4246   1.087   2.277   3.626
 1142SOL    HW2 4247   1.228   2.267   3.545
 1143SOL     OW 4248   1.159   2.050   3.343
 1143SOL    HW1 4249   1.144   2.111   3.421
 1143SOL    HW2 4250   1.201   2.102   3.268
 1144SOL     OW 4251   0.015   3.190   2.122
 1144SOL    HW1 4252   6.946   3.221   2.187
 1144SOL    HW2 4253   0.018   3.090   2.121
 1145SOL     OW 4254   0.114   3.598   2.822
 1145SOL    HW1 4255   0.088   3.522   2.762
 1145SOL    HW2 4256   0.198   3.639   2.788
 1146SOL     OW 4257   0.493   3.427   2.763
 1146SOL    HW1 4258   0.563   3.492   2.791
 1146SOL    HW2 4259   0.533   3.361   2.700
 1147SOL     OW 4260   0.937   2.651   3.059
 1147SOL    HW1 4261   0.992   2.626   3.138
 1147SOL    HW2 4262   0.850   2.601   3.062
 1148SOL     OW 4263   0.066   2.511   2.974
 1148SOL    HW1 4264   0.145   2.467   2.931
 1148SOL    HW2 4265   0.060   2.482   3.070
 1149SOL     OW 4266   0.222   2.390   3.595
 1149SOL    HW1 4267   0.293   2.322   3.575
 1149SOL    HW2 4268   0.226   2.463   3.527
 1150SOL     OW 4269   1.413   2.777   3.509
 1150SOL    HW1 4270   1.426   2.876   3.510
 1150SOL    HW2 4271   1.392   2.746   3.416
 1151SOL     OW 4272   0.799   2.430   2.222
 1151SOL    HW1 4273   0.814   2.349   2.165
 1151SOL    HW2 4274   0.719   2.480   2.189
 1152SOL     OW 4275   1.607   2.447   3.022
 1152SOL    HW1 4276   1.561   2.418   3.106
 1152SOL    HW2 4277   1.692   2.394   3.010
 1153SOL     OW 4278   0.268   3.435   3.606
 1153SOL    HW1 4279   0.217   3.501   3.661
 1153SOL    HW2 4280   0.257   3.344   3.644
 1154SOL     OW 4281   0.744   2.281   3.100
 1154SOL    HW1 4282   0.681   2.204   3.090
 1154SOL    HW2 4283   0.724   2.350   3.030
 1155SOL     OW 4284   0.871   3.561   3.388
 1155SOL    HW1 4285   0.831   3.499   3.320
 1155SOL    HW2 4286   0.897   3.647   3.344
 1156SOL     OW 4287   0.422   2.327   2.057
 1156SOL    HW1 4288   0.478   2.409   2.066
 1156SOL    HW2 4289   0.336   2.339   2.107
 1157SOL     OW 4290   0.165   2.978   3.342
 1157SOL    HW1 4291   0.162   2.921   3.424
 1157SOL    HW2 4292   0.184   2.920   3.262
 1158SOL     OW 4293   1.296   2.897   3.045
 1158SOL    HW1 4294   1.288   2.822   2.981
 1158SOL    HW2 4295   1.237   2.973   3.017
 1159SOL     OW 4296   1.336   2.746   2.137
 1159SOL    HW1 4297   1.271   2.705   2.202
 1159SOL    HW2 4298   1.309   2.723   2.044
 1160SOL     OW 4299   1.772   3.577   3.053
 1160SOL    HW1 4300   1.837   3.602   2.981
 1160SOL    HW2 4301   1.727   3.491   3.029
 1161SOL     OW 4302   1.251   3.588   2.915
 1161SOL    HW1 4303   1.338   3.635   2.902
 1161SOL    HW2 4304   1.267   3.498   2.955
 1162SOL     OW 4305   0.099   3.096   2.858
 1162SOL    HW1 4306   0.101   3.109   2.957
 1162SOL    HW2 4307   0.005   3.095   2.826
 1163SOL     OW 4308   0.690   3.570   3.601
 1163SOL    HW1 4309   0.622   3.643   3.596
 1163SOL    HW2 4310   0.757   3.583   3.528
 1164SOL     OW 4311   1.749   2.055   2.327
 1164SOL    HW1 4312   1.809   2.036   2.249
 1164SOL    HW2 4313   1.712   1.969   2.362
 1165SOL     OW 4314   1.399   3.449   2.342
 1165SOL    HW1 4315   1.461   3.490   2.275
 1165SOL    HW2 4316   1.336   3.519   2.376
 1166SOL     OW 4317   0.129   3.645   3.750
 1166SOL    HW1 4318   0.085   3.567   3.795
 1166SOL    HW2 4319   0.184   3.694   3.818
 1167SOL     OW 4320   1.289   2.795   2.490
 1167SOL    HW1 4321   1.366   2.739   2.521
 1167SOL    HW2 4322   1.324   2.872   2.436
 1168SOL     OW 4323   0.771   3.144   3.287
 1168SOL    HW1 4324   0.746   3.197   3.368
 1168SOL    HW2 4325   0.697   3.151   3.219
 1169SOL     OW 4326   0.683   3.505   2.009
 1169SOL    HW1 4327   0.698   3.528   1.913
 1169SOL    HW2 4328   0.632   3.420   2.016
 1170SOL     OW 4329   1.590   3.594   3.274
 1170SOL    HW1 4330   1.654   3.592   3.197
 1170SOL    HW2 4331   1.565   3.688   3.294
 1171SOL     OW 4332   1.856   2.008   2.834
 1171SOL    HW1 4333   1.887   1.915   2.815
 1171SOL    HW2 4334   1.762   2.019   2.799
 1172SOL     OW 4335   0.260   2.175   2.590
 1172SOL    HW1 4336   0.241   2.273   2.577
 1172SOL    HW2 4337   0.247   2.151   2.686
 1173SOL     OW 4338   1.215   3.444   1.905
 1173SOL    HW1 4339   1.209   3.350   1.941
 1173SOL    HW2 4340   1.138   3.460   1.843
 1174SOL     OW 4341   0.823   2.877   3.249
 1174SOL    HW1 4342   0.863   2.867   3.158
 1174SOL    HW2 4343   0.805   2.974   3.266
 1175SOL     OW 4344   0.928   2.775   2.165
 1175SOL    HW1 4345   0.976   2.800   2.081
 1175SOL    HW2 4346   0.974   2.697   2.207
 1176SOL     OW 4347   1.480   3.521   1.914
 1176SOL    HW1 4348   1.384   3.494   1.902
 1176SOL    HW2 4349   1.525   3.524   1.824
 1177SOL     OW 4350   0.371   3.172   3.357
 1177SOL    HW1 4351   0.361   3.247   3.293
 1177SOL    HW2 4352   0.301   3.103   3.339
 1178SOL     OW 4353   1.577   3.166   3.185
 1178SOL    HW1 4354   1.637   3.155   3.265
 1178SOL    HW2 4355   1.509   3.236   3.205
 1179SOL     OW 4356   1.111   2.971   2.618
 1179SOL    HW1 4357   1.024   2.930   2.646
 1179SOL    HW2 4358   1.163   2.905   2.563
 1180SOL     OW 4359   1.029   2.098   2.811
 1180SOL    HW1 4360   1.025   2.059   2.719
 1180SOL    HW2 4361   1.026   2.025   2.879
 1181SOL     OW 4362   0.608   3.354   2.351
 1181SOL    HW1 4363   0.651   3.301   2.277
 1181SOL    HW2 4364   0.509   3.343   2.346
 1182SOL     OW 4365   0.285   3.211   2.151
 1182SOL    HW1 4366   0.185   3.209   2.146
 1182SOL    HW2 4367   0.312   3.257   2.236
 1183SOL     OW 4368   0.142   2.824   3.575
 1183SOL    HW1 4369   0.089   2.880   3.637
 1183SOL    HW2 4370   0.232   2.805   3.615
 1184SOL     OW 4371   0.694   2.054   3.362
 1184SOL    HW1 4372   0.779   2.024   3.320
 1184SOL    HW2 4373   0.713   2.088   3.454
 1185SOL     OW 4374   0.073   2.141   1.863
 1185SOL    HW1 4375   0.009   2.076   1.903
 1185SOL    HW2 4376   0.023   2.220   1.826
 1186SOL     OW 4377   1.385   2.710   3.244
 1186SOL    HW1 4378   1.328   2.768   3.187
 1186SOL    HW2 4379   1.478   2.706   3.207
 1187SOL     OW 4380   0.063   2.077   2.175
 1187SOL    HW1 4381   7.000   2.037   2.108
 1187SOL    HW2 4382   0.151   2.030   2.169
 1188SOL     OW 4383   1.181   3.182   1.990
 1188SOL    HW1 4384   1.082   3.167   1.980
 1188SOL    HW2 4385   1.204   3.186   2.087
 1189SOL     OW 4386   0.649   2.669   3.281
 1189SOL    HW1 4387   0.704   2.753   3.274
 1189SOL    HW2 4388   0.710   2.590   3.291
 1190SOL     OW 4389   1.501   3.690   2.869
 1190SOL    HW1 4390   1.529   3.764   2.808
 1190SOL    HW2 4391   1.579   3.627   2.883
 1191SOL     OW 4392   0.705   2.410   3.568
 1191SOL    HW1 4393   0.763   2.469   3.622
 1191SOL    HW2 4394   0.721   2.314   3.594
 1192SOL     OW 4395   1.454   3.050   3.493
 1192SOL    HW1 4396   1.431   3.064   3.589
 1192SOL    HW2 4397   1.544   3.088   3.474
 1193SOL     OW 4398   0.350   3.637   3.440
 1193SOL    HW1 4399   0.261   3.682   3.429
 1193SOL    HW2 4400   0.338   3.549   3.487
 1194SOL     OW 4401   1.626   2.712   3.116
 1194SOL    HW1 4402   1.632   2.628   3.062
 1194SOL    HW2 4403   1.618   2.790   3.055
 1195SOL     OW 4404   1.234   2.183   2.315
 1195SOL    HW1 4405   1.293   2.103   2.315
 1195SOL    HW2 4406   1.256   2.241   2.394
 1196SOL     OW 4407   0.565   2.595   2.554
 1196SOL    HW1 4408   0.617   2.680   2.540
 1196SOL    HW2 4409   0.507   2.578   2.475
 1197SOL     OW 4410   1.744   2.191   3.387
 1197SOL    HW1 4411   1.751   2.122   3.315
 1197SOL    HW2 4412   1.679   2.161   3.456
 1198SOL     OW 4413   1.719   2.846   3.336
 1198SOL    HW1 4414   1.671   2.934   3.341
 1198SOL    HW2 4415   1.689   2.797   3.254
 1199SOL     OW 4416   0.891   3.211   1.945
 1199SOL    HW1 4417   0.842   3.222   2.032
 1199SOL    HW2 4418   0.895   3.299   1.898
 1200SOL     OW 4419   0.677   3.621   2.802
 1200SOL    HW1 4420   0.653   3.718   2.791
 1200SOL    HW2 4421   0.776   3.610   2.792
 1201SOL     OW 4422   0.880   2.850   2.723
 1201SOL    HW1 4423   0.923   2.764   2.751
 1201SOL    HW2 4424   0.828   2.888   2.800
 1202SOL     OW 4425   1.052   2.819   1.930
 1202SOL    HW1 4426   1.031   2.888   1.862
 1202SOL    HW2 4427   1.138   2.773   1.907
 1203SOL     OW 4428   1.801   3.419   2.730
 1203SOL    HW1 4429   1.723   3.402   2.670
 1203SOL    HW2 4430   1.829   3.333   2.774
 1204SOL     OW 4431   0.232   3.180   3.741
 1204SOL    HW1 4432   0.137   3.149   3.732
 1204SOL    HW2 4433   0.254   3.191   3.838
 1205SOL     OW 4434   0.173   3.165   2.568
 1205SOL    HW1 4435   0.199   3.106   2.644
 1205SOL    HW2 4436   0.115   3.113   2.505
 1206SOL     OW 4437   0.688   3.298   3.502
 1206SOL    HW1 4438   0.606   3.254   3.538
 1206SOL    HW2 4439   0.695   3.391   3.538
 1207SOL     OW 4440   1.767   2.052   3.144
 1207SOL    HW1 4441   1.826   1.980   3.107
 1207SOL    HW2 4442   1.781   2.137   3.092
 1208SOL     OW 4443   0.449   2.268   2.388
 1208SOL    HW1 4444   0.495   2.205   2.324
 1208SOL    HW2 4445   0.405   2.215   2.460
 1209SOL     OW 4446   1.649   3.349   2.990
 1209SOL    HW1 4447   1.601   3.325   2.906
 1209SOL    HW2 4448   1.639   3.275   3.057
 1210SOL     OW 4449   0.344   2.399   3.152
 1210SOL    HW1 4450   0.395   2.336   3.210
 1210SOL    HW2 4451   0.350   2.369   3.057
 1211SOL     OW 4452   0.839   3.442   2.539
 1211SOL    HW1 4453   0.803   3.505   2.470
 1211SOL    HW2 4454   0.769   3.373   2.560
 1212SOL     OW 4455   1.421   2.094   2.973
 1212SOL    HW1 4456   1.434   1.997   2.993
 1212SOL    HW2 4457   1.367   2.136   3.047
 1213SOL     OW 4458   1.018   1.875   2.980
 1213SOL    HW1 4459   0.959   1.809   2.933
 1213SOL    HW2 4460   1.111   1.838   2.985
 1214SOL     OW 4461   0.777   3.188   2.199
 1214SOL    HW1 4462   0.754   3.092   2.215
 1214SOL    HW2 4463   0.858   3.213   2.252
 1215SOL     OW 4464   0.617   3.446   3.156
 1215SOL    HW1 4465   0.606   3.538   3.193
 1215SOL    HW2 4466   0.706   3.439   3.110
 1216SOL     OW 4467   1.387   1.893   2.054
 1216SOL    HW1 4468   1.436   1.821   2.003
 1216SOL    HW2 4469   1.292   1.865   2.067
 1217SOL     OW 4470   1.288   2.338   2.536
 1217SOL    HW1 4471   1.234   2.422   2.530
 1217SOL    HW2 4472   1.280   2.300   2.628
 1218SOL     OW 4473   1.593   2.052   2.762
 1218SOL    HW1 4474   1.536   2.080   2.840
 1218SOL    HW2 4475   1.591   2.123   2.692
 1219SOL     OW 4476   0.056   2.917   2.145
 1219SOL    HW1 4477   0.147   2.877   2.141
 1219SOL    HW2 4478   6.988   2.843   2.154
 1220SOL     OW 4479   0.896   3.545   2.190
 1220SOL    HW1 4480   0.819   3.528   2.129
 1220SOL    HW2 4481   0.872   3.616   2.256
 1221SOL     OW 4482   0.154   2.521   3.836
 1221SOL    HW1 4483   0.152   2.459   3.915
 1221SOL    HW2 4484   0.192   2.473   3.757
 1222SOL     OW 4485   0.207   2.129   4.724
 1222SOL    HW1 4486   0.263   2.091   4.798
 1222SOL    HW2 4487   0.111   2.106   4.740
 1223SOL     OW 4488   6.981   2.243   4.376
 1223SOL    HW1 4489   6.926   2.233   4.459
 1223SOL    HW2 4490   0.056   2.177   4.377
 1224SOL     OW 4491   0.580   3.181   4.945
 1224SOL    HW1 4492   0.496   3.178   4.892
 1224SOL    HW2 4493   0.599   3.276   4.972
 1225SOL     OW 4494   1.544   3.378   4.416
 1225SOL    HW1 4495   1.506   3.342   4.501
 1225SOL    HW2 4496   1.471   3.393   4.350
 1226SOL     OW 4497   1.126   2.578   4.402
 1226SOL    HW1 4498   1.180   2.660   4.383
 1226SOL    HW2 4499   1.078   2.589   4.489
 1227SOL     OW 4500   0.721   2.991   4.785
 1227SOL    HW1 4501   0.662   3.027   4.857
 1227SOL    HW2 4502   0.766   3.067   4.738
 1228SOL     OW 4503   0.889   2.598   5.544
 1228SOL    HW1 4504   0.904   2.664   5.618
 1228SOL    HW2 4505   0.905   2.643   5.456
 1229SOL     OW 4506   0.687   2.844   4.379
 1229SOL    HW1 4507   0.759   2.846   4.448
 1229SOL    HW2 4508   0.615   2.909   4.404
 1230SOL     OW 4509   0.709   3.021   5.562
 1230SOL    HW1 4510   0.769   3.090   5.603
 1230SOL    HW2 4511   0.631   3.066   5.519
 1231SOL     OW 4512   0.354   3.255   4.793
 1231SOL    HW1 4513   0.275   3.209   4.751
 1231SOL    HW2 4514   0.395   3.318   4.726
 1232SOL     OW 4515   1.451   3.374   5.112
 1232SOL    HW1 4516   1.507   3.456   5.126
 1232SOL    HW2 4517   1.371   3.377   5.171
 1233SOL     OW 4518   0.456   2.217   5.186
 1233SOL    HW1 4519   0.537   2.161   5.198
 1233SOL    HW2 4520   0.374   2.163   5.208
 1234SOL     OW 4521   1.532   2.296   4.476
 1234SOL    HW1 4522   1.448   2.303   4.422
 1234SOL    HW2 4523   1.534   2.368   4.545
 1235SOL     OW 4524   0.242   3.577   4.197
 1235SOL    HW1 4525   0.258   3.658   4.254
 1235SOL    HW2 4526   0.304   3.579   4.119
 1236SOL     OW 4527   1.130   3.200   5.427
 1236SOL    HW1 4528   1.185   3.188   5.510
 1236SOL    HW2 4529   1.071   3.120   5.415
 1237SOL     OW 4530   0.331   3.321   4.255
 1237SOL    HW1 4531   0.292   3.413   4.253
 1237SOL    HW2 4532   0.285   3.266   4.325
 1238SOL     OW 4533   0.300   2.943   4.617
 1238SOL    HW1 4534   0.304   2.845   4.638
 1238SOL    HW2 4535   0.227   2.985   4.672
 1239SOL     OW 4536   0.566   3.690   5.134
 1239SOL    HW1 4537   0.483   3.667   5.185
 1239SOL    HW2 4538   0.610   3.770   5.176
 1240SOL     OW 4539   0.570   2.851   3.881
 1240SOL    HW1 4540   0.619   2.900   3.809
 1240SOL    HW2 4541   0.609   2.874   3.970
 1241SOL     OW 4542   1.589   1.993   5.192
 1241SOL    HW1 4543   1.636   2.070   5.149
 1241SOL    HW2 4544   1.548   2.023   5.278
 1242SOL     OW 4545   0.129   2.466   4.309
 1242SOL    HW1 4546   0.063   2.393   4.329
 1242SOL    HW2 4547   0.113   2.543   4.371
 1243SOL     OW 4548   1.844   3.616   4.036
 1243SOL    HW1 4549   1.922   3.595   4.094
 1243SOL    HW2 4550   1.849   3.711   4.006
 1244SOL     OW 4551   0.000   3.435   3.854
 1244SOL    HW1 4552   0.011   3.349   3.903
 1244SOL    HW2 4553   6.907   3.441   3.818
 1245SOL     OW 4554   1.687   2.790   4.402
 1245SOL    HW1 4555   1.771   2.736   4.408
 1245SOL    HW2 4556   1.684   2.837   4.313
 1246SOL     OW 4557   1.680   2.960   4.151
 1246SOL    HW1 4558   1.755   2.952   4.085
 1246SOL    HW2 4559   1.688   3.046   4.201
 1247SOL     OW 4560   0.207   2.598   5.284
 1247SOL    HW1 4561   0.307   2.601   5.281
 1247SOL    HW2 4562   0.173   2.683   5.324
 1248SOL     OW 4563   0.631   3.249   4.460
 1248SOL    HW1 4564   0.583   3.161   4.465
 1248SOL    HW2 4565   0.619   3.288   4.369
 1249SOL     OW 4566   1.259   3.082   5.146
 1249SOL    HW1 4567   1.276   3.006   5.083
 1249SOL    HW2 4568   1.326   3.079   5.220
 1250SOL     OW 4569   0.836   1.884   4.236
 1250SOL    HW1 4570   0.878   1.970   4.207
 1250SOL    HW2 4571   0.737   1.895   4.242
 1251SOL     OW 4572   0.211   2.820   4.994
 1251SOL    HW1 4573   0.292   2.764   4.979
 1251SOL    HW2 4574   0.139   2.793   4.929
 1252SOL     OW 4575   1.509   2.883   3.944
 1252SOL    HW1 4576   1.447   2.811   3.973
 1252SOL    HW2 4577   1.565   2.913   4.022
 1253SOL     OW 4578   1.184   3.681   5.360
 1253SOL    HW1 4579   1.182   3.751   5.289
 1253SOL    HW2 4580   1.195   3.591   5.319
 1254SOL     OW 4581   0.347   2.123   5.606
 1254SOL    HW1 4582   0.380   2.202   5.656
 1254SOL    HW2 4583   0.248   2.131   5.591
 1255SOL     OW 4584   1.462   3.267   4.651
 1255SOL    HW1 4585   1.405   3.297   4.727
 1255SOL    HW2 4586   1.442   3.172   4.630
 1256SOL     OW 4587   1.661   3.602   4.301
 1256SOL    HW1 4588   1.636   3.579   4.207
 1256SOL    HW2 4589   1.630   3.530   4.362
 1257SOL     OW 4590   0.567   2.560   3.990
 1257SOL    HW1 4591   0.580   2.651   3.952
 1257SOL    HW2 4592   0.506   2.565   4.070
 1258SOL     OW 4593   1.270   2.256   4.672
 1258SOL    HW1 4594   1.179   2.213   4.672
 1258SOL    HW2 4595   1.332   2.201   4.727
 1259SOL     OW 4596   1.582   3.534   4.040
 1259SOL    HW1 4597   1.679   3.557   4.032
 1259SOL    HW2 4598   1.542   3.524   3.949
 1260SOL     OW 4599   0.802   2.444   5.174
 1260SOL    HW1 4600   0.765   2.421   5.264
 1260SOL    HW2 4601   0.775   2.375   5.107
 1261SOL     OW 4602   1.388   2.332   5.395
 1261SOL    HW1 4603   1.393   2.380   5.482
 1261SOL    HW2 4604   1.434   2.243   5.404
 1262SOL     OW 4605   0.944   2.739   5.309
 1262SOL    HW1 4606   1.002   2.673   5.262
 1262SOL    HW2 4607   0.891   2.792   5.241
 1263SOL     OW 4608   1.009   2.247   4.914
 1263SOL    HW1 4609   0.915   2.260   4.945
 1263SOL    HW2 4610   1.010   2.197   4.828
 1264SOL     OW 4611   1.045   2.554   4.137
 1264SOL    HW1 4612   1.068   2.557   4.235
 1264SOL    HW2 4613   0.958   2.509   4.124
 1265SOL     OW 4614   0.087   2.664   4.510
 1265SOL    HW1 4615   0.179   2.671   4.547
 1265SOL    HW2 4616   0.020   2.671   4.585
 1266SOL     OW 4617   0.096   3.747   5.354
 1266SOL    HW1 4618   0.116   3.720   5.448
 1266SOL    HW2 4619   7.000   3.732   5.334
 1267SOL     OW 4620   0.863   2.207   3.923
 1267SOL    HW1 4621   0.921   2.255   3.858
 1267SOL    HW2 4622   0.818   2.130   3.877
 1268SOL     OW 4623   1.667   2.424   5.560
 1268SOL    HW1 4624   1.654   2.507   5.506
 1268SOL    HW2 4625   1.695   2.349   5.501
 1269SOL     OW 4626   1.394   3.027   4.272
 1269SOL    HW1 4627   1.484   3.028   4.228
 1269SOL    HW2 4628   1.333   3.090   4.223
 1270SOL     OW 4629   0.561   2.014   4.651
 1270SOL    HW1 4630   0.570   2.034   4.749
 1270SOL    HW2 4631   0.563   2.100   4.600
 1271SOL     OW 4632   0.980   3.319   4.190
 1271SOL    HW1 4633   0.960   3.397   4.131
 1271SOL    HW2 4634   0.955   3.341   4.284
 1272SOL     OW 4635   0.366   3.676   4.596
 1272SOL    HW1 4636   0.405   3.584   4.607
 1272SOL    HW2 4637   0.432   3.744   4.627
 1273SOL     OW 4638   1.754   2.870   4.659
 1273SOL    HW1 4639   1.717   2.856   4.567
 1273SOL    HW2 4640   1.681   2.900   4.720
 1274SOL     OW 4641   1.204   3.398   5.242
 1274SOL    HW1 4642   1.195   3.328   5.313
 1274SOL    HW2 4643   1.142   3.376   5.166
 1275SOL     OW 4644   0.303   2.798   3.976
 1275SOL    HW1 4645   0.392   2.824   3.937
 1275SOL    HW2 4646   0.275   2.710   3.938
 1276SOL     OW 4647   1.476   2.620   4.429
 1276SOL    HW1 4648   1.469   2.575   4.518
 1276SOL    HW2 4649   1.557   2.679   4.428
 1277SOL     OW 4650   0.472   3.156   5.469
 1277SOL    HW1 4651   0.450   3.158   5.371
 1277SOL    HW2 4652   0.388   3.150   5.522
 1278SOL     OW 4653   1.130   3.636   3.950
 1278SOL    HW1 4654   1.045   3.608   3.994
 1278SOL    HW2 4655   1.156   3.569   3.881
 1279SOL     OW 4656   0.198   2.103   5.211
 1279SOL    HW1 4657   0.127   2.173   5.203
 1279SOL    HW2 4658   0.164   2.027   5.265
 1280SOL     OW 4659   1.580   3.263   3.803
 1280SOL    HW1 4660   1.541   3.354   3.794
 1280SOL    HW2 4661   1.510   3.194   3.784
 1281SOL     OW 4662   0.466   3.612   4.025
 1281SOL    HW1 4663   0.513   3.655   4.102
 1281SOL    HW2 4664   0.533   3.565   3.967
 1282SOL     OW 4665   1.409   1.972   4.175
 1282SOL    HW1 4666   1.403   1.940   4.080
 1282SOL    HW2 4667   1.504   1.993   4.196
 1283SOL     OW 4668   0.247   3.636   4.927
 1283SOL    HW1 4669   0.284   3.552   4.966
 1283SOL    HW2 4670   0.190   3.614   4.847
 1284SOL     OW 4671   0.945   3.567   4.613
 1284SOL    HW1 4672   1.033   3.526   4.637
 1284SOL    HW2 4673   0.905   3.516   4.537
 1285SOL     OW 4674   0.395   2.527   4.206
 1285SOL    HW1 4675   0.421   2.431   4.218
 1285SOL    HW2 4676   0.299   2.539   4.232
 1286SOL     OW 4677   1.486   2.072   5.444
 1286SOL    HW1 4678   1.503   2.093   5.540
 1286SOL    HW2 4679   1.415   2.002   5.437
 1287SOL     OW 4680   0.672   1.966   3.831
 1287SOL    HW1 4681   0.729   1.888   3.854
 1287SOL    HW2 4682   0.603   1.939   3.764
 1288SOL     OW 4683   0.760   2.137   5.482
 1288SOL    HW1 4684   0.849   2.092   5.476
 1288SOL    HW2 4685   0.704   2.092   5.551
 1289SOL     OW 4686   0.861   3.383   4.909
 1289SOL    HW1 4687   0.841   3.333   4.824
 1289SOL    HW2 4688   0.929   3.332   4.962
 1290SOL     OW 4689   1.317   2.452   5.159
 1290SOL    HW1 4690   1.353   2.418   5.246
 1290SOL    HW2 4691   1.351   2.545   5.143
 1291SOL     OW 4692   0.819   3.226   4.674
 1291SOL    HW1 4693   0.912   3.228   4.637
 1291SOL    HW2 4694   0.753   3.238   4.600
 1292SOL     OW 4695   0.923   2.371   4.600
 1292SOL    HW1 4696   0.899   2.363   4.503
 1292SOL    HW2 4697   0.953   2.282   4.635
 1293SOL     OW 4698   0.564   1.919   4.222
 1293SOL    HW1 4699   0.482   1.918   4.279
 1293SOL    HW2 4700   0.559   1.994   4.156
 1294SOL     OW 4701   1.394   3.064   3.764
 1294SOL    HW1 4702   1.433   2.994   3.823
 1294SOL    HW2 4703   1.307   3.096   3.802
 1295SOL     OW 4704   0.280   1.927   3.931
 1295SOL    HW1 4705   0.319   1.996   3.869
 1295SOL    HW2 4706   0.353   1.866   3.962
 1296SOL     OW 4707   0.958   2.119   4.167
 1296SOL    HW1 4708   0.925   2.150   4.078
 1296SOL    HW2 4709   1.057   2.132   4.172
 1297SOL     OW 4710   1.059   2.553   5.148
 1297SOL    HW1 4711   0.984   2.488   5.162
 1297SOL    HW2 4712   1.146   2.503   5.152
 1298SOL     OW 4713   1.208   3.462   4.529
 1298SOL    HW1 4714   1.227   3.521   4.451
 1298SOL    HW2 4715   1.241   3.505   4.613
 1299SOL     OW 4716   0.482   3.019   4.432
 1299SOL    HW1 4717   0.419   2.993   4.505
 1299SOL    HW2 4718   0.435   3.011   4.343
 1300SOL     OW 4719   1.247   3.663   4.337
 1300SOL    HW1 4720   1.307   3.726   4.288
 1300SOL    HW2 4721   1.168   3.713   4.373
 1301SOL     OW 4722   1.022   2.366   3.762
 1301SOL    HW1 4723   0.981   2.453   3.738
 1301SOL    HW2 4724   1.088   2.379   3.836
 1302SOL     OW 4725   0.083   2.415   5.098
 1302SOL    HW1 4726   0.177   2.397   5.068
 1302SOL    HW2 4727   0.084   2.484   5.169
 1303SOL     OW 4728   0.576   2.058   4.921
 1303SOL    HW1 4729   0.618   1.984   4.974
 1303SOL    HW2 4730   0.478   2.060   4.939
 1304SOL     OW 4731   0.868   2.322   4.338
 1304SOL    HW1 4732   0.822   2.379   4.271
 1304SOL    HW2 4733   0.902   2.239   4.294
 1305SOL     OW 4734   1.021   1.917   4.451
 1305SOL    HW1 4735   0.959   1.912   4.373
 1305SOL    HW2 4736   1.000   1.844   4.515
 1306SOL     OW 4737   1.409   2.999   4.588
 1306SOL    HW1 4738   1.345   2.925   4.610
 1306SOL    HW2 4739   1.414   3.012   4.489
 1307SOL     OW 4740   1.444   2.487   4.675
 1307SOL    HW1 4741   1.377   2.414   4.687
 1307SOL    HW2 4742   1.510   2.485   4.750
 1308SOL     OW 4743   0.518   3.289   3.861
 1308SOL    HW1 4744   0.442   3.258   3.919
 1308SOL    HW2 4745   0.510   3.247   3.770
 1309SOL     OW 4746   1.701   3.193   4.283
 1309SOL    HW1 4747   1.789   3.237   4.263
 1309SOL    HW2 4748   1.643   3.257   4.333
 1310SOL     OW 4749   1.390   2.428   3.797
 1310SOL    HW1 4750   1.325   2.402   3.869
 1310SOL    HW2 4751   1.483   2.409   3.827
 1311SOL     OW 4752   0.549   2.112   4.032
 1311SOL    HW1 4753   0.599   2.061   3.963
 1311SOL    HW2 4754   0.505   2.192   3.990
 1312SOL     OW 4755   1.742   3.087   5.304
 1312SOL    HW1 4756   1.833   3.048   5.294
 1312SOL    HW2 4757   1.748   3.183   5.329
 1313SOL     OW 4758   1.032   3.221   5.070
 1313SOL    HW1 4759   0.946   3.188   5.110
 1313SOL    HW2 4760   1.108   3.170   5.109
 1314SOL     OW 4761   1.619   3.509   5.409
 1314SOL    HW1 4762   1.600   3.547   5.318
 1314SOL    HW2 4763   1.696   3.445   5.402
 1315SOL     OW 4764   1.149   3.121   4.838
 1315SOL    HW1 4765   1.087   3.154   4.909
 1315SOL    HW2 4766   1.117   3.151   4.748
 1316SOL     OW 4767   1.565   2.961   4.825
 1316SOL    HW1 4768   1.572   3.042   4.884
 1316SOL    HW2 4769   1.497   2.977   4.754
 1317SOL     OW 4770   0.926   1.939   5.108
 1317SOL    HW1 4771   0.945   1.919   5.012
 1317SOL    HW2 4772   1.006   1.983   5.149
 1318SOL     OW 4773   0.965   2.978   5.440
 1318SOL    HW1 4774   0.872   2.995   5.472
 1318SOL    HW2 4775   0.967   2.893   5.388
 1319SOL     OW 4776   0.715   2.914   4.110
 1319SOL    HW1 4777   0.701   2.889   4.205
 1319SOL    HW2 4778   0.793   2.862   4.073
 1320SOL     OW 4779   0.435   2.657   4.975
 1320SOL    HW1 4780   0.510   2.670   5.039
 1320SOL    HW2 4781   0.394   2.567   4.989
 1321SOL     OW 4782   1.259   2.227   5.017
 1321SOL    HW1 4783   1.287   2.311   5.065
 1321SOL    HW2 4784   1.168   2.240   4.978
 1322SOL     OW 4785   0.066   3.391   5.088
 1322SOL    HW1 4786   0.016   3.432   5.165
 1322SOL    HW2 4787   0.163   3.417   5.094
 1323SOL     OW 4788   0.355   2.987   4.187
 1323SOL    HW1 4789   0.339   3.064   4.126
 1323SOL    HW2 4790   0.340   2.902   4.137
 1324SOL     OW 4791   0.528   2.388   4.593
 1324SOL    HW1 4792   0.540   2.450   4.516
 1324SOL    HW2 4793   0.600   2.404   4.661
 1325SOL     OW 4794   1.232   3.220   4.131
 1325SOL    HW1 4795   1.292   3.297   4.153
 1325SOL    HW2 4796   1.139   3.241   4.160
 1326SOL     OW 4797   1.317   3.337   4.874
 1326SOL    HW1 4798   1.367   3.345   4.961
 1326SOL    HW2 4799   1.262   3.254   4.874
 1327SOL     OW 4800   1.500   2.500   4.168
 1327SOL    HW1 4801   1.494   2.531   4.263
 1327SOL    HW2 4802   1.449   2.563   4.109
 1328SOL     OW 4803   0.346   3.392   5.029
 1328SOL    HW1 4804   0.336   3.337   4.946
 1328SOL    HW2 4805   0.442   3.418   5.040
 1329SOL     OW 4806   0.486   2.582   5.347
 1329SOL    HW1 4807   0.537   2.626   5.273
 1329SOL    HW2 4808   0.542   2.508   5.386
 1330SOL     OW 4809   1.627   2.654   5.422
 1330SOL    HW1 4810   1.535   2.692   5.413
 1330SOL    HW2 4811   1.685   2.690   5.349
 1331SOL     OW 4812   0.994   2.000   5.477
 1331SOL    HW1 4813   1.054   2.079   5.466
 1331SOL    HW2 4814   1.045   1.917   5.456
 1332SOL     OW 4815   0.492   1.915   5.492
 1332SOL    HW1 4816   0.440   1.865   5.422
 1332SOL    HW2 4817   0.438   1.994   5.522
 1333SOL     OW 4818   0.603   2.726   4.763
 1333SOL    HW1 4819   0.636   2.821   4.766
 1333SOL    HW2 4820   0.536   2.712   4.835
 1334SOL     OW 4821   1.287   2.724   4.710
 1334SOL    HW1 4822   1.194   2.693   4.690
 1334SOL    HW2 4823   1.351   2.648   4.700
 1335SOL     OW 4824   1.191   2.377   3.983
 1335SOL    HW1 4825   1.213   2.299   4.041
 1335SOL    HW2 4826   1.146   2.448   4.038
 1336SOL     OW 4827   0.308   2.033   4.963
 1336SOL    HW1 4828   0.268   2.063   5.049
 1336SOL    HW2 4829   0.289   1.936   4.950
 1337SOL     OW 4830   0.102   3.146   4.981
 1337SOL    HW1 4831   0.113   3.078   5.054
 1337SOL    HW2 4832   0.086   3.236   5.022
 1338SOL     OW 4833   0.722   2.476   4.767
 1338SOL    HW1 4834   0.796   2.457   4.702
 1338SOL    HW2 4835   0.689   2.569   4.754
 1339SOL     OW 4836   1.749   2.830   5.601
 1339SOL    HW1 4837   1.709   2.758   5.545
 1339SOL    HW2 4838   1.684   2.857   5.672
 1340SOL     OW 4839   0.322   1.926   4.356
 1340SOL    HW1 4840   0.289   2.018   4.376
 1340SOL    HW2 4841   0.335   1.875   4.441
 1341SOL     OW 4842   1.591   2.260   4.056
 1341SOL    HW1 4843   1.631   2.200   4.125
 1341SOL    HW2 4844   1.566   2.347   4.098
 1342SOL     OW 4845   1.024   2.617   4.670
 1342SOL    HW1 4846   1.002   2.637   4.765
 1342SOL    HW2 4847   0.996   2.523   4.648
 1343SOL     OW 4848   0.981   3.424   5.484
 1343SOL    HW1 4849   0.949   3.480   5.408
 1343SOL    HW2 4850   1.021   3.340   5.449
 1344SOL     OW 4851   1.838   3.353   5.336
 1344SOL    HW1 4852   1.863   3.382   5.244
 1344SOL    HW2 4853   1.918   3.359   5.395
 1345SOL     OW 4854   0.389   2.764   5.533
 1345SOL    HW1 4855   0.458   2.794   5.598
 1345SOL    HW2 4856   0.428   2.696   5.470
 1346SOL     OW 4857   1.533   2.113   3.833
 1346SOL    HW1 4858   1.475   2.038   3.864
 1346SOL    HW2 4859   1.557   2.171   3.910
 1347SOL     OW 4860   1.297   2.680   3.741
 1347SOL    HW1 4861   1.330   2.586   3.751
 1347SOL    HW2 4862   1.336   2.721   3.658
 1348SOL     OW 4863   1.077   3.223   4.590
 1348SOL    HW1 4864   1.092   3.142   4.535
 1348SOL    HW2 4865   1.131   3.299   4.554
 1349SOL     OW 4866   0.332   2.665   4.646
 1349SOL    HW1 4867   0.430   2.677   4.635
 1349SOL    HW2 4868   0.314   2.577   4.690
 1350SOL     OW 4869   0.298   2.385   4.731
 1350SOL    HW1 4870   0.256   2.294   4.728
 1350SOL    HW2 4871   0.382   2.385   4.677
 1351SOL     OW 4872   1.136   2.228   5.420
 1351SOL    HW1 4873   1.087   2.279   5.492
 1351SOL    HW2 4874   1.225   2.270   5.405
 1352SOL     OW 4875   1.157   2.054   5.206
 1352SOL    HW1 4876   1.142   2.115   5.283
 1352SOL    HW2 4877   1.203   2.103   5.132
 1353SOL     OW 4878   0.014   3.190   3.984
 1353SOL    HW1 4879   6.945   3.220   4.050
 1353SOL    HW2 4880   0.017   3.090   3.983
 1354SOL     OW 4881   0.114   3.598   4.683
 1354SOL    HW1 4882   0.088   3.522   4.623
 1354SOL    HW2 4883   0.198   3.640   4.649
 1355SOL     OW 4884   0.493   3.428   4.625
 1355SOL    HW1 4885   0.563   3.493   4.654
 1355SOL    HW2 4886   0.533   3.361   4.563
 1356SOL     OW 4887   0.935   2.654   4.923
 1356SOL    HW1 4888   0.993   2.630   5.002
 1356SOL    HW2 4889   0.850   2.603   4.927
 1357SOL     OW 4890   0.066   2.511   4.836
 1357SOL    HW1 4891   0.145   2.468   4.793
 1357SOL    HW2 4892   0.060   2.482   4.932
 1358SOL     OW 4893   0.223   2.389   5.456
 1358SOL    HW1 4894   0.295   2.322   5.435
 1358SOL    HW2 4895   0.226   2.463   5.388
 1359SOL     OW 4896   1.391   2.784   5.368
 1359SOL    HW1 4897   1.411   2.882   5.368
 1359SOL    HW2 4898   1.378   2.752   5.274
 1360SOL     OW 4899   0.804   2.432   4.081
 1360SOL    HW1 4900   0.816   2.349   4.027
 1360SOL    HW2 4901   0.722   2.480   4.050
 1361SOL     OW 4902   1.630   2.476   4.879
 1361SOL    HW1 4903   1.607   2.413   4.954
 1361SOL    HW2 4904   1.726   2.466   4.856
 1362SOL     OW 4905   0.269   3.436   5.468
 1362SOL    HW1 4906   0.217   3.501   5.523
 1362SOL    HW2 4907   0.258   3.344   5.506
 1363SOL     OW 4908   0.739   2.282   4.962
 1363SOL    HW1 4909   0.677   2.205   4.951
 1363SOL    HW2 4910   0.720   2.350   4.891
 1364SOL     OW 4911   0.870   3.565   5.256
 1364SOL    HW1 4912   0.837   3.499   5.189
 1364SOL    HW2 4913   0.895   3.650   5.209
 1365SOL     OW 4914   0.421   2.326   3.919
 1365SOL    HW1 4915   0.478   2.409   3.928
 1365SOL    HW2 4916   0.336   2.338   3.969
 1366SOL     OW 4917   0.164   2.979   5.204
 1366SOL    HW1 4918   0.162   2.922   5.286
 1366SOL    HW2 4919   0.184   2.921   5.124
 1367SOL     OW 4920   1.266   2.891   4.930
 1367SOL    HW1 4921   1.279   2.826   4.855
 1367SOL    HW2 4922   1.223   2.974   4.896
 1368SOL     OW 4923   1.332   2.682   4.020
 1368SOL    HW1 4924   1.247   2.674   4.073
 1368SOL    HW2 4925   1.311   2.679   3.922
 1369SOL     OW 4926   1.789   3.595   4.918
 1369SOL    HW1 4927   1.864   3.630   4.863
 1369SOL    HW2 4928   1.749   3.514   4.874
 1370SOL     OW 4929   1.248   3.585   4.779
 1370SOL    HW1 4930   1.334   3.636   4.772
 1370SOL    HW2 4931   1.265   3.496   4.822
 1371SOL     OW 4932   0.099   3.097   4.720
 1371SOL    HW1 4933   0.101   3.110   4.819
 1371SOL    HW2 4934   0.004   3.095   4.688
 1372SOL     OW 4935   0.689   3.569   5.464
 1372SOL    HW1 4936   0.620   3.642   5.459
 1372SOL    HW2 4937   0.757   3.582   5.392
 1373SOL     OW 4938   1.694   2.021   4.207
 1373SOL    HW1 4939   1.769   2.016   4.142
 1373SOL    HW2 4940   1.684   1.933   4.254
 1374SOL     OW 4941   1.375   3.445   4.206
 1374SOL    HW1 4942   1.444   3.477   4.142
 1374SOL    HW2 4943   1.321   3.522   4.239
 1375SOL     OW 4944   0.129   3.645   5.613
 1375SOL    HW1 4945   0.085   3.567   5.656
 1375SOL    HW2 4946   0.184   3.694   5.680
 1376SOL     OW 4947   1.280   2.799   4.365
 1376SOL    HW1 4948   1.354   2.735   4.387
 1376SOL    HW2 4949   1.319   2.879   4.320
 1377SOL     OW 4950   0.775   3.148   5.146
 1377SOL    HW1 4951   0.750   3.199   5.228
 1377SOL    HW2 4952   0.701   3.153   5.079
 1378SOL     OW 4953   0.681   3.505   3.870
 1378SOL    HW1 4954   0.697   3.528   3.774
 1378SOL    HW2 4955   0.629   3.420   3.876
 1379SOL     OW 4956   1.609   3.599   5.139
 1379SOL    HW1 4957   1.674   3.594   5.062
 1379SOL    HW2 4958   1.587   3.695   5.158
 1380SOL     OW 4959   1.834   2.008   4.691
 1380SOL    HW1 4960   1.868   1.917   4.663
 1380SOL    HW2 4961   1.746   2.025   4.647
 1381SOL     OW 4962   0.257   2.177   4.451
 1381SOL    HW1 4963   0.245   2.275   4.441
 1381SOL    HW2 4964   0.245   2.152   4.548
 1382SOL     OW 4965   1.204   3.445   3.768
 1382SOL    HW1 4966   1.197   3.353   3.806
 1382SOL    HW2 4967   1.128   3.460   3.705
 1383SOL     OW 4968   0.821   2.878   5.109
 1383SOL    HW1 4969   0.865   2.865   5.020
 1383SOL    HW2 4970   0.807   2.976   5.125
 1384SOL     OW 4971   0.919   2.768   4.010
 1384SOL    HW1 4972   0.977   2.801   3.936
 1384SOL    HW2 4973   0.966   2.695   4.060
 1385SOL     OW 4974   1.467   3.523   3.783
 1385SOL    HW1 4975   1.371   3.499   3.767
 1385SOL    HW2 4976   1.515   3.531   3.696
 1386SOL     OW 4977   0.371   3.173   5.219
 1386SOL    HW1 4978   0.360   3.248   5.155
 1386SOL    HW2 4979   0.301   3.104   5.202
 1387SOL     OW 4980   1.611   3.185   4.981
 1387SOL    HW1 4981   1.699   3.168   5.027
 1387SOL    HW2 4982   1.552   3.238   5.042
 1388SOL     OW 4983   1.091   2.978   4.472
 1388SOL    HW1 4984   1.008   2.932   4.505
 1388SOL    HW2 4985   1.151   2.912   4.428
 1389SOL     OW 4986   1.030   2.101   4.674
 1389SOL    HW1 4987   1.030   2.062   4.582
 1389SOL    HW2 4988   1.025   2.027   4.741
 1390SOL     OW 4989   0.606   3.354   4.214
 1390SOL    HW1 4990   0.648   3.300   4.141
 1390SOL    HW2 4991   0.507   3.344   4.210
 1391SOL     OW 4992   1.768   2.226   5.131
 1391SOL    HW1 4993   1.833   2.301   5.121
 1391SOL    HW2 4994   1.787   2.156   5.062
 1392SOL     OW 4995   0.284   3.212   4.013
 1392SOL    HW1 4996   0.184   3.209   4.008
 1392SOL    HW2 4997   0.312   3.258   4.098
 1393SOL     OW 4998   0.143   2.824   5.436
 1393SOL    HW1 4999   0.089   2.880   5.499
 1393SOL    HW2 5000   0.232   2.806   5.477
 1394SOL     OW 5001   0.693   2.054   5.225
 1394SOL    HW1 5002   0.778   2.025   5.181
 1394SOL    HW2 5003   0.713   2.089   5.317
 1395SOL     OW 5004   0.073   2.141   3.724
 1395SOL    HW1 5005   0.009   2.076   3.764
 1395SOL    HW2 5006   0.022   2.219   3.688
 1396SOL     OW 5007   1.393   2.713   5.105
 1396SOL    HW1 5008   1.333   2.772   5.049
 1396SOL    HW2 5009   1.486   2.720   5.070
 1397SOL     OW 5010   0.063   2.077   4.036
 1397SOL    HW1 5011   0.000   2.037   3.969
 1397SOL    HW2 5012   0.151   2.030   4.030
 1398SOL     OW 5013   1.164   3.186   3.859
 1398SOL    HW1 5014   1.065   3.174   3.848
 1398SOL    HW2 5015   1.186   3.188   3.957
 1399SOL     OW 5016   0.648   2.671   5.144
 1399SOL    HW1 5017   0.702   2.754   5.135
 1399SOL    HW2 5018   0.709   2.592   5.154
 1400SOL     OW 5019   1.494   3.708   4.762
 1400SOL    HW1 5020   1.522   3.771   4.689
 1400SOL    HW2 5021   1.575   3.668   4.804
 1401SOL     OW 5022   0.705   2.410   5.430
 1401SOL    HW1 5023   0.764   2.471   5.484
 1401SOL    HW2 5024   0.722   2.315   5.456
 1402SOL     OW 5025   1.465   3.048   5.352
 1402SOL    HW1 5026   1.449   3.070   5.448
 1402SOL    HW2 5027   1.561   3.064   5.330
 1403SOL     OW 5028   0.350   3.637   5.301
 1403SOL    HW1 5029   0.261   3.682   5.291
 1403SOL    HW2 5030   0.338   3.549   5.348
 1404SOL     OW 5031   1.638   2.741   4.984
 1404SOL    HW1 5032   1.644   2.655   4.934
 1404SOL    HW2 5033   1.615   2.815   4.921
 1405SOL     OW 5034   1.226   2.181   4.180
 1405SOL    HW1 5035   1.292   2.106   4.176
 1405SOL    HW2 5036   1.244   2.236   4.261
 1406SOL     OW 5037   0.567   2.593   4.413
 1406SOL    HW1 5038   0.617   2.678   4.400
 1406SOL    HW2 5039   0.507   2.577   4.334
 1407SOL     OW 5040   1.731   2.203   5.403
 1407SOL    HW1 5041   1.744   2.215   5.305
 1407SOL    HW2 5042   1.650   2.147   5.419
 1408SOL     OW 5043   1.761   2.791   5.227
 1408SOL    HW1 5044   1.740   2.885   5.251
 1408SOL    HW2 5045   1.726   2.771   5.135
 1409SOL     OW 5046   0.881   3.213   3.808
 1409SOL    HW1 5047   0.832   3.223   3.894
 1409SOL    HW2 5048   0.885   3.301   3.761
 1410SOL     OW 5049   0.676   3.623   4.665
 1410SOL    HW1 5050   0.652   3.719   4.653
 1410SOL    HW2 5051   0.774   3.611   4.652
 1411SOL     OW 5052   0.874   2.845   4.587
 1411SOL    HW1 5053   0.922   2.762   4.617
 1411SOL    HW2 5054   0.824   2.884   4.664
 1412SOL     OW 5055   1.073   2.830   3.799
 1412SOL    HW1 5056   1.047   2.893   3.726
 1412SOL    HW2 5057   1.155   2.780   3.773
 1413SOL     OW 5058   0.233   3.181   5.602
 1413SOL    HW1 5059   0.138   3.150   5.592
 1413SOL    HW2 5060   0.254   3.191   5.699
 1414SOL     OW 5061   0.173   3.164   4.430
 1414SOL    HW1 5062   0.200   3.106   4.506
 1414SOL    HW2 5063   0.115   3.113   4.367
 1415SOL     OW 5064   0.690   3.299   5.363
 1415SOL    HW1 5065   0.608   3.254   5.398
 1415SOL    HW2 5066   0.696   3.392   5.399
 1416SOL     OW 5067   1.810   2.021   4.962
 1416SOL    HW1 5068   1.820   1.924   4.985
 1416SOL    HW2 5069   1.818   2.033   4.863
 1417SOL     OW 5070   0.448   2.267   4.248
 1417SOL    HW1 5071   0.495   2.205   4.185
 1417SOL    HW2 5072   0.405   2.213   4.321
 1418SOL     OW 5073   1.678   3.380   4.790
 1418SOL    HW1 5074   1.612   3.358   4.718
 1418SOL    HW2 5075   1.672   3.312   4.863
 1419SOL     OW 5076   0.344   2.399   5.014
 1419SOL    HW1 5077   0.395   2.336   5.073
 1419SOL    HW2 5078   0.351   2.369   4.919
 1420SOL     OW 5079   0.833   3.441   4.403
 1420SOL    HW1 5080   0.795   3.499   4.331
 1420SOL    HW2 5081   0.766   3.371   4.428
 1421SOL     OW 5082   1.419   2.097   4.841
 1421SOL    HW1 5083   1.433   2.000   4.863
 1421SOL    HW2 5084   1.369   2.141   4.915
 1422SOL     OW 5085   1.013   1.876   4.842
 1422SOL    HW1 5086   0.952   1.813   4.794
 1422SOL    HW2 5087   1.106   1.838   4.844
 1423SOL     OW 5088   0.770   3.186   4.061
 1423SOL    HW1 5089   0.749   3.089   4.077
 1423SOL    HW2 5090   0.850   3.212   4.115
 1424SOL     OW 5091   0.618   3.448   5.018
 1424SOL    HW1 5092   0.607   3.540   5.054
 1424SOL    HW2 5093   0.707   3.440   4.972
 1425SOL     OW 5094   1.387   1.891   3.911
 1425SOL    HW1 5095   1.434   1.817   3.863
 1425SOL    HW2 5096   1.291   1.866   3.925
 1426SOL     OW 5097   1.265   2.334   4.405
 1426SOL    HW1 5098   1.216   2.421   4.396
 1426SOL    HW2 5099   1.261   2.304   4.501
 1427SOL     OW 5100   1.575   2.059   4.617
 1427SOL    HW1 5101   1.524   2.083   4.700
 1427SOL    HW2 5102   1.566   2.131   4.549
 1428SOL     OW 5103   0.055   2.917   4.006
 1428SOL    HW1 5104   0.147   2.877   4.003
 1428SOL    HW2 5105   6.988   2.843   4.016
 1429SOL     OW 5106   0.890   3.543   4.056
 1429SOL    HW1 5107   0.813   3.528   3.994
 1429SOL    HW2 5108   0.867   3.616   4.120
 1430SOL     OW 5109   0.155   2.520   5.696
 1430SOL    HW1 5110   0.153   2.459   5.775
 1430SOL    HW2 5111   0.193   2.472   5.617
 1431SOL     OW 5112   0.211   2.133   6.601
 1431SOL    HW1 5113   0.270   2.097   6.673
 1431SOL    HW2 5114   0.117   2.102   6.616
 1432SOL     OW 5115   6.981   2.243   6.239
 1432SOL    HW1 5116   6.931   2.238   6.325
 1432SOL    HW2 5117   0.042   2.164   6.231
 1433SOL     OW 5118   0.555   3.139   6.789
 1433SOL    HW1 5119   0.471   3.157   6.738
 1433SOL    HW2 5120   0.581   3.222   6.839
 1434SOL     OW 5121   1.596   3.373   6.306
 1434SOL    HW1 5122   1.537   3.343   6.381
 1434SOL    HW2 5123   1.540   3.390   6.224
 1435SOL     OW 5124   1.133   2.569   6.259
 1435SOL    HW1 5125   1.182   2.656   6.251
 1435SOL    HW2 5126   1.074   2.570   6.340
 1436SOL     OW 5127   1.796   2.431   5.796
 1436SOL    HW1 5128   1.755   2.437   5.705
 1436SOL    HW2 5129   1.749   2.362   5.850
 1437SOL     OW 5130   0.717   2.989   6.629
 1437SOL    HW1 5131   0.651   3.022   6.697
 1437SOL    HW2 5132   0.755   3.066   6.579
 1438SOL     OW 5133   0.686   2.848   6.243
 1438SOL    HW1 5134   0.757   2.845   6.313
 1438SOL    HW2 5135   0.613   2.910   6.271
 1439SOL     OW 5136   0.352   3.241   6.620
 1439SOL    HW1 5137   0.323   3.162   6.567
 1439SOL    HW2 5138   0.397   3.307   6.559
 1440SOL     OW 5139   1.582   2.301   6.340
 1440SOL    HW1 5140   1.512   2.308   6.268
 1440SOL    HW2 5141   1.563   2.368   6.412
 1441SOL     OW 5142   0.242   3.578   6.054
 1441SOL    HW1 5143   0.258   3.659   6.111
 1441SOL    HW2 5144   0.305   3.580   5.977
 1442SOL     OW 5145   0.331   3.321   6.115
 1442SOL    HW1 5146   0.293   3.413   6.114
 1442SOL    HW2 5147   0.286   3.267   6.187
 1443SOL     OW 5148   0.303   2.954   6.500
 1443SOL    HW1 5149   0.314   2.857   6.522
 1443SOL    HW2 5150   0.208   2.981   6.515
 1444SOL     OW 5151   0.606   3.651   6.988
 1444SOL    HW1 5152   0.510   3.655   0.013
 1444SOL    HW2 5153   0.651   3.736   0.015
 1445SOL     OW 5154   0.571   2.852   5.745
 1445SOL    HW1 5155   0.621   2.900   5.672
 1445SOL    HW2 5156   0.611   2.876   5.833
 1446SOL     OW 5157   0.129   2.466   6.170
 1446SOL    HW1 5158   0.064   2.393   6.190
 1446SOL    HW2 5159   0.115   2.542   6.233
 1447SOL     OW 5160   1.854   3.611   5.908
 1447SOL    HW1 5161   1.932   3.597   5.969
 1447SOL    HW2 5162   1.857   3.705   5.873
 1448SOL     OW 5163   0.001   3.433   5.713
 1448SOL    HW1 5164   0.012   3.347   5.763
 1448SOL    HW2 5165   6.908   3.439   5.677
 1449SOL     OW 5166   1.714   2.793   6.244
 1449SOL    HW1 5167   1.797   2.740   6.226
 1449SOL    HW2 5168   1.691   2.847   6.163
 1450SOL     OW 5169   1.670   2.972   6.025
 1450SOL    HW1 5170   1.754   2.951   5.975
 1450SOL    HW2 5171   1.689   3.042   6.094
 1451SOL     OW 5172   0.618   3.249   6.304
 1451SOL    HW1 5173   0.570   3.162   6.309
 1451SOL    HW2 5174   0.610   3.287   6.212
 1452SOL     OW 5175   0.834   1.881   6.096
 1452SOL    HW1 5176   0.877   1.966   6.069
 1452SOL    HW2 5177   0.735   1.894   6.100
 1453SOL     OW 5178   0.210   2.769   6.814
 1453SOL    HW1 5179   0.306   2.746   6.828
 1453SOL    HW2 5180   0.181   2.741   6.723
 1454SOL     OW 5181   1.541   2.892   5.791
 1454SOL    HW1 5182   1.467   2.830   5.815
 1454SOL    HW2 5183   1.587   2.923   5.875
 1455SOL     OW 5184   1.427   3.283   6.506
 1455SOL    HW1 5185   1.378   3.292   6.593
 1455SOL    HW2 5186   1.427   3.187   6.478
 1456SOL     OW 5187   1.630   3.695   6.133
 1456SOL    HW1 5188   1.620   3.634   6.055
 1456SOL    HW2 5189   1.641   3.640   6.216
 1457SOL     OW 5190   0.568   2.559   5.851
 1457SOL    HW1 5191   0.583   2.650   5.813
 1457SOL    HW2 5192   0.507   2.565   5.929
 1458SOL     OW 5193   1.286   2.258   6.515
 1458SOL    HW1 5194   1.194   2.221   6.513
 1458SOL    HW2 5195   1.344   2.200   6.572
 1459SOL     OW 5196   1.591   3.533   5.911
 1459SOL    HW1 5197   1.689   3.549   5.903
 1459SOL    HW2 5198   1.552   3.523   5.819
 1460SOL     OW 5199   0.773   2.520   0.020
 1460SOL    HW1 5200   0.723   2.549   0.101
 1460SOL    HW2 5201   0.719   2.453   6.969
 1461SOL     OW 5202   1.024   2.316   6.786
 1461SOL    HW1 5203   1.017   2.344   6.881
 1461SOL    HW2 5204   0.936   2.280   6.755
 1462SOL     OW 5205   1.046   2.549   5.997
 1462SOL    HW1 5206   1.072   2.551   6.093
 1462SOL    HW2 5207   0.957   2.505   5.987
 1463SOL     OW 5208   0.094   2.661   6.378
 1463SOL    HW1 5209   0.185   2.675   6.416
 1463SOL    HW2 5210   0.026   2.666   6.451
 1464SOL     OW 5211   0.059   3.748   0.251
 1464SOL    HW1 5212   0.112   3.693   0.316
 1464SOL    HW2 5213   6.988   3.691   0.209
 1465SOL     OW 5214   0.867   2.207   5.788
 1465SOL    HW1 5215   0.925   2.258   5.725
 1465SOL    HW2 5216   0.822   2.132   5.740
 1466SOL     OW 5217   1.403   3.024   6.136
 1466SOL    HW1 5218   1.488   3.009   6.085
 1466SOL    HW2 5219   1.345   3.087   6.084
 1467SOL     OW 5220   0.565   2.007   6.512
 1467SOL    HW1 5221   0.577   2.039   6.606
 1467SOL    HW2 5222   0.568   2.085   6.450
 1468SOL     OW 5223   0.990   3.326   6.050
 1468SOL    HW1 5224   0.969   3.401   5.988
 1468SOL    HW2 5225   0.958   3.349   6.142
 1469SOL     OW 5226   0.368   3.672   6.450
 1469SOL    HW1 5227   0.406   3.580   6.460
 1469SOL    HW2 5228   0.433   3.740   6.485
 1470SOL     OW 5229   1.813   2.917   6.476
 1470SOL    HW1 5230   1.772   2.894   6.387
 1470SOL    HW2 5231   1.742   2.915   6.546
 1471SOL     OW 5232   0.304   2.798   5.838
 1471SOL    HW1 5233   0.393   2.824   5.800
 1471SOL    HW2 5234   0.276   2.709   5.800
 1472SOL     OW 5235   1.493   2.635   6.297
 1472SOL    HW1 5236   1.489   2.586   6.384
 1472SOL    HW2 5237   1.576   2.691   6.294
 1473SOL     OW 5238   1.145   3.634   5.812
 1473SOL    HW1 5239   1.056   3.610   5.851
 1473SOL    HW2 5240   1.171   3.566   5.744
 1474SOL     OW 5241   1.637   3.248   5.686
 1474SOL    HW1 5242   1.605   3.342   5.673
 1474SOL    HW2 5243   1.565   3.185   5.660
 1475SOL     OW 5244   0.467   3.612   5.885
 1475SOL    HW1 5245   0.514   3.655   5.962
 1475SOL    HW2 5246   0.534   3.565   5.827
 1476SOL     OW 5247   1.398   1.958   6.043
 1476SOL    HW1 5248   1.397   1.936   5.946
 1476SOL    HW2 5249   1.487   1.933   6.083
 1477SOL     OW 5250   0.241   3.664   6.759
 1477SOL    HW1 5251   0.288   3.581   6.787
 1477SOL    HW2 5252   0.182   3.644   6.681
 1478SOL     OW 5253   0.965   3.553   6.468
 1478SOL    HW1 5254   1.055   3.510   6.471
 1478SOL    HW2 5255   0.909   3.509   6.398
 1479SOL     OW 5256   0.393   2.528   6.063
 1479SOL    HW1 5257   0.420   2.433   6.077
 1479SOL    HW2 5258   0.297   2.540   6.089
 1480SOL     OW 5259   0.673   1.967   5.692
 1480SOL    HW1 5260   0.732   1.889   5.713
 1480SOL    HW2 5261   0.603   1.939   5.626
 1481SOL     OW 5262   0.869   3.334   6.755
 1481SOL    HW1 5263   0.825   3.315   6.667
 1481SOL    HW2 5264   0.945   3.271   6.768
 1482SOL     OW 5265   0.799   3.223   6.509
 1482SOL    HW1 5266   0.893   3.226   6.474
 1482SOL    HW2 5267   0.735   3.235   6.433
 1483SOL     OW 5268   0.933   2.377   6.471
 1483SOL    HW1 5269   0.905   2.368   6.375
 1483SOL    HW2 5270   0.975   2.292   6.502
 1484SOL     OW 5271   0.563   1.919   6.082
 1484SOL    HW1 5272   0.479   1.919   6.137
 1484SOL    HW2 5273   0.559   1.994   6.016
 1485SOL     OW 5274   1.424   3.079   5.625
 1485SOL    HW1 5275   1.463   3.005   5.680
 1485SOL    HW2 5276   1.336   3.107   5.665
 1486SOL     OW 5277   0.280   1.928   5.793
 1486SOL    HW1 5278   0.318   1.997   5.731
 1486SOL    HW2 5279   0.353   1.867   5.823
 1487SOL     OW 5280   0.961   2.117   6.032
 1487SOL    HW1 5281   0.927   2.150   5.944
 1487SOL    HW2 5282   1.059   2.132   6.039
 1488SOL     OW 5283   1.215   3.442   6.391
 1488SOL    HW1 5284   1.235   3.513   6.323
 1488SOL    HW2 5285   1.301   3.404   6.426
 1489SOL     OW 5286   0.474   3.017   6.294
 1489SOL    HW1 5287   0.412   2.996   6.370
 1489SOL    HW2 5288   0.424   3.007   6.208
 1490SOL     OW 5289   1.253   3.648   6.204
 1490SOL    HW1 5290   1.304   3.712   6.147
 1490SOL    HW2 5291   1.171   3.693   6.240
 1491SOL     OW 5292   1.024   2.368   5.628
 1491SOL    HW1 5293   0.983   2.455   5.602
 1491SOL    HW2 5294   1.094   2.383   5.698
 1492SOL     OW 5295   0.593   2.074   6.780
 1492SOL    HW1 5296   0.645   2.001   6.823
 1492SOL    HW2 5297   0.496   2.064   6.802
 1493SOL     OW 5298   0.869   2.322   6.208
 1493SOL    HW1 5299   0.822   2.378   6.139
 1493SOL    HW2 5300   0.905   2.239   6.165
 1494SOL     OW 5301   1.021   1.906   6.306
 1494SOL    HW1 5302   0.956   1.903   6.230
 1494SOL    HW2 5303   0.999   1.834   6.372
 1495SOL     OW 5304   1.421   3.012   6.432
 1495SOL    HW1 5305   1.355   2.939   6.452
 1495SOL    HW2 5306   1.432   3.021   6.333
 1496SOL     OW 5307   1.463   2.488   6.533
 1496SOL    HW1 5308   1.396   2.415   6.544
 1496SOL    HW2 5309   1.528   2.485   6.610
 1497SOL     OW 5310   1.813   2.642   5.968
 1497SOL    HW1 5311   1.876   2.606   6.036
 1497SOL    HW2 5312   1.804   2.577   5.892
 1498SOL     OW 5313   0.519   3.288   5.724
 1498SOL    HW1 5314   0.441   3.258   5.780
 1498SOL    HW2 5315   0.512   3.248   5.633
 1499SOL     OW 5316   1.734   3.144   6.217
 1499SOL    HW1 5317   1.829   3.135   6.246
 1499SOL    HW2 5318   1.697   3.230   6.251
 1500SOL     OW 5319   1.390   2.441   5.645
 1500SOL    HW1 5320   1.339   2.409   5.726
 1500SOL    HW2 5321   1.487   2.424   5.659
 1501SOL     OW 5322   0.550   2.112   5.894
 1501SOL    HW1 5323   0.600   2.062   5.824
 1501SOL    HW2 5324   0.507   2.192   5.853
 1502SOL     OW 5325   1.766   3.027   0.178
 1502SOL    HW1 5326   1.858   3.018   0.140
 1502SOL    HW2 5327   1.731   3.118   0.157
 1503SOL     OW 5328   1.078   3.151   6.706
 1503SOL    HW1 5329   1.065   3.053   6.720
 1503SOL    HW2 5330   1.069   3.172   6.609
 1504SOL     OW 5331   1.601   2.940   6.649
 1504SOL    HW1 5332   1.600   3.018   6.712
 1504SOL    HW2 5333   1.536   2.957   6.574
 1505SOL     OW 5334   0.716   2.917   5.974
 1505SOL    HW1 5335   0.699   2.893   6.070
 1505SOL    HW2 5336   0.794   2.865   5.940
 1506SOL     OW 5337   0.466   2.681   6.870
 1506SOL    HW1 5338   0.515   2.725   6.944
 1506SOL    HW2 5339   0.430   2.593   6.902
 1507SOL     OW 5340   1.286   2.262   6.835
 1507SOL    HW1 5341   1.316   2.326   6.906
 1507SOL    HW2 5342   1.195   2.290   6.802
 1508SOL     OW 5343   0.089   3.376   6.891
 1508SOL    HW1 5344   0.058   3.412   6.979
 1508SOL    HW2 5345   0.181   3.411   6.872
 1509SOL     OW 5346   0.346   2.986   6.050
 1509SOL    HW1 5347   0.334   3.064   5.988
 1509SOL    HW2 5348   0.334   2.901   5.999
 1510SOL     OW 5349   0.514   2.412   6.465
 1510SOL    HW1 5350   0.528   2.472   6.386
 1510SOL    HW2 5351   0.592   2.419   6.526
 1511SOL     OW 5352   1.245   3.226   5.998
 1511SOL    HW1 5353   1.309   3.296   6.030
 1511SOL    HW2 5354   1.152   3.251   6.023
 1512SOL     OW 5355   1.302   3.302   6.750
 1512SOL    HW1 5356   1.358   3.261   6.822
 1512SOL    HW2 5357   1.216   3.251   6.742
 1513SOL     OW 5358   1.587   2.491   6.071
 1513SOL    HW1 5359   1.535   2.534   6.145
 1513SOL    HW2 5360   1.651   2.557   6.033
 1514SOL     OW 5361   0.352   3.424   6.822
 1514SOL    HW1 5362   0.339   3.356   6.751
 1514SOL    HW2 5363   0.446   3.420   6.856
 1515SOL     OW 5364   0.601   2.726   6.635
 1515SOL    HW1 5365   0.639   2.818   6.628
 1515SOL    HW2 5366   0.555   2.714   6.722
 1516SOL     OW 5367   1.290   2.727   6.573
 1516SOL    HW1 5368   1.195   2.695   6.570
 1516SOL    HW2 5369   1.352   2.650   6.557
 1517SOL     OW 5370   1.201   2.380   5.845
 1517SOL    HW1 5371   1.220   2.300   5.903
 1517SOL    HW2 5372   1.153   2.449   5.899
 1518SOL     OW 5373   0.331   2.040   6.836
 1518SOL    HW1 5374   0.295   2.060   6.927
 1518SOL    HW2 5375   0.301   1.950   6.806
 1519SOL     OW 5376   0.067   3.125   6.787
 1519SOL    HW1 5377   0.090   3.059   6.859
 1519SOL    HW2 5378   0.078   3.218   6.822
 1520SOL     OW 5379   0.723   2.469   6.633
 1520SOL    HW1 5380   0.800   2.448   6.574
 1520SOL    HW2 5381   0.700   2.566   6.626
 1521SOL     OW 5382   0.320   1.928   6.214
 1521SOL    HW1 5383   0.290   2.020   6.238
 1521SOL    HW2 5384   0.334   1.875   6.297
 1522SOL     OW 5385   1.625   2.258   5.929
 1522SOL    HW1 5386   1.669   2.190   5.987
 1522SOL    HW2 5387   1.597   2.337   5.984
 1523SOL     OW 5388   1.018   2.626   6.578
 1523SOL    HW1 5389   0.992   2.641   6.673
 1523SOL    HW2 5390   0.999   2.531   6.552
 1524SOL     OW 5391   1.957   3.340   0.195
 1524SOL    HW1 5392   1.950   3.359   0.097
 1524SOL    HW2 5393   1.867   3.352   0.237
 1525SOL     OW 5394   1.520   2.123   5.707
 1525SOL    HW1 5395   1.469   2.045   5.743
 1525SOL    HW2 5396   1.558   2.176   5.782
 1526SOL     OW 5397   1.277   2.683   5.595
 1526SOL    HW1 5398   1.315   2.592   5.608
 1526SOL    HW2 5399   1.314   2.723   5.511
 1527SOL     OW 5400   1.061   3.217   6.440
 1527SOL    HW1 5401   1.081   3.134   6.390
 1527SOL    HW2 5402   1.118   3.292   6.406
 1528SOL     OW 5403   0.329   2.673   6.542
 1528SOL    HW1 5404   0.428   2.688   6.545
 1528SOL    HW2 5405   0.309   2.579   6.567
 1529SOL     OW 5406   0.293   2.390   6.614
 1529SOL    HW1 5407   0.259   2.296   6.609
 1529SOL    HW2 5408   0.375   2.398   6.557
 1530SOL     OW 5409   1.199   2.103   0.045
 1530SOL    HW1 5410   1.277   2.116   0.106
 1530SOL    HW2 5411   1.216   2.150   6.958
 1531SOL     OW 5412   0.014   3.188   5.844
 1531SOL    HW1 5413   6.945   3.218   5.910
 1531SOL    HW2 5414   0.018   3.088   5.842
 1532SOL     OW 5415   0.110   3.607   6.522
 1532SOL    HW1 5416   0.084   3.529   6.465
 1532SOL    HW2 5417   0.198   3.642   6.491
 1533SOL     OW 5418   0.496   3.428   6.474
 1533SOL    HW1 5419   0.568   3.489   6.508
 1533SOL    HW2 5420   0.535   3.363   6.409
 1534SOL     OW 5421   0.927   2.682   6.845
 1534SOL    HW1 5422   0.986   2.732   6.908
 1534SOL    HW2 5423   0.874   2.614   6.896
 1535SOL     OW 5424   0.026   2.460   6.685
 1535SOL    HW1 5425   0.118   2.431   6.657
 1535SOL    HW2 5426   6.970   2.379   6.704
 1536SOL     OW 5427   0.801   2.428   5.949
 1536SOL    HW1 5428   0.816   2.347   5.893
 1536SOL    HW2 5429   0.721   2.478   5.916
 1537SOL     OW 5430   1.659   2.475   6.732
 1537SOL    HW1 5431   1.640   2.402   6.798
 1537SOL    HW2 5432   1.757   2.479   6.714
 1538SOL     OW 5433   0.636   2.337   6.856
 1538SOL    HW1 5434   0.622   2.242   6.830
 1538SOL    HW2 5435   0.666   2.389   6.776
 1539SOL     OW 5436   0.972   3.506   6.944
 1539SOL    HW1 5437   0.934   3.452   6.869
 1539SOL    HW2 5438   0.965   3.603   6.922
 1540SOL     OW 5439   0.422   2.326   5.780
 1540SOL    HW1 5440   0.479   2.408   5.789
 1540SOL    HW2 5441   0.337   2.339   5.830
 1541SOL     OW 5442   0.136   2.956   6.995
 1541SOL    HW1 5443   0.114   2.917   0.084
 1541SOL    HW2 5444   0.160   2.883   6.931
 1542SOL     OW 5445   1.304   2.823   6.834
 1542SOL    HW1 5446   1.308   2.802   6.736
 1542SOL    HW2 5447   1.349   2.911   6.851
 1543SOL     OW 5448   1.327   2.739   5.861
 1543SOL    HW1 5449   1.263   2.696   5.925
 1543SOL    HW2 5450   1.300   2.717   5.767
 1544SOL     OW 5451   1.787   3.585   6.773
 1544SOL    HW1 5452   1.846   3.603   6.694
 1544SOL    HW2 5453   1.722   3.512   6.750
 1545SOL     OW 5454   1.270   3.584   6.724
 1545SOL    HW1 5455   1.350   3.615   6.672
 1545SOL    HW2 5456   1.276   3.486   6.738
 1546SOL     OW 5457   0.054   3.062   6.526
 1546SOL    HW1 5458   0.061   3.090   6.622
 1546SOL    HW2 5459   6.958   3.045   6.504
 1547SOL     OW 5460   1.770   2.066   6.065
 1547SOL    HW1 5461   1.825   2.046   5.983
 1547SOL    HW2 5462   1.725   1.983   6.097
 1548SOL     OW 5463   1.412   3.434   6.097
 1548SOL    HW1 5464   1.470   3.466   6.023
 1548SOL    HW2 5465   1.349   3.507   6.124
 1549SOL     OW 5466   1.284   2.797   6.234
 1549SOL    HW1 5467   1.359   2.735   6.256
 1549SOL    HW2 5468   1.320   2.876   6.184
 1550SOL     OW 5469   0.683   3.504   5.732
 1550SOL    HW1 5470   0.697   3.527   5.635
 1550SOL    HW2 5471   0.631   3.419   5.739
 1551SOL     OW 5472   1.845   2.016   6.577
 1551SOL    HW1 5473   1.880   1.926   6.553
 1551SOL    HW2 5474   1.758   2.032   6.531
 1552SOL     OW 5475   0.263   2.175   6.321
 1552SOL    HW1 5476   0.237   2.270   6.305
 1552SOL    HW2 5477   0.251   2.153   6.418
 1553SOL     OW 5478   1.220   3.443   5.632
 1553SOL    HW1 5479   1.212   3.350   5.668
 1553SOL    HW2 5480   1.144   3.460   5.569
 1554SOL     OW 5481   0.722   2.857   6.944
 1554SOL    HW1 5482   0.791   2.801   6.899
 1554SOL    HW2 5483   0.733   2.953   6.917
 1555SOL     OW 5484   0.922   2.772   5.884
 1555SOL    HW1 5485   0.972   2.800   5.802
 1555SOL    HW2 5486   0.971   2.696   5.927
 1556SOL     OW 5487   1.488   3.516   5.651
 1556SOL    HW1 5488   1.393   3.489   5.637
 1556SOL    HW2 5489   1.535   3.521   5.563
 1557SOL     OW 5490   1.601   3.151   6.829
 1557SOL    HW1 5491   1.696   3.146   6.860
 1557SOL    HW2 5492   1.541   3.117   6.901
 1558SOL     OW 5493   1.091   2.969   6.338
 1558SOL    HW1 5494   1.010   2.921   6.369
 1558SOL    HW2 5495   1.154   2.905   6.295
 1559SOL     OW 5496   1.047   2.111   6.508
 1559SOL    HW1 5497   1.041   2.061   6.422
 1559SOL    HW2 5498   1.045   2.047   6.585
 1560SOL     OW 5499   0.607   3.359   6.061
 1560SOL    HW1 5500   0.651   3.304   5.990
 1560SOL    HW2 5501   0.508   3.348   6.054
 1561SOL     OW 5502   1.659   2.273   6.917
 1561SOL    HW1 5503   1.692   2.303   0.007
 1561SOL    HW2 5504   1.678   2.176   6.905
 1562SOL     OW 5505   0.284   3.212   5.874
 1562SOL    HW1 5506   0.184   3.209   5.868
 1562SOL    HW2 5507   0.311   3.258   5.959
 1563SOL     OW 5508   0.712   2.025   0.069
 1563SOL    HW1 5509   0.807   1.997   0.084
 1563SOL    HW2 5510   0.709   2.124   0.054
 1564SOL     OW 5511   0.073   2.141   5.588
 1564SOL    HW1 5512   0.009   2.076   5.628
 1564SOL    HW2 5513   0.023   2.219   5.551
 1565SOL     OW 5514   0.063   2.077   5.901
 1565SOL    HW1 5515   7.000   2.037   5.834
 1565SOL    HW2 5516   0.151   2.030   5.895
 1566SOL     OW 5517   1.179   3.184   5.722
 1566SOL    HW1 5518   1.081   3.168   5.711
 1566SOL    HW2 5519   1.201   3.186   5.820
 1567SOL     OW 5520   1.499   3.669   6.598
 1567SOL    HW1 5521   1.531   3.741   6.537
 1567SOL    HW2 5522   1.575   3.608   6.621
 1568SOL     OW 5523   1.472   3.180   0.273
 1568SOL    HW1 5524   1.392   3.205   0.327
 1568SOL    HW2 5525   1.470   3.081   0.254
 1569SOL     OW 5526   0.367   3.688   0.112
 1569SOL    HW1 5527   0.315   3.773   0.101
 1569SOL    HW2 5528   0.398   3.679   0.206
 1570SOL     OW 5529   1.720   2.735   6.829
 1570SOL    HW1 5530   1.692   2.645   6.797
 1570SOL    HW2 5531   1.679   2.805   6.770
 1571SOL     OW 5532   1.231   2.180   6.042
 1571SOL    HW1 5533   1.291   2.100   6.040
 1571SOL    HW2 5534   1.257   2.240   6.118
 1572SOL     OW 5535   0.561   2.598   6.271
 1572SOL    HW1 5536   0.612   2.684   6.258
 1572SOL    HW2 5537   0.504   2.581   6.191
 1573SOL     OW 5538   1.770   2.739   0.108
 1573SOL    HW1 5539   1.761   2.834   0.136
 1573SOL    HW2 5540   1.755   2.731   0.009
 1574SOL     OW 5541   0.890   3.211   5.668
 1574SOL    HW1 5542   0.842   3.221   5.755
 1574SOL    HW2 5543   0.896   3.300   5.623
 1575SOL     OW 5544   0.685   3.615   6.530
 1575SOL    HW1 5545   0.657   3.710   6.519
 1575SOL    HW2 5546   0.784   3.608   6.526
 1576SOL     OW 5547   0.876   2.837   6.454
 1576SOL    HW1 5548   0.923   2.759   6.495
 1576SOL    HW2 5549   0.820   2.883   6.523
 1577SOL     OW 5550   1.051   2.824   5.653
 1577SOL    HW1 5551   1.031   2.893   5.584
 1577SOL    HW2 5552   1.135   2.775   5.629
 1578SOL     OW 5553   1.843   3.403   6.452
 1578SOL    HW1 5554   1.760   3.394   6.396
 1578SOL    HW2 5555   1.865   3.315   6.493
 1579SOL     OW 5556   0.163   3.164   6.291
 1579SOL    HW1 5557   0.142   3.125   6.380
 1579SOL    HW2 5558   0.118   3.111   6.219
 1580SOL     OW 5559   1.788   2.014   6.848
 1580SOL    HW1 5560   1.775   1.916   6.859
 1580SOL    HW2 5561   1.805   2.036   6.752
 1581SOL     OW 5562   0.445   2.268   6.110
 1581SOL    HW1 5563   0.493   2.205   6.049
 1581SOL    HW2 5564   0.406   2.218   6.187
 1582SOL     OW 5565   1.611   3.393   6.696
 1582SOL    HW1 5566   1.557   3.374   6.614
 1582SOL    HW2 5567   1.617   3.310   6.752
 1583SOL     OW 5568   0.342   2.418   6.890
 1583SOL    HW1 5569   0.426   2.371   6.914
 1583SOL    HW2 5570   0.329   2.416   6.791
 1584SOL     OW 5571   0.830   3.455   6.254
 1584SOL    HW1 5572   0.806   3.527   6.190
 1584SOL    HW2 5573   0.754   3.390   6.262
 1585SOL     OW 5574   1.427   2.091   6.684
 1585SOL    HW1 5575   1.413   1.996   6.711
 1585SOL    HW2 5576   1.386   2.152   6.751
 1586SOL     OW 5577   1.043   1.872   6.669
 1586SOL    HW1 5578   0.999   1.809   6.605
 1586SOL    HW2 5579   1.127   1.831   6.704
 1587SOL     OW 5580   0.779   3.187   5.921
 1587SOL    HW1 5581   0.756   3.091   5.938
 1587SOL    HW2 5582   0.859   3.212   5.976
 1588SOL     OW 5583   0.626   3.402   6.874
 1588SOL    HW1 5584   0.628   3.497   6.905
 1588SOL    HW2 5585   0.714   3.379   6.832
 1589SOL     OW 5586   1.388   1.891   5.777
 1589SOL    HW1 5587   1.436   1.819   5.727
 1589SOL    HW2 5588   1.293   1.864   5.790
 1590SOL     OW 5589   1.299   2.341   6.254
 1590SOL    HW1 5590   1.244   2.425   6.247
 1590SOL    HW2 5591   1.295   2.307   6.347
 1591SOL     OW 5592   1.596   2.053   6.476
 1591SOL    HW1 5593   1.536   2.075   6.553
 1591SOL    HW2 5594   1.595   2.128   6.410
 1592SOL     OW 5595   0.055   2.914   5.864
 1592SOL    HW1 5596   0.146   2.875   5.862
 1592SOL    HW2 5597   6.987   2.841   5.874
 1593SOL     OW 5598   0.897   3.547   5.909
 1593SOL    HW1 5599   0.820   3.528   5.848
 1593SOL    HW2 5600   0.872   3.618   5.974
 1594SOL     OW 5601   0.251   4.381   0.151
 1594SOL    HW1 5602   0.190   4.321   0.203
 1594SOL    HW2 5603   0.245   4.358   0.054
 1595SOL     OW 5604   0.212   3.993   1.012
 1595SOL    HW1 5605   0.264   3.955   1.089
 1595SOL    HW2 5606   0.115   3.970   1.023
 1596SOL     OW 5607   0.023   4.108   0.662
 1596SOL    HW1 5608   6.962   4.078   0.735
 1596SOL    HW2 5609   0.022   4.041   0.587
 1597SOL     OW 5610   0.583   5.042   1.226
 1597SOL    HW1 5611   0.500   5.039   1.170
 1597SOL    HW2 5612   0.601   5.137   1.253
 1598SOL     OW 5613   1.594   5.247   0.707
 1598SOL    HW1 5614   1.546   5.217   0.789
 1598SOL    HW2 5615   1.528   5.261   0.633
 1599SOL     OW 5616   1.142   4.448   0.692
 1599SOL    HW1 5617   1.197   4.531   0.682
 1599SOL    HW2 5618   1.090   4.452   0.777
 1600SOL     OW 5619   1.788   4.266   0.141
 1600SOL    HW1 5620   1.747   4.356   0.129
 1600SOL    HW2 5621   1.743   4.219   0.218
 1601SOL     OW 5622   0.722   4.849   1.065
 1601SOL    HW1 5623   0.663   4.883   1.138
 1601SOL    HW2 5624   0.763   4.926   1.017
 1602SOL     OW 5625   0.889   4.460   1.820
 1602SOL    HW1 5626   0.901   4.525   1.895
 1602SOL    HW2 5627   0.905   4.506   1.733
 1603SOL     OW 5628   0.694   4.705   0.657
 1603SOL    HW1 5629   0.766   4.706   0.726
 1603SOL    HW2 5630   0.619   4.765   0.685
 1604SOL     OW 5631   0.710   4.884   1.839
 1604SOL    HW1 5632   0.769   4.953   1.880
 1604SOL    HW2 5633   0.632   4.929   1.796
 1605SOL     OW 5634   0.363   5.117   1.068
 1605SOL    HW1 5635   0.302   5.055   1.020
 1605SOL    HW2 5636   0.403   5.182   1.002
 1606SOL     OW 5637   1.444   5.233   1.380
 1606SOL    HW1 5638   1.504   5.312   1.390
 1606SOL    HW2 5639   1.366   5.240   1.442
 1607SOL     OW 5640   0.457   4.080   1.462
 1607SOL    HW1 5641   0.538   4.023   1.474
 1607SOL    HW2 5642   0.375   4.027   1.486
 1608SOL     OW 5643   1.578   4.167   0.752
 1608SOL    HW1 5644   1.506   4.175   0.684
 1608SOL    HW2 5645   1.563   4.233   0.825
 1609SOL     OW 5646   0.204   5.482   0.444
 1609SOL    HW1 5647   0.235   5.548   0.511
 1609SOL    HW2 5648   0.283   5.437   0.402
 1610SOL     OW 5649   1.131   5.061   1.703
 1610SOL    HW1 5650   1.183   5.051   1.788
 1610SOL    HW2 5651   1.072   4.981   1.690
 1611SOL     OW 5652   0.288   5.194   0.582
 1611SOL    HW1 5653   0.285   5.284   0.625
 1611SOL    HW2 5654   0.246   5.127   0.643
 1612SOL     OW 5655   0.308   4.804   0.924
 1612SOL    HW1 5656   0.310   4.705   0.932
 1612SOL    HW2 5657   0.220   4.839   0.958
 1613SOL     OW 5658   0.568   5.553   1.410
 1613SOL    HW1 5659   0.484   5.530   1.460
 1613SOL    HW2 5660   0.611   5.633   1.453
 1614SOL     OW 5661   0.579   4.680   0.171
 1614SOL    HW1 5662   0.631   4.701   0.089
 1614SOL    HW2 5663   0.616   4.730   0.249
 1615SOL     OW 5664   1.588   3.856   1.463
 1615SOL    HW1 5665   1.631   3.933   1.416
 1615SOL    HW2 5666   1.548   3.887   1.549
 1616SOL     OW 5667   0.120   4.356   0.584
 1616SOL    HW1 5668   0.079   4.272   0.620
 1616SOL    HW2 5669   0.107   4.430   0.649
 1617SOL     OW 5670   1.848   5.462   0.333
 1617SOL    HW1 5671   1.925   5.434   0.390
 1617SOL    HW2 5672   1.857   5.560   0.312
 1618SOL     OW 5673   6.987   5.279   0.147
 1618SOL    HW1 5674   6.968   5.184   0.170
 1618SOL    HW2 5675   0.082   5.301   0.171
 1619SOL     OW 5676   1.706   4.656   0.660
 1619SOL    HW1 5677   1.796   4.614   0.655
 1619SOL    HW2 5678   1.686   4.702   0.573
 1620SOL     OW 5679   1.653   4.832   0.436
 1620SOL    HW1 5680   1.711   4.856   0.358
 1620SOL    HW2 5681   1.673   4.894   0.512
 1621SOL     OW 5682   0.206   4.459   1.561
 1621SOL    HW1 5683   0.306   4.462   1.557
 1621SOL    HW2 5684   0.172   4.544   1.600
 1622SOL     OW 5685   0.624   5.103   0.736
 1622SOL    HW1 5686   0.577   5.015   0.743
 1622SOL    HW2 5687   0.613   5.139   0.643
 1623SOL     OW 5688   1.259   4.942   1.420
 1623SOL    HW1 5689   1.281   4.870   1.354
 1623SOL    HW2 5690   1.327   4.939   1.494
 1624SOL     OW 5691   0.836   3.755   0.521
 1624SOL    HW1 5692   0.881   3.840   0.495
 1624SOL    HW2 5693   0.737   3.770   0.526
 1625SOL     OW 5694   0.209   4.682   1.272
 1625SOL    HW1 5695   0.292   4.627   1.257
 1625SOL    HW2 5696   0.139   4.655   1.205
 1626SOL     OW 5697   1.461   4.773   0.223
 1626SOL    HW1 5698   1.390   4.710   0.253
 1626SOL    HW2 5699   1.545   4.756   0.275
 1627SOL     OW 5700   1.186   5.542   1.634
 1627SOL    HW1 5701   1.184   5.612   1.562
 1627SOL    HW2 5702   1.195   5.452   1.592
 1628SOL     OW 5703   0.347   3.984   1.883
 1628SOL    HW1 5704   0.380   4.064   1.933
 1628SOL    HW2 5705   0.249   3.993   1.867
 1629SOL     OW 5706   1.464   5.148   0.925
 1629SOL    HW1 5707   1.406   5.168   1.004
 1629SOL    HW2 5708   1.457   5.051   0.902
 1630SOL     OW 5709   1.628   5.539   0.568
 1630SOL    HW1 5710   1.618   5.487   0.483
 1630SOL    HW2 5711   1.640   5.475   0.644
 1631SOL     OW 5712   0.607   4.429   0.275
 1631SOL    HW1 5713   0.604   4.522   0.238
 1631SOL    HW2 5714   0.541   4.421   0.350
 1632SOL     OW 5715   1.281   4.117   0.942
 1632SOL    HW1 5716   1.188   4.080   0.941
 1632SOL    HW2 5717   1.339   4.061   1.001
 1633SOL     OW 5718   1.584   5.400   0.329
 1633SOL    HW1 5719   1.684   5.411   0.324
 1633SOL    HW2 5720   1.547   5.390   0.237
 1634SOL     OW 5721   0.803   4.307   1.449
 1634SOL    HW1 5722   0.765   4.283   1.539
 1634SOL    HW2 5723   0.776   4.236   1.383
 1635SOL     OW 5724   1.388   4.197   1.669
 1635SOL    HW1 5725   1.392   4.245   1.756
 1635SOL    HW2 5726   1.434   4.108   1.677
 1636SOL     OW 5727   0.944   4.601   1.586
 1636SOL    HW1 5728   1.002   4.535   1.539
 1636SOL    HW2 5729   0.892   4.654   1.518
 1637SOL     OW 5730   1.012   4.107   1.195
 1637SOL    HW1 5731   0.917   4.120   1.224
 1637SOL    HW2 5732   1.014   4.058   1.108
 1638SOL     OW 5733   1.062   4.441   0.428
 1638SOL    HW1 5734   1.086   4.442   0.525
 1638SOL    HW2 5735   0.976   4.393   0.415
 1639SOL     OW 5736   0.087   4.540   0.797
 1639SOL    HW1 5737   0.181   4.540   0.833
 1639SOL    HW2 5738   0.022   4.544   0.873
 1640SOL     OW 5739   0.097   5.610   1.630
 1640SOL    HW1 5740   0.117   5.582   1.724
 1640SOL    HW2 5741   0.001   5.594   1.610
 1641SOL     OW 5742   0.901   4.075   0.214
 1641SOL    HW1 5743   0.946   4.138   0.151
 1641SOL    HW2 5744   0.923   3.981   0.189
 1642SOL     OW 5745   1.666   4.288   1.829
 1642SOL    HW1 5746   1.652   4.372   1.777
 1642SOL    HW2 5747   1.693   4.215   1.767
 1643SOL     OW 5748   1.393   4.877   0.541
 1643SOL    HW1 5749   1.478   4.866   0.489
 1643SOL    HW2 5750   1.338   4.949   0.500
 1644SOL     OW 5751   0.559   3.876   0.928
 1644SOL    HW1 5752   0.568   3.895   1.026
 1644SOL    HW2 5753   0.554   3.962   0.877
 1645SOL     OW 5754   0.990   5.167   0.479
 1645SOL    HW1 5755   0.966   5.248   0.427
 1645SOL    HW2 5756   0.962   5.178   0.574
 1646SOL     OW 5757   0.366   5.536   0.870
 1646SOL    HW1 5758   0.407   5.445   0.883
 1646SOL    HW2 5759   0.430   5.606   0.902
 1647SOL     OW 5760   1.800   4.768   0.902
 1647SOL    HW1 5761   1.753   4.754   0.815
 1647SOL    HW2 5762   1.734   4.777   0.976
 1648SOL     OW 5763   1.203   5.260   1.517
 1648SOL    HW1 5764   1.195   5.190   1.588
 1648SOL    HW2 5765   1.141   5.238   1.442
 1649SOL     OW 5766   0.315   4.633   0.254
 1649SOL    HW1 5767   0.404   4.659   0.216
 1649SOL    HW2 5768   0.289   4.542   0.221
 1650SOL     OW 5769   1.496   4.489   0.713
 1650SOL    HW1 5770   1.493   4.442   0.802
 1650SOL    HW2 5771   1.577   4.547   0.709
 1651SOL     OW 5772   0.473   5.018   1.745
 1651SOL    HW1 5773   0.450   5.019   1.648
 1651SOL    HW2 5774   0.389   5.013   1.799
 1652SOL     OW 5775   1.120   5.491   0.233
 1652SOL    HW1 5776   1.047   5.454   0.290
 1652SOL    HW2 5777   1.157   5.419   0.173
 1653SOL     OW 5778   0.199   3.966   1.491
 1653SOL    HW1 5779   0.129   4.036   1.481
 1653SOL    HW2 5780   0.163   3.890   1.545
 1654SOL     OW 5781   1.658   5.153   0.120
 1654SOL    HW1 5782   1.620   5.234   0.076
 1654SOL    HW2 5783   1.589   5.114   0.182
 1655SOL     OW 5784   0.474   5.450   0.352
 1655SOL    HW1 5785   0.512   5.516   0.416
 1655SOL    HW2 5786   0.548   5.405   0.302
 1656SOL     OW 5787   1.405   3.828   0.478
 1656SOL    HW1 5788   1.400   3.800   0.382
 1656SOL    HW2 5789   1.490   3.795   0.519
 1657SOL     OW 5790   0.246   5.496   1.207
 1657SOL    HW1 5791   0.282   5.411   1.244
 1657SOL    HW2 5792   0.189   5.476   1.127
 1658SOL     OW 5793   0.954   5.422   0.891
 1658SOL    HW1 5794   1.044   5.384   0.911
 1658SOL    HW2 5795   0.909   5.366   0.821
 1659SOL     OW 5796   0.416   4.394   0.472
 1659SOL    HW1 5797   0.414   4.295   0.486
 1659SOL    HW2 5798   0.324   4.431   0.487
 1660SOL     OW 5799   1.488   3.938   1.715
 1660SOL    HW1 5800   1.503   3.960   1.811
 1660SOL    HW2 5801   1.416   3.868   1.708
 1661SOL     OW 5802   0.761   3.999   1.758
 1661SOL    HW1 5803   0.850   3.954   1.752
 1661SOL    HW2 5804   0.704   3.953   1.826
 1662SOL     OW 5805   0.859   5.243   1.186
 1662SOL    HW1 5806   0.838   5.193   1.102
 1662SOL    HW2 5807   0.929   5.193   1.238
 1663SOL     OW 5808   1.320   4.315   1.431
 1663SOL    HW1 5809   1.354   4.282   1.519
 1663SOL    HW2 5810   1.355   4.407   1.414
 1664SOL     OW 5811   0.811   5.086   0.953
 1664SOL    HW1 5812   0.903   5.089   0.915
 1664SOL    HW2 5813   0.744   5.095   0.879
 1665SOL     OW 5814   0.924   4.231   0.888
 1665SOL    HW1 5815   0.899   4.224   0.792
 1665SOL    HW2 5816   0.955   4.141   0.922
 1666SOL     OW 5817   0.564   3.798   0.504
 1666SOL    HW1 5818   0.480   3.799   0.558
 1666SOL    HW2 5819   0.556   3.863   0.428
 1667SOL     OW 5820   1.395   4.917   6.991
 1667SOL    HW1 5821   1.432   4.853   0.058
 1667SOL    HW2 5822   1.318   4.967   0.032
 1668SOL     OW 5823   0.971   3.985   0.463
 1668SOL    HW1 5824   0.939   4.022   0.376
 1668SOL    HW2 5825   1.069   3.999   0.471
 1669SOL     OW 5826   1.061   4.415   1.426
 1669SOL    HW1 5827   0.986   4.350   1.439
 1669SOL    HW2 5828   1.148   4.366   1.427
 1670SOL     OW 5829   1.215   5.307   0.805
 1670SOL    HW1 5830   1.226   5.379   0.737
 1670SOL    HW2 5831   1.300   5.293   0.855
 1671SOL     OW 5832   0.482   4.868   0.723
 1671SOL    HW1 5833   0.420   4.849   0.798
 1671SOL    HW2 5834   0.438   4.845   0.636
 1672SOL     OW 5835   1.248   5.520   0.626
 1672SOL    HW1 5836   1.304   5.588   0.576
 1672SOL    HW2 5837   1.167   5.566   0.663
 1673SOL     OW 5838   1.016   4.255   0.048
 1673SOL    HW1 5839   0.944   4.324   0.051
 1673SOL    HW2 5840   1.084   4.274   0.118
 1674SOL     OW 5841   0.085   4.275   1.374
 1674SOL    HW1 5842   0.179   4.258   1.344
 1674SOL    HW2 5843   0.085   4.345   1.445
 1675SOL     OW 5844   0.577   3.918   1.199
 1675SOL    HW1 5845   0.620   3.844   1.251
 1675SOL    HW2 5846   0.479   3.920   1.218
 1676SOL     OW 5847   0.871   4.185   0.628
 1676SOL    HW1 5848   0.837   4.247   0.558
 1676SOL    HW2 5849   0.906   4.102   0.585
 1677SOL     OW 5850   1.017   3.776   0.736
 1677SOL    HW1 5851   0.952   3.774   0.659
 1677SOL    HW2 5852   0.995   3.703   0.800
 1678SOL     OW 5853   1.468   4.881   0.853
 1678SOL    HW1 5854   1.390   4.821   0.833
 1678SOL    HW2 5855   1.522   4.893   0.770
 1679SOL     OW 5856   1.463   4.340   0.951
 1679SOL    HW1 5857   1.393   4.268   0.960
 1679SOL    HW2 5858   1.524   4.336   1.030
 1680SOL     OW 5859   1.798   4.534   0.380
 1680SOL    HW1 5860   1.871   4.474   0.411
 1680SOL    HW2 5861   1.801   4.542   0.280
 1681SOL     OW 5862   0.484   5.140   0.196
 1681SOL    HW1 5863   0.447   5.088   0.272
 1681SOL    HW2 5864   0.447   5.105   0.110
 1682SOL     OW 5865   1.693   4.984   0.660
 1682SOL    HW1 5866   1.792   4.972   0.667
 1682SOL    HW2 5867   1.670   5.082   0.669
 1683SOL     OW 5868   1.365   4.254   0.066
 1683SOL    HW1 5869   1.302   4.260   0.143
 1683SOL    HW2 5870   1.426   4.176   0.078
 1684SOL     OW 5871   0.543   3.964   0.291
 1684SOL    HW1 5872   0.599   3.920   0.221
 1684SOL    HW2 5873   0.506   4.050   0.255
 1685SOL     OW 5874   1.742   4.965   1.532
 1685SOL    HW1 5875   1.832   4.926   1.512
 1685SOL    HW2 5876   1.753   5.056   1.572
 1686SOL     OW 5877   1.033   5.081   1.345
 1686SOL    HW1 5878   0.947   5.049   1.386
 1686SOL    HW2 5879   1.109   5.030   1.384
 1687SOL     OW 5880   1.618   5.369   1.675
 1687SOL    HW1 5881   1.598   5.406   1.584
 1687SOL    HW2 5882   1.697   5.308   1.669
 1688SOL     OW 5883   1.148   4.981   1.112
 1688SOL    HW1 5884   1.087   5.011   1.185
 1688SOL    HW2 5885   1.111   5.010   1.023
 1689SOL     OW 5886   1.607   4.815   1.093
 1689SOL    HW1 5887   1.599   4.884   1.165
 1689SOL    HW2 5888   1.542   4.836   1.020
 1690SOL     OW 5889   0.928   3.801   1.385
 1690SOL    HW1 5890   0.947   3.781   1.288
 1690SOL    HW2 5891   1.007   3.846   1.426
 1691SOL     OW 5892   0.966   4.840   1.717
 1691SOL    HW1 5893   0.873   4.857   1.749
 1691SOL    HW2 5894   0.968   4.754   1.665
 1692SOL     OW 5895   0.721   4.781   0.387
 1692SOL    HW1 5896   0.704   4.754   0.482
 1692SOL    HW2 5897   0.797   4.728   0.350
 1693SOL     OW 5898   0.435   4.521   1.253
 1693SOL    HW1 5899   0.511   4.533   1.318
 1693SOL    HW2 5900   0.394   4.430   1.267
 1694SOL     OW 5901   1.263   4.088   1.292
 1694SOL    HW1 5902   1.292   4.172   1.339
 1694SOL    HW2 5903   1.171   4.100   1.255
 1695SOL     OW 5904   0.061   5.250   1.363
 1695SOL    HW1 5905   0.004   5.287   1.437
 1695SOL    HW2 5906   0.156   5.281   1.375
 1696SOL     OW 5907   0.370   4.800   0.482
 1696SOL    HW1 5908   0.343   4.887   0.438
 1696SOL    HW2 5909   0.356   4.725   0.417
 1697SOL     OW 5910   0.534   4.249   0.866
 1697SOL    HW1 5911   0.549   4.311   0.789
 1697SOL    HW2 5912   0.603   4.266   0.937
 1698SOL     OW 5913   1.250   5.095   0.422
 1698SOL    HW1 5914   1.301   5.171   0.463
 1698SOL    HW2 5915   1.153   5.105   0.444
 1699SOL     OW 5916   1.313   5.199   1.143
 1699SOL    HW1 5917   1.361   5.208   1.230
 1699SOL    HW2 5918   1.257   5.116   1.144
 1700SOL     OW 5919   1.599   4.363   0.479
 1700SOL    HW1 5920   1.545   4.399   0.555
 1700SOL    HW2 5921   1.661   4.433   0.445
 1701SOL     OW 5922   0.346   5.252   1.306
 1701SOL    HW1 5923   0.336   5.197   1.222
 1701SOL    HW2 5924   0.441   5.279   1.317
 1702SOL     OW 5925   0.486   4.444   1.623
 1702SOL    HW1 5926   0.537   4.489   1.550
 1702SOL    HW2 5927   0.541   4.370   1.662
 1703SOL     OW 5928   1.627   4.520   1.695
 1703SOL    HW1 5929   1.535   4.558   1.684
 1703SOL    HW2 5930   1.685   4.552   1.621
 1704SOL     OW 5931   0.995   3.862   1.753
 1704SOL    HW1 5932   1.054   3.942   1.742
 1704SOL    HW2 5933   1.047   3.779   1.732
 1705SOL     OW 5934   0.492   3.777   1.768
 1705SOL    HW1 5935   0.440   3.727   1.698
 1705SOL    HW2 5936   0.439   3.856   1.799
 1706SOL     OW 5937   0.600   4.588   1.039
 1706SOL    HW1 5938   0.634   4.682   1.041
 1706SOL    HW2 5939   0.535   4.575   1.114
 1707SOL     OW 5940   1.293   4.562   1.011
 1707SOL    HW1 5941   1.201   4.535   0.983
 1707SOL    HW2 5942   1.358   4.489   0.989
 1708SOL     OW 5943   1.186   4.251   0.272
 1708SOL    HW1 5944   1.210   4.172   0.328
 1708SOL    HW2 5945   1.150   4.324   0.331
 1709SOL     OW 5946   0.311   3.892   1.247
 1709SOL    HW1 5947   0.269   3.922   1.333
 1709SOL    HW2 5948   0.291   3.795   1.232
 1710SOL     OW 5949   0.108   5.007   1.251
 1710SOL    HW1 5950   0.117   4.940   1.324
 1710SOL    HW2 5951   0.090   5.097   1.290
 1711SOL     OW 5952   0.720   4.338   1.049
 1711SOL    HW1 5953   0.795   4.319   0.985
 1711SOL    HW2 5954   0.687   4.432   1.033
 1712SOL     OW 5955   1.750   4.698   1.870
 1712SOL    HW1 5956   1.708   4.625   1.816
 1712SOL    HW2 5957   1.688   4.724   1.944
 1713SOL     OW 5958   0.320   3.787   0.630
 1713SOL    HW1 5959   0.293   3.880   0.655
 1713SOL    HW2 5960   0.333   3.733   0.714
 1714SOL     OW 5961   1.645   4.130   0.343
 1714SOL    HW1 5962   1.676   4.058   0.405
 1714SOL    HW2 5963   1.620   4.211   0.396
 1715SOL     OW 5964   1.027   4.475   0.951
 1715SOL    HW1 5965   1.004   4.498   1.046
 1715SOL    HW2 5966   0.997   4.382   0.931
 1716SOL     OW 5967   0.983   5.287   1.760
 1716SOL    HW1 5968   0.949   5.343   1.684
 1716SOL    HW2 5969   1.022   5.202   1.724
 1717SOL     OW 5970   1.841   5.218   1.602
 1717SOL    HW1 5971   1.862   5.244   1.508
 1717SOL    HW2 5972   1.923   5.227   1.658
 1718SOL     OW 5973   0.388   4.624   1.810
 1718SOL    HW1 5974   0.459   4.655   1.874
 1718SOL    HW2 5975   0.427   4.557   1.747
 1719SOL     OW 5976   1.458   4.012   0.171
 1719SOL    HW1 5977   1.442   3.916   0.192
 1719SOL    HW2 5978   1.523   4.051   0.236
 1720SOL     OW 5979   1.270   4.511   0.037
 1720SOL    HW1 5980   1.316   4.422   0.032
 1720SOL    HW2 5981   1.294   4.566   6.957
 1721SOL     OW 5982   1.067   5.082   0.867
 1721SOL    HW1 5983   1.082   5.001   0.810
 1721SOL    HW2 5984   1.122   5.158   0.832
 1722SOL     OW 5985   0.334   4.526   0.928
 1722SOL    HW1 5986   0.433   4.542   0.926
 1722SOL    HW2 5987   0.317   4.434   0.963
 1723SOL     OW 5988   0.304   4.249   1.007
 1723SOL    HW1 5989   0.260   4.159   1.005
 1723SOL    HW2 5990   0.385   4.248   0.949
 1724SOL     OW 5991   1.136   4.091   1.696
 1724SOL    HW1 5992   1.087   4.141   1.767
 1724SOL    HW2 5993   1.225   4.134   1.679
 1725SOL     OW 5994   1.159   3.916   1.482
 1725SOL    HW1 5995   1.143   3.978   1.558
 1725SOL    HW2 5996   1.206   3.964   1.408
 1726SOL     OW 5997   6.969   5.014   0.220
 1726SOL    HW1 5998   6.918   5.043   0.301
 1726SOL    HW2 5999   0.010   4.924   0.235
 1727SOL     OW 6000   0.114   5.465   0.961
 1727SOL    HW1 6001   0.086   5.392   0.899
 1727SOL    HW2 6002   0.199   5.506   0.928
 1728SOL     OW 6003   0.494   5.289   0.895
 1728SOL    HW1 6004   0.565   5.354   0.921
 1728SOL    HW2 6005   0.532   5.220   0.834
 1729SOL     OW 6006   0.935   4.517   1.203
 1729SOL    HW1 6007   0.993   4.493   1.280
 1729SOL    HW2 6008   0.849   4.466   1.208
 1730SOL     OW 6009   0.066   4.368   1.111
 1730SOL    HW1 6010   0.147   4.328   1.068
 1730SOL    HW2 6011   0.062   4.340   1.207
 1731SOL     OW 6012   0.222   4.251   1.732
 1731SOL    HW1 6013   0.294   4.184   1.711
 1731SOL    HW2 6014   0.225   4.325   1.666
 1732SOL     OW 6015   1.391   4.648   1.639
 1732SOL    HW1 6016   1.410   4.746   1.639
 1732SOL    HW2 6017   1.381   4.616   1.545
 1733SOL     OW 6018   0.833   4.301   0.373
 1733SOL    HW1 6019   0.842   4.218   0.317
 1733SOL    HW2 6020   0.753   4.353   0.342
 1734SOL     OW 6021   1.642   4.327   1.159
 1734SOL    HW1 6022   1.626   4.261   1.233
 1734SOL    HW2 6023   1.739   4.326   1.134
 1735SOL     OW 6024   0.271   5.300   1.744
 1735SOL    HW1 6025   0.219   5.365   1.799
 1735SOL    HW2 6026   0.261   5.208   1.782
 1736SOL     OW 6027   0.741   4.142   1.239
 1736SOL    HW1 6028   0.678   4.065   1.228
 1736SOL    HW2 6029   0.721   4.211   1.169
 1737SOL     OW 6030   0.871   5.427   1.532
 1737SOL    HW1 6031   0.837   5.362   1.465
 1737SOL    HW2 6032   0.895   5.513   1.486
 1738SOL     OW 6033   0.472   4.206   0.186
 1738SOL    HW1 6034   0.536   4.278   0.214
 1738SOL    HW2 6035   0.380   4.245   0.176
 1739SOL     OW 6036   0.164   4.841   1.482
 1739SOL    HW1 6037   0.162   4.785   1.564
 1739SOL    HW2 6038   0.182   4.783   1.402
 1740SOL     OW 6039   1.282   4.757   1.203
 1740SOL    HW1 6040   1.291   4.687   1.132
 1740SOL    HW2 6041   1.234   4.837   1.165
 1741SOL     OW 6042   1.271   4.593   0.298
 1741SOL    HW1 6043   1.207   4.544   0.356
 1741SOL    HW2 6044   1.272   4.552   0.207
 1742SOL     OW 6045   1.776   5.442   1.167
 1742SOL    HW1 6046   1.844   5.467   1.098
 1742SOL    HW2 6047   1.739   5.351   1.146
 1743SOL     OW 6048   1.251   5.466   1.093
 1743SOL    HW1 6049   1.339   5.502   1.063
 1743SOL    HW2 6050   1.260   5.369   1.116
 1744SOL     OW 6051   0.074   4.935   0.994
 1744SOL    HW1 6052   0.093   4.961   1.089
 1744SOL    HW2 6053   6.976   4.923   0.981
 1745SOL     OW 6054   0.690   5.431   1.741
 1745SOL    HW1 6055   0.621   5.503   1.736
 1745SOL    HW2 6056   0.758   5.444   1.669
 1746SOL     OW 6057   0.977   3.830   0.115
 1746SOL    HW1 6058   1.053   3.881   0.076
 1746SOL    HW2 6059   1.012   3.750   0.164
 1747SOL     OW 6060   1.753   3.917   0.492
 1747SOL    HW1 6061   1.813   3.890   0.417
 1747SOL    HW2 6062   1.712   3.836   0.533
 1748SOL     OW 6063   1.400   5.307   0.514
 1748SOL    HW1 6064   1.459   5.339   0.441
 1748SOL    HW2 6065   1.342   5.383   0.545
 1749SOL     OW 6066   0.130   5.507   1.888
 1749SOL    HW1 6067   0.085   5.428   1.931
 1749SOL    HW2 6068   0.184   5.556   1.957
 1750SOL     OW 6069   1.297   4.670   0.680
 1750SOL    HW1 6070   1.371   4.603   0.690
 1750SOL    HW2 6071   1.328   4.744   0.619
 1751SOL     OW 6072   0.777   5.009   1.425
 1751SOL    HW1 6073   0.752   5.061   1.507
 1751SOL    HW2 6074   0.703   5.015   1.358
 1752SOL     OW 6075   0.676   5.340   0.199
 1752SOL    HW1 6076   0.667   5.393   0.115
 1752SOL    HW2 6077   0.625   5.255   0.191
 1753SOL     OW 6078   1.610   5.456   1.401
 1753SOL    HW1 6079   1.668   5.448   1.320
 1753SOL    HW2 6080   1.594   5.552   1.423
 1754SOL     OW 6081   1.845   3.876   0.959
 1754SOL    HW1 6082   1.876   3.783   0.938
 1754SOL    HW2 6083   1.754   3.890   0.920
 1755SOL     OW 6084   0.273   4.032   0.740
 1755SOL    HW1 6085   0.187   4.075   0.711
 1755SOL    HW2 6086   0.268   4.012   0.838
 1756SOL     OW 6087   1.218   5.301   0.057
 1756SOL    HW1 6088   1.215   5.204   0.081
 1756SOL    HW2 6089   1.138   5.325   0.003
 1757SOL     OW 6090   0.822   4.741   1.386
 1757SOL    HW1 6091   0.864   4.728   1.297
 1757SOL    HW2 6092   0.808   4.839   1.403
 1758SOL     OW 6093   0.921   4.636   0.279
 1758SOL    HW1 6094   0.965   4.656   0.192
 1758SOL    HW2 6095   0.980   4.577   0.334
 1759SOL     OW 6096   1.477   5.394   0.064
 1759SOL    HW1 6097   1.384   5.356   0.061
 1759SOL    HW2 6098   1.503   5.424   6.972
 1760SOL     OW 6099   0.370   5.035   1.496
 1760SOL    HW1 6100   0.360   5.110   1.432
 1760SOL    HW2 6101   0.300   4.966   1.479
 1761SOL     OW 6102   1.595   5.013   1.295
 1761SOL    HW1 6103   1.654   4.986   1.371
 1761SOL    HW2 6104   1.529   5.082   1.327
 1762SOL     OW 6105   1.087   4.843   0.745
 1762SOL    HW1 6106   1.007   4.793   0.780
 1762SOL    HW2 6107   1.157   4.777   0.717
 1763SOL     OW 6108   1.034   3.964   0.953
 1763SOL    HW1 6109   1.031   3.924   0.861
 1763SOL    HW2 6110   1.029   3.890   1.021
 1764SOL     OW 6111   0.614   5.207   0.487
 1764SOL    HW1 6112   0.664   5.154   0.419
 1764SOL    HW2 6113   0.527   5.237   0.449
 1765SOL     OW 6114   1.758   4.097   1.391
 1765SOL    HW1 6115   1.830   4.166   1.388
 1765SOL    HW2 6116   1.780   4.024   1.326
 1766SOL     OW 6117   0.290   5.035   0.365
 1766SOL    HW1 6118   0.207   5.042   0.310
 1766SOL    HW2 6119   0.284   5.097   0.442
 1767SOL     OW 6120   0.142   4.686   1.714
 1767SOL    HW1 6121   0.088   4.742   1.777
 1767SOL    HW2 6122   0.232   4.667   1.754
 1768SOL     OW 6123   0.694   3.915   1.501
 1768SOL    HW1 6124   0.779   3.887   1.458
 1768SOL    HW2 6125   0.713   3.951   1.593
 1769SOL     OW 6126   0.106   4.141   6.972
 1769SOL    HW1 6127   0.021   4.155   6.920
 1769SOL    HW2 6128   0.179   4.195   6.931
 1770SOL     OW 6129   1.402   4.575   1.376
 1770SOL    HW1 6130   1.344   4.635   1.321
 1770SOL    HW2 6131   1.496   4.578   1.341
 1771SOL     OW 6132   0.033   3.967   0.419
 1771SOL    HW1 6133   0.085   4.044   0.383
 1771SOL    HW2 6134   0.042   3.888   0.358
 1772SOL     OW 6135   1.185   5.036   0.132
 1772SOL    HW1 6136   1.087   5.055   0.118
 1772SOL    HW2 6137   1.205   5.035   0.230
 1773SOL     OW 6138   0.648   4.534   1.421
 1773SOL    HW1 6139   0.703   4.617   1.413
 1773SOL    HW2 6140   0.709   4.455   1.430
 1774SOL     OW 6141   1.505   5.548   1.023
 1774SOL    HW1 6142   1.533   5.615   0.954
 1774SOL    HW2 6143   1.585   5.501   1.059
 1775SOL     OW 6144   0.705   4.272   1.705
 1775SOL    HW1 6145   0.764   4.333   1.759
 1775SOL    HW2 6146   0.722   4.177   1.731
 1776SOL     OW 6147   1.468   4.912   1.623
 1776SOL    HW1 6148   1.455   4.933   1.720
 1776SOL    HW2 6149   1.562   4.933   1.596
 1777SOL     OW 6150   0.351   5.500   1.575
 1777SOL    HW1 6151   0.262   5.545   1.565
 1777SOL    HW2 6152   0.339   5.412   1.622
 1778SOL     OW 6153   1.651   4.593   1.256
 1778SOL    HW1 6154   1.651   4.505   1.209
 1778SOL    HW2 6155   1.638   4.667   1.190
 1779SOL     OW 6156   1.238   4.050   0.466
 1779SOL    HW1 6157   1.300   3.972   0.467
 1779SOL    HW2 6158   1.259   4.111   0.543
 1780SOL     OW 6159   0.585   4.448   0.682
 1780SOL    HW1 6160   0.630   4.537   0.674
 1780SOL    HW2 6161   0.523   4.435   0.604
 1781SOL     OW 6162   1.729   4.073   1.665
 1781SOL    HW1 6163   1.737   4.085   1.566
 1781SOL    HW2 6164   1.650   4.014   1.685
 1782SOL     OW 6165   1.771   4.641   1.499
 1782SOL    HW1 6166   1.758   4.738   1.520
 1782SOL    HW2 6167   1.735   4.622   1.408
 1783SOL     OW 6168   0.930   5.120   0.107
 1783SOL    HW1 6169   0.861   5.098   0.175
 1783SOL    HW2 6170   0.911   5.210   0.068
 1784SOL     OW 6171   0.678   5.483   0.932
 1784SOL    HW1 6172   0.654   5.580   0.925
 1784SOL    HW2 6173   0.778   5.473   0.926
 1785SOL     OW 6174   0.878   4.704   0.867
 1785SOL    HW1 6175   0.927   4.622   0.897
 1785SOL    HW2 6176   0.827   4.743   0.944
 1786SOL     OW 6177   1.061   4.687   0.045
 1786SOL    HW1 6178   1.094   4.781   0.047
 1786SOL    HW2 6179   1.139   4.624   0.046
 1787SOL     OW 6180   1.843   5.268   0.840
 1787SOL    HW1 6181   1.758   5.262   0.787
 1787SOL    HW2 6182   1.859   5.181   0.887
 1788SOL     OW 6183   0.234   5.045   1.879
 1788SOL    HW1 6184   0.138   5.019   1.868
 1788SOL    HW2 6185   0.256   5.055   1.976
 1789SOL     OW 6186   0.139   5.023   0.738
 1789SOL    HW1 6187   0.128   4.978   0.827
 1789SOL    HW2 6188   0.098   4.965   0.667
 1790SOL     OW 6189   0.691   5.161   1.641
 1790SOL    HW1 6190   0.609   5.116   1.676
 1790SOL    HW2 6191   0.696   5.254   1.677
 1791SOL     OW 6192   1.805   3.887   1.230
 1791SOL    HW1 6193   1.815   3.790   1.254
 1791SOL    HW2 6194   1.821   3.898   1.131
 1792SOL     OW 6195   0.402   4.124   0.506
 1792SOL    HW1 6196   0.469   4.060   0.468
 1792SOL    HW2 6197   0.376   4.094   0.598
 1793SOL     OW 6198   1.672   5.203   1.105
 1793SOL    HW1 6199   1.605   5.186   1.032
 1793SOL    HW2 6200   1.665   5.130   1.173
 1794SOL     OW 6201   0.345   4.262   1.290
 1794SOL    HW1 6202   0.396   4.198   1.348
 1794SOL    HW2 6203   0.354   4.234   1.194
 1795SOL     OW 6204   0.833   5.288   0.688
 1795SOL    HW1 6205   0.801   5.345   0.612
 1795SOL    HW2 6206   0.763   5.220   0.710
 1796SOL     OW 6207   1.424   3.959   1.113
 1796SOL    HW1 6208   1.436   3.862   1.132
 1796SOL    HW2 6209   1.374   4.003   1.188
 1797SOL     OW 6210   1.015   3.738   1.119
 1797SOL    HW1 6211   0.954   3.674   1.072
 1797SOL    HW2 6212   1.107   3.700   1.122
 1798SOL     OW 6213   0.782   5.046   0.334
 1798SOL    HW1 6214   0.755   4.951   0.348
 1798SOL    HW2 6215   0.863   5.066   0.390
 1799SOL     OW 6216   0.618   5.310   1.296
 1799SOL    HW1 6217   0.607   5.402   1.332
 1799SOL    HW2 6218   0.707   5.302   1.250
 1800SOL     OW 6219   1.373   3.751   0.218
 1800SOL    HW1 6220   1.421   3.684   0.162
 1800SOL    HW2 6221   1.276   3.726   0.226
 1801SOL     OW 6222   1.293   4.209   0.680
 1801SOL    HW1 6223   1.245   4.296   0.677
 1801SOL    HW2 6224   1.289   4.172   0.774
 1802SOL     OW 6225   1.585   3.924   0.891
 1802SOL    HW1 6226   1.531   3.949   0.971
 1802SOL    HW2 6227   1.586   4.000   0.826
 1803SOL     OW 6228   0.077   4.770   0.287
 1803SOL    HW1 6229   0.166   4.725   0.284
 1803SOL    HW2 6230   0.005   4.701   0.296
 1804SOL     OW 6231   0.895   5.397   0.362
 1804SOL    HW1 6232   0.817   5.374   0.305
 1804SOL    HW2 6233   0.872   5.476   0.420
 1805SOL     OW 6234   0.153   4.381   1.973
 1805SOL    HW1 6235   0.152   4.320   2.052
 1805SOL    HW2 6236   0.191   4.333   1.894
 1806SOL     OW 6237   0.207   3.991   2.862
 1806SOL    HW1 6238   0.264   3.953   2.935
 1806SOL    HW2 6239   0.111   3.968   2.878
 1807SOL     OW 6240   6.980   4.105   2.514
 1807SOL    HW1 6241   6.926   4.094   2.597
 1807SOL    HW2 6242   0.059   4.043   2.518
 1808SOL     OW 6243   0.580   5.043   3.084
 1808SOL    HW1 6244   0.496   5.040   3.030
 1808SOL    HW2 6245   0.599   5.137   3.110
 1809SOL     OW 6246   1.583   5.244   2.564
 1809SOL    HW1 6247   1.538   5.208   2.646
 1809SOL    HW2 6248   1.516   5.255   2.491
 1810SOL     OW 6249   1.129   4.438   2.539
 1810SOL    HW1 6250   1.184   4.519   2.520
 1810SOL    HW2 6251   1.082   4.450   2.626
 1811SOL     OW 6252   1.803   4.298   2.060
 1811SOL    HW1 6253   1.761   4.305   1.970
 1811SOL    HW2 6254   1.763   4.221   2.110
 1812SOL     OW 6255   0.721   4.853   2.923
 1812SOL    HW1 6256   0.662   4.888   2.995
 1812SOL    HW2 6257   0.764   4.929   2.875
 1813SOL     OW 6258   0.884   4.464   3.684
 1813SOL    HW1 6259   0.892   4.529   3.759
 1813SOL    HW2 6260   0.904   4.510   3.597
 1814SOL     OW 6261   0.685   4.706   2.518
 1814SOL    HW1 6262   0.759   4.709   2.586
 1814SOL    HW2 6263   0.614   4.771   2.543
 1815SOL     OW 6264   0.708   4.883   3.700
 1815SOL    HW1 6265   0.768   4.952   3.741
 1815SOL    HW2 6266   0.630   4.928   3.657
 1816SOL     OW 6267   0.354   5.117   2.931
 1816SOL    HW1 6268   0.275   5.071   2.889
 1816SOL    HW2 6269   0.395   5.180   2.865
 1817SOL     OW 6270   1.437   5.240   3.231
 1817SOL    HW1 6271   1.498   5.318   3.245
 1817SOL    HW2 6272   1.361   5.246   3.296
 1818SOL     OW 6273   0.456   4.078   3.324
 1818SOL    HW1 6274   0.537   4.021   3.335
 1818SOL    HW2 6275   0.375   4.024   3.346
 1819SOL     OW 6276   1.544   4.130   2.556
 1819SOL    HW1 6277   1.446   4.149   2.548
 1819SOL    HW2 6278   1.595   4.194   2.498
 1820SOL     OW 6279   0.242   5.439   2.335
 1820SOL    HW1 6280   0.259   5.519   2.392
 1820SOL    HW2 6281   0.304   5.440   2.256
 1821SOL     OW 6282   1.129   5.064   3.564
 1821SOL    HW1 6283   1.183   5.052   3.647
 1821SOL    HW2 6284   1.070   4.984   3.551
 1822SOL     OW 6285   0.332   5.183   2.393
 1822SOL    HW1 6286   0.293   5.275   2.391
 1822SOL    HW2 6287   0.286   5.128   2.463
 1823SOL     OW 6288   0.298   4.805   2.755
 1823SOL    HW1 6289   0.303   4.708   2.776
 1823SOL    HW2 6290   0.225   4.847   2.809
 1824SOL     OW 6291   0.566   5.553   3.271
 1824SOL    HW1 6292   0.483   5.530   3.322
 1824SOL    HW2 6293   0.610   5.632   3.314
 1825SOL     OW 6294   0.571   4.715   2.020
 1825SOL    HW1 6295   0.621   4.763   1.948
 1825SOL    HW2 6296   0.611   4.738   2.109
 1826SOL     OW 6297   1.534   3.847   3.353
 1826SOL    HW1 6298   1.595   3.918   3.319
 1826SOL    HW2 6299   1.501   3.872   3.444
 1827SOL     OW 6300   0.130   4.327   2.448
 1827SOL    HW1 6301   0.063   4.255   2.468
 1827SOL    HW2 6302   0.113   4.404   2.509
 1828SOL     OW 6303   1.853   5.474   2.182
 1828SOL    HW1 6304   1.931   5.461   2.244
 1828SOL    HW2 6305   1.855   5.568   2.147
 1829SOL     OW 6306   0.000   5.295   1.986
 1829SOL    HW1 6307   0.011   5.210   2.038
 1829SOL    HW2 6308   6.907   5.301   1.951
 1830SOL     OW 6309   1.707   4.650   2.524
 1830SOL    HW1 6310   1.805   4.637   2.511
 1830SOL    HW2 6311   1.671   4.706   2.449
 1831SOL     OW 6312   1.665   4.837   2.308
 1831SOL    HW1 6313   1.750   4.819   2.258
 1831SOL    HW2 6314   1.682   4.904   2.380
 1832SOL     OW 6315   0.207   4.460   3.423
 1832SOL    HW1 6316   0.307   4.463   3.419
 1832SOL    HW2 6317   0.172   4.545   3.463
 1833SOL     OW 6318   0.630   5.112   2.597
 1833SOL    HW1 6319   0.582   5.024   2.602
 1833SOL    HW2 6320   0.619   5.151   2.506
 1834SOL     OW 6321   1.253   4.944   3.284
 1834SOL    HW1 6322   1.277   4.873   3.218
 1834SOL    HW2 6323   1.317   4.941   3.361
 1835SOL     OW 6324   0.834   3.743   2.376
 1835SOL    HW1 6325   0.877   3.829   2.346
 1835SOL    HW2 6326   0.735   3.755   2.380
 1836SOL     OW 6327   0.211   4.682   3.133
 1836SOL    HW1 6328   0.292   4.626   3.117
 1836SOL    HW2 6329   0.140   4.656   3.067
 1837SOL     OW 6330   1.546   4.756   2.067
 1837SOL    HW1 6331   1.472   4.692   2.089
 1837SOL    HW2 6332   1.588   4.789   2.152
 1838SOL     OW 6333   1.185   5.543   3.496
 1838SOL    HW1 6334   1.184   5.613   3.425
 1838SOL    HW2 6335   1.194   5.452   3.454
 1839SOL     OW 6336   0.348   3.985   3.744
 1839SOL    HW1 6337   0.380   4.064   3.795
 1839SOL    HW2 6338   0.249   3.993   3.728
 1840SOL     OW 6339   1.484   5.124   2.794
 1840SOL    HW1 6340   1.415   5.158   2.858
 1840SOL    HW2 6341   1.459   5.032   2.764
 1841SOL     OW 6342   1.625   5.553   2.409
 1841SOL    HW1 6343   1.616   5.496   2.328
 1841SOL    HW2 6344   1.630   5.496   2.490
 1842SOL     OW 6345   0.566   4.422   2.128
 1842SOL    HW1 6346   0.581   4.513   2.090
 1842SOL    HW2 6347   0.506   4.429   2.207
 1843SOL     OW 6348   1.274   4.117   2.805
 1843SOL    HW1 6349   1.184   4.073   2.807
 1843SOL    HW2 6350   1.337   4.068   2.864
 1844SOL     OW 6351   1.589   5.397   2.182
 1844SOL    HW1 6352   1.688   5.413   2.176
 1844SOL    HW2 6353   1.552   5.386   2.090
 1845SOL     OW 6354   0.802   4.306   3.312
 1845SOL    HW1 6355   0.763   4.283   3.402
 1845SOL    HW2 6356   0.775   4.237   3.245
 1846SOL     OW 6357   1.391   4.200   3.556
 1846SOL    HW1 6358   1.394   4.248   3.644
 1846SOL    HW2 6359   1.432   4.109   3.566
 1847SOL     OW 6360   0.944   4.601   3.448
 1847SOL    HW1 6361   1.003   4.535   3.402
 1847SOL    HW2 6362   0.893   4.654   3.380
 1848SOL     OW 6363   1.011   4.111   3.055
 1848SOL    HW1 6364   0.916   4.124   3.084
 1848SOL    HW2 6365   1.013   4.063   2.967
 1849SOL     OW 6366   1.043   4.411   2.275
 1849SOL    HW1 6367   1.067   4.415   2.372
 1849SOL    HW2 6368   0.954   4.367   2.264
 1850SOL     OW 6369   0.087   4.525   2.648
 1850SOL    HW1 6370   0.180   4.533   2.685
 1850SOL    HW2 6371   0.020   4.533   2.722
 1851SOL     OW 6372   0.097   5.610   3.491
 1851SOL    HW1 6373   0.117   5.582   3.585
 1851SOL    HW2 6374   7.000   5.594   3.472
 1852SOL     OW 6375   0.864   4.070   2.062
 1852SOL    HW1 6376   0.922   4.121   1.999
 1852SOL    HW2 6377   0.818   3.996   2.013
 1853SOL     OW 6378   1.694   4.305   3.687
 1853SOL    HW1 6379   1.668   4.380   3.627
 1853SOL    HW2 6380   1.701   4.220   3.633
 1854SOL     OW 6381   1.399   4.886   2.412
 1854SOL    HW1 6382   1.486   4.875   2.362
 1854SOL    HW2 6383   1.340   4.949   2.362
 1855SOL     OW 6384   0.561   3.877   2.790
 1855SOL    HW1 6385   0.570   3.897   2.887
 1855SOL    HW2 6386   0.563   3.962   2.737
 1856SOL     OW 6387   0.989   5.185   2.326
 1856SOL    HW1 6388   0.969   5.263   2.266
 1856SOL    HW2 6389   0.961   5.207   2.419
 1857SOL     OW 6390   0.366   5.537   2.735
 1857SOL    HW1 6391   0.405   5.446   2.746
 1857SOL    HW2 6392   0.432   5.605   2.766
 1858SOL     OW 6393   1.783   4.703   2.785
 1858SOL    HW1 6394   1.742   4.690   2.695
 1858SOL    HW2 6395   1.719   4.751   2.845
 1859SOL     OW 6396   1.200   5.263   3.378
 1859SOL    HW1 6397   1.194   5.193   3.449
 1859SOL    HW2 6398   1.137   5.240   3.304
 1860SOL     OW 6399   0.304   4.661   2.114
 1860SOL    HW1 6400   0.393   4.688   2.075
 1860SOL    HW2 6401   0.275   4.574   2.075
 1861SOL     OW 6402   1.490   4.484   2.567
 1861SOL    HW1 6403   1.479   4.438   2.655
 1861SOL    HW2 6404   1.572   4.541   2.569
 1862SOL     OW 6405   0.472   5.018   3.607
 1862SOL    HW1 6406   0.450   5.020   3.510
 1862SOL    HW2 6407   0.388   5.013   3.661
 1863SOL     OW 6408   1.146   5.496   2.090
 1863SOL    HW1 6409   1.057   5.472   2.130
 1863SOL    HW2 6410   1.171   5.427   2.022
 1864SOL     OW 6411   0.198   3.964   3.348
 1864SOL    HW1 6412   0.128   4.035   3.341
 1864SOL    HW2 6413   0.163   3.888   3.403
 1865SOL     OW 6414   1.636   5.116   1.958
 1865SOL    HW1 6415   1.603   5.209   1.944
 1865SOL    HW2 6416   1.564   5.051   1.933
 1866SOL     OW 6417   0.466   5.473   2.163
 1866SOL    HW1 6418   0.513   5.516   2.240
 1866SOL    HW2 6419   0.533   5.426   2.105
 1867SOL     OW 6420   1.402   3.819   2.320
 1867SOL    HW1 6421   1.403   3.798   2.223
 1867SOL    HW2 6422   1.496   3.814   2.356
 1868SOL     OW 6423   0.246   5.498   3.066
 1868SOL    HW1 6424   0.284   5.413   3.105
 1868SOL    HW2 6425   0.190   5.476   2.986
 1869SOL     OW 6426   0.946   5.426   2.750
 1869SOL    HW1 6427   1.035   5.385   2.771
 1869SOL    HW2 6428   0.904   5.375   2.674
 1870SOL     OW 6429   0.395   4.389   2.344
 1870SOL    HW1 6430   0.421   4.293   2.356
 1870SOL    HW2 6431   0.299   4.401   2.370
 1871SOL     OW 6432   1.460   3.930   3.613
 1871SOL    HW1 6433   1.484   3.950   3.708
 1871SOL    HW2 6434   1.386   3.863   3.611
 1872SOL     OW 6435   0.673   3.829   1.968
 1872SOL    HW1 6436   0.732   3.751   1.990
 1872SOL    HW2 6437   0.604   3.801   1.902
 1873SOL     OW 6438   0.758   4.001   3.617
 1873SOL    HW1 6439   0.848   3.957   3.614
 1873SOL    HW2 6440   0.702   3.955   3.687
 1874SOL     OW 6441   0.859   5.246   3.046
 1874SOL    HW1 6442   0.839   5.196   2.961
 1874SOL    HW2 6443   0.927   5.195   3.099
 1875SOL     OW 6444   1.318   4.309   3.311
 1875SOL    HW1 6445   1.355   4.280   3.400
 1875SOL    HW2 6446   1.347   4.403   3.293
 1876SOL     OW 6447   0.815   5.089   2.812
 1876SOL    HW1 6448   0.908   5.090   2.774
 1876SOL    HW2 6449   0.749   5.101   2.738
 1877SOL     OW 6450   0.923   4.234   2.738
 1877SOL    HW1 6451   0.898   4.224   2.641
 1877SOL    HW2 6452   0.956   4.146   2.772
 1878SOL     OW 6453   0.563   3.780   2.359
 1878SOL    HW1 6454   0.480   3.780   2.416
 1878SOL    HW2 6455   0.558   3.855   2.294
 1879SOL     OW 6456   1.428   4.942   1.898
 1879SOL    HW1 6457   1.467   4.868   1.954
 1879SOL    HW2 6458   1.339   4.968   1.936
 1880SOL     OW 6459   0.280   3.788   2.069
 1880SOL    HW1 6460   0.319   3.857   2.008
 1880SOL    HW2 6461   0.353   3.727   2.100
 1881SOL     OW 6462   0.958   3.977   2.304
 1881SOL    HW1 6463   0.924   4.010   2.216
 1881SOL    HW2 6464   1.056   3.992   2.310
 1882SOL     OW 6465   1.059   4.412   3.289
 1882SOL    HW1 6466   0.982   4.350   3.302
 1882SOL    HW2 6467   1.145   4.361   3.297
 1883SOL     OW 6468   1.209   5.319   2.675
 1883SOL    HW1 6469   1.227   5.376   2.594
 1883SOL    HW2 6470   1.247   5.364   2.755
 1884SOL     OW 6471   0.481   4.882   2.570
 1884SOL    HW1 6472   0.418   4.855   2.643
 1884SOL    HW2 6473   0.435   4.874   2.481
 1885SOL     OW 6474   1.243   5.514   2.475
 1885SOL    HW1 6475   1.295   5.579   2.418
 1885SOL    HW2 6476   1.164   5.561   2.515
 1886SOL     OW 6477   1.023   4.230   1.903
 1886SOL    HW1 6478   0.982   4.317   1.877
 1886SOL    HW2 6479   1.092   4.245   1.974
 1887SOL     OW 6480   0.084   4.276   3.236
 1887SOL    HW1 6481   0.177   4.259   3.206
 1887SOL    HW2 6482   0.083   4.346   3.308
 1888SOL     OW 6483   0.576   3.922   3.059
 1888SOL    HW1 6484   0.620   3.850   3.114
 1888SOL    HW2 6485   0.478   3.922   3.077
 1889SOL     OW 6486   0.865   4.179   2.477
 1889SOL    HW1 6487   0.820   4.237   2.410
 1889SOL    HW2 6488   0.901   4.097   2.432
 1890SOL     OW 6489   1.014   3.778   2.593
 1890SOL    HW1 6490   0.952   3.773   2.515
 1890SOL    HW2 6491   0.992   3.705   2.658
 1891SOL     OW 6492   1.422   4.865   2.714
 1891SOL    HW1 6493   1.353   4.796   2.737
 1891SOL    HW2 6494   1.426   4.878   2.615
 1892SOL     OW 6495   1.438   4.361   2.814
 1892SOL    HW1 6496   1.381   4.279   2.807
 1892SOL    HW2 6497   1.506   4.349   2.886
 1893SOL     OW 6498   1.809   4.507   2.232
 1893SOL    HW1 6499   1.889   4.485   2.288
 1893SOL    HW2 6500   1.801   4.441   2.157
 1894SOL     OW 6501   0.519   5.153   2.001
 1894SOL    HW1 6502   0.443   5.122   2.057
 1894SOL    HW2 6503   0.511   5.112   1.910
 1895SOL     OW 6504   1.720   5.003   2.508
 1895SOL    HW1 6505   1.820   5.003   2.521
 1895SOL    HW2 6506   1.684   5.094   2.528
 1896SOL     OW 6507   1.388   4.303   1.920
 1896SOL    HW1 6508   1.336   4.271   2.000
 1896SOL    HW2 6509   1.485   4.283   1.934
 1897SOL     OW 6510   0.550   3.974   2.170
 1897SOL    HW1 6511   0.601   3.924   2.100
 1897SOL    HW2 6512   0.506   4.054   2.129
 1898SOL     OW 6513   1.718   4.989   3.391
 1898SOL    HW1 6514   1.809   4.952   3.374
 1898SOL    HW2 6515   1.726   5.080   3.432
 1899SOL     OW 6516   1.029   5.085   3.207
 1899SOL    HW1 6517   0.944   5.052   3.247
 1899SOL    HW2 6518   1.106   5.034   3.245
 1900SOL     OW 6519   1.611   5.379   3.536
 1900SOL    HW1 6520   1.591   5.413   3.444
 1900SOL    HW2 6521   1.694   5.323   3.533
 1901SOL     OW 6522   1.145   4.984   2.974
 1901SOL    HW1 6523   1.084   5.017   3.046
 1901SOL    HW2 6524   1.110   5.012   2.885
 1902SOL     OW 6525   1.594   4.824   2.939
 1902SOL    HW1 6526   1.582   4.890   3.013
 1902SOL    HW2 6527   1.526   4.842   2.868
 1903SOL     OW 6528   0.930   3.799   3.245
 1903SOL    HW1 6529   0.951   3.780   3.150
 1903SOL    HW2 6530   1.008   3.845   3.288
 1904SOL     OW 6531   0.964   4.843   3.576
 1904SOL    HW1 6532   0.870   4.859   3.607
 1904SOL    HW2 6533   0.967   4.757   3.525
 1905SOL     OW 6534   0.716   4.778   2.249
 1905SOL    HW1 6535   0.699   4.754   2.345
 1905SOL    HW2 6536   0.794   4.727   2.215
 1906SOL     OW 6537   0.435   4.519   3.113
 1906SOL    HW1 6538   0.511   4.532   3.177
 1906SOL    HW2 6539   0.395   4.429   3.128
 1907SOL     OW 6540   1.261   4.092   3.158
 1907SOL    HW1 6541   1.287   4.172   3.211
 1907SOL    HW2 6542   1.170   4.105   3.119
 1908SOL     OW 6543   0.066   5.252   3.227
 1908SOL    HW1 6544   0.016   5.294   3.302
 1908SOL    HW2 6545   0.163   5.279   3.232
 1909SOL     OW 6546   0.355   4.849   2.325
 1909SOL    HW1 6547   0.339   4.927   2.264
 1909SOL    HW2 6548   0.340   4.764   2.275
 1910SOL     OW 6549   0.528   4.250   2.731
 1910SOL    HW1 6550   0.540   4.312   2.654
 1910SOL    HW2 6551   0.600   4.266   2.799
 1911SOL     OW 6552   1.244   5.085   2.270
 1911SOL    HW1 6553   1.306   5.157   2.300
 1911SOL    HW2 6554   1.150   5.108   2.296
 1912SOL     OW 6555   1.312   5.201   2.994
 1912SOL    HW1 6556   1.358   5.212   3.082
 1912SOL    HW2 6557   1.257   5.117   2.995
 1913SOL     OW 6558   1.632   4.330   2.379
 1913SOL    HW1 6559   1.563   4.380   2.432
 1913SOL    HW2 6560   1.684   4.394   2.323
 1914SOL     OW 6561   0.346   5.253   3.167
 1914SOL    HW1 6562   0.336   5.198   3.084
 1914SOL    HW2 6563   0.441   5.280   3.178
 1915SOL     OW 6564   0.486   4.445   3.485
 1915SOL    HW1 6565   0.537   4.489   3.410
 1915SOL    HW2 6566   0.541   4.372   3.523
 1916SOL     OW 6567   1.618   4.536   3.552
 1916SOL    HW1 6568   1.519   4.551   3.557
 1916SOL    HW2 6569   1.656   4.589   3.476
 1917SOL     OW 6570   0.994   3.868   3.619
 1917SOL    HW1 6571   1.053   3.947   3.606
 1917SOL    HW2 6572   1.046   3.784   3.598
 1918SOL     OW 6573   0.493   3.777   3.630
 1918SOL    HW1 6574   0.441   3.727   3.562
 1918SOL    HW2 6575   0.439   3.856   3.661
 1919SOL     OW 6576   0.604   4.589   2.900
 1919SOL    HW1 6577   0.636   4.683   2.903
 1919SOL    HW2 6578   0.536   4.575   2.973
 1920SOL     OW 6579   1.285   4.590   2.848
 1920SOL    HW1 6580   1.192   4.561   2.826
 1920SOL    HW2 6581   1.348   4.513   2.837
 1921SOL     OW 6582   1.200   4.243   2.122
 1921SOL    HW1 6583   1.217   4.163   2.179
 1921SOL    HW2 6584   1.151   4.312   2.176
 1922SOL     OW 6585   0.309   3.895   3.101
 1922SOL    HW1 6586   0.268   3.925   3.187
 1922SOL    HW2 6587   0.290   3.797   3.087
 1923SOL     OW 6588   0.102   5.007   3.120
 1923SOL    HW1 6589   0.114   4.940   3.193
 1923SOL    HW2 6590   0.086   5.097   3.160
 1924SOL     OW 6591   0.723   4.339   2.906
 1924SOL    HW1 6592   0.796   4.320   2.840
 1924SOL    HW2 6593   0.690   4.432   2.892
 1925SOL     OW 6594   1.699   4.740   3.728
 1925SOL    HW1 6595   1.671   4.664   3.670
 1925SOL    HW2 6596   1.638   4.746   3.807
 1926SOL     OW 6597   0.321   3.788   2.494
 1926SOL    HW1 6598   0.287   3.880   2.514
 1926SOL    HW2 6599   0.333   3.738   2.580
 1927SOL     OW 6600   1.658   4.103   2.191
 1927SOL    HW1 6601   1.729   4.035   2.211
 1927SOL    HW2 6602   1.641   4.159   2.272
 1928SOL     OW 6603   1.023   4.480   2.806
 1928SOL    HW1 6604   1.003   4.499   2.902
 1928SOL    HW2 6605   0.995   4.387   2.784
 1929SOL     OW 6606   0.980   5.288   3.621
 1929SOL    HW1 6607   0.947   5.343   3.544
 1929SOL    HW2 6608   1.020   5.203   3.586
 1930SOL     OW 6609   1.839   5.238   3.466
 1930SOL    HW1 6610   1.865   5.267   3.374
 1930SOL    HW2 6611   1.921   5.236   3.525
 1931SOL     OW 6612   0.387   4.625   3.672
 1931SOL    HW1 6613   0.458   4.656   3.736
 1931SOL    HW2 6614   0.427   4.558   3.609
 1932SOL     OW 6615   1.512   3.993   1.977
 1932SOL    HW1 6616   1.460   3.917   2.016
 1932SOL    HW2 6617   1.566   4.037   2.050
 1933SOL     OW 6618   1.280   4.547   1.868
 1933SOL    HW1 6619   1.318   4.456   1.881
 1933SOL    HW2 6620   1.316   4.587   1.784
 1934SOL     OW 6621   1.072   5.082   2.726
 1934SOL    HW1 6622   1.090   5.001   2.671
 1934SOL    HW2 6623   1.129   5.158   2.693
 1935SOL     OW 6624   0.332   4.527   2.785
 1935SOL    HW1 6625   0.430   4.540   2.773
 1935SOL    HW2 6626   0.314   4.439   2.829
 1936SOL     OW 6627   0.299   4.247   2.871
 1936SOL    HW1 6628   0.257   4.156   2.866
 1936SOL    HW2 6629   0.383   4.248   2.816
 1937SOL     OW 6630   1.137   4.095   3.560
 1937SOL    HW1 6631   1.085   4.145   3.628
 1937SOL    HW2 6632   1.228   4.136   3.551
 1938SOL     OW 6633   1.157   3.918   3.347
 1938SOL    HW1 6634   1.143   3.982   3.422
 1938SOL    HW2 6635   1.206   3.964   3.273
 1939SOL     OW 6636   0.014   5.053   2.122
 1939SOL    HW1 6637   6.945   5.083   2.187
 1939SOL    HW2 6638   0.018   4.953   2.121
 1940SOL     OW 6639   0.114   5.460   2.822
 1940SOL    HW1 6640   0.088   5.384   2.762
 1940SOL    HW2 6641   0.198   5.502   2.788
 1941SOL     OW 6642   0.493   5.289   2.764
 1941SOL    HW1 6643   0.563   5.354   2.792
 1941SOL    HW2 6644   0.533   5.223   2.700
 1942SOL     OW 6645   0.938   4.514   3.062
 1942SOL    HW1 6646   0.995   4.490   3.140
 1942SOL    HW2 6647   0.853   4.463   3.066
 1943SOL     OW 6648   0.065   4.371   2.974
 1943SOL    HW1 6649   0.145   4.329   2.931
 1943SOL    HW2 6650   0.060   4.343   3.070
 1944SOL     OW 6651   0.223   4.250   3.593
 1944SOL    HW1 6652   0.295   4.184   3.573
 1944SOL    HW2 6653   0.226   4.325   3.527
 1945SOL     OW 6654   1.368   4.650   3.508
 1945SOL    HW1 6655   1.393   4.747   3.507
 1945SOL    HW2 6656   1.361   4.617   3.414
 1946SOL     OW 6657   0.799   4.291   2.223
 1946SOL    HW1 6658   0.813   4.210   2.166
 1946SOL    HW2 6659   0.720   4.342   2.190
 1947SOL     OW 6660   1.610   4.328   3.028
 1947SOL    HW1 6661   1.556   4.285   3.100
 1947SOL    HW2 6662   1.697   4.278   3.018
 1948SOL     OW 6663   0.270   5.299   3.605
 1948SOL    HW1 6664   0.218   5.365   3.660
 1948SOL    HW2 6665   0.259   5.207   3.644
 1949SOL     OW 6666   0.739   4.146   3.100
 1949SOL    HW1 6667   0.677   4.069   3.088
 1949SOL    HW2 6668   0.721   4.214   3.029
 1950SOL     OW 6669   0.870   5.427   3.393
 1950SOL    HW1 6670   0.835   5.362   3.326
 1950SOL    HW2 6671   0.894   5.513   3.346
 1951SOL     OW 6672   0.422   4.188   2.057
 1951SOL    HW1 6673   0.478   4.271   2.066
 1951SOL    HW2 6674   0.336   4.200   2.107
 1952SOL     OW 6675   0.165   4.840   3.343
 1952SOL    HW1 6676   0.163   4.784   3.425
 1952SOL    HW2 6677   0.184   4.782   3.264
 1953SOL     OW 6678   1.270   4.757   3.066
 1953SOL    HW1 6679   1.283   4.693   2.990
 1953SOL    HW2 6680   1.225   4.840   3.032
 1954SOL     OW 6681   1.334   4.599   2.135
 1954SOL    HW1 6682   1.264   4.566   2.199
 1954SOL    HW2 6683   1.305   4.579   2.041
 1955SOL     OW 6684   1.768   5.457   3.020
 1955SOL    HW1 6685   1.841   5.485   2.958
 1955SOL    HW2 6686   1.741   5.362   3.000
 1956SOL     OW 6687   1.252   5.457   2.921
 1956SOL    HW1 6688   1.342   5.500   2.911
 1956SOL    HW2 6689   1.263   5.365   2.959
 1957SOL     OW 6690   0.098   4.958   2.858
 1957SOL    HW1 6691   0.100   4.971   2.957
 1957SOL    HW2 6692   0.003   4.959   2.827
 1958SOL     OW 6693   0.690   5.431   3.603
 1958SOL    HW1 6694   0.621   5.503   3.598
 1958SOL    HW2 6695   0.758   5.444   3.530
 1959SOL     OW 6696   1.399   5.300   2.361
 1959SOL    HW1 6697   1.461   5.333   2.290
 1959SOL    HW2 6698   1.337   5.373   2.389
 1960SOL     OW 6699   0.130   5.507   3.750
 1960SOL    HW1 6700   0.085   5.429   3.793
 1960SOL    HW2 6701   0.184   5.557   3.818
 1961SOL     OW 6702   1.286   4.656   2.503
 1961SOL    HW1 6703   1.361   4.593   2.524
 1961SOL    HW2 6704   1.323   4.738   2.458
 1962SOL     OW 6705   0.774   5.009   3.285
 1962SOL    HW1 6706   0.749   5.060   3.367
 1962SOL    HW2 6707   0.700   5.015   3.218
 1963SOL     OW 6708   0.684   5.368   2.009
 1963SOL    HW1 6709   0.699   5.390   1.913
 1963SOL    HW2 6710   0.633   5.283   2.017
 1964SOL     OW 6711   1.605   5.460   3.259
 1964SOL    HW1 6712   1.664   5.453   3.178
 1964SOL    HW2 6713   1.590   5.556   3.282
 1965SOL     OW 6714   1.833   3.892   2.839
 1965SOL    HW1 6715   1.864   3.800   2.817
 1965SOL    HW2 6716   1.747   3.911   2.791
 1966SOL     OW 6717   0.254   4.039   2.589
 1966SOL    HW1 6718   0.248   4.139   2.578
 1966SOL    HW2 6719   0.243   4.015   2.685
 1967SOL     OW 6720   1.221   5.306   1.907
 1967SOL    HW1 6721   1.214   5.213   1.943
 1967SOL    HW2 6722   1.145   5.323   1.844
 1968SOL     OW 6723   0.823   4.740   3.247
 1968SOL    HW1 6724   0.867   4.728   3.159
 1968SOL    HW2 6725   0.808   4.838   3.263
 1969SOL     OW 6726   0.921   4.632   2.158
 1969SOL    HW1 6727   0.972   4.662   2.077
 1969SOL    HW2 6728   0.970   4.557   2.202
 1970SOL     OW 6729   1.490   5.378   1.920
 1970SOL    HW1 6730   1.394   5.352   1.907
 1970SOL    HW2 6731   1.535   5.383   1.831
 1971SOL     OW 6732   0.371   5.035   3.358
 1971SOL    HW1 6733   0.361   5.110   3.293
 1971SOL    HW2 6734   0.301   4.965   3.340
 1972SOL     OW 6735   1.572   5.009   3.148
 1972SOL    HW1 6736   1.638   4.996   3.221
 1972SOL    HW2 6737   1.511   5.084   3.171
 1973SOL     OW 6738   1.095   4.837   2.609
 1973SOL    HW1 6739   1.012   4.792   2.641
 1973SOL    HW2 6740   1.155   4.770   2.566
 1974SOL     OW 6741   1.032   3.965   2.813
 1974SOL    HW1 6742   1.029   3.925   2.721
 1974SOL    HW2 6743   1.029   3.891   2.881
 1975SOL     OW 6744   0.608   5.216   2.350
 1975SOL    HW1 6745   0.650   5.163   2.277
 1975SOL    HW2 6746   0.508   5.205   2.345
 1976SOL     OW 6747   1.730   4.034   3.289
 1976SOL    HW1 6748   1.805   4.100   3.284
 1976SOL    HW2 6749   1.737   3.969   3.214
 1977SOL     OW 6750   0.284   5.075   2.151
 1977SOL    HW1 6751   0.184   5.072   2.145
 1977SOL    HW2 6752   0.312   5.120   2.236
 1978SOL     OW 6753   0.142   4.686   3.576
 1978SOL    HW1 6754   0.088   4.743   3.638
 1978SOL    HW2 6755   0.231   4.667   3.616
 1979SOL     OW 6756   0.695   3.913   3.361
 1979SOL    HW1 6757   0.781   3.885   3.318
 1979SOL    HW2 6758   0.713   3.950   3.452
 1980SOL     OW 6759   0.074   4.003   1.861
 1980SOL    HW1 6760   0.009   3.938   1.901
 1980SOL    HW2 6761   0.024   4.082   1.825
 1981SOL     OW 6762   1.380   4.572   3.245
 1981SOL    HW1 6763   1.319   4.631   3.192
 1981SOL    HW2 6764   1.473   4.577   3.208
 1982SOL     OW 6765   0.063   3.938   2.173
 1982SOL    HW1 6766   7.000   3.899   2.106
 1982SOL    HW2 6767   0.151   3.891   2.167
 1983SOL     OW 6768   1.180   5.045   1.995
 1983SOL    HW1 6769   1.082   5.031   1.984
 1983SOL    HW2 6770   1.203   5.047   2.092
 1984SOL     OW 6771   0.649   4.533   3.282
 1984SOL    HW1 6772   0.703   4.617   3.273
 1984SOL    HW2 6773   0.709   4.455   3.292
 1985SOL     OW 6774   1.507   5.554   2.892
 1985SOL    HW1 6775   1.533   5.619   2.820
 1985SOL    HW2 6776   1.589   5.510   2.928
 1986SOL     OW 6777   0.702   4.274   3.568
 1986SOL    HW1 6778   0.761   4.334   3.622
 1986SOL    HW2 6779   0.720   4.179   3.594
 1987SOL     OW 6780   1.450   4.916   3.493
 1987SOL    HW1 6781   1.438   4.931   3.591
 1987SOL    HW2 6782   1.541   4.946   3.466
 1988SOL     OW 6783   0.350   5.499   3.437
 1988SOL    HW1 6784   0.261   5.544   3.427
 1988SOL    HW2 6785   0.338   5.412   3.484
 1989SOL     OW 6786   1.618   4.601   3.109
 1989SOL    HW1 6787   1.627   4.511   3.066
 1989SOL    HW2 6788   1.610   4.671   3.038
 1990SOL     OW 6789   1.228   4.040   2.319
 1990SOL    HW1 6790   1.290   3.962   2.318
 1990SOL    HW2 6791   1.245   4.096   2.400
 1991SOL     OW 6792   0.567   4.455   2.551
 1991SOL    HW1 6793   0.617   4.540   2.539
 1991SOL    HW2 6794   0.507   4.439   2.472
 1992SOL     OW 6795   1.708   4.055   3.561
 1992SOL    HW1 6796   1.719   4.049   3.461
 1992SOL    HW2 6797   1.630   4.000   3.589
 1993SOL     OW 6798   1.683   4.706   3.354
 1993SOL    HW1 6799   1.678   4.806   3.360
 1993SOL    HW2 6800   1.664   4.677   3.260
 1994SOL     OW 6801   0.891   5.074   1.946
 1994SOL    HW1 6802   0.842   5.084   2.032
 1994SOL    HW2 6803   0.896   5.163   1.900
 1995SOL     OW 6804   0.677   5.483   2.803
 1995SOL    HW1 6805   0.653   5.580   2.791
 1995SOL    HW2 6806   0.775   5.472   2.791
 1996SOL     OW 6807   0.875   4.708   2.724
 1996SOL    HW1 6808   0.922   4.625   2.753
 1996SOL    HW2 6809   0.825   4.747   2.801
 1997SOL     OW 6810   1.054   4.687   1.931
 1997SOL    HW1 6811   1.033   4.755   1.861
 1997SOL    HW2 6812   1.138   4.638   1.905
 1998SOL     OW 6813   1.814   5.296   2.706
 1998SOL    HW1 6814   1.740   5.285   2.640
 1998SOL    HW2 6815   1.788   5.252   2.792
 1999SOL     OW 6816   0.233   5.044   3.741
 1999SOL    HW1 6817   0.138   5.016   3.731
 1999SOL    HW2 6818   0.255   5.055   3.838
 2000SOL     OW 6819   0.173   5.027   2.568
 2000SOL    HW1 6820   0.200   4.967   2.644
 2000SOL    HW2 6821   0.114   4.975   2.505
 2001SOL     OW 6822   0.690   5.160   3.502
 2001SOL    HW1 6823   0.608   5.116   3.537
 2001SOL    HW2 6824   0.696   5.253   3.538
 2002SOL     OW 6825   1.753   3.850   3.097
 2002SOL    HW1 6826   1.761   3.750   3.097
 2002SOL    HW2 6827   1.779   3.884   3.006
 2003SOL     OW 6828   0.448   4.128   2.386
 2003SOL    HW1 6829   0.496   4.068   2.323
 2003SOL    HW2 6830   0.404   4.074   2.458
 2004SOL     OW 6831   1.703   5.204   2.943
 2004SOL    HW1 6832   1.620   5.170   2.898
 2004SOL    HW2 6833   1.734   5.139   3.012
 2005SOL     OW 6834   0.344   4.261   3.153
 2005SOL    HW1 6835   0.395   4.198   3.211
 2005SOL    HW2 6836   0.351   4.232   3.058
 2006SOL     OW 6837   0.834   5.302   2.537
 2006SOL    HW1 6838   0.795   5.361   2.466
 2006SOL    HW2 6839   0.768   5.232   2.562
 2007SOL     OW 6840   1.429   3.972   2.978
 2007SOL    HW1 6841   1.461   3.882   3.005
 2007SOL    HW2 6842   1.376   4.012   3.053
 2008SOL     OW 6843   1.020   3.737   2.979
 2008SOL    HW1 6844   0.955   3.676   2.933
 2008SOL    HW2 6845   1.111   3.698   2.974
 2009SOL     OW 6846   0.777   5.050   2.199
 2009SOL    HW1 6847   0.754   4.954   2.215
 2009SOL    HW2 6848   0.857   5.075   2.252
 2010SOL     OW 6849   0.618   5.310   3.156
 2010SOL    HW1 6850   0.606   5.402   3.193
 2010SOL    HW2 6851   0.706   5.303   3.110
 2011SOL     OW 6852   1.380   3.760   2.051
 2011SOL    HW1 6853   1.425   3.693   1.992
 2011SOL    HW2 6854   1.285   3.732   2.066
 2012SOL     OW 6855   1.273   4.195   2.542
 2012SOL    HW1 6856   1.224   4.282   2.533
 2012SOL    HW2 6857   1.269   4.165   2.638
 2013SOL     OW 6858   1.579   3.933   2.747
 2013SOL    HW1 6859   1.526   3.966   2.826
 2013SOL    HW2 6860   1.569   3.999   2.672
 2014SOL     OW 6861   0.056   4.779   2.145
 2014SOL    HW1 6862   0.148   4.740   2.141
 2014SOL    HW2 6863   6.989   4.706   2.154
 2015SOL     OW 6864   0.898   5.409   2.190
 2015SOL    HW1 6865   0.821   5.392   2.129
 2015SOL    HW2 6866   0.874   5.481   2.255
 2016SOL     OW 6867   0.150   4.379   3.834
 2016SOL    HW1 6868   0.150   4.319   3.913
 2016SOL    HW2 6869   0.190   4.332   3.755
 2017SOL     OW 6870   0.207   3.991   4.723
 2017SOL    HW1 6871   0.263   3.954   4.797
 2017SOL    HW2 6872   0.111   3.969   4.740
 2018SOL     OW 6873   6.980   4.105   4.377
 2018SOL    HW1 6874   6.925   4.094   4.459
 2018SOL    HW2 6875   0.062   4.048   4.383
 2019SOL     OW 6876   0.580   5.043   4.946
 2019SOL    HW1 6877   0.496   5.040   4.892
 2019SOL    HW2 6878   0.599   5.138   4.973
 2020SOL     OW 6879   1.586   5.243   4.425
 2020SOL    HW1 6880   1.539   5.205   4.504
 2020SOL    HW2 6881   1.521   5.255   4.350
 2021SOL     OW 6882   1.129   4.441   4.403
 2021SOL    HW1 6883   1.186   4.521   4.385
 2021SOL    HW2 6884   1.082   4.452   4.490
 2022SOL     OW 6885   1.615   4.323   3.944
 2022SOL    HW1 6886   1.657   4.321   3.853
 2022SOL    HW2 6887   1.627   4.233   3.988
 2023SOL     OW 6888   0.721   4.852   4.785
 2023SOL    HW1 6889   0.661   4.888   4.858
 2023SOL    HW2 6890   0.764   4.929   4.738
 2024SOL     OW 6891   0.889   4.461   5.544
 2024SOL    HW1 6892   0.904   4.526   5.618
 2024SOL    HW2 6893   0.904   4.506   5.456
 2025SOL     OW 6894   0.684   4.706   4.380
 2025SOL    HW1 6895   0.757   4.709   4.448
 2025SOL    HW2 6896   0.613   4.771   4.406
 2026SOL     OW 6897   0.710   4.884   5.563
 2026SOL    HW1 6898   0.769   4.953   5.604
 2026SOL    HW2 6899   0.632   4.928   5.519
 2027SOL     OW 6900   0.354   5.117   4.793
 2027SOL    HW1 6901   0.276   5.072   4.751
 2027SOL    HW2 6902   0.396   5.180   4.727
 2028SOL     OW 6903   1.443   5.237   5.100
 2028SOL    HW1 6904   1.503   5.316   5.113
 2028SOL    HW2 6905   1.365   5.243   5.162
 2029SOL     OW 6906   0.455   4.078   5.185
 2029SOL    HW1 6907   0.537   4.022   5.198
 2029SOL    HW2 6908   0.374   4.025   5.208
 2030SOL     OW 6909   1.548   4.145   4.429
 2030SOL    HW1 6910   1.451   4.162   4.408
 2030SOL    HW2 6911   1.599   4.230   4.423
 2031SOL     OW 6912   0.242   5.439   4.197
 2031SOL    HW1 6913   0.259   5.519   4.254
 2031SOL    HW2 6914   0.304   5.441   4.118
 2032SOL     OW 6915   1.131   5.062   5.427
 2032SOL    HW1 6916   1.184   5.051   5.510
 2032SOL    HW2 6917   1.072   4.982   5.414
 2033SOL     OW 6918   0.332   5.183   4.255
 2033SOL    HW1 6919   0.293   5.275   4.253
 2033SOL    HW2 6920   0.286   5.128   4.325
 2034SOL     OW 6921   0.299   4.805   4.618
 2034SOL    HW1 6922   0.304   4.707   4.639
 2034SOL    HW2 6923   0.225   4.847   4.672
 2035SOL     OW 6924   0.566   5.554   5.133
 2035SOL    HW1 6925   0.483   5.530   5.184
 2035SOL    HW2 6926   0.610   5.633   5.176
 2036SOL     OW 6927   0.570   4.716   3.882
 2036SOL    HW1 6928   0.620   4.764   3.809
 2036SOL    HW2 6929   0.609   4.740   3.971
 2037SOL     OW 6930   1.574   3.861   5.196
 2037SOL    HW1 6931   1.622   3.939   5.156
 2037SOL    HW2 6932   1.533   3.890   5.283
 2038SOL     OW 6933   0.130   4.327   4.311
 2038SOL    HW1 6934   0.063   4.255   4.330
 2038SOL    HW2 6935   0.114   4.405   4.372
 2039SOL     OW 6936   1.854   5.469   4.046
 2039SOL    HW1 6937   1.932   5.454   4.107
 2039SOL    HW2 6938   1.856   5.563   4.012
 2040SOL     OW 6939   0.000   5.296   3.851
 2040SOL    HW1 6940   0.011   5.211   3.902
 2040SOL    HW2 6941   6.907   5.303   3.816
 2041SOL     OW 6942   1.691   4.659   4.403
 2041SOL    HW1 6943   1.784   4.625   4.418
 2041SOL    HW2 6944   1.688   4.709   4.316
 2042SOL     OW 6945   1.666   4.824   4.170
 2042SOL    HW1 6946   1.753   4.792   4.131
 2042SOL    HW2 6947   1.683   4.898   4.235
 2043SOL     OW 6948   0.207   4.460   5.285
 2043SOL    HW1 6949   0.307   4.463   5.281
 2043SOL    HW2 6950   0.173   4.545   5.324
 2044SOL     OW 6951   0.630   5.112   4.460
 2044SOL    HW1 6952   0.582   5.024   4.464
 2044SOL    HW2 6953   0.619   5.151   4.368
 2045SOL     OW 6954   1.258   4.943   5.147
 2045SOL    HW1 6955   1.279   4.872   5.080
 2045SOL    HW2 6956   1.326   4.941   5.221
 2046SOL     OW 6957   0.834   3.746   4.237
 2046SOL    HW1 6958   0.877   3.832   4.207
 2046SOL    HW2 6959   0.735   3.759   4.242
 2047SOL     OW 6960   0.210   4.682   4.995
 2047SOL    HW1 6961   0.292   4.626   4.979
 2047SOL    HW2 6962   0.139   4.656   4.929
 2048SOL     OW 6963   1.520   4.757   3.943
 2048SOL    HW1 6964   1.449   4.692   3.969
 2048SOL    HW2 6965   1.573   4.782   4.024
 2049SOL     OW 6966   1.183   5.542   5.358
 2049SOL    HW1 6967   1.182   5.612   5.286
 2049SOL    HW2 6968   1.194   5.452   5.315
 2050SOL     OW 6969   0.347   3.985   5.605
 2050SOL    HW1 6970   0.380   4.064   5.656
 2050SOL    HW2 6971   0.248   3.993   5.591
 2051SOL     OW 6972   1.472   5.129   4.648
 2051SOL    HW1 6973   1.410   5.159   4.721
 2051SOL    HW2 6974   1.452   5.034   4.624
 2052SOL     OW 6975   1.625   5.553   4.271
 2052SOL    HW1 6976   1.616   5.496   4.189
 2052SOL    HW2 6977   1.632   5.494   4.351
 2053SOL     OW 6978   0.567   4.422   3.990
 2053SOL    HW1 6979   0.582   4.513   3.952
 2053SOL    HW2 6980   0.507   4.428   4.070
 2054SOL     OW 6981   1.266   4.123   4.664
 2054SOL    HW1 6982   1.176   4.079   4.664
 2054SOL    HW2 6983   1.327   4.074   4.726
 2055SOL     OW 6984   1.588   5.399   4.043
 2055SOL    HW1 6985   1.687   5.411   4.038
 2055SOL    HW2 6986   1.551   5.387   3.951
 2056SOL     OW 6987   0.803   4.306   5.174
 2056SOL    HW1 6988   0.765   4.283   5.264
 2056SOL    HW2 6989   0.774   4.237   5.107
 2057SOL     OW 6990   1.387   4.197   5.395
 2057SOL    HW1 6991   1.391   4.246   5.482
 2057SOL    HW2 6992   1.430   4.107   5.405
 2058SOL     OW 6993   0.942   4.602   5.308
 2058SOL    HW1 6994   1.001   4.536   5.261
 2058SOL    HW2 6995   0.890   4.655   5.241
 2059SOL     OW 6996   1.007   4.110   4.916
 2059SOL    HW1 6997   0.912   4.124   4.945
 2059SOL    HW2 6998   1.008   4.063   4.828
 2060SOL     OW 6999   1.042   4.418   4.141
 2060SOL    HW1 7000   1.065   4.421   4.238
 2060SOL    HW2 7001   0.953   4.372   4.130
 2061SOL     OW 7002   0.087   4.525   4.511
 2061SOL    HW1 7003   0.179   4.533   4.548
 2061SOL    HW2 7004   0.020   4.533   4.585
 2062SOL     OW 7005   0.096   5.610   5.353
 2062SOL    HW1 7006   0.117   5.583   5.447
 2062SOL    HW2 7007   7.000   5.595   5.334
 2063SOL     OW 7008   0.862   4.067   3.924
 2063SOL    HW1 7009   0.917   4.118   3.858
 2063SOL    HW2 7010   0.817   3.990   3.878
 2064SOL     OW 7011   1.664   4.288   5.565
 2064SOL    HW1 7012   1.653   4.369   5.507
 2064SOL    HW2 7013   1.691   4.210   5.507
 2065SOL     OW 7014   1.400   4.884   4.275
 2065SOL    HW1 7015   1.486   4.871   4.226
 2065SOL    HW2 7016   1.342   4.948   4.224
 2066SOL     OW 7017   0.560   3.878   4.651
 2066SOL    HW1 7018   0.569   3.898   4.749
 2066SOL    HW2 7019   0.563   3.964   4.599
 2067SOL     OW 7020   0.988   5.186   4.189
 2067SOL    HW1 7021   0.968   5.263   4.129
 2067SOL    HW2 7022   0.959   5.207   4.283
 2068SOL     OW 7023   0.366   5.537   4.597
 2068SOL    HW1 7024   0.405   5.446   4.608
 2068SOL    HW2 7025   0.432   5.606   4.627
 2069SOL     OW 7026   1.789   4.806   4.631
 2069SOL    HW1 7027   1.740   4.788   4.546
 2069SOL    HW2 7028   1.724   4.808   4.707
 2070SOL     OW 7029   1.203   5.261   5.240
 2070SOL    HW1 7030   1.196   5.191   5.311
 2070SOL    HW2 7031   1.140   5.239   5.166
 2071SOL     OW 7032   0.304   4.662   3.976
 2071SOL    HW1 7033   0.393   4.689   3.938
 2071SOL    HW2 7034   0.276   4.574   3.939
 2072SOL     OW 7035   1.491   4.479   4.431
 2072SOL    HW1 7036   1.475   4.439   4.521
 2072SOL    HW2 7037   1.566   4.545   4.438
 2073SOL     OW 7038   0.472   5.018   5.469
 2073SOL    HW1 7039   0.450   5.020   5.372
 2073SOL    HW2 7040   0.388   5.012   5.522
 2074SOL     OW 7041   1.144   5.497   3.953
 2074SOL    HW1 7042   1.056   5.472   3.993
 2074SOL    HW2 7043   1.169   5.429   3.883
 2075SOL     OW 7044   0.198   3.965   5.210
 2075SOL    HW1 7045   0.128   4.035   5.204
 2075SOL    HW2 7046   0.163   3.888   5.265
 2076SOL     OW 7047   1.613   5.119   3.822
 2076SOL    HW1 7048   1.579   5.212   3.806
 2076SOL    HW2 7049   1.542   5.054   3.797
 2077SOL     OW 7050   0.466   5.473   4.026
 2077SOL    HW1 7051   0.513   5.516   4.103
 2077SOL    HW2 7052   0.533   5.426   3.968
 2078SOL     OW 7053   1.406   3.830   4.182
 2078SOL    HW1 7054   1.395   3.796   4.088
 2078SOL    HW2 7055   1.503   3.843   4.201
 2079SOL     OW 7056   0.246   5.498   4.928
 2079SOL    HW1 7057   0.284   5.413   4.967
 2079SOL    HW2 7058   0.190   5.476   4.848
 2080SOL     OW 7059   0.952   5.425   4.612
 2080SOL    HW1 7060   1.043   5.388   4.629
 2080SOL    HW2 7061   0.908   5.374   4.538
 2081SOL     OW 7062   0.395   4.389   4.205
 2081SOL    HW1 7063   0.421   4.293   4.217
 2081SOL    HW2 7064   0.299   4.401   4.232
 2082SOL     OW 7065   1.476   3.935   5.450
 2082SOL    HW1 7066   1.494   3.956   5.546
 2082SOL    HW2 7067   1.404   3.865   5.444
 2083SOL     OW 7068   0.674   3.830   3.830
 2083SOL    HW1 7069   0.734   3.752   3.852
 2083SOL    HW2 7070   0.605   3.801   3.764
 2084SOL     OW 7071   0.760   3.999   5.481
 2084SOL    HW1 7072   0.849   3.954   5.476
 2084SOL    HW2 7073   0.703   3.954   5.551
 2085SOL     OW 7074   0.859   5.244   4.910
 2085SOL    HW1 7075   0.840   5.195   4.825
 2085SOL    HW2 7076   0.928   5.194   4.962
 2086SOL     OW 7077   1.320   4.319   5.158
 2086SOL    HW1 7078   1.354   4.286   5.246
 2086SOL    HW2 7079   1.354   4.411   5.141
 2087SOL     OW 7080   0.815   5.088   4.675
 2087SOL    HW1 7081   0.908   5.089   4.637
 2087SOL    HW2 7082   0.749   5.100   4.601
 2088SOL     OW 7083   0.921   4.234   4.600
 2088SOL    HW1 7084   0.897   4.226   4.503
 2088SOL    HW2 7085   0.952   4.145   4.635
 2089SOL     OW 7086   0.562   3.781   4.221
 2089SOL    HW1 7087   0.480   3.782   4.278
 2089SOL    HW2 7088   0.557   3.857   4.155
 2090SOL     OW 7089   1.409   4.940   3.767
 2090SOL    HW1 7090   1.446   4.868   3.826
 2090SOL    HW2 7091   1.322   4.971   3.805
 2091SOL     OW 7092   0.280   3.788   3.930
 2091SOL    HW1 7093   0.319   3.858   3.869
 2091SOL    HW2 7094   0.353   3.727   3.962
 2092SOL     OW 7095   0.959   3.979   4.167
 2092SOL    HW1 7096   0.926   4.011   4.078
 2092SOL    HW2 7097   1.057   3.994   4.173
 2093SOL     OW 7098   1.060   4.416   5.148
 2093SOL    HW1 7099   0.985   4.351   5.162
 2093SOL    HW2 7100   1.147   4.369   5.152
 2094SOL     OW 7101   1.209   5.314   4.530
 2094SOL    HW1 7102   1.221   5.376   4.453
 2094SOL    HW2 7103   1.285   5.324   4.594
 2095SOL     OW 7104   0.481   4.883   4.432
 2095SOL    HW1 7105   0.418   4.856   4.506
 2095SOL    HW2 7106   0.434   4.874   4.344
 2096SOL     OW 7107   1.241   5.515   4.338
 2096SOL    HW1 7108   1.293   5.579   4.282
 2096SOL    HW2 7109   1.163   5.563   4.378
 2097SOL     OW 7110   1.014   4.231   3.763
 2097SOL    HW1 7111   0.974   4.319   3.737
 2097SOL    HW2 7112   1.079   4.244   3.838
 2098SOL     OW 7113   0.083   4.276   5.098
 2098SOL    HW1 7114   0.177   4.259   5.068
 2098SOL    HW2 7115   0.084   4.346   5.170
 2099SOL     OW 7116   0.575   3.920   4.921
 2099SOL    HW1 7117   0.618   3.847   4.975
 2099SOL    HW2 7118   0.477   3.922   4.939
 2100SOL     OW 7119   0.867   4.181   4.339
 2100SOL    HW1 7120   0.820   4.239   4.271
 2100SOL    HW2 7121   0.902   4.099   4.294
 2101SOL     OW 7122   1.014   3.781   4.454
 2101SOL    HW1 7123   0.953   3.776   4.375
 2101SOL    HW2 7124   0.992   3.707   4.518
 2102SOL     OW 7125   1.423   4.861   4.589
 2102SOL    HW1 7126   1.360   4.788   4.611
 2102SOL    HW2 7127   1.430   4.870   4.489
 2103SOL     OW 7128   1.431   4.364   4.677
 2103SOL    HW1 7129   1.373   4.282   4.674
 2103SOL    HW2 7130   1.498   4.354   4.750
 2104SOL     OW 7131   0.519   5.153   3.862
 2104SOL    HW1 7132   0.443   5.122   3.919
 2104SOL    HW2 7133   0.511   5.112   3.771
 2105SOL     OW 7134   1.728   5.004   4.356
 2105SOL    HW1 7135   1.825   4.999   4.380
 2105SOL    HW2 7136   1.692   5.094   4.381
 2106SOL     OW 7137   1.376   4.312   3.807
 2106SOL    HW1 7138   1.307   4.277   3.871
 2106SOL    HW2 7139   1.463   4.323   3.854
 2107SOL     OW 7140   0.549   3.975   4.031
 2107SOL    HW1 7141   0.601   3.924   3.962
 2107SOL    HW2 7142   0.506   4.054   3.989
 2108SOL     OW 7143   1.740   4.966   5.258
 2108SOL    HW1 7144   1.830   4.926   5.239
 2108SOL    HW2 7145   1.752   5.056   5.299
 2109SOL     OW 7146   1.032   5.083   5.070
 2109SOL    HW1 7147   0.946   5.051   5.110
 2109SOL    HW2 7148   1.108   5.032   5.110
 2110SOL     OW 7149   1.618   5.370   5.400
 2110SOL    HW1 7150   1.598   5.407   5.309
 2110SOL    HW2 7151   1.696   5.309   5.394
 2111SOL     OW 7152   1.149   4.986   4.838
 2111SOL    HW1 7153   1.087   5.018   4.909
 2111SOL    HW2 7154   1.113   5.012   4.748
 2112SOL     OW 7155   1.594   4.821   4.821
 2112SOL    HW1 7156   1.588   4.892   4.892
 2112SOL    HW2 7157   1.523   4.837   4.752
 2113SOL     OW 7158   0.927   3.800   5.108
 2113SOL    HW1 7159   0.948   3.781   5.012
 2113SOL    HW2 7160   1.006   3.845   5.150
 2114SOL     OW 7161   0.966   4.841   5.440
 2114SOL    HW1 7162   0.873   4.858   5.472
 2114SOL    HW2 7163   0.967   4.755   5.388
 2115SOL     OW 7164   0.712   4.780   4.112
 2115SOL    HW1 7165   0.695   4.756   4.208
 2115SOL    HW2 7166   0.788   4.727   4.077
 2116SOL     OW 7167   0.435   4.519   4.975
 2116SOL    HW1 7168   0.510   4.532   5.039
 2116SOL    HW2 7169   0.394   4.429   4.990
 2117SOL     OW 7170   1.254   4.093   5.022
 2117SOL    HW1 7171   1.283   4.178   5.068
 2117SOL    HW2 7172   1.163   4.106   4.983
 2118SOL     OW 7173   0.065   5.252   5.088
 2118SOL    HW1 7174   0.014   5.293   5.164
 2118SOL    HW2 7175   0.161   5.279   5.095
 2119SOL     OW 7176   0.354   4.850   4.188
 2119SOL    HW1 7177   0.339   4.928   4.127
 2119SOL    HW2 7178   0.340   4.765   4.137
 2120SOL     OW 7179   0.528   4.248   4.592
 2120SOL    HW1 7180   0.540   4.310   4.515
 2120SOL    HW2 7181   0.599   4.265   4.660
 2121SOL     OW 7182   1.242   5.085   4.134
 2121SOL    HW1 7183   1.305   5.157   4.163
 2121SOL    HW2 7184   1.149   5.109   4.162
 2122SOL     OW 7185   1.318   5.201   4.860
 2122SOL    HW1 7186   1.364   5.211   4.948
 2122SOL    HW2 7187   1.260   5.120   4.861
 2123SOL     OW 7188   1.645   4.375   4.222
 2123SOL    HW1 7189   1.575   4.416   4.281
 2123SOL    HW2 7190   1.616   4.382   4.126
 2124SOL     OW 7191   0.346   5.253   5.030
 2124SOL    HW1 7192   0.336   5.199   4.947
 2124SOL    HW2 7193   0.441   5.280   5.040
 2125SOL     OW 7194   0.487   4.445   5.347
 2125SOL    HW1 7195   0.537   4.489   5.273
 2125SOL    HW2 7196   0.542   4.371   5.386
 2126SOL     OW 7197   1.627   4.514   5.420
 2126SOL    HW1 7198   1.535   4.553   5.411
 2126SOL    HW2 7199   1.685   4.549   5.347
 2127SOL     OW 7200   0.994   3.862   5.479
 2127SOL    HW1 7201   1.053   3.942   5.468
 2127SOL    HW2 7202   1.046   3.779   5.459
 2128SOL     OW 7203   0.492   3.777   5.492
 2128SOL    HW1 7204   0.440   3.727   5.423
 2128SOL    HW2 7205   0.439   3.856   5.522
 2129SOL     OW 7206   0.602   4.589   4.762
 2129SOL    HW1 7207   0.636   4.683   4.765
 2129SOL    HW2 7208   0.536   4.575   4.835
 2130SOL     OW 7209   1.284   4.597   4.707
 2130SOL    HW1 7210   1.191   4.568   4.687
 2130SOL    HW2 7211   1.346   4.519   4.698
 2131SOL     OW 7212   1.180   4.239   3.986
 2131SOL    HW1 7213   1.203   4.161   4.043
 2131SOL    HW2 7214   1.137   4.310   4.041
 2132SOL     OW 7215   0.308   3.895   4.962
 2132SOL    HW1 7216   0.267   3.925   5.049
 2132SOL    HW2 7217   0.289   3.798   4.949
 2133SOL     OW 7218   0.102   5.007   4.982
 2133SOL    HW1 7219   0.114   4.940   5.055
 2133SOL    HW2 7220   0.086   5.097   5.021
 2134SOL     OW 7221   0.721   4.338   4.767
 2134SOL    HW1 7222   0.794   4.319   4.702
 2134SOL    HW2 7223   0.688   4.432   4.754
 2135SOL     OW 7224   1.748   4.698   5.591
 2135SOL    HW1 7225   1.709   4.623   5.539
 2135SOL    HW2 7226   1.686   4.723   5.666
 2136SOL     OW 7227   0.320   3.790   4.356
 2136SOL    HW1 7228   0.284   3.881   4.375
 2136SOL    HW2 7229   0.333   3.740   4.441
 2137SOL     OW 7230   1.619   4.101   4.106
 2137SOL    HW1 7231   1.644   4.012   4.144
 2137SOL    HW2 7232   1.619   4.170   4.179
 2138SOL     OW 7233   1.022   4.481   4.668
 2138SOL    HW1 7234   1.002   4.500   4.764
 2138SOL    HW2 7235   0.995   4.387   4.646
 2139SOL     OW 7236   0.982   5.287   5.484
 2139SOL    HW1 7237   0.949   5.343   5.408
 2139SOL    HW2 7238   1.022   5.202   5.448
 2140SOL     OW 7239   1.840   5.218   5.329
 2140SOL    HW1 7240   1.861   5.247   5.236
 2140SOL    HW2 7241   1.921   5.226   5.386
 2141SOL     OW 7242   0.388   4.625   5.533
 2141SOL    HW1 7243   0.458   4.656   5.598
 2141SOL    HW2 7244   0.428   4.558   5.471
 2142SOL     OW 7245   1.518   3.979   3.872
 2142SOL    HW1 7246   1.464   3.900   3.901
 2142SOL    HW2 7247   1.552   4.027   3.953
 2143SOL     OW 7248   1.268   4.553   3.742
 2143SOL    HW1 7249   1.308   4.462   3.755
 2143SOL    HW2 7250   1.301   4.591   3.655
 2144SOL     OW 7251   1.071   5.079   4.590
 2144SOL    HW1 7252   1.089   4.998   4.534
 2144SOL    HW2 7253   1.124   5.156   4.554
 2145SOL     OW 7254   0.332   4.527   4.647
 2145SOL    HW1 7255   0.430   4.540   4.637
 2145SOL    HW2 7256   0.314   4.439   4.691
 2146SOL     OW 7257   0.299   4.247   4.732
 2146SOL    HW1 7258   0.257   4.157   4.728
 2146SOL    HW2 7259   0.383   4.247   4.678
 2147SOL     OW 7260   1.135   4.091   5.422
 2147SOL    HW1 7261   1.087   4.141   5.493
 2147SOL    HW2 7262   1.224   4.134   5.405
 2148SOL     OW 7263   1.156   3.916   5.208
 2148SOL    HW1 7264   1.141   3.977   5.286
 2148SOL    HW2 7265   1.201   3.967   5.134
 2149SOL     OW 7266   0.014   5.053   3.984
 2149SOL    HW1 7267   6.945   5.083   4.050
 2149SOL    HW2 7268   0.018   4.953   3.983
 2150SOL     OW 7269   0.114   5.460   4.684
 2150SOL    HW1 7270   0.089   5.384   4.624
 2150SOL    HW2 7271   0.199   5.502   4.650
 2151SOL     OW 7272   0.494   5.290   4.626
 2151SOL    HW1 7273   0.564   5.355   4.654
 2151SOL    HW2 7274   0.533   5.223   4.562
 2152SOL     OW 7275   0.936   4.517   4.923
 2152SOL    HW1 7276   0.993   4.493   5.001
 2152SOL    HW2 7277   0.850   4.465   4.927
 2153SOL     OW 7278   0.065   4.372   4.836
 2153SOL    HW1 7279   0.145   4.329   4.793
 2153SOL    HW2 7280   0.060   4.344   4.932
 2154SOL     OW 7281   0.223   4.251   5.456
 2154SOL    HW1 7282   0.295   4.185   5.435
 2154SOL    HW2 7283   0.226   4.325   5.389
 2155SOL     OW 7284   1.393   4.648   5.365
 2155SOL    HW1 7285   1.412   4.746   5.366
 2155SOL    HW2 7286   1.382   4.617   5.271
 2156SOL     OW 7287   0.801   4.292   4.084
 2156SOL    HW1 7288   0.814   4.210   4.028
 2156SOL    HW2 7289   0.721   4.342   4.052
 2157SOL     OW 7290   1.609   4.338   4.886
 2157SOL    HW1 7291   1.574   4.281   4.960
 2157SOL    HW2 7292   1.704   4.314   4.867
 2158SOL     OW 7293   0.270   5.299   5.468
 2158SOL    HW1 7294   0.218   5.364   5.523
 2158SOL    HW2 7295   0.259   5.207   5.506
 2159SOL     OW 7296   0.737   4.146   4.962
 2159SOL    HW1 7297   0.674   4.068   4.951
 2159SOL    HW2 7298   0.718   4.214   4.891
 2160SOL     OW 7299   0.870   5.427   5.255
 2160SOL    HW1 7300   0.837   5.361   5.187
 2160SOL    HW2 7301   0.895   5.513   5.209
 2161SOL     OW 7302   0.422   4.189   3.918
 2161SOL    HW1 7303   0.478   4.271   3.928
 2161SOL    HW2 7304   0.336   4.201   3.968
 2162SOL     OW 7305   0.165   4.841   5.205
 2162SOL    HW1 7306   0.162   4.784   5.287
 2162SOL    HW2 7307   0.183   4.783   5.125
 2163SOL     OW 7308   1.278   4.761   4.927
 2163SOL    HW1 7309   1.287   4.696   4.851
 2163SOL    HW2 7310   1.232   4.844   4.894
 2164SOL     OW 7311   1.314   4.591   4.013
 2164SOL    HW1 7312   1.241   4.556   4.072
 2164SOL    HW2 7313   1.288   4.577   3.917
 2165SOL     OW 7314   1.768   5.435   4.885
 2165SOL    HW1 7315   1.838   5.465   4.820
 2165SOL    HW2 7316   1.738   5.343   4.862
 2166SOL     OW 7317   1.253   5.467   4.811
 2166SOL    HW1 7318   1.343   5.504   4.788
 2166SOL    HW2 7319   1.263   5.370   4.836
 2167SOL     OW 7320   0.098   4.959   4.720
 2167SOL    HW1 7321   0.100   4.972   4.819
 2167SOL    HW2 7322   0.003   4.959   4.688
 2168SOL     OW 7323   0.690   5.431   5.464
 2168SOL    HW1 7324   0.620   5.503   5.458
 2168SOL    HW2 7325   0.757   5.444   5.391
 2169SOL     OW 7326   1.689   3.853   4.189
 2169SOL    HW1 7327   1.765   3.856   4.124
 2169SOL    HW2 7328   1.692   3.767   4.240
 2170SOL     OW 7329   1.400   5.301   4.223
 2170SOL    HW1 7330   1.460   5.334   4.151
 2170SOL    HW2 7331   1.337   5.374   4.251
 2171SOL     OW 7332   0.129   5.508   5.612
 2171SOL    HW1 7333   0.085   5.429   5.655
 2171SOL    HW2 7334   0.183   5.557   5.681
 2172SOL     OW 7335   1.289   4.656   4.371
 2172SOL    HW1 7336   1.364   4.592   4.389
 2172SOL    HW2 7337   1.325   4.737   4.325
 2173SOL     OW 7338   0.775   5.009   5.147
 2173SOL    HW1 7339   0.750   5.061   5.229
 2173SOL    HW2 7340   0.701   5.016   5.080
 2174SOL     OW 7341   0.684   5.368   3.871
 2174SOL    HW1 7342   0.699   5.390   3.775
 2174SOL    HW2 7343   0.633   5.283   3.878
 2175SOL     OW 7344   1.611   5.457   5.124
 2175SOL    HW1 7345   1.666   5.449   5.041
 2175SOL    HW2 7346   1.596   5.553   5.146
 2176SOL     OW 7347   1.817   3.892   4.716
 2176SOL    HW1 7348   1.852   3.810   4.670
 2176SOL    HW2 7349   1.731   3.920   4.675
 2177SOL     OW 7350   0.252   4.041   4.450
 2177SOL    HW1 7351   0.251   4.141   4.441
 2177SOL    HW2 7352   0.241   4.016   4.547
 2178SOL     OW 7353   1.218   5.307   3.768
 2178SOL    HW1 7354   1.208   5.215   3.806
 2178SOL    HW2 7355   1.142   5.325   3.705
 2179SOL     OW 7356   0.821   4.741   5.108
 2179SOL    HW1 7357   0.864   4.728   5.019
 2179SOL    HW2 7358   0.806   4.839   5.125
 2180SOL     OW 7359   0.912   4.630   4.017
 2180SOL    HW1 7360   0.964   4.665   3.939
 2180SOL    HW2 7361   0.964   4.559   4.063
 2181SOL     OW 7362   1.485   5.380   3.782
 2181SOL    HW1 7363   1.389   5.355   3.768
 2181SOL    HW2 7364   1.530   5.388   3.693
 2182SOL     OW 7365   0.371   5.035   5.220
 2182SOL    HW1 7366   0.360   5.110   5.155
 2182SOL    HW2 7367   0.301   4.966   5.202
 2183SOL     OW 7368   1.597   5.020   5.018
 2183SOL    HW1 7369   1.655   4.991   5.095
 2183SOL    HW2 7370   1.533   5.090   5.049
 2184SOL     OW 7371   1.094   4.837   4.471
 2184SOL    HW1 7372   1.011   4.790   4.501
 2184SOL    HW2 7373   1.157   4.770   4.430
 2185SOL     OW 7374   1.027   3.965   4.675
 2185SOL    HW1 7375   1.025   3.925   4.583
 2185SOL    HW2 7376   1.025   3.891   4.743
 2186SOL     OW 7377   0.607   5.217   4.213
 2186SOL    HW1 7378   0.650   5.164   4.140
 2186SOL    HW2 7379   0.508   5.206   4.208
 2187SOL     OW 7380   1.760   4.092   5.148
 2187SOL    HW1 7381   1.822   4.170   5.135
 2187SOL    HW2 7382   1.783   4.020   5.081
 2188SOL     OW 7383   0.284   5.075   4.013
 2188SOL    HW1 7384   0.184   5.073   4.007
 2188SOL    HW2 7385   0.312   5.121   4.098
 2189SOL     OW 7386   0.142   4.686   5.437
 2189SOL    HW1 7387   0.088   4.743   5.499
 2189SOL    HW2 7388   0.232   4.668   5.478
 2190SOL     OW 7389   0.693   3.915   5.225
 2190SOL    HW1 7390   0.779   3.887   5.181
 2190SOL    HW2 7391   0.712   3.950   5.316
 2191SOL     OW 7392   0.074   4.003   3.722
 2191SOL    HW1 7393   0.010   3.938   3.762
 2191SOL    HW2 7394   0.025   4.082   3.686
 2192SOL     OW 7395   1.400   4.579   5.101
 2192SOL    HW1 7396   1.342   4.639   5.045
 2192SOL    HW2 7397   1.494   4.584   5.067
 2193SOL     OW 7398   0.063   3.938   4.033
 2193SOL    HW1 7399   0.000   3.899   3.967
 2193SOL    HW2 7400   0.151   3.891   4.028
 2194SOL     OW 7401   1.172   5.050   3.861
 2194SOL    HW1 7402   1.073   5.036   3.850
 2194SOL    HW2 7403   1.194   5.051   3.959
 2195SOL     OW 7404   0.648   4.533   5.144
 2195SOL    HW1 7405   0.702   4.617   5.135
 2195SOL    HW2 7406   0.709   4.455   5.154
 2196SOL     OW 7407   1.509   5.551   4.753
 2196SOL    HW1 7408   1.535   5.617   4.683
 2196SOL    HW2 7409   1.590   5.507   4.790
 2197SOL     OW 7410   0.704   4.273   5.430
 2197SOL    HW1 7411   0.763   4.333   5.484
 2197SOL    HW2 7412   0.721   4.178   5.456
 2198SOL     OW 7413   1.468   4.913   5.348
 2198SOL    HW1 7414   1.455   4.934   5.445
 2198SOL    HW2 7415   1.561   4.934   5.321
 2199SOL     OW 7416   0.350   5.500   5.300
 2199SOL    HW1 7417   0.261   5.544   5.290
 2199SOL    HW2 7418   0.338   5.412   5.347
 2200SOL     OW 7419   1.648   4.600   4.981
 2200SOL    HW1 7420   1.642   4.512   4.933
 2200SOL    HW2 7421   1.634   4.675   4.916
 2201SOL     OW 7422   1.227   4.044   4.182
 2201SOL    HW1 7423   1.292   3.967   4.179
 2201SOL    HW2 7424   1.246   4.101   4.262
 2202SOL     OW 7425   0.567   4.453   4.412
 2202SOL    HW1 7426   0.616   4.540   4.401
 2202SOL    HW2 7427   0.507   4.438   4.334
 2203SOL     OW 7428   1.726   4.061   5.416
 2203SOL    HW1 7429   1.738   4.076   5.318
 2203SOL    HW2 7430   1.644   4.005   5.431
 2204SOL     OW 7431   1.765   4.647   5.226
 2204SOL    HW1 7432   1.750   4.743   5.248
 2204SOL    HW2 7433   1.732   4.628   5.134
 2205SOL     OW 7434   0.886   5.075   3.807
 2205SOL    HW1 7435   0.837   5.085   3.894
 2205SOL    HW2 7436   0.891   5.164   3.762
 2206SOL     OW 7437   0.679   5.483   4.663
 2206SOL    HW1 7438   0.655   5.579   4.653
 2206SOL    HW2 7439   0.778   5.472   4.653
 2207SOL     OW 7440   0.874   4.708   4.586
 2207SOL    HW1 7441   0.921   4.625   4.615
 2207SOL    HW2 7442   0.825   4.747   4.663
 2208SOL     OW 7443   1.047   4.699   3.797
 2208SOL    HW1 7444   1.027   4.765   3.724
 2208SOL    HW2 7445   1.130   4.649   3.774
 2209SOL     OW 7446   1.815   5.287   4.575
 2209SOL    HW1 7447   1.741   5.279   4.508
 2209SOL    HW2 7448   1.795   5.230   4.654
 2210SOL     OW 7449   0.233   5.044   5.602
 2210SOL    HW1 7450   0.138   5.016   5.591
 2210SOL    HW2 7451   0.255   5.054   5.699
 2211SOL     OW 7452   0.172   5.027   4.430
 2211SOL    HW1 7453   0.199   4.968   4.507
 2211SOL    HW2 7454   0.114   4.975   4.367
 2212SOL     OW 7455   0.691   5.160   5.364
 2212SOL    HW1 7456   0.608   5.116   5.399
 2212SOL    HW2 7457   0.696   5.253   5.400
 2213SOL     OW 7458   1.807   3.882   4.987
 2213SOL    HW1 7459   1.802   3.784   5.002
 2213SOL    HW2 7460   1.813   3.901   4.889
 2214SOL     OW 7461   0.448   4.128   4.248
 2214SOL    HW1 7462   0.495   4.068   4.183
 2214SOL    HW2 7463   0.404   4.072   4.318
 2215SOL     OW 7464   1.690   5.186   4.808
 2215SOL    HW1 7465   1.613   5.167   4.746
 2215SOL    HW2 7466   1.688   5.121   4.884
 2216SOL     OW 7467   0.343   4.261   5.015
 2216SOL    HW1 7468   0.395   4.198   5.073
 2216SOL    HW2 7469   0.351   4.232   4.919
 2217SOL     OW 7470   0.835   5.302   4.401
 2217SOL    HW1 7471   0.796   5.362   4.331
 2217SOL    HW2 7472   0.768   5.232   4.426
 2218SOL     OW 7473   1.414   3.975   4.839
 2218SOL    HW1 7474   1.427   3.877   4.854
 2218SOL    HW2 7475   1.364   4.014   4.916
 2219SOL     OW 7476   1.016   3.737   4.841
 2219SOL    HW1 7477   0.949   3.677   4.797
 2219SOL    HW2 7478   1.107   3.694   4.836
 2220SOL     OW 7479   0.775   5.051   4.062
 2220SOL    HW1 7480   0.752   4.955   4.079
 2220SOL    HW2 7481   0.856   5.075   4.115
 2221SOL     OW 7482   0.617   5.310   5.019
 2221SOL    HW1 7483   0.606   5.402   5.055
 2221SOL    HW2 7484   0.706   5.302   4.973
 2222SOL     OW 7485   1.373   3.752   3.922
 2222SOL    HW1 7486   1.421   3.680   3.871
 2222SOL    HW2 7487   1.277   3.727   3.934
 2223SOL     OW 7488   1.276   4.202   4.402
 2223SOL    HW1 7489   1.227   4.288   4.393
 2223SOL    HW2 7490   1.270   4.170   4.496
 2224SOL     OW 7491   1.572   3.940   4.615
 2224SOL    HW1 7492   1.515   3.973   4.691
 2224SOL    HW2 7493   1.566   4.004   4.539
 2225SOL     OW 7494   0.056   4.780   4.006
 2225SOL    HW1 7495   0.148   4.741   4.003
 2225SOL    HW2 7496   6.989   4.706   4.016
 2226SOL     OW 7497   0.897   5.409   4.052
 2226SOL    HW1 7498   0.820   5.392   3.991
 2226SOL    HW2 7499   0.873   5.481   4.117
 2227SOL     OW 7500   0.154   4.382   5.696
 2227SOL    HW1 7501   0.153   4.320   5.775
 2227SOL    HW2 7502   0.192   4.334   5.617
 2228SOL     OW 7503   0.210   3.995   6.600
 2228SOL    HW1 7504   0.270   3.960   6.673
 2228SOL    HW2 7505   0.116   3.965   6.616
 2229SOL     OW 7506   6.980   4.105   6.239
 2229SOL    HW1 7507   6.929   4.100   6.325
 2229SOL    HW2 7508   0.045   4.030   6.234
 2230SOL     OW 7509   0.555   5.001   6.789
 2230SOL    HW1 7510   0.471   5.019   6.738
 2230SOL    HW2 7511   0.581   5.084   6.839
 2231SOL     OW 7512   1.596   5.236   6.305
 2231SOL    HW1 7513   1.537   5.205   6.380
 2231SOL    HW2 7514   1.539   5.252   6.224
 2232SOL     OW 7515   1.133   4.431   6.260
 2232SOL    HW1 7516   1.182   4.518   6.251
 2232SOL    HW2 7517   1.074   4.433   6.341
 2233SOL     OW 7518   1.798   4.293   5.797
 2233SOL    HW1 7519   1.755   4.299   5.707
 2233SOL    HW2 7520   1.750   4.224   5.852
 2234SOL     OW 7521   0.717   4.852   6.628
 2234SOL    HW1 7522   0.651   4.885   6.696
 2234SOL    HW2 7523   0.755   4.929   6.578
 2235SOL     OW 7524   0.686   4.709   6.242
 2235SOL    HW1 7525   0.757   4.707   6.312
 2235SOL    HW2 7526   0.613   4.771   6.271
 2236SOL     OW 7527   0.352   5.104   6.620
 2236SOL    HW1 7528   0.322   5.024   6.567
 2236SOL    HW2 7529   0.397   5.169   6.560
 2237SOL     OW 7530   1.582   4.163   6.340
 2237SOL    HW1 7531   1.512   4.170   6.269
 2237SOL    HW2 7532   1.563   4.230   6.411
 2238SOL     OW 7533   0.242   5.440   6.054
 2238SOL    HW1 7534   0.257   5.521   6.111
 2238SOL    HW2 7535   0.305   5.441   5.976
 2239SOL     OW 7536   0.332   5.183   6.115
 2239SOL    HW1 7537   0.293   5.275   6.114
 2239SOL    HW2 7538   0.287   5.129   6.187
 2240SOL     OW 7539   0.302   4.815   6.501
 2240SOL    HW1 7540   0.312   4.718   6.522
 2240SOL    HW2 7541   0.207   4.843   6.516
 2241SOL     OW 7542   0.608   5.515   6.988
 2241SOL    HW1 7543   0.511   5.519   0.014
 2241SOL    HW2 7544   0.654   5.599   0.017
 2242SOL     OW 7545   0.571   4.715   5.744
 2242SOL    HW1 7546   0.621   4.763   5.672
 2242SOL    HW2 7547   0.611   4.738   5.833
 2243SOL     OW 7548   0.130   4.327   6.171
 2243SOL    HW1 7549   0.063   4.254   6.191
 2243SOL    HW2 7550   0.115   4.403   6.234
 2244SOL     OW 7551   1.854   5.473   5.908
 2244SOL    HW1 7552   1.932   5.459   5.970
 2244SOL    HW2 7553   1.856   5.566   5.873
 2245SOL     OW 7554   0.002   5.295   5.711
 2245SOL    HW1 7555   0.012   5.209   5.762
 2245SOL    HW2 7556   6.909   5.301   5.675
 2246SOL     OW 7557   1.714   4.656   6.244
 2246SOL    HW1 7558   1.797   4.603   6.227
 2246SOL    HW2 7559   1.691   4.710   6.163
 2247SOL     OW 7560   1.670   4.834   6.025
 2247SOL    HW1 7561   1.754   4.813   5.974
 2247SOL    HW2 7562   1.689   4.904   6.093
 2248SOL     OW 7563   0.615   5.107   6.308
 2248SOL    HW1 7564   0.566   5.020   6.311
 2248SOL    HW2 7565   0.609   5.145   6.215
 2249SOL     OW 7566   0.833   3.742   6.096
 2249SOL    HW1 7567   0.877   3.828   6.069
 2249SOL    HW2 7568   0.734   3.756   6.101
 2250SOL     OW 7569   0.209   4.630   6.816
 2250SOL    HW1 7570   0.306   4.608   6.828
 2250SOL    HW2 7571   0.181   4.603   6.724
 2251SOL     OW 7572   1.544   4.755   5.789
 2251SOL    HW1 7573   1.470   4.692   5.812
 2251SOL    HW2 7574   1.589   4.786   5.873
 2252SOL     OW 7575   1.427   5.146   6.506
 2252SOL    HW1 7576   1.379   5.155   6.593
 2252SOL    HW2 7577   1.427   5.050   6.478
 2253SOL     OW 7578   1.629   5.558   6.132
 2253SOL    HW1 7579   1.619   5.497   6.052
 2253SOL    HW2 7580   1.640   5.502   6.214
 2254SOL     OW 7581   0.568   4.421   5.850
 2254SOL    HW1 7582   0.583   4.512   5.812
 2254SOL    HW2 7583   0.507   4.428   5.929
 2255SOL     OW 7584   1.287   4.120   6.515
 2255SOL    HW1 7585   1.194   4.083   6.513
 2255SOL    HW2 7586   1.345   4.062   6.572
 2256SOL     OW 7587   1.591   5.395   5.908
 2256SOL    HW1 7588   1.689   5.411   5.902
 2256SOL    HW2 7589   1.552   5.385   5.816
 2257SOL     OW 7590   0.773   4.383   0.019
 2257SOL    HW1 7591   0.723   4.412   0.101
 2257SOL    HW2 7592   0.718   4.316   6.969
 2258SOL     OW 7593   1.024   4.178   6.787
 2258SOL    HW1 7594   1.017   4.206   6.882
 2258SOL    HW2 7595   0.935   4.146   6.755
 2259SOL     OW 7596   1.045   4.411   5.997
 2259SOL    HW1 7597   1.072   4.413   6.094
 2259SOL    HW2 7598   0.956   4.367   5.988
 2260SOL     OW 7599   0.094   4.523   6.378
 2260SOL    HW1 7600   0.185   4.537   6.416
 2260SOL    HW2 7601   0.026   4.528   6.450
 2261SOL     OW 7602   0.061   5.612   0.248
 2261SOL    HW1 7603   0.112   5.557   0.314
 2261SOL    HW2 7604   6.989   5.556   0.207
 2262SOL     OW 7605   0.866   4.069   5.789
 2262SOL    HW1 7606   0.924   4.121   5.726
 2262SOL    HW2 7607   0.822   3.994   5.740
 2263SOL     OW 7608   1.403   4.886   6.135
 2263SOL    HW1 7609   1.488   4.871   6.085
 2263SOL    HW2 7610   1.345   4.949   6.083
 2264SOL     OW 7611   0.565   3.869   6.512
 2264SOL    HW1 7612   0.577   3.901   6.606
 2264SOL    HW2 7613   0.569   3.948   6.450
 2265SOL     OW 7614   0.991   5.188   6.049
 2265SOL    HW1 7615   0.970   5.263   5.986
 2265SOL    HW2 7616   0.959   5.212   6.141
 2266SOL     OW 7617   0.368   5.533   6.450
 2266SOL    HW1 7618   0.406   5.442   6.460
 2266SOL    HW2 7619   0.434   5.601   6.484
 2267SOL     OW 7620   1.813   4.779   6.476
 2267SOL    HW1 7621   1.772   4.757   6.387
 2267SOL    HW2 7622   1.742   4.777   6.547
 2268SOL     OW 7623   0.304   4.660   5.837
 2268SOL    HW1 7624   0.393   4.687   5.800
 2268SOL    HW2 7625   0.276   4.572   5.799
 2269SOL     OW 7626   1.493   4.497   6.297
 2269SOL    HW1 7627   1.489   4.448   6.384
 2269SOL    HW2 7628   1.576   4.554   6.294
 2270SOL     OW 7629   1.146   5.495   5.813
 2270SOL    HW1 7630   1.057   5.471   5.851
 2270SOL    HW2 7631   1.172   5.427   5.744
 2271SOL     OW 7632   1.639   5.112   5.685
 2271SOL    HW1 7633   1.608   5.206   5.670
 2271SOL    HW2 7634   1.566   5.049   5.659
 2272SOL     OW 7635   0.467   5.473   5.885
 2272SOL    HW1 7636   0.514   5.516   5.962
 2272SOL    HW2 7637   0.534   5.427   5.826
 2273SOL     OW 7638   1.398   3.820   6.046
 2273SOL    HW1 7639   1.397   3.798   5.948
 2273SOL    HW2 7640   1.487   3.795   6.085
 2274SOL     OW 7641   0.244   5.528   6.758
 2274SOL    HW1 7642   0.290   5.444   6.787
 2274SOL    HW2 7643   0.184   5.508   6.680
 2275SOL     OW 7644   0.965   5.415   6.467
 2275SOL    HW1 7645   1.055   5.372   6.469
 2275SOL    HW2 7646   0.909   5.373   6.396
 2276SOL     OW 7647   0.393   4.390   6.063
 2276SOL    HW1 7648   0.420   4.294   6.077
 2276SOL    HW2 7649   0.298   4.402   6.089
 2277SOL     OW 7650   0.673   3.829   5.692
 2277SOL    HW1 7651   0.732   3.751   5.713
 2277SOL    HW2 7652   0.604   3.801   5.626
 2278SOL     OW 7653   0.868   5.198   6.754
 2278SOL    HW1 7654   0.825   5.178   6.666
 2278SOL    HW2 7655   0.945   5.135   6.768
 2279SOL     OW 7656   0.800   5.086   6.508
 2279SOL    HW1 7657   0.893   5.089   6.472
 2279SOL    HW2 7658   0.735   5.098   6.433
 2280SOL     OW 7659   0.933   4.239   6.471
 2280SOL    HW1 7660   0.904   4.229   6.376
 2280SOL    HW2 7661   0.975   4.154   6.502
 2281SOL     OW 7662   0.562   3.781   6.082
 2281SOL    HW1 7663   0.479   3.781   6.137
 2281SOL    HW2 7664   0.559   3.856   6.016
 2282SOL     OW 7665   1.428   4.942   5.622
 2282SOL    HW1 7666   1.467   4.868   5.677
 2282SOL    HW2 7667   1.340   4.969   5.661
 2283SOL     OW 7668   0.280   3.789   5.792
 2283SOL    HW1 7669   0.318   3.859   5.731
 2283SOL    HW2 7670   0.354   3.728   5.823
 2284SOL     OW 7671   0.960   3.978   6.033
 2284SOL    HW1 7672   0.927   4.012   5.944
 2284SOL    HW2 7673   1.059   3.993   6.039
 2285SOL     OW 7674   1.215   5.305   6.390
 2285SOL    HW1 7675   1.235   5.376   6.323
 2285SOL    HW2 7676   1.301   5.268   6.426
 2286SOL     OW 7677   0.472   4.876   6.294
 2286SOL    HW1 7678   0.411   4.855   6.370
 2286SOL    HW2 7679   0.423   4.866   6.208
 2287SOL     OW 7680   1.250   5.514   6.205
 2287SOL    HW1 7681   1.300   5.577   6.147
 2287SOL    HW2 7682   1.170   5.561   6.244
 2288SOL     OW 7683   1.023   4.230   5.629
 2288SOL    HW1 7684   0.983   4.318   5.602
 2288SOL    HW2 7685   1.093   4.246   5.699
 2289SOL     OW 7686   0.592   3.937   6.779
 2289SOL    HW1 7687   0.645   3.865   6.825
 2289SOL    HW2 7688   0.495   3.926   6.802
 2290SOL     OW 7689   0.869   4.184   6.208
 2290SOL    HW1 7690   0.822   4.239   6.140
 2290SOL    HW2 7691   0.905   4.101   6.165
 2291SOL     OW 7692   1.021   3.768   6.307
 2291SOL    HW1 7693   0.956   3.765   6.231
 2291SOL    HW2 7694   0.999   3.696   6.373
 2292SOL     OW 7695   1.422   4.874   6.432
 2292SOL    HW1 7696   1.355   4.802   6.452
 2292SOL    HW2 7697   1.432   4.883   6.333
 2293SOL     OW 7698   1.463   4.350   6.534
 2293SOL    HW1 7699   1.396   4.277   6.544
 2293SOL    HW2 7700   1.528   4.348   6.610
 2294SOL     OW 7701   1.814   4.505   5.968
 2294SOL    HW1 7702   1.876   4.469   6.037
 2294SOL    HW2 7703   1.805   4.439   5.893
 2295SOL     OW 7704   0.519   5.151   5.725
 2295SOL    HW1 7705   0.442   5.120   5.780
 2295SOL    HW2 7706   0.512   5.111   5.633
 2296SOL     OW 7707   1.734   5.005   6.217
 2296SOL    HW1 7708   1.829   4.997   6.246
 2296SOL    HW2 7709   1.696   5.092   6.250
 2297SOL     OW 7710   1.388   4.305   5.645
 2297SOL    HW1 7711   1.338   4.273   5.726
 2297SOL    HW2 7712   1.486   4.289   5.659
 2298SOL     OW 7713   0.550   3.975   5.894
 2298SOL    HW1 7714   0.600   3.924   5.823
 2298SOL    HW2 7715   0.507   4.055   5.852
 2299SOL     OW 7716   1.766   4.890   0.178
 2299SOL    HW1 7717   1.858   4.880   0.140
 2299SOL    HW2 7718   1.731   4.981   0.157
 2300SOL     OW 7719   1.078   5.014   6.706
 2300SOL    HW1 7720   1.064   4.916   6.720
 2300SOL    HW2 7721   1.069   5.035   6.609
 2301SOL     OW 7722   1.601   4.802   6.649
 2301SOL    HW1 7723   1.600   4.879   6.712
 2301SOL    HW2 7724   1.536   4.818   6.575
 2302SOL     OW 7725   0.716   4.779   5.974
 2302SOL    HW1 7726   0.699   4.755   6.069
 2302SOL    HW2 7727   0.794   4.727   5.940
 2303SOL     OW 7728   0.466   4.543   6.870
 2303SOL    HW1 7729   0.516   4.588   6.944
 2303SOL    HW2 7730   0.430   4.455   6.902
 2304SOL     OW 7731   1.285   4.124   6.835
 2304SOL    HW1 7732   1.316   4.188   6.906
 2304SOL    HW2 7733   1.195   4.152   6.802
 2305SOL     OW 7734   0.089   5.239   6.891
 2305SOL    HW1 7735   0.058   5.274   6.979
 2305SOL    HW2 7736   0.181   5.273   6.872
 2306SOL     OW 7737   0.345   4.848   6.049
 2306SOL    HW1 7738   0.333   4.926   5.988
 2306SOL    HW2 7739   0.333   4.763   5.998
 2307SOL     OW 7740   0.514   4.273   6.464
 2307SOL    HW1 7741   0.528   4.334   6.386
 2307SOL    HW2 7742   0.592   4.280   6.526
 2308SOL     OW 7743   1.246   5.088   5.996
 2308SOL    HW1 7744   1.310   5.159   6.028
 2308SOL    HW2 7745   1.153   5.113   6.021
 2309SOL     OW 7746   1.303   5.163   6.750
 2309SOL    HW1 7747   1.358   5.122   6.823
 2309SOL    HW2 7748   1.217   5.113   6.742
 2310SOL     OW 7749   1.587   4.353   6.071
 2310SOL    HW1 7750   1.535   4.396   6.145
 2310SOL    HW2 7751   1.652   4.420   6.033
 2311SOL     OW 7752   0.352   5.287   6.822
 2311SOL    HW1 7753   0.339   5.218   6.751
 2311SOL    HW2 7754   0.446   5.283   6.856
 2312SOL     OW 7755   0.601   4.588   6.635
 2312SOL    HW1 7756   0.639   4.680   6.628
 2312SOL    HW2 7757   0.555   4.577   6.722
 2313SOL     OW 7758   1.290   4.589   6.573
 2313SOL    HW1 7759   1.195   4.557   6.570
 2313SOL    HW2 7760   1.352   4.512   6.557
 2314SOL     OW 7761   1.201   4.243   5.846
 2314SOL    HW1 7762   1.220   4.163   5.903
 2314SOL    HW2 7763   1.152   4.311   5.900
 2315SOL     OW 7764   0.331   3.902   6.835
 2315SOL    HW1 7765   0.294   3.922   6.926
 2315SOL    HW2 7766   0.300   3.811   6.806
 2316SOL     OW 7767   0.067   4.987   6.787
 2316SOL    HW1 7768   0.089   4.922   6.859
 2316SOL    HW2 7769   0.078   5.080   6.821
 2317SOL     OW 7770   0.722   4.331   6.633
 2317SOL    HW1 7771   0.800   4.310   6.573
 2317SOL    HW2 7772   0.699   4.428   6.626
 2318SOL     OW 7773   0.319   3.791   6.214
 2318SOL    HW1 7774   0.288   3.883   6.237
 2318SOL    HW2 7775   0.333   3.738   6.297
 2319SOL     OW 7776   1.626   4.120   5.931
 2319SOL    HW1 7777   1.670   4.052   5.990
 2319SOL    HW2 7778   1.598   4.199   5.986
 2320SOL     OW 7779   1.018   4.488   6.578
 2320SOL    HW1 7780   0.992   4.503   6.673
 2320SOL    HW2 7781   0.999   4.393   6.553
 2321SOL     OW 7782   1.958   5.202   0.195
 2321SOL    HW1 7783   1.950   5.221   0.097
 2321SOL    HW2 7784   1.870   5.218   0.240
 2322SOL     OW 7785   1.518   3.987   5.710
 2322SOL    HW1 7786   1.468   3.908   5.747
 2322SOL    HW2 7787   1.557   4.039   5.786
 2323SOL     OW 7788   1.277   4.547   5.592
 2323SOL    HW1 7789   1.315   4.456   5.606
 2323SOL    HW2 7790   1.315   4.587   5.509
 2324SOL     OW 7791   1.062   5.080   6.440
 2324SOL    HW1 7792   1.082   4.996   6.389
 2324SOL    HW2 7793   1.120   5.154   6.405
 2325SOL     OW 7794   0.329   4.536   6.542
 2325SOL    HW1 7795   0.427   4.551   6.545
 2325SOL    HW2 7796   0.309   4.441   6.568
 2326SOL     OW 7797   0.294   4.252   6.614
 2326SOL    HW1 7798   0.260   4.158   6.609
 2326SOL    HW2 7799   0.376   4.261   6.557
 2327SOL     OW 7800   1.199   3.964   0.044
 2327SOL    HW1 7801   1.277   3.978   0.105
 2327SOL    HW2 7802   1.216   4.011   6.958
 2328SOL     OW 7803   0.015   5.051   5.844
 2328SOL    HW1 7804   6.945   5.080   5.910
 2328SOL    HW2 7805   0.018   4.951   5.842
 2329SOL     OW 7806   0.110   5.469   6.522
 2329SOL    HW1 7807   0.083   5.391   6.466
 2329SOL    HW2 7808   0.199   5.504   6.492
 2330SOL     OW 7809   0.496   5.290   6.474
 2330SOL    HW1 7810   0.569   5.350   6.508
 2330SOL    HW2 7811   0.535   5.224   6.410
 2331SOL     OW 7812   0.926   4.545   6.845
 2331SOL    HW1 7813   0.986   4.595   6.907
 2331SOL    HW2 7814   0.873   4.477   6.896
 2332SOL     OW 7815   0.026   4.322   6.685
 2332SOL    HW1 7816   0.118   4.293   6.657
 2332SOL    HW2 7817   6.970   4.241   6.703
 2333SOL     OW 7818   0.800   4.290   5.950
 2333SOL    HW1 7819   0.815   4.209   5.894
 2333SOL    HW2 7820   0.721   4.340   5.916
 2334SOL     OW 7821   1.659   4.337   6.731
 2334SOL    HW1 7822   1.640   4.264   6.797
 2334SOL    HW2 7823   1.757   4.341   6.714
 2335SOL     OW 7824   0.635   4.200   6.856
 2335SOL    HW1 7825   0.622   4.104   6.830
 2335SOL    HW2 7826   0.665   4.252   6.776
 2336SOL     OW 7827   0.972   5.367   6.945
 2336SOL    HW1 7828   0.934   5.315   6.869
 2336SOL    HW2 7829   0.964   5.465   6.926
 2337SOL     OW 7830   0.422   4.188   5.780
 2337SOL    HW1 7831   0.479   4.270   5.789
 2337SOL    HW2 7832   0.337   4.201   5.830
 2338SOL     OW 7833   0.135   4.819   6.995
 2338SOL    HW1 7834   0.113   4.780   0.084
 2338SOL    HW2 7835   0.159   4.745   6.932
 2339SOL     OW 7836   1.304   4.685   6.834
 2339SOL    HW1 7837   1.309   4.664   6.736
 2339SOL    HW2 7838   1.349   4.772   6.851
 2340SOL     OW 7839   1.330   4.602   5.859
 2340SOL    HW1 7840   1.266   4.560   5.923
 2340SOL    HW2 7841   1.301   4.581   5.765
 2341SOL     OW 7842   1.786   5.448   6.773
 2341SOL    HW1 7843   1.845   5.466   6.694
 2341SOL    HW2 7844   1.722   5.374   6.750
 2342SOL     OW 7845   1.272   5.446   6.727
 2342SOL    HW1 7846   1.351   5.478   6.676
 2342SOL    HW2 7847   1.279   5.347   6.740
 2343SOL     OW 7848   0.053   4.924   6.526
 2343SOL    HW1 7849   0.060   4.952   6.622
 2343SOL    HW2 7850   6.957   4.908   6.504
 2344SOL     OW 7851   1.771   3.927   6.066
 2344SOL    HW1 7852   1.825   3.907   5.984
 2344SOL    HW2 7853   1.726   3.844   6.098
 2345SOL     OW 7854   1.411   5.298   6.097
 2345SOL    HW1 7855   1.469   5.329   6.022
 2345SOL    HW2 7856   1.348   5.371   6.123
 2346SOL     OW 7857   1.284   4.659   6.233
 2346SOL    HW1 7858   1.359   4.597   6.255
 2346SOL    HW2 7859   1.320   4.738   6.183
 2347SOL     OW 7860   0.683   5.366   5.731
 2347SOL    HW1 7861   0.698   5.388   5.635
 2347SOL    HW2 7862   0.632   5.281   5.738
 2348SOL     OW 7863   1.845   3.878   6.576
 2348SOL    HW1 7864   1.880   3.787   6.553
 2348SOL    HW2 7865   1.758   3.893   6.531
 2349SOL     OW 7866   0.261   4.038   6.320
 2349SOL    HW1 7867   0.241   4.135   6.305
 2349SOL    HW2 7868   0.249   4.016   6.417
 2350SOL     OW 7869   1.222   5.305   5.630
 2350SOL    HW1 7870   1.214   5.212   5.666
 2350SOL    HW2 7871   1.146   5.323   5.568
 2351SOL     OW 7872   0.721   4.720   6.943
 2351SOL    HW1 7873   0.791   4.665   6.898
 2351SOL    HW2 7874   0.730   4.815   6.916
 2352SOL     OW 7875   0.922   4.634   5.884
 2352SOL    HW1 7876   0.972   4.662   5.802
 2352SOL    HW2 7877   0.971   4.558   5.927
 2353SOL     OW 7878   1.491   5.378   5.646
 2353SOL    HW1 7879   1.395   5.351   5.633
 2353SOL    HW2 7880   1.536   5.383   5.557
 2354SOL     OW 7881   1.601   5.011   6.829
 2354SOL    HW1 7882   1.696   5.008   6.861
 2354SOL    HW2 7883   1.541   4.979   6.901
 2355SOL     OW 7884   1.092   4.831   6.338
 2355SOL    HW1 7885   1.010   4.783   6.369
 2355SOL    HW2 7886   1.154   4.767   6.294
 2356SOL     OW 7887   1.047   3.973   6.509
 2356SOL    HW1 7888   1.041   3.923   6.422
 2356SOL    HW2 7889   1.045   3.909   6.585
 2357SOL     OW 7890   0.610   5.219   6.065
 2357SOL    HW1 7891   0.653   5.165   5.992
 2357SOL    HW2 7892   0.510   5.211   6.057
 2358SOL     OW 7893   1.659   4.136   6.917
 2358SOL    HW1 7894   1.692   4.166   0.006
 2358SOL    HW2 7895   1.678   4.038   6.906
 2359SOL     OW 7896   0.284   5.075   5.874
 2359SOL    HW1 7897   0.184   5.072   5.868
 2359SOL    HW2 7898   0.311   5.121   5.959
 2360SOL     OW 7899   0.713   3.888   0.067
 2360SOL    HW1 7900   0.807   3.859   0.083
 2360SOL    HW2 7901   0.710   3.987   0.053
 2361SOL     OW 7902   0.074   4.003   5.587
 2361SOL    HW1 7903   0.009   3.938   5.627
 2361SOL    HW2 7904   0.023   4.082   5.550
 2362SOL     OW 7905   0.063   3.939   5.900
 2362SOL    HW1 7906   7.000   3.899   5.833
 2362SOL    HW2 7907   0.151   3.892   5.894
 2363SOL     OW 7908   1.182   5.046   5.720
 2363SOL    HW1 7909   1.083   5.031   5.708
 2363SOL    HW2 7910   1.204   5.048   5.817
 2364SOL     OW 7911   1.499   5.533   6.601
 2364SOL    HW1 7912   1.528   5.611   6.545
 2364SOL    HW2 7913   1.578   5.475   6.622
 2365SOL     OW 7914   1.472   5.042   0.274
 2365SOL    HW1 7915   1.391   5.067   0.328
 2365SOL    HW2 7916   1.469   4.944   0.254
 2366SOL     OW 7917   0.368   5.551   0.112
 2366SOL    HW1 7918   0.316   5.636   0.103
 2366SOL    HW2 7919   0.398   5.541   0.207
 2367SOL     OW 7920   1.721   4.597   6.828
 2367SOL    HW1 7921   1.692   4.507   6.797
 2367SOL    HW2 7922   1.680   4.668   6.771
 2368SOL     OW 7923   1.231   4.042   6.043
 2368SOL    HW1 7924   1.291   3.962   6.042
 2368SOL    HW2 7925   1.257   4.102   6.119
 2369SOL     OW 7926   0.561   4.460   6.271
 2369SOL    HW1 7927   0.612   4.545   6.258
 2369SOL    HW2 7928   0.504   4.443   6.190
 2370SOL     OW 7929   1.770   4.600   0.108
 2370SOL    HW1 7930   1.761   4.696   0.136
 2370SOL    HW2 7931   1.756   4.593   0.009
 2371SOL     OW 7932   0.892   5.073   5.668
 2371SOL    HW1 7933   0.844   5.083   5.755
 2371SOL    HW2 7934   0.897   5.162   5.622
 2372SOL     OW 7935   0.685   5.477   6.531
 2372SOL    HW1 7936   0.658   5.572   6.518
 2372SOL    HW2 7937   0.785   5.469   6.525
 2373SOL     OW 7938   0.876   4.699   6.454
 2373SOL    HW1 7939   0.923   4.621   6.495
 2373SOL    HW2 7940   0.820   4.745   6.523
 2374SOL     OW 7941   1.050   4.686   5.653
 2374SOL    HW1 7942   1.030   4.755   5.584
 2374SOL    HW2 7943   1.135   4.638   5.629
 2375SOL     OW 7944   1.843   5.266   6.451
 2375SOL    HW1 7945   1.760   5.256   6.396
 2375SOL    HW2 7946   1.865   5.177   6.493
 2376SOL     OW 7947   0.163   5.026   6.291
 2376SOL    HW1 7948   0.141   4.987   6.380
 2376SOL    HW2 7949   0.118   4.973   6.219
 2377SOL     OW 7950   1.787   3.876   6.848
 2377SOL    HW1 7951   1.775   3.777   6.858
 2377SOL    HW2 7952   1.805   3.898   6.752
 2378SOL     OW 7953   0.445   4.130   6.110
 2378SOL    HW1 7954   0.493   4.067   6.048
 2378SOL    HW2 7955   0.406   4.078   6.186
 2379SOL     OW 7956   1.613   5.254   6.698
 2379SOL    HW1 7957   1.558   5.237   6.615
 2379SOL    HW2 7958   1.617   5.171   6.753
 2380SOL     OW 7959   0.342   4.280   6.890
 2380SOL    HW1 7960   0.427   4.233   6.914
 2380SOL    HW2 7961   0.330   4.278   6.791
 2381SOL     OW 7962   0.831   5.327   6.248
 2381SOL    HW1 7963   0.818   5.407   6.189
 2381SOL    HW2 7964   0.751   5.267   6.240
 2382SOL     OW 7965   1.427   3.953   6.684
 2382SOL    HW1 7966   1.413   3.858   6.712
 2382SOL    HW2 7967   1.386   4.014   6.751
 2383SOL     OW 7968   1.043   3.734   6.669
 2383SOL    HW1 7969   1.000   3.671   6.605
 2383SOL    HW2 7970   1.127   3.693   6.704
 2384SOL     OW 7971   0.780   5.049   5.921
 2384SOL    HW1 7972   0.756   4.953   5.938
 2384SOL    HW2 7973   0.860   5.074   5.975
 2385SOL     OW 7974   0.626   5.265   6.874
 2385SOL    HW1 7975   0.628   5.361   6.904
 2385SOL    HW2 7976   0.714   5.242   6.832
 2386SOL     OW 7977   1.387   3.753   5.780
 2386SOL    HW1 7978   1.435   3.681   5.730
 2386SOL    HW2 7979   1.291   3.727   5.792
 2387SOL     OW 7980   1.298   4.204   6.254
 2387SOL    HW1 7981   1.244   4.287   6.247
 2387SOL    HW2 7982   1.295   4.169   6.348
 2388SOL     OW 7983   1.596   3.915   6.476
 2388SOL    HW1 7984   1.536   3.937   6.553
 2388SOL    HW2 7985   1.594   3.990   6.410
 2389SOL     OW 7986   0.055   4.776   5.864
 2389SOL    HW1 7987   0.147   4.737   5.862
 2389SOL    HW2 7988   6.987   4.703   5.874
 2390SOL     OW 7989   0.898   5.409   5.907
 2390SOL    HW1 7990   0.820   5.390   5.847
 2390SOL    HW2 7991   0.871   5.479   5.973
 2391SOL     OW 7992   0.247   6.261   0.169
 2391SOL    HW1 7993   0.192   6.200   0.226
 2391SOL    HW2 7994   0.221   6.250   0.073
 2392SOL     OW 7995   0.214   5.854   1.011
 2392SOL    HW1 7996   0.265   5.816   1.088
 2392SOL    HW2 7997   0.117   5.832   1.023
 2393SOL     OW 7998   0.020   5.972   0.661
 2393SOL    HW1 7999   6.960   5.942   0.735
 2393SOL    HW2 8000   0.020   5.904   0.588
 2394SOL     OW 8001   0.574   6.876   1.221
 2394SOL    HW1 8002   0.517   6.911   1.146
 2394SOL    HW2 8003   0.520   6.869   1.304
 2395SOL     OW 8004   1.621   0.064   0.672
 2395SOL    HW1 8005   1.642   0.118   0.754
 2395SOL    HW2 8006   1.523   0.068   0.653
 2396SOL     OW 8007   1.134   6.308   0.688
 2396SOL    HW1 8008   1.182   6.395   0.676
 2396SOL    HW2 8009   1.082   6.309   0.774
 2397SOL     OW 8010   1.786   6.110   0.133
 2397SOL    HW1 8011   1.757   6.204   0.116
 2397SOL    HW2 8012   1.735   6.073   0.210
 2398SOL     OW 8013   0.669   6.702   1.012
 2398SOL    HW1 8014   0.648   6.758   1.092
 2398SOL    HW2 8015   0.626   6.743   0.931
 2399SOL     OW 8016   0.886   6.324   1.848
 2399SOL    HW1 8017   0.888   6.386   1.926
 2399SOL    HW2 8018   0.903   6.376   1.764
 2400SOL     OW 8019   0.695   6.560   0.646
 2400SOL    HW1 8020   0.771   6.563   0.712
 2400SOL    HW2 8021   0.617   6.611   0.683
 2401SOL     OW 8022   0.681   6.753   1.836
 2401SOL    HW1 8023   0.702   6.819   1.908
 2401SOL    HW2 8024   0.661   6.801   1.751
 2402SOL     OW 8025   0.405   6.964   1.026
 2402SOL    HW1 8026   0.353   6.900   0.971
 2402SOL    HW2 8027   0.432   0.042   0.970
 2403SOL     OW 8028   0.459   5.943   1.461
 2403SOL    HW1 8029   0.540   5.885   1.474
 2403SOL    HW2 8030   0.377   5.890   1.486
 2404SOL     OW 8031   1.576   6.027   0.751
 2404SOL    HW1 8032   1.500   6.033   0.686
 2404SOL    HW2 8033   1.561   6.093   0.824
 2405SOL     OW 8034   0.281   6.692   0.922
 2405SOL    HW1 8035   0.276   6.595   0.942
 2405SOL    HW2 8036   0.200   6.738   0.957
 2406SOL     OW 8037   0.598   6.523   0.139
 2406SOL    HW1 8038   0.656   6.542   0.061
 2406SOL    HW2 8039   0.632   6.572   0.220
 2407SOL     OW 8040   1.589   5.718   1.466
 2407SOL    HW1 8041   1.633   5.798   1.425
 2407SOL    HW2 8042   1.548   5.745   1.553
 2408SOL     OW 8043   0.116   6.221   0.584
 2408SOL    HW1 8044   0.075   6.138   0.621
 2408SOL    HW2 8045   0.098   6.298   0.645
 2409SOL     OW 8046   1.703   6.456   0.644
 2409SOL    HW1 8047   1.794   6.448   0.685
 2409SOL    HW2 8048   1.706   6.521   0.568
 2410SOL     OW 8049   1.672   6.678   0.475
 2410SOL    HW1 8050   1.700   6.728   0.392
 2410SOL    HW2 8051   1.709   6.724   0.555
 2411SOL     OW 8052   0.201   6.322   1.563
 2411SOL    HW1 8053   0.301   6.327   1.557
 2411SOL    HW2 8054   0.167   6.407   1.603
 2412SOL     OW 8055   1.278   6.791   1.427
 2412SOL    HW1 8056   1.307   6.723   1.359
 2412SOL    HW2 8057   1.341   6.791   1.504
 2413SOL     OW 8058   0.833   5.613   0.522
 2413SOL    HW1 8059   0.880   5.697   0.494
 2413SOL    HW2 8060   0.735   5.629   0.526
 2414SOL     OW 8061   0.209   6.577   1.283
 2414SOL    HW1 8062   0.271   6.507   1.250
 2414SOL    HW2 8063   0.121   6.570   1.235
 2415SOL     OW 8064   1.471   6.617   0.271
 2415SOL    HW1 8065   1.400   6.549   0.291
 2415SOL    HW2 8066   1.541   6.613   0.342
 2416SOL     OW 8067   0.348   5.844   1.882
 2416SOL    HW1 8068   0.381   5.924   1.933
 2416SOL    HW2 8069   0.250   5.853   1.866
 2417SOL     OW 8070   1.411   6.947   0.962
 2417SOL    HW1 8071   1.327   6.924   1.011
 2417SOL    HW2 8072   1.445   6.867   0.913
 2418SOL     OW 8073   0.602   6.278   0.267
 2418SOL    HW1 8074   0.606   6.368   0.225
 2418SOL    HW2 8075   0.537   6.279   0.343
 2419SOL     OW 8076   1.278   5.975   0.940
 2419SOL    HW1 8077   1.186   5.937   0.940
 2419SOL    HW2 8078   1.337   5.919   0.999
 2420SOL     OW 8079   0.804   6.165   1.452
 2420SOL    HW1 8080   0.768   6.143   1.543
 2420SOL    HW2 8081   0.778   6.094   1.387
 2421SOL     OW 8082   1.389   6.052   1.674
 2421SOL    HW1 8083   1.394   6.101   1.761
 2421SOL    HW2 8084   1.434   5.963   1.683
 2422SOL     OW 8085   0.940   6.462   1.608
 2422SOL    HW1 8086   1.002   6.397   1.564
 2422SOL    HW2 8087   0.890   6.513   1.538
 2423SOL     OW 8088   1.013   5.968   1.194
 2423SOL    HW1 8089   0.918   5.981   1.224
 2423SOL    HW2 8090   1.015   5.916   1.109
 2424SOL     OW 8091   1.061   6.293   0.424
 2424SOL    HW1 8092   1.087   6.297   0.520
 2424SOL    HW2 8093   0.971   6.249   0.415
 2425SOL     OW 8094   0.076   6.412   0.790
 2425SOL    HW1 8095   0.169   6.414   0.827
 2425SOL    HW2 8096   0.011   6.401   0.865
 2426SOL     OW 8097   0.895   5.949   0.225
 2426SOL    HW1 8098   0.870   6.018   0.157
 2426SOL    HW2 8099   0.940   5.873   0.179
 2427SOL     OW 8100   1.668   6.149   1.833
 2427SOL    HW1 8101   1.659   6.233   1.780
 2427SOL    HW2 8102   1.695   6.074   1.773
 2428SOL     OW 8103   1.434   6.747   0.604
 2428SOL    HW1 8104   1.516   6.712   0.558
 2428SOL    HW2 8105   1.405   6.832   0.560
 2429SOL     OW 8106   0.559   5.739   0.929
 2429SOL    HW1 8107   0.568   5.757   1.026
 2429SOL    HW2 8108   0.556   5.826   0.879
 2430SOL     OW 8109   1.809   6.653   0.903
 2430SOL    HW1 8110   1.774   6.704   0.824
 2430SOL    HW2 8111   1.736   6.644   0.972
 2431SOL     OW 8112   0.333   6.515   0.260
 2431SOL    HW1 8113   0.419   6.531   0.212
 2431SOL    HW2 8114   0.299   6.423   0.237
 2432SOL     OW 8115   1.468   6.346   0.712
 2432SOL    HW1 8116   1.471   6.294   0.797
 2432SOL    HW2 8117   1.558   6.387   0.695
 2433SOL     OW 8118   0.201   5.830   1.492
 2433SOL    HW1 8119   0.131   5.901   1.482
 2433SOL    HW2 8120   0.165   5.754   1.545
 2434SOL     OW 8121   1.677   0.032   0.078
 2434SOL    HW1 8122   1.702   0.127   0.098
 2434SOL    HW2 8123   1.577   0.025   0.068
 2435SOL     OW 8124   1.407   5.691   0.478
 2435SOL    HW1 8125   1.402   5.662   0.382
 2435SOL    HW2 8126   1.494   5.660   0.518
 2436SOL     OW 8127   0.414   6.255   0.471
 2436SOL    HW1 8128   0.414   6.156   0.486
 2436SOL    HW2 8129   0.323   6.292   0.491
 2437SOL     OW 8130   1.488   5.793   1.720
 2437SOL    HW1 8131   1.506   5.814   1.816
 2437SOL    HW2 8132   1.417   5.723   1.713
 2438SOL     OW 8133   0.762   5.860   1.760
 2438SOL    HW1 8134   0.851   5.814   1.754
 2438SOL    HW2 8135   0.705   5.813   1.828
 2439SOL     OW 8136   1.317   6.174   1.439
 2439SOL    HW1 8137   1.352   6.138   1.526
 2439SOL    HW2 8138   1.357   6.264   1.421
 2440SOL     OW 8139   0.926   6.096   0.892
 2440SOL    HW1 8140   0.900   6.085   0.796
 2440SOL    HW2 8141   0.957   6.009   0.929
 2441SOL     OW 8142   0.562   5.660   0.502
 2441SOL    HW1 8143   0.478   5.661   0.556
 2441SOL    HW2 8144   0.553   5.724   0.425
 2442SOL     OW 8145   1.404   6.744   0.034
 2442SOL    HW1 8146   1.424   6.690   0.116
 2442SOL    HW2 8147   1.371   6.683   6.962
 2443SOL     OW 8148   0.969   5.841   0.462
 2443SOL    HW1 8149   0.935   5.880   0.376
 2443SOL    HW2 8150   1.067   5.856   0.469
 2444SOL     OW 8151   1.059   6.279   1.439
 2444SOL    HW1 8152   0.983   6.216   1.449
 2444SOL    HW2 8153   1.146   6.229   1.440
 2445SOL     OW 8154   1.353   0.137   0.706
 2445SOL    HW1 8155   1.310   0.227   0.700
 2445SOL    HW2 8156   1.343   0.102   0.799
 2446SOL     OW 8157   0.479   6.697   0.737
 2446SOL    HW1 8158   0.410   6.697   0.809
 2446SOL    HW2 8159   0.435   6.708   0.648
 2447SOL     OW 8160   1.050   6.206   0.032
 2447SOL    HW1 8161   0.953   6.190   0.053
 2447SOL    HW2 8162   1.106   6.167   0.105
 2448SOL     OW 8163   0.082   6.133   1.379
 2448SOL    HW1 8164   0.177   6.119   1.349
 2448SOL    HW2 8165   0.079   6.205   1.449
 2449SOL     OW 8166   0.577   5.778   1.199
 2449SOL    HW1 8167   0.619   5.704   1.252
 2449SOL    HW2 8168   0.479   5.782   1.219
 2450SOL     OW 8169   0.870   6.035   0.636
 2450SOL    HW1 8170   0.837   6.099   0.567
 2450SOL    HW2 8171   0.906   5.953   0.591
 2451SOL     OW 8172   1.017   5.637   0.736
 2451SOL    HW1 8173   0.952   5.636   0.659
 2451SOL    HW2 8174   0.995   5.564   0.800
 2452SOL     OW 8175   1.456   6.683   0.879
 2452SOL    HW1 8176   1.394   6.606   0.896
 2452SOL    HW2 8177   1.455   6.704   0.781
 2453SOL     OW 8178   1.458   6.197   0.951
 2453SOL    HW1 8179   1.389   6.125   0.959
 2453SOL    HW2 8180   1.521   6.191   1.029
 2454SOL     OW 8181   1.830   6.405   0.364
 2454SOL    HW1 8182   1.887   6.347   0.423
 2454SOL    HW2 8183   1.829   6.367   0.271
 2455SOL     OW 8184   1.761   6.822   0.686
 2455SOL    HW1 8185   1.859   6.838   0.673
 2455SOL    HW2 8186   1.713   6.909   0.683
 2456SOL     OW 8187   1.367   6.143   0.053
 2456SOL    HW1 8188   1.309   6.133   0.134
 2456SOL    HW2 8189   1.436   6.070   0.052
 2457SOL     OW 8190   0.539   5.825   0.287
 2457SOL    HW1 8191   0.601   5.785   0.220
 2457SOL    HW2 8192   0.496   5.906   0.247
 2458SOL     OW 8193   1.756   6.795   1.583
 2458SOL    HW1 8194   1.804   6.746   1.656
 2458SOL    HW2 8195   1.797   6.885   1.570
 2459SOL     OW 8196   1.046   6.876   1.289
 2459SOL    HW1 8197   0.961   6.869   1.341
 2459SOL    HW2 8198   1.123   6.856   1.349
 2460SOL     OW 8199   1.193   6.818   1.066
 2460SOL    HW1 8200   1.127   6.838   1.138
 2460SOL    HW2 8201   1.144   6.792   0.982
 2461SOL     OW 8202   1.618   6.662   1.104
 2461SOL    HW1 8203   1.600   6.724   1.181
 2461SOL    HW2 8204   1.547   6.675   1.034
 2462SOL     OW 8205   0.927   5.663   1.386
 2462SOL    HW1 8206   0.946   5.642   1.290
 2462SOL    HW2 8207   1.007   5.707   1.426
 2463SOL     OW 8208   0.943   6.671   1.785
 2463SOL    HW1 8209   0.847   6.694   1.802
 2463SOL    HW2 8210   0.949   6.600   1.715
 2464SOL     OW 8211   0.714   6.626   0.374
 2464SOL    HW1 8212   0.701   6.605   0.471
 2464SOL    HW2 8213   0.796   6.580   0.340
 2465SOL     OW 8214   0.423   6.384   1.251
 2465SOL    HW1 8215   0.499   6.396   1.314
 2465SOL    HW2 8216   0.381   6.294   1.266
 2466SOL     OW 8217   1.264   5.951   1.292
 2466SOL    HW1 8218   1.291   6.033   1.342
 2466SOL    HW2 8219   1.172   5.962   1.255
 2467SOL     OW 8220   0.079   0.159   1.367
 2467SOL    HW1 8221   6.999   0.214   1.346
 2467SOL    HW2 8222   0.123   0.194   1.449
 2468SOL     OW 8223   0.365   6.717   0.479
 2468SOL    HW1 8224   0.441   6.769   0.439
 2468SOL    HW2 8225   0.345   6.638   0.421
 2469SOL     OW 8226   0.537   6.108   0.870
 2469SOL    HW1 8227   0.553   6.170   0.793
 2469SOL    HW2 8228   0.605   6.127   0.942
 2470SOL     OW 8229   1.600   6.226   0.471
 2470SOL    HW1 8230   1.530   6.255   0.538
 2470SOL    HW2 8231   1.666   6.300   0.459
 2471SOL     OW 8232   0.484   6.300   1.623
 2471SOL    HW1 8233   0.533   6.343   1.547
 2471SOL    HW2 8234   0.540   6.227   1.662
 2472SOL     OW 8235   1.637   6.381   1.694
 2472SOL    HW1 8236   1.544   6.416   1.684
 2472SOL    HW2 8237   1.695   6.419   1.622
 2473SOL     OW 8238   0.996   5.723   1.753
 2473SOL    HW1 8239   1.055   5.803   1.742
 2473SOL    HW2 8240   1.048   5.640   1.733
 2474SOL     OW 8241   0.493   5.638   1.767
 2474SOL    HW1 8242   0.441   5.588   1.697
 2474SOL    HW2 8243   0.440   5.717   1.798
 2475SOL     OW 8244   0.586   6.439   1.034
 2475SOL    HW1 8245   0.614   6.535   1.028
 2475SOL    HW2 8246   0.523   6.428   1.111
 2476SOL     OW 8247   1.305   6.433   0.992
 2476SOL    HW1 8248   1.211   6.409   0.970
 2476SOL    HW2 8249   1.364   6.353   0.978
 2477SOL     OW 8250   1.190   6.108   0.262
 2477SOL    HW1 8251   1.212   6.027   0.315
 2477SOL    HW2 8252   1.148   6.177   0.322
 2478SOL     OW 8253   0.310   5.754   1.247
 2478SOL    HW1 8254   0.270   5.785   1.333
 2478SOL    HW2 8255   0.290   5.657   1.233
 2479SOL     OW 8256   0.116   6.906   1.270
 2479SOL    HW1 8257   0.154   6.839   1.334
 2479SOL    HW2 8258   0.093   6.990   1.319
 2480SOL     OW 8259   0.723   6.201   1.055
 2480SOL    HW1 8260   0.796   6.184   0.988
 2480SOL    HW2 8261   0.683   6.291   1.037
 2481SOL     OW 8262   1.739   6.575   1.867
 2481SOL    HW1 8263   1.704   6.495   1.817
 2481SOL    HW2 8264   1.685   6.588   1.950
 2482SOL     OW 8265   0.319   5.650   0.630
 2482SOL    HW1 8266   0.291   5.743   0.655
 2482SOL    HW2 8267   0.333   5.596   0.713
 2483SOL     OW 8268   1.639   5.992   0.339
 2483SOL    HW1 8269   1.669   5.921   0.402
 2483SOL    HW2 8270   1.617   6.075   0.390
 2484SOL     OW 8271   1.030   6.341   0.956
 2484SOL    HW1 8272   1.009   6.363   1.051
 2484SOL    HW2 8273   1.000   6.248   0.936
 2485SOL     OW 8274   1.921   0.026   1.586
 2485SOL    HW1 8275   1.961   0.114   1.560
 2485SOL    HW2 8276   1.970   6.990   1.665
 2486SOL     OW 8277   0.378   6.472   1.812
 2486SOL    HW1 8278   0.447   6.499   1.879
 2486SOL    HW2 8279   0.419   6.407   1.747
 2487SOL     OW 8280   1.438   5.881   0.176
 2487SOL    HW1 8281   1.429   5.783   0.195
 2487SOL    HW2 8282   1.508   5.920   0.237
 2488SOL     OW 8283   1.298   6.414   0.036
 2488SOL    HW1 8284   1.326   6.319   0.027
 2488SOL    HW2 8285   1.315   6.462   6.950
 2489SOL     OW 8286   0.318   6.398   0.927
 2489SOL    HW1 8287   0.417   6.417   0.926
 2489SOL    HW2 8288   0.302   6.307   0.964
 2490SOL     OW 8289   0.305   6.110   1.009
 2490SOL    HW1 8290   0.264   6.019   1.005
 2490SOL    HW2 8291   0.387   6.112   0.952
 2491SOL     OW 8292   1.135   5.953   1.696
 2491SOL    HW1 8293   1.086   6.004   1.768
 2491SOL    HW2 8294   1.225   5.994   1.682
 2492SOL     OW 8295   1.159   5.778   1.482
 2492SOL    HW1 8296   1.142   5.841   1.558
 2492SOL    HW2 8297   1.206   5.827   1.408
 2493SOL     OW 8298   6.985   6.899   0.207
 2493SOL    HW1 8299   6.935   6.935   0.286
 2493SOL    HW2 8300   0.029   6.812   0.232
 2494SOL     OW 8301   0.939   6.378   1.211
 2494SOL    HW1 8302   0.995   6.353   1.290
 2494SOL    HW2 8303   0.857   6.321   1.208
 2495SOL     OW 8304   0.055   6.197   1.108
 2495SOL    HW1 8305   0.142   6.170   1.068
 2495SOL    HW2 8306   0.056   6.180   1.206
 2496SOL     OW 8307   0.218   6.114   1.735
 2496SOL    HW1 8308   0.289   6.047   1.714
 2496SOL    HW2 8309   0.222   6.189   1.669
 2497SOL     OW 8310   1.395   6.502   1.645
 2497SOL    HW1 8311   1.416   6.600   1.647
 2497SOL    HW2 8312   1.388   6.471   1.550
 2498SOL     OW 8313   0.824   6.161   0.393
 2498SOL    HW1 8314   0.844   6.082   0.336
 2498SOL    HW2 8315   0.745   6.210   0.355
 2499SOL     OW 8316   1.640   6.176   1.156
 2499SOL    HW1 8317   1.623   6.109   1.229
 2499SOL    HW2 8318   1.737   6.175   1.132
 2500SOL     OW 8319   0.743   6.001   1.241
 2500SOL    HW1 8320   0.679   5.925   1.230
 2500SOL    HW2 8321   0.722   6.072   1.173
 2501SOL     OW 8322   0.458   6.063   0.169
 2501SOL    HW1 8323   0.524   6.130   0.204
 2501SOL    HW2 8324   0.366   6.103   0.173
 2502SOL     OW 8325   0.211   6.715   1.509
 2502SOL    HW1 8326   0.195   6.653   1.586
 2502SOL    HW2 8327   0.214   6.663   1.424
 2503SOL     OW 8328   1.311   6.610   1.202
 2503SOL    HW1 8329   1.314   6.537   1.132
 2503SOL    HW2 8330   1.275   6.693   1.161
 2504SOL     OW 8331   1.278   6.433   0.310
 2504SOL    HW1 8332   1.204   6.383   0.353
 2504SOL    HW2 8333   1.278   6.416   0.212
 2505SOL     OW 8334   0.069   6.837   1.013
 2505SOL    HW1 8335   0.095   6.859   1.107
 2505SOL    HW2 8336   6.970   6.822   1.009
 2506SOL     OW 8337   0.980   5.702   0.114
 2506SOL    HW1 8338   1.057   5.753   0.076
 2506SOL    HW2 8339   1.014   5.621   0.163
 2507SOL     OW 8340   1.750   5.780   0.491
 2507SOL    HW1 8341   1.809   5.754   0.415
 2507SOL    HW2 8342   1.712   5.697   0.534
 2508SOL     OW 8343   1.277   6.538   0.681
 2508SOL    HW1 8344   1.346   6.466   0.692
 2508SOL    HW2 8345   1.319   6.617   0.635
 2509SOL     OW 8346   0.789   6.853   1.396
 2509SOL    HW1 8347   0.757   6.894   1.482
 2509SOL    HW2 8348   0.720   6.867   1.325
 2510SOL     OW 8349   1.846   5.735   0.959
 2510SOL    HW1 8350   1.876   5.642   0.938
 2510SOL    HW2 8351   1.755   5.750   0.921
 2511SOL     OW 8352   0.270   5.895   0.739
 2511SOL    HW1 8353   0.185   5.938   0.711
 2511SOL    HW2 8354   0.268   5.874   0.837
 2512SOL     OW 8355   0.828   6.583   1.390
 2512SOL    HW1 8356   0.879   6.555   1.309
 2512SOL    HW2 8357   0.817   6.683   1.389
 2513SOL     OW 8358   0.929   6.502   0.276
 2513SOL    HW1 8359   0.980   6.533   0.196
 2513SOL    HW2 8360   0.985   6.437   0.328
 2514SOL     OW 8361   0.422   6.882   1.447
 2514SOL    HW1 8362   0.435   6.949   1.519
 2514SOL    HW2 8363   0.350   6.818   1.473
 2515SOL     OW 8364   1.595   6.841   1.334
 2515SOL    HW1 8365   1.670   6.816   1.395
 2515SOL    HW2 8366   1.538   6.911   1.377
 2516SOL     OW 8367   1.084   6.738   0.820
 2516SOL    HW1 8368   1.001   6.682   0.828
 2516SOL    HW2 8369   1.153   6.687   0.768
 2517SOL     OW 8370   1.033   5.824   0.955
 2517SOL    HW1 8371   1.030   5.786   0.862
 2517SOL    HW2 8372   1.028   5.749   1.022
 2518SOL     OW 8373   1.761   5.950   1.399
 2518SOL    HW1 8374   1.829   6.023   1.393
 2518SOL    HW2 8375   1.783   5.879   1.332
 2519SOL     OW 8376   0.136   6.548   1.720
 2519SOL    HW1 8377   0.085   6.614   1.775
 2519SOL    HW2 8378   0.222   6.526   1.765
 2520SOL     OW 8379   0.694   5.777   1.503
 2520SOL    HW1 8380   0.779   5.749   1.459
 2520SOL    HW2 8381   0.714   5.812   1.595
 2521SOL     OW 8382   0.098   6.005   6.972
 2521SOL    HW1 8383   0.012   6.012   6.921
 2521SOL    HW2 8384   0.164   6.070   6.934
 2522SOL     OW 8385   1.415   6.428   1.383
 2522SOL    HW1 8386   1.362   6.491   1.326
 2522SOL    HW2 8387   1.510   6.427   1.351
 2523SOL     OW 8388   0.033   5.831   0.417
 2523SOL    HW1 8389   0.086   5.908   0.381
 2523SOL    HW2 8390   0.043   5.752   0.356
 2524SOL     OW 8391   0.642   6.387   1.417
 2524SOL    HW1 8392   0.699   6.469   1.410
 2524SOL    HW2 8393   0.702   6.307   1.426
 2525SOL     OW 8394   0.709   6.134   1.710
 2525SOL    HW1 8395   0.764   6.193   1.769
 2525SOL    HW2 8396   0.725   6.038   1.735
 2526SOL     OW 8397   1.472   6.766   1.645
 2526SOL    HW1 8398   1.453   6.785   1.741
 2526SOL    HW2 8399   1.569   6.784   1.625
 2527SOL     OW 8400   1.663   6.439   1.261
 2527SOL    HW1 8401   1.659   6.352   1.212
 2527SOL    HW2 8402   1.652   6.514   1.196
 2528SOL     OW 8403   1.235   5.909   0.465
 2528SOL    HW1 8404   1.299   5.832   0.466
 2528SOL    HW2 8405   1.256   5.971   0.540
 2529SOL     OW 8406   0.588   6.301   0.680
 2529SOL    HW1 8407   0.635   6.389   0.671
 2529SOL    HW2 8408   0.525   6.289   0.603
 2530SOL     OW 8409   1.730   5.928   1.674
 2530SOL    HW1 8410   1.741   5.940   1.576
 2530SOL    HW2 8411   1.651   5.871   1.693
 2531SOL     OW 8412   1.780   6.512   1.499
 2531SOL    HW1 8413   1.776   6.611   1.509
 2531SOL    HW2 8414   1.744   6.486   1.409
 2532SOL     OW 8415   0.873   6.569   0.863
 2532SOL    HW1 8416   0.918   6.488   0.900
 2532SOL    HW2 8417   0.809   6.605   0.931
 2533SOL     OW 8418   1.068   6.570   0.047
 2533SOL    HW1 8419   1.023   6.552   6.959
 2533SOL    HW2 8420   1.152   6.517   0.052
 2534SOL     OW 8421   0.249   6.914   1.864
 2534SOL    HW1 8422   0.152   6.922   1.840
 2534SOL    HW2 8423   0.264   6.950   1.956
 2535SOL     OW 8424   0.188   6.875   0.643
 2535SOL    HW1 8425   0.137   6.820   0.709
 2535SOL    HW2 8426   0.236   6.814   0.579
 2536SOL     OW 8427   0.671   6.987   1.621
 2536SOL    HW1 8428   0.598   0.004   1.686
 2536SOL    HW2 8429   0.690   0.071   1.570
 2537SOL     OW 8430   1.810   5.745   1.230
 2537SOL    HW1 8431   1.808   5.647   1.250
 2537SOL    HW2 8432   1.826   5.759   1.133
 2538SOL     OW 8433   0.401   5.985   0.505
 2538SOL    HW1 8434   0.470   5.923   0.469
 2538SOL    HW2 8435   0.374   5.956   0.597
 2539SOL     OW 8436   1.603   0.031   1.137
 2539SOL    HW1 8437   1.539   0.004   1.065
 2539SOL    HW2 8438   1.607   6.959   1.206
 2540SOL     OW 8439   0.340   6.123   1.292
 2540SOL    HW1 8440   0.394   6.061   1.348
 2540SOL    HW2 8441   0.351   6.098   1.195
 2541SOL     OW 8442   1.424   5.821   1.113
 2541SOL    HW1 8443   1.433   5.723   1.131
 2541SOL    HW2 8444   1.375   5.864   1.188
 2542SOL     OW 8445   1.013   5.599   1.121
 2542SOL    HW1 8446   0.952   5.535   1.074
 2542SOL    HW2 8447   1.105   5.561   1.124
 2543SOL     OW 8448   0.831   6.879   0.316
 2543SOL    HW1 8449   0.791   6.791   0.341
 2543SOL    HW2 8450   0.843   6.935   0.398
 2544SOL     OW 8451   1.373   5.613   0.219
 2544SOL    HW1 8452   1.421   5.546   0.162
 2544SOL    HW2 8453   1.276   5.589   0.225
 2545SOL     OW 8454   1.293   6.069   0.679
 2545SOL    HW1 8455   1.245   6.157   0.674
 2545SOL    HW2 8456   1.286   6.033   0.772
 2546SOL     OW 8457   1.587   5.785   0.892
 2546SOL    HW1 8458   1.532   5.811   0.972
 2546SOL    HW2 8459   1.586   5.861   0.826
 2547SOL     OW 8460   0.090   6.646   0.263
 2547SOL    HW1 8461   0.180   6.603   0.269
 2547SOL    HW2 8462   0.019   6.576   0.273
 2548SOL     OW 8463   0.143   6.244   1.975
 2548SOL    HW1 8464   0.145   6.183   2.054
 2548SOL    HW2 8465   0.183   6.197   1.896
 2549SOL     OW 8466   0.209   5.851   2.861
 2549SOL    HW1 8467   0.264   5.814   2.935
 2549SOL    HW2 8468   0.113   5.831   2.877
 2550SOL     OW 8469   6.981   5.968   2.515
 2550SOL    HW1 8470   6.926   5.957   2.598
 2550SOL    HW2 8471   0.059   5.906   2.518
 2551SOL     OW 8472   0.575   6.875   3.082
 2551SOL    HW1 8473   0.518   6.910   3.008
 2551SOL    HW2 8474   0.520   6.869   3.166
 2552SOL     OW 8475   1.598   0.061   2.539
 2552SOL    HW1 8476   1.623   0.113   2.620
 2552SOL    HW2 8477   1.502   0.078   2.517
 2553SOL     OW 8478   1.126   6.312   2.532
 2553SOL    HW1 8479   1.176   6.399   2.522
 2553SOL    HW2 8480   1.075   6.313   2.618
 2554SOL     OW 8481   1.796   6.152   2.070
 2554SOL    HW1 8482   1.754   6.159   1.979
 2554SOL    HW2 8483   1.747   6.084   2.124
 2555SOL     OW 8484   0.674   6.703   2.874
 2555SOL    HW1 8485   0.651   6.758   2.955
 2555SOL    HW2 8486   0.634   6.746   2.793
 2556SOL     OW 8487   0.885   6.324   3.709
 2556SOL    HW1 8488   0.888   6.387   3.787
 2556SOL    HW2 8489   0.903   6.376   3.625
 2557SOL     OW 8490   0.702   6.561   2.495
 2557SOL    HW1 8491   0.775   6.564   2.563
 2557SOL    HW2 8492   0.622   6.610   2.530
 2558SOL     OW 8493   0.681   6.752   3.697
 2558SOL    HW1 8494   0.701   6.819   3.768
 2558SOL    HW2 8495   0.659   6.800   3.611
 2559SOL     OW 8496   0.406   6.964   2.887
 2559SOL    HW1 8497   0.354   6.899   2.831
 2559SOL    HW2 8498   0.433   0.043   2.831
 2560SOL     OW 8499   0.458   5.941   3.323
 2560SOL    HW1 8500   0.539   5.884   3.335
 2560SOL    HW2 8501   0.376   5.888   3.346
 2561SOL     OW 8502   1.584   6.027   2.611
 2561SOL    HW1 8503   1.526   6.039   2.531
 2561SOL    HW2 8504   1.558   6.093   2.682
 2562SOL     OW 8505   0.282   6.691   2.780
 2562SOL    HW1 8506   0.278   6.593   2.799
 2562SOL    HW2 8507   0.201   6.736   2.818
 2563SOL     OW 8508   0.560   6.563   2.008
 2563SOL    HW1 8509   0.595   6.620   1.934
 2563SOL    HW2 8510   0.614   6.579   2.091
 2564SOL     OW 8511   1.586   5.721   3.328
 2564SOL    HW1 8512   1.633   5.801   3.288
 2564SOL    HW2 8513   1.545   5.747   3.415
 2565SOL     OW 8514   0.127   6.192   2.447
 2565SOL    HW1 8515   0.062   6.120   2.468
 2565SOL    HW2 8516   0.108   6.273   2.504
 2566SOL     OW 8517   1.696   6.465   2.508
 2566SOL    HW1 8518   1.787   6.455   2.549
 2566SOL    HW2 8519   1.702   6.529   2.431
 2567SOL     OW 8520   1.687   6.686   2.323
 2567SOL    HW1 8521   1.768   6.677   2.266
 2567SOL    HW2 8522   1.710   6.740   2.405
 2568SOL     OW 8523   0.202   6.322   3.426
 2568SOL    HW1 8524   0.301   6.327   3.419
 2568SOL    HW2 8525   0.167   6.407   3.466
 2569SOL     OW 8526   1.275   6.788   3.288
 2569SOL    HW1 8527   1.307   6.722   3.220
 2569SOL    HW2 8528   1.341   6.792   3.364
 2570SOL     OW 8529   0.837   5.609   2.374
 2570SOL    HW1 8530   0.878   5.695   2.345
 2570SOL    HW2 8531   0.737   5.620   2.379
 2571SOL     OW 8532   0.208   6.577   3.144
 2571SOL    HW1 8533   0.271   6.507   3.111
 2571SOL    HW2 8534   0.121   6.569   3.095
 2572SOL     OW 8535   1.558   6.607   2.084
 2572SOL    HW1 8536   1.485   6.542   2.107
 2572SOL    HW2 8537   1.604   6.636   2.168
 2573SOL     OW 8538   0.349   5.844   3.744
 2573SOL    HW1 8539   0.381   5.924   3.795
 2573SOL    HW2 8540   0.251   5.852   3.728
 2574SOL     OW 8541   1.414   6.945   2.826
 2574SOL    HW1 8542   1.329   6.919   2.873
 2574SOL    HW2 8543   1.447   6.867   2.772
 2575SOL     OW 8544   0.562   6.281   2.128
 2575SOL    HW1 8545   0.566   6.369   2.082
 2575SOL    HW2 8546   0.503   6.287   2.208
 2576SOL     OW 8547   1.278   5.978   2.799
 2576SOL    HW1 8548   1.186   5.939   2.796
 2576SOL    HW2 8549   1.336   5.922   2.859
 2577SOL     OW 8550   0.804   6.165   3.314
 2577SOL    HW1 8551   0.767   6.142   3.404
 2577SOL    HW2 8552   0.778   6.094   3.249
 2578SOL     OW 8553   1.389   6.052   3.535
 2578SOL    HW1 8554   1.393   6.101   3.622
 2578SOL    HW2 8555   1.434   5.963   3.544
 2579SOL     OW 8556   0.939   6.463   3.468
 2579SOL    HW1 8557   1.001   6.398   3.424
 2579SOL    HW2 8558   0.889   6.513   3.398
 2580SOL     OW 8559   1.013   5.970   3.051
 2580SOL    HW1 8560   0.918   5.982   3.082
 2580SOL    HW2 8561   1.013   5.923   2.963
 2581SOL     OW 8562   1.043   6.289   2.266
 2581SOL    HW1 8563   1.067   6.294   2.362
 2581SOL    HW2 8564   0.954   6.244   2.255
 2582SOL     OW 8565   0.079   6.398   2.640
 2582SOL    HW1 8566   0.170   6.407   2.679
 2582SOL    HW2 8567   0.012   6.391   2.714
 2583SOL     OW 8568   0.866   5.933   2.063
 2583SOL    HW1 8569   0.924   5.983   1.999
 2583SOL    HW2 8570   0.819   5.858   2.015
 2584SOL     OW 8571   1.667   6.150   3.696
 2584SOL    HW1 8572   1.658   6.234   3.642
 2584SOL    HW2 8573   1.694   6.074   3.636
 2585SOL     OW 8574   1.438   6.748   2.449
 2585SOL    HW1 8575   1.516   6.721   2.393
 2585SOL    HW2 8576   1.417   6.844   2.433
 2586SOL     OW 8577   0.561   5.739   2.790
 2586SOL    HW1 8578   0.570   5.759   2.887
 2586SOL    HW2 8579   0.562   5.825   2.738
 2587SOL     OW 8580   1.803   6.659   2.766
 2587SOL    HW1 8581   1.766   6.707   2.686
 2587SOL    HW2 8582   1.732   6.650   2.836
 2588SOL     OW 8583   0.301   6.548   2.129
 2588SOL    HW1 8584   0.386   6.562   2.079
 2588SOL    HW2 8585   0.264   6.458   2.107
 2589SOL     OW 8586   1.464   6.349   2.573
 2589SOL    HW1 8587   1.468   6.297   2.658
 2589SOL    HW2 8588   1.553   6.394   2.557
 2590SOL     OW 8589   0.199   5.829   3.349
 2590SOL    HW1 8590   0.130   5.900   3.341
 2590SOL    HW2 8591   0.164   5.753   3.403
 2591SOL     OW 8592   1.627   6.966   1.983
 2591SOL    HW1 8593   1.598   0.062   1.985
 2591SOL    HW2 8594   1.550   6.909   1.954
 2592SOL     OW 8595   1.396   5.684   2.320
 2592SOL    HW1 8596   1.395   5.662   2.223
 2592SOL    HW2 8597   1.483   5.656   2.360
 2593SOL     OW 8598   0.393   6.250   2.345
 2593SOL    HW1 8599   0.420   6.154   2.356
 2593SOL    HW2 8600   0.298   6.261   2.373
 2594SOL     OW 8601   1.487   5.793   3.583
 2594SOL    HW1 8602   1.504   5.814   3.679
 2594SOL    HW2 8603   1.417   5.722   3.577
 2595SOL     OW 8604   0.671   5.689   1.969
 2595SOL    HW1 8605   0.728   5.610   1.993
 2595SOL    HW2 8606   0.603   5.661   1.902
 2596SOL     OW 8607   0.761   5.859   3.621
 2596SOL    HW1 8608   0.850   5.814   3.615
 2596SOL    HW2 8609   0.705   5.813   3.689
 2597SOL     OW 8610   1.315   6.174   3.301
 2597SOL    HW1 8611   1.351   6.139   3.387
 2597SOL    HW2 8612   1.355   6.264   3.283
 2598SOL     OW 8613   0.925   6.097   2.737
 2598SOL    HW1 8614   0.900   6.089   2.640
 2598SOL    HW2 8615   0.955   6.008   2.771
 2599SOL     OW 8616   0.564   5.641   2.360
 2599SOL    HW1 8617   0.482   5.641   2.417
 2599SOL    HW2 8618   0.559   5.717   2.294
 2600SOL     OW 8619   1.405   6.771   1.927
 2600SOL    HW1 8620   1.468   6.713   1.978
 2600SOL    HW2 8621   1.315   6.728   1.924
 2601SOL     OW 8622   0.280   5.650   2.069
 2601SOL    HW1 8623   0.319   5.718   2.008
 2601SOL    HW2 8624   0.353   5.589   2.101
 2602SOL     OW 8625   0.961   5.844   2.306
 2602SOL    HW1 8626   0.928   5.875   2.217
 2602SOL    HW2 8627   1.060   5.859   2.312
 2603SOL     OW 8628   1.058   6.281   3.298
 2603SOL    HW1 8629   0.981   6.217   3.309
 2603SOL    HW2 8630   1.144   6.230   3.300
 2604SOL     OW 8631   1.336   0.154   2.579
 2604SOL    HW1 8632   1.299   0.246   2.567
 2604SOL    HW2 8633   1.325   0.125   2.674
 2605SOL     OW 8634   0.479   6.687   2.591
 2605SOL    HW1 8635   0.412   6.690   2.666
 2605SOL    HW2 8636   0.432   6.701   2.504
 2606SOL     OW 8637   1.026   6.092   1.906
 2606SOL    HW1 8638   0.982   6.180   1.886
 2606SOL    HW2 8639   1.095   6.106   1.977
 2607SOL     OW 8640   0.081   6.133   3.241
 2607SOL    HW1 8641   0.176   6.120   3.212
 2607SOL    HW2 8642   0.078   6.205   3.311
 2608SOL     OW 8643   0.576   5.781   3.060
 2608SOL    HW1 8644   0.617   5.707   3.113
 2608SOL    HW2 8645   0.478   5.784   3.078
 2609SOL     OW 8646   0.868   6.047   2.475
 2609SOL    HW1 8647   0.821   6.105   2.408
 2609SOL    HW2 8648   0.902   5.965   2.430
 2610SOL     OW 8649   1.015   5.639   2.592
 2610SOL    HW1 8650   0.954   5.635   2.513
 2610SOL    HW2 8651   0.991   5.566   2.656
 2611SOL     OW 8652   1.459   6.685   2.731
 2611SOL    HW1 8653   1.395   6.610   2.747
 2611SOL    HW2 8654   1.465   6.702   2.632
 2612SOL     OW 8655   1.458   6.196   2.807
 2612SOL    HW1 8656   1.389   6.124   2.816
 2612SOL    HW2 8657   1.521   6.191   2.885
 2613SOL     OW 8658   1.825   6.371   2.231
 2613SOL    HW1 8659   1.881   6.336   2.306
 2613SOL    HW2 8660   1.812   6.300   2.162
 2614SOL     OW 8661   1.747   6.826   2.547
 2614SOL    HW1 8662   1.845   6.844   2.544
 2614SOL    HW2 8663   1.697   6.913   2.547
 2615SOL     OW 8664   1.389   6.161   1.924
 2615SOL    HW1 8665   1.338   6.131   2.005
 2615SOL    HW2 8666   1.487   6.146   1.939
 2616SOL     OW 8667   0.550   5.835   2.171
 2616SOL    HW1 8668   0.599   5.784   2.100
 2616SOL    HW2 8669   0.505   5.914   2.129
 2617SOL     OW 8670   1.757   6.793   3.447
 2617SOL    HW1 8671   1.806   6.745   3.519
 2617SOL    HW2 8672   1.797   6.884   3.434
 2618SOL     OW 8673   1.046   6.875   3.149
 2618SOL    HW1 8674   0.961   6.868   3.201
 2618SOL    HW2 8675   1.124   6.854   3.209
 2619SOL     OW 8676   1.194   6.816   2.925
 2619SOL    HW1 8677   1.127   6.837   2.996
 2619SOL    HW2 8678   1.145   6.791   2.841
 2620SOL     OW 8679   1.612   6.664   2.966
 2620SOL    HW1 8680   1.594   6.727   3.042
 2620SOL    HW2 8681   1.543   6.677   2.895
 2621SOL     OW 8682   0.928   5.663   3.245
 2621SOL    HW1 8683   0.947   5.644   3.149
 2621SOL    HW2 8684   1.007   5.707   3.287
 2622SOL     OW 8685   0.943   6.670   3.647
 2622SOL    HW1 8686   0.847   6.693   3.664
 2622SOL    HW2 8687   0.949   6.599   3.576
 2623SOL     OW 8688   0.730   6.617   2.216
 2623SOL    HW1 8689   0.723   6.599   2.313
 2623SOL    HW2 8690   0.811   6.572   2.179
 2624SOL     OW 8691   0.422   6.383   3.111
 2624SOL    HW1 8692   0.499   6.396   3.173
 2624SOL    HW2 8693   0.381   6.294   3.127
 2625SOL     OW 8694   1.262   5.951   3.154
 2625SOL    HW1 8695   1.288   6.034   3.204
 2625SOL    HW2 8696   1.171   5.963   3.115
 2626SOL     OW 8697   0.079   0.160   3.226
 2626SOL    HW1 8698   6.999   0.215   3.206
 2626SOL    HW2 8699   0.123   0.195   3.309
 2627SOL     OW 8700   0.350   6.727   2.346
 2627SOL    HW1 8701   0.420   6.785   2.305
 2627SOL    HW2 8702   0.324   6.655   2.282
 2628SOL     OW 8703   0.531   6.114   2.733
 2628SOL    HW1 8704   0.545   6.174   2.655
 2628SOL    HW2 8705   0.602   6.130   2.802
 2629SOL     OW 8706   1.581   6.210   2.350
 2629SOL    HW1 8707   1.519   6.252   2.416
 2629SOL    HW2 8708   1.649   6.277   2.321
 2630SOL     OW 8709   0.484   6.300   3.485
 2630SOL    HW1 8710   0.533   6.342   3.408
 2630SOL    HW2 8711   0.541   6.228   3.524
 2631SOL     OW 8712   1.637   6.382   3.556
 2631SOL    HW1 8713   1.544   6.416   3.545
 2631SOL    HW2 8714   1.695   6.419   3.484
 2632SOL     OW 8715   0.996   5.723   3.616
 2632SOL    HW1 8716   1.054   5.803   3.604
 2632SOL    HW2 8717   1.048   5.640   3.595
 2633SOL     OW 8718   0.493   5.637   3.629
 2633SOL    HW1 8719   0.441   5.588   3.559
 2633SOL    HW2 8720   0.440   5.716   3.660
 2634SOL     OW 8721   0.593   6.439   2.898
 2634SOL    HW1 8722   0.619   6.535   2.890
 2634SOL    HW2 8723   0.526   6.428   2.971
 2635SOL     OW 8724   1.302   6.430   2.851
 2635SOL    HW1 8725   1.208   6.406   2.828
 2635SOL    HW2 8726   1.361   6.351   2.838
 2636SOL     OW 8727   1.199   6.108   2.125
 2636SOL    HW1 8728   1.217   6.029   2.184
 2636SOL    HW2 8729   1.148   6.177   2.177
 2637SOL     OW 8730   0.308   5.757   3.101
 2637SOL    HW1 8731   0.268   5.788   3.187
 2637SOL    HW2 8732   0.289   5.660   3.088
 2638SOL     OW 8733   0.117   6.907   3.128
 2638SOL    HW1 8734   0.155   6.839   3.192
 2638SOL    HW2 8735   0.094   6.990   3.178
 2639SOL     OW 8736   0.728   6.200   2.910
 2639SOL    HW1 8737   0.798   6.183   2.841
 2639SOL    HW2 8738   0.688   6.291   2.896
 2640SOL     OW 8739   1.740   6.573   3.730
 2640SOL    HW1 8740   1.704   6.495   3.679
 2640SOL    HW2 8741   1.685   6.587   3.812
 2641SOL     OW 8742   0.322   5.650   2.494
 2641SOL    HW1 8743   0.287   5.742   2.513
 2641SOL    HW2 8744   0.334   5.600   2.580
 2642SOL     OW 8745   1.624   5.981   2.205
 2642SOL    HW1 8746   1.668   5.913   2.263
 2642SOL    HW2 8747   1.596   6.060   2.260
 2643SOL     OW 8748   1.029   6.341   2.809
 2643SOL    HW1 8749   1.008   6.361   2.905
 2643SOL    HW2 8750   1.000   6.248   2.787
 2644SOL     OW 8751   1.921   0.026   3.448
 2644SOL    HW1 8752   1.961   0.113   3.422
 2644SOL    HW2 8753   1.970   6.989   3.528
 2645SOL     OW 8754   0.378   6.472   3.674
 2645SOL    HW1 8755   0.447   6.499   3.741
 2645SOL    HW2 8756   0.419   6.407   3.609
 2646SOL     OW 8757   1.522   5.845   1.982
 2646SOL    HW1 8758   1.470   5.768   2.018
 2646SOL    HW2 8759   1.559   5.899   2.058
 2647SOL     OW 8760   1.279   6.405   1.873
 2647SOL    HW1 8761   1.312   6.311   1.886
 2647SOL    HW2 8762   1.315   6.440   1.786
 2648SOL     OW 8763   0.319   6.401   2.784
 2648SOL    HW1 8764   0.417   6.415   2.771
 2648SOL    HW2 8765   0.303   6.315   2.831
 2649SOL     OW 8766   0.302   6.107   2.874
 2649SOL    HW1 8767   0.262   6.015   2.866
 2649SOL    HW2 8768   0.385   6.112   2.819
 2650SOL     OW 8769   1.135   5.953   3.559
 2650SOL    HW1 8770   1.086   6.004   3.630
 2650SOL    HW2 8771   1.225   5.994   3.544
 2651SOL     OW 8772   1.158   5.778   3.344
 2651SOL    HW1 8773   1.142   5.840   3.420
 2651SOL    HW2 8774   1.205   5.828   3.270
 2652SOL     OW 8775   6.958   6.963   2.093
 2652SOL    HW1 8776   6.896   6.973   2.171
 2652SOL    HW2 8777   7.000   6.872   2.096
 2653SOL     OW 8778   0.941   6.376   3.066
 2653SOL    HW1 8779   0.995   6.352   3.146
 2653SOL    HW2 8780   0.858   6.319   3.063
 2654SOL     OW 8781   0.055   6.200   2.971
 2654SOL    HW1 8782   0.142   6.170   2.932
 2654SOL    HW2 8783   0.055   6.183   3.070
 2655SOL     OW 8784   0.218   6.113   3.597
 2655SOL    HW1 8785   0.289   6.047   3.576
 2655SOL    HW2 8786   0.222   6.189   3.531
 2656SOL     OW 8787   1.395   6.502   3.506
 2656SOL    HW1 8788   1.415   6.600   3.508
 2656SOL    HW2 8789   1.387   6.471   3.412
 2657SOL     OW 8790   0.802   6.160   2.218
 2657SOL    HW1 8791   0.816   6.077   2.165
 2657SOL    HW2 8792   0.718   6.205   2.187
 2658SOL     OW 8793   1.638   6.178   3.016
 2658SOL    HW1 8794   1.620   6.112   3.088
 2658SOL    HW2 8795   1.736   6.176   2.992
 2659SOL     OW 8796   0.743   6.003   3.101
 2659SOL    HW1 8797   0.678   5.927   3.090
 2659SOL    HW2 8798   0.724   6.073   3.032
 2660SOL     OW 8799   0.420   6.047   2.058
 2660SOL    HW1 8800   0.475   6.130   2.067
 2660SOL    HW2 8801   0.333   6.059   2.106
 2661SOL     OW 8802   0.210   6.715   3.370
 2661SOL    HW1 8803   0.194   6.653   3.447
 2661SOL    HW2 8804   0.213   6.662   3.285
 2662SOL     OW 8805   1.309   6.607   3.061
 2662SOL    HW1 8806   1.312   6.535   2.992
 2662SOL    HW2 8807   1.273   6.691   3.020
 2663SOL     OW 8808   1.345   6.447   2.141
 2663SOL    HW1 8809   1.285   6.398   2.205
 2663SOL    HW2 8810   1.315   6.428   2.047
 2664SOL     OW 8811   0.069   6.836   2.871
 2664SOL    HW1 8812   0.096   6.859   2.965
 2664SOL    HW2 8813   6.970   6.821   2.867
 2665SOL     OW 8814   1.767   5.788   2.342
 2665SOL    HW1 8815   1.822   5.768   2.261
 2665SOL    HW2 8816   1.723   5.704   2.374
 2666SOL     OW 8817   1.276   6.542   2.531
 2666SOL    HW1 8818   1.344   6.470   2.548
 2666SOL    HW2 8819   1.321   6.619   2.485
 2667SOL     OW 8820   0.789   6.853   3.257
 2667SOL    HW1 8821   0.758   6.893   3.343
 2667SOL    HW2 8822   0.720   6.867   3.186
 2668SOL     OW 8823   1.844   5.745   2.819
 2668SOL    HW1 8824   1.876   5.652   2.797
 2668SOL    HW2 8825   1.752   5.757   2.781
 2669SOL     OW 8826   0.255   5.902   2.588
 2669SOL    HW1 8827   0.247   6.001   2.579
 2669SOL    HW2 8828   0.244   5.876   2.684
 2670SOL     OW 8829   1.265   0.178   1.873
 2670SOL    HW1 8830   1.268   0.109   1.944
 2670SOL    HW2 8831   1.174   0.179   1.830
 2671SOL     OW 8832   0.828   6.582   3.248
 2671SOL    HW1 8833   0.879   6.555   3.167
 2671SOL    HW2 8834   0.817   6.682   3.248
 2672SOL     OW 8835   0.950   6.493   2.094
 2672SOL    HW1 8836   1.022   6.553   2.059
 2672SOL    HW2 8837   0.990   6.424   2.155
 2673SOL     OW 8838   0.421   6.882   3.307
 2673SOL    HW1 8839   0.435   6.949   3.380
 2673SOL    HW2 8840   0.349   6.818   3.334
 2674SOL     OW 8841   1.596   6.845   3.197
 2674SOL    HW1 8842   1.674   6.814   3.252
 2674SOL    HW2 8843   1.551   6.921   3.245
 2675SOL     OW 8844   1.089   6.734   2.678
 2675SOL    HW1 8845   1.004   6.681   2.686
 2675SOL    HW2 8846   1.156   6.683   2.624
 2676SOL     OW 8847   1.032   5.827   2.809
 2676SOL    HW1 8848   1.029   5.787   2.717
 2676SOL    HW2 8849   1.027   5.754   2.877
 2677SOL     OW 8850   1.761   5.950   3.264
 2677SOL    HW1 8851   1.829   6.023   3.258
 2677SOL    HW2 8852   1.781   5.880   3.195
 2678SOL     OW 8853   0.136   6.548   3.582
 2678SOL    HW1 8854   0.085   6.614   3.636
 2678SOL    HW2 8855   0.222   6.526   3.627
 2679SOL     OW 8856   0.694   5.777   3.364
 2679SOL    HW1 8857   0.780   5.749   3.320
 2679SOL    HW2 8858   0.714   5.811   3.456
 2680SOL     OW 8859   0.076   5.866   1.860
 2680SOL    HW1 8860   0.009   5.802   1.899
 2680SOL    HW2 8861   0.028   5.948   1.828
 2681SOL     OW 8862   1.414   6.428   3.244
 2681SOL    HW1 8863   1.360   6.490   3.187
 2681SOL    HW2 8864   1.509   6.427   3.212
 2682SOL     OW 8865   0.062   5.799   2.172
 2682SOL    HW1 8866   6.999   5.760   2.105
 2682SOL    HW2 8867   0.150   5.752   2.166
 2683SOL     OW 8868   0.642   6.386   3.277
 2683SOL    HW1 8869   0.698   6.468   3.269
 2683SOL    HW2 8870   0.701   6.306   3.287
 2684SOL     OW 8871   0.708   6.134   3.572
 2684SOL    HW1 8872   0.763   6.193   3.631
 2684SOL    HW2 8873   0.725   6.038   3.597
 2685SOL     OW 8874   1.473   6.766   3.507
 2685SOL    HW1 8875   1.455   6.786   3.603
 2685SOL    HW2 8876   1.569   6.784   3.486
 2686SOL     OW 8877   1.662   6.441   3.121
 2686SOL    HW1 8878   1.658   6.354   3.072
 2686SOL    HW2 8879   1.649   6.516   3.057
 2687SOL     OW 8880   1.231   5.908   2.319
 2687SOL    HW1 8881   1.292   5.829   2.318
 2687SOL    HW2 8882   1.252   5.966   2.397
 2688SOL     OW 8883   0.576   6.311   2.545
 2688SOL    HW1 8884   0.628   6.394   2.528
 2688SOL    HW2 8885   0.510   6.296   2.470
 2689SOL     OW 8886   1.729   5.928   3.538
 2689SOL    HW1 8887   1.740   5.940   3.440
 2689SOL    HW2 8888   1.649   5.870   3.556
 2690SOL     OW 8889   1.779   6.511   3.360
 2690SOL    HW1 8890   1.775   6.611   3.372
 2690SOL    HW2 8891   1.744   6.487   3.270
 2691SOL     OW 8892   0.874   6.569   2.719
 2691SOL    HW1 8893   0.919   6.488   2.755
 2691SOL    HW2 8894   0.811   6.605   2.787
 2692SOL     OW 8895   1.159   6.640   1.942
 2692SOL    HW1 8896   1.082   6.663   1.883
 2692SOL    HW2 8897   1.196   6.551   1.915
 2693SOL     OW 8898   0.249   6.914   3.724
 2693SOL    HW1 8899   0.153   6.922   3.700
 2693SOL    HW2 8900   0.263   6.950   3.817
 2694SOL     OW 8901   0.179   6.878   2.521
 2694SOL    HW1 8902   0.144   6.828   2.600
 2694SOL    HW2 8903   0.221   6.813   2.457
 2695SOL     OW 8904   0.671   6.987   3.481
 2695SOL    HW1 8905   0.598   0.004   3.547
 2695SOL    HW2 8906   0.690   0.071   3.431
 2696SOL     OW 8907   1.803   5.749   3.090
 2696SOL    HW1 8908   1.791   5.651   3.104
 2696SOL    HW2 8909   1.822   5.766   2.993
 2697SOL     OW 8910   0.449   5.990   2.387
 2697SOL    HW1 8911   0.495   5.928   2.323
 2697SOL    HW2 8912   0.403   5.936   2.458
 2698SOL     OW 8913   1.601   0.033   3.000
 2698SOL    HW1 8914   1.538   0.005   2.927
 2698SOL    HW2 8915   1.605   6.961   3.070
 2699SOL     OW 8916   0.339   6.123   3.155
 2699SOL    HW1 8917   0.393   6.061   3.212
 2699SOL    HW2 8918   0.348   6.096   3.059
 2700SOL     OW 8919   1.422   5.825   2.974
 2700SOL    HW1 8920   1.436   5.728   2.995
 2700SOL    HW2 8921   1.372   5.868   3.049
 2701SOL     OW 8922   1.017   5.600   2.977
 2701SOL    HW1 8923   0.951   5.539   2.934
 2701SOL    HW2 8924   1.108   5.561   2.972
 2702SOL     OW 8925   0.753   6.890   2.127
 2702SOL    HW1 8926   0.741   6.794   2.152
 2702SOL    HW2 8927   0.783   6.942   2.207
 2703SOL     OW 8928   1.387   5.615   2.054
 2703SOL    HW1 8929   1.435   5.544   2.003
 2703SOL    HW2 8930   1.292   5.588   2.067
 2704SOL     OW 8931   1.284   6.070   2.533
 2704SOL    HW1 8932   1.235   6.157   2.528
 2704SOL    HW2 8933   1.283   6.036   2.627
 2705SOL     OW 8934   1.583   5.787   2.753
 2705SOL    HW1 8935   1.529   5.814   2.832
 2705SOL    HW2 8936   1.585   5.862   2.686
 2706SOL     OW 8937   0.050   6.668   2.124
 2706SOL    HW1 8938   0.146   6.639   2.127
 2706SOL    HW2 8939   6.990   6.590   2.139
 2707SOL     OW 8940   0.143   6.242   3.837
 2707SOL    HW1 8941   0.145   6.182   3.916
 2707SOL    HW2 8942   0.183   6.196   3.758
 2708SOL     OW 8943   0.209   5.852   4.722
 2708SOL    HW1 8944   0.264   5.814   4.797
 2708SOL    HW2 8945   0.113   5.831   4.739
 2709SOL     OW 8946   6.981   5.968   4.377
 2709SOL    HW1 8947   6.926   5.957   4.459
 2709SOL    HW2 8948   0.061   5.909   4.382
 2710SOL     OW 8949   0.574   6.876   4.945
 2710SOL    HW1 8950   0.518   6.910   4.870
 2710SOL    HW2 8951   0.519   6.869   5.028
 2711SOL     OW 8952   1.597   0.060   4.401
 2711SOL    HW1 8953   1.622   0.112   4.482
 2711SOL    HW2 8954   1.501   0.078   4.378
 2712SOL     OW 8955   1.126   6.313   4.394
 2712SOL    HW1 8956   1.176   6.399   4.384
 2712SOL    HW2 8957   1.075   6.313   4.480
 2713SOL     OW 8958   1.795   6.152   3.932
 2713SOL    HW1 8959   1.754   6.159   3.842
 2713SOL    HW2 8960   1.746   6.084   3.986
 2714SOL     OW 8961   0.674   6.703   4.736
 2714SOL    HW1 8962   0.652   6.758   4.817
 2714SOL    HW2 8963   0.636   6.747   4.655
 2715SOL     OW 8964   0.886   6.324   5.571
 2715SOL    HW1 8965   0.889   6.387   5.649
 2715SOL    HW2 8966   0.903   6.376   5.487
 2716SOL     OW 8967   0.702   6.561   4.357
 2716SOL    HW1 8968   0.775   6.564   4.425
 2716SOL    HW2 8969   0.622   6.610   4.392
 2717SOL     OW 8970   0.684   6.757   5.564
 2717SOL    HW1 8971   0.708   6.820   5.639
 2717SOL    HW2 8972   0.666   6.810   5.481
 2718SOL     OW 8973   0.406   6.964   4.750
 2718SOL    HW1 8974   0.354   6.899   4.694
 2718SOL    HW2 8975   0.433   0.042   4.693
 2719SOL     OW 8976   0.457   5.941   5.185
 2719SOL    HW1 8977   0.538   5.884   5.198
 2719SOL    HW2 8978   0.376   5.888   5.208
 2720SOL     OW 8979   1.585   6.026   4.474
 2720SOL    HW1 8980   1.529   6.039   4.392
 2720SOL    HW2 8981   1.558   6.092   4.544
 2721SOL     OW 8982   0.282   6.692   4.642
 2721SOL    HW1 8983   0.279   6.594   4.661
 2721SOL    HW2 8984   0.201   6.736   4.680
 2722SOL     OW 8985   0.560   6.563   3.870
 2722SOL    HW1 8986   0.595   6.620   3.796
 2722SOL    HW2 8987   0.614   6.579   3.953
 2723SOL     OW 8988   1.591   5.719   5.191
 2723SOL    HW1 8989   1.634   5.799   5.149
 2723SOL    HW2 8990   1.549   5.745   5.278
 2724SOL     OW 8991   0.128   6.193   4.310
 2724SOL    HW1 8992   0.062   6.120   4.330
 2724SOL    HW2 8993   0.108   6.273   4.366
 2725SOL     OW 8994   1.696   6.465   4.370
 2725SOL    HW1 8995   1.786   6.455   4.411
 2725SOL    HW2 8996   1.702   6.528   4.293
 2726SOL     OW 8997   1.687   6.686   4.185
 2726SOL    HW1 8998   1.768   6.677   4.128
 2726SOL    HW2 8999   1.710   6.739   4.267
 2727SOL     OW 9000   0.200   6.323   5.287
 2727SOL    HW1 9001   0.300   6.328   5.280
 2727SOL    HW2 9002   0.166   6.408   5.328
 2728SOL     OW 9003   1.275   6.788   5.150
 2728SOL    HW1 9004   1.306   6.722   5.082
 2728SOL    HW2 9005   1.341   6.792   5.225
 2729SOL     OW 9006   0.836   5.609   4.236
 2729SOL    HW1 9007   0.878   5.695   4.207
 2729SOL    HW2 9008   0.737   5.621   4.241
 2730SOL     OW 9009   0.207   6.576   5.007
 2730SOL    HW1 9010   0.271   6.506   4.973
 2730SOL    HW2 9011   0.121   6.569   4.957
 2731SOL     OW 9012   1.558   6.607   3.946
 2731SOL    HW1 9013   1.485   6.541   3.969
 2731SOL    HW2 9014   1.604   6.636   4.030
 2732SOL     OW 9015   0.348   5.844   5.606
 2732SOL    HW1 9016   0.381   5.924   5.656
 2732SOL    HW2 9017   0.249   5.854   5.590
 2733SOL     OW 9018   1.414   6.945   4.688
 2733SOL    HW1 9019   1.330   6.919   4.734
 2733SOL    HW2 9020   1.448   6.868   4.634
 2734SOL     OW 9021   0.562   6.281   3.990
 2734SOL    HW1 9022   0.566   6.370   3.944
 2734SOL    HW2 9023   0.503   6.287   4.070
 2735SOL     OW 9024   1.278   5.978   4.660
 2735SOL    HW1 9025   1.186   5.939   4.658
 2735SOL    HW2 9026   1.336   5.921   4.720
 2736SOL     OW 9027   0.804   6.165   5.176
 2736SOL    HW1 9028   0.767   6.142   5.266
 2736SOL    HW2 9029   0.778   6.094   5.111
 2737SOL     OW 9030   1.388   6.052   5.397
 2737SOL    HW1 9031   1.393   6.101   5.484
 2737SOL    HW2 9032   1.434   5.964   5.406
 2738SOL     OW 9033   0.939   6.463   5.330
 2738SOL    HW1 9034   1.001   6.398   5.286
 2738SOL    HW2 9035   0.888   6.513   5.260
 2739SOL     OW 9036   1.013   5.970   4.913
 2739SOL    HW1 9037   0.918   5.982   4.944
 2739SOL    HW2 9038   1.014   5.923   4.826
 2740SOL     OW 9039   1.043   6.289   4.128
 2740SOL    HW1 9040   1.067   6.294   4.225
 2740SOL    HW2 9041   0.954   6.244   4.118
 2741SOL     OW 9042   0.079   6.398   4.503
 2741SOL    HW1 9043   0.171   6.407   4.542
 2741SOL    HW2 9044   0.012   6.391   4.576
 2742SOL     OW 9045   0.866   5.933   3.925
 2742SOL    HW1 9046   0.924   5.983   3.861
 2742SOL    HW2 9047   0.820   5.858   3.877
 2743SOL     OW 9048   1.667   6.150   5.557
 2743SOL    HW1 9049   1.658   6.233   5.503
 2743SOL    HW2 9050   1.694   6.074   5.498
 2744SOL     OW 9051   1.438   6.748   4.311
 2744SOL    HW1 9052   1.516   6.721   4.255
 2744SOL    HW2 9053   1.417   6.844   4.295
 2745SOL     OW 9054   0.562   5.738   4.652
 2745SOL    HW1 9055   0.570   5.758   4.749
 2745SOL    HW2 9056   0.563   5.824   4.600
 2746SOL     OW 9057   1.803   6.659   4.628
 2746SOL    HW1 9058   1.766   6.707   4.548
 2746SOL    HW2 9059   1.732   6.649   4.698
 2747SOL     OW 9060   0.301   6.548   3.991
 2747SOL    HW1 9061   0.386   6.563   3.941
 2747SOL    HW2 9062   0.264   6.458   3.969
 2748SOL     OW 9063   1.464   6.349   4.436
 2748SOL    HW1 9064   1.468   6.297   4.520
 2748SOL    HW2 9065   1.552   6.394   4.420
 2749SOL     OW 9066   0.199   5.829   5.211
 2749SOL    HW1 9067   0.129   5.900   5.203
 2749SOL    HW2 9068   0.163   5.753   5.265
 2750SOL     OW 9069   1.627   6.966   3.845
 2750SOL    HW1 9070   1.598   0.062   3.847
 2750SOL    HW2 9071   1.550   6.909   3.816
 2751SOL     OW 9072   1.395   5.684   4.183
 2751SOL    HW1 9073   1.395   5.662   4.086
 2751SOL    HW2 9074   1.483   5.655   4.223
 2752SOL     OW 9075   0.393   6.250   4.207
 2752SOL    HW1 9076   0.420   6.154   4.218
 2752SOL    HW2 9077   0.298   6.261   4.235
 2753SOL     OW 9078   1.488   5.793   5.444
 2753SOL    HW1 9079   1.505   5.814   5.541
 2753SOL    HW2 9080   1.417   5.724   5.438
 2754SOL     OW 9081   0.672   5.689   3.831
 2754SOL    HW1 9082   0.729   5.610   3.854
 2754SOL    HW2 9083   0.603   5.661   3.764
 2755SOL     OW 9084   0.762   5.860   5.483
 2755SOL    HW1 9085   0.851   5.814   5.477
 2755SOL    HW2 9086   0.705   5.813   5.551
 2756SOL     OW 9087   1.315   6.174   5.163
 2756SOL    HW1 9088   1.351   6.139   5.249
 2756SOL    HW2 9089   1.355   6.264   5.144
 2757SOL     OW 9090   0.925   6.096   4.599
 2757SOL    HW1 9091   0.900   6.089   4.502
 2757SOL    HW2 9092   0.954   6.007   4.633
 2758SOL     OW 9093   0.563   5.642   4.222
 2758SOL    HW1 9094   0.481   5.642   4.279
 2758SOL    HW2 9095   0.559   5.717   4.156
 2759SOL     OW 9096   1.406   6.771   3.789
 2759SOL    HW1 9097   1.468   6.713   3.840
 2759SOL    HW2 9098   1.315   6.729   3.786
 2760SOL     OW 9099   0.281   5.650   3.931
 2760SOL    HW1 9100   0.319   5.719   3.870
 2760SOL    HW2 9101   0.353   5.588   3.962
 2761SOL     OW 9102   0.961   5.843   4.168
 2761SOL    HW1 9103   0.928   5.875   4.079
 2761SOL    HW2 9104   1.059   5.858   4.174
 2762SOL     OW 9105   1.058   6.281   5.160
 2762SOL    HW1 9106   0.981   6.217   5.171
 2762SOL    HW2 9107   1.144   6.230   5.162
 2763SOL     OW 9108   1.336   0.155   4.441
 2763SOL    HW1 9109   1.299   0.247   4.430
 2763SOL    HW2 9110   1.327   0.127   4.537
 2764SOL     OW 9111   0.479   6.687   4.453
 2764SOL    HW1 9112   0.412   6.691   4.528
 2764SOL    HW2 9113   0.431   6.701   4.366
 2765SOL     OW 9114   1.026   6.093   3.768
 2765SOL    HW1 9115   0.982   6.180   3.748
 2765SOL    HW2 9116   1.095   6.106   3.839
 2766SOL     OW 9117   0.081   6.134   5.103
 2766SOL    HW1 9118   0.176   6.120   5.074
 2766SOL    HW2 9119   0.078   6.205   5.173
 2767SOL     OW 9120   0.576   5.780   4.922
 2767SOL    HW1 9121   0.617   5.706   4.975
 2767SOL    HW2 9122   0.478   5.784   4.939
 2768SOL     OW 9123   0.867   6.047   4.337
 2768SOL    HW1 9124   0.821   6.105   4.270
 2768SOL    HW2 9125   0.902   5.965   4.292
 2769SOL     OW 9126   1.014   5.640   4.454
 2769SOL    HW1 9127   0.952   5.636   4.376
 2769SOL    HW2 9128   0.992   5.567   4.518
 2770SOL     OW 9129   1.460   6.685   4.592
 2770SOL    HW1 9130   1.395   6.611   4.609
 2770SOL    HW2 9131   1.466   6.703   4.494
 2771SOL     OW 9132   1.458   6.195   4.670
 2771SOL    HW1 9133   1.389   6.123   4.678
 2771SOL    HW2 9134   1.521   6.190   4.747
 2772SOL     OW 9135   1.825   6.371   4.094
 2772SOL    HW1 9136   1.881   6.336   4.168
 2772SOL    HW2 9137   1.812   6.300   4.025
 2773SOL     OW 9138   1.747   6.826   4.409
 2773SOL    HW1 9139   1.845   6.844   4.406
 2773SOL    HW2 9140   1.697   6.913   4.409
 2774SOL     OW 9141   1.388   6.161   3.786
 2774SOL    HW1 9142   1.338   6.131   3.866
 2774SOL    HW2 9143   1.486   6.147   3.800
 2775SOL     OW 9144   0.550   5.835   4.032
 2775SOL    HW1 9145   0.600   5.784   3.962
 2775SOL    HW2 9146   0.505   5.914   3.991
 2776SOL     OW 9147   1.757   6.793   5.309
 2776SOL    HW1 9148   1.806   6.745   5.382
 2776SOL    HW2 9149   1.797   6.884   5.296
 2777SOL     OW 9150   1.046   6.876   5.010
 2777SOL    HW1 9151   0.961   6.868   5.062
 2777SOL    HW2 9152   1.123   6.854   5.070
 2778SOL     OW 9153   1.194   6.816   4.787
 2778SOL    HW1 9154   1.127   6.838   4.858
 2778SOL    HW2 9155   1.146   6.791   4.703
 2779SOL     OW 9156   1.612   6.664   4.828
 2779SOL    HW1 9157   1.594   6.726   4.904
 2779SOL    HW2 9158   1.543   6.677   4.756
 2780SOL     OW 9159   0.927   5.663   5.108
 2780SOL    HW1 9160   0.946   5.644   5.011
 2780SOL    HW2 9161   1.007   5.707   5.149
 2781SOL     OW 9162   0.944   6.671   5.508
 2781SOL    HW1 9163   0.848   6.694   5.526
 2781SOL    HW2 9164   0.948   6.600   5.438
 2782SOL     OW 9165   0.730   6.618   4.078
 2782SOL    HW1 9166   0.723   6.599   4.176
 2782SOL    HW2 9167   0.811   6.572   4.041
 2783SOL     OW 9168   0.422   6.383   4.972
 2783SOL    HW1 9169   0.499   6.396   5.035
 2783SOL    HW2 9170   0.381   6.294   4.989
 2784SOL     OW 9171   1.262   5.951   5.016
 2784SOL    HW1 9172   1.288   6.034   5.066
 2784SOL    HW2 9173   1.171   5.963   4.977
 2785SOL     OW 9174   0.079   0.160   5.088
 2785SOL    HW1 9175   6.999   0.215   5.068
 2785SOL    HW2 9176   0.123   0.194   5.172
 2786SOL     OW 9177   0.350   6.728   4.208
 2786SOL    HW1 9178   0.421   6.785   4.167
 2786SOL    HW2 9179   0.324   6.655   4.144
 2787SOL     OW 9180   0.531   6.114   4.595
 2787SOL    HW1 9181   0.545   6.175   4.517
 2787SOL    HW2 9182   0.602   6.130   4.664
 2788SOL     OW 9183   1.581   6.209   4.213
 2788SOL    HW1 9184   1.519   6.252   4.279
 2788SOL    HW2 9185   1.649   6.276   4.184
 2789SOL     OW 9186   0.484   6.300   5.347
 2789SOL    HW1 9187   0.532   6.343   5.270
 2789SOL    HW2 9188   0.541   6.228   5.385
 2790SOL     OW 9189   1.637   6.381   5.417
 2790SOL    HW1 9190   1.543   6.416   5.407
 2790SOL    HW2 9191   1.695   6.419   5.345
 2791SOL     OW 9192   0.996   5.723   5.479
 2791SOL    HW1 9193   1.054   5.803   5.467
 2791SOL    HW2 9194   1.048   5.640   5.457
 2792SOL     OW 9195   0.492   5.638   5.491
 2792SOL    HW1 9196   0.441   5.588   5.421
 2792SOL    HW2 9197   0.439   5.717   5.522
 2793SOL     OW 9198   0.593   6.439   4.760
 2793SOL    HW1 9199   0.619   6.535   4.752
 2793SOL    HW2 9200   0.526   6.428   4.833
 2794SOL     OW 9201   1.302   6.430   4.714
 2794SOL    HW1 9202   1.208   6.405   4.691
 2794SOL    HW2 9203   1.361   6.350   4.700
 2795SOL     OW 9204   1.199   6.108   3.987
 2795SOL    HW1 9205   1.217   6.029   4.046
 2795SOL    HW2 9206   1.149   6.177   4.039
 2796SOL     OW 9207   0.308   5.757   4.963
 2796SOL    HW1 9208   0.268   5.788   5.049
 2796SOL    HW2 9209   0.289   5.660   4.950
 2797SOL     OW 9210   0.117   6.906   4.991
 2797SOL    HW1 9211   0.155   6.839   5.055
 2797SOL    HW2 9212   0.094   6.990   5.040
 2798SOL     OW 9213   0.728   6.200   4.772
 2798SOL    HW1 9214   0.798   6.183   4.703
 2798SOL    HW2 9215   0.688   6.290   4.758
 2799SOL     OW 9216   1.739   6.573   5.591
 2799SOL    HW1 9217   1.704   6.495   5.540
 2799SOL    HW2 9218   1.684   6.587   5.673
 2800SOL     OW 9219   0.321   5.651   4.356
 2800SOL    HW1 9220   0.286   5.742   4.375
 2800SOL    HW2 9221   0.334   5.601   4.442
 2801SOL     OW 9222   1.625   5.981   4.067
 2801SOL    HW1 9223   1.668   5.913   4.126
 2801SOL    HW2 9224   1.597   6.060   4.123
 2802SOL     OW 9225   1.029   6.341   4.671
 2802SOL    HW1 9226   1.008   6.360   4.767
 2802SOL    HW2 9227   0.999   6.247   4.649
 2803SOL     OW 9228   1.920   0.026   5.310
 2803SOL    HW1 9229   1.961   0.113   5.283
 2803SOL    HW2 9230   1.969   6.989   5.389
 2804SOL     OW 9231   0.378   6.471   5.537
 2804SOL    HW1 9232   0.448   6.500   5.603
 2804SOL    HW2 9233   0.419   6.407   5.471
 2805SOL     OW 9234   1.521   5.846   3.845
 2805SOL    HW1 9235   1.469   5.769   3.881
 2805SOL    HW2 9236   1.559   5.899   3.921
 2806SOL     OW 9237   1.280   6.405   3.734
 2806SOL    HW1 9238   1.313   6.312   3.748
 2806SOL    HW2 9239   1.315   6.441   3.648
 2807SOL     OW 9240   0.319   6.401   4.646
 2807SOL    HW1 9241   0.417   6.415   4.632
 2807SOL    HW2 9242   0.303   6.315   4.694
 2808SOL     OW 9243   0.302   6.107   4.736
 2808SOL    HW1 9244   0.262   6.015   4.728
 2808SOL    HW2 9245   0.385   6.112   4.681
 2809SOL     OW 9246   1.134   5.953   5.421
 2809SOL    HW1 9247   1.086   6.004   5.492
 2809SOL    HW2 9248   1.224   5.994   5.406
 2810SOL     OW 9249   1.158   5.778   5.206
 2810SOL    HW1 9250   1.141   5.841   5.282
 2810SOL    HW2 9251   1.204   5.828   5.132
 2811SOL     OW 9252   6.957   6.962   3.955
 2811SOL    HW1 9253   6.895   6.972   4.033
 2811SOL    HW2 9254   6.999   6.872   3.957
 2812SOL     OW 9255   0.941   6.376   4.928
 2812SOL    HW1 9256   0.995   6.352   5.008
 2812SOL    HW2 9257   0.859   6.319   4.925
 2813SOL     OW 9258   0.055   6.200   4.833
 2813SOL    HW1 9259   0.142   6.170   4.794
 2813SOL    HW2 9260   0.055   6.183   4.932
 2814SOL     OW 9261   0.220   6.115   5.458
 2814SOL    HW1 9262   0.291   6.049   5.436
 2814SOL    HW2 9263   0.222   6.190   5.392
 2815SOL     OW 9264   1.394   6.502   5.369
 2815SOL    HW1 9265   1.415   6.600   5.370
 2815SOL    HW2 9266   1.387   6.471   5.274
 2816SOL     OW 9267   0.802   6.160   4.080
 2816SOL    HW1 9268   0.816   6.077   4.027
 2816SOL    HW2 9269   0.719   6.205   4.049
 2817SOL     OW 9270   1.638   6.177   4.878
 2817SOL    HW1 9271   1.621   6.111   4.951
 2817SOL    HW2 9272   1.736   6.176   4.855
 2818SOL     OW 9273   0.743   6.003   4.963
 2818SOL    HW1 9274   0.679   5.927   4.952
 2818SOL    HW2 9275   0.724   6.073   4.894
 2819SOL     OW 9276   0.420   6.047   3.919
 2819SOL    HW1 9277   0.475   6.130   3.929
 2819SOL    HW2 9278   0.333   6.059   3.968
 2820SOL     OW 9279   0.210   6.714   5.232
 2820SOL    HW1 9280   0.194   6.653   5.309
 2820SOL    HW2 9281   0.212   6.662   5.147
 2821SOL     OW 9282   1.309   6.607   4.923
 2821SOL    HW1 9283   1.311   6.535   4.854
 2821SOL    HW2 9284   1.273   6.691   4.882
 2822SOL     OW 9285   1.345   6.446   4.003
 2822SOL    HW1 9286   1.284   6.398   4.066
 2822SOL    HW2 9287   1.315   6.429   3.909
 2823SOL     OW 9288   0.069   6.836   4.734
 2823SOL    HW1 9289   0.096   6.859   4.827
 2823SOL    HW2 9290   6.970   6.821   4.730
 2824SOL     OW 9291   1.767   5.788   4.205
 2824SOL    HW1 9292   1.822   5.767   4.123
 2824SOL    HW2 9293   1.722   5.705   4.237
 2825SOL     OW 9294   1.276   6.542   4.393
 2825SOL    HW1 9295   1.343   6.470   4.410
 2825SOL    HW2 9296   1.321   6.619   4.347
 2826SOL     OW 9297   0.789   6.852   5.119
 2826SOL    HW1 9298   0.758   6.891   5.205
 2826SOL    HW2 9299   0.720   6.867   5.049
 2827SOL     OW 9300   1.845   5.738   4.686
 2827SOL    HW1 9301   1.876   5.645   4.665
 2827SOL    HW2 9302   1.754   5.752   4.647
 2828SOL     OW 9303   0.254   5.902   4.450
 2828SOL    HW1 9304   0.249   6.002   4.441
 2828SOL    HW2 9305   0.243   5.877   4.546
 2829SOL     OW 9306   1.265   0.179   3.735
 2829SOL    HW1 9307   1.268   0.109   3.807
 2829SOL    HW2 9308   1.174   0.179   3.693
 2830SOL     OW 9309   0.828   6.582   5.110
 2830SOL    HW1 9310   0.879   6.554   5.029
 2830SOL    HW2 9311   0.817   6.682   5.110
 2831SOL     OW 9312   0.950   6.493   3.956
 2831SOL    HW1 9313   1.022   6.553   3.921
 2831SOL    HW2 9314   0.990   6.425   4.017
 2832SOL     OW 9315   0.420   6.882   5.170
 2832SOL    HW1 9316   0.432   6.950   5.242
 2832SOL    HW2 9317   0.349   6.818   5.196
 2833SOL     OW 9318   1.596   6.845   5.059
 2833SOL    HW1 9319   1.674   6.814   5.112
 2833SOL    HW2 9320   1.551   6.921   5.107
 2834SOL     OW 9321   1.089   6.734   4.540
 2834SOL    HW1 9322   1.005   6.680   4.548
 2834SOL    HW2 9323   1.156   6.683   4.486
 2835SOL     OW 9324   1.032   5.827   4.672
 2835SOL    HW1 9325   1.029   5.787   4.580
 2835SOL    HW2 9326   1.027   5.754   4.740
 2836SOL     OW 9327   1.760   5.953   5.125
 2836SOL    HW1 9328   1.828   6.027   5.120
 2836SOL    HW2 9329   1.782   5.883   5.057
 2837SOL     OW 9330   0.136   6.548   5.445
 2837SOL    HW1 9331   0.085   6.614   5.500
 2837SOL    HW2 9332   0.222   6.526   5.490
 2838SOL     OW 9333   0.694   5.777   5.226
 2838SOL    HW1 9334   0.779   5.749   5.182
 2838SOL    HW2 9335   0.714   5.812   5.318
 2839SOL     OW 9336   0.077   5.866   3.722
 2839SOL    HW1 9337   0.010   5.802   3.760
 2839SOL    HW2 9338   0.030   5.948   3.689
 2840SOL     OW 9339   1.414   6.428   5.106
 2840SOL    HW1 9340   1.360   6.490   5.049
 2840SOL    HW2 9341   1.509   6.427   5.074
 2841SOL     OW 9342   0.063   5.799   4.034
 2841SOL    HW1 9343   6.999   5.761   3.966
 2841SOL    HW2 9344   0.151   5.752   4.028
 2842SOL     OW 9345   0.642   6.386   5.139
 2842SOL    HW1 9346   0.698   6.468   5.131
 2842SOL    HW2 9347   0.701   6.306   5.149
 2843SOL     OW 9348   0.708   6.134   5.434
 2843SOL    HW1 9349   0.763   6.193   5.493
 2843SOL    HW2 9350   0.725   6.038   5.459
 2844SOL     OW 9351   1.473   6.766   5.369
 2844SOL    HW1 9352   1.455   6.787   5.465
 2844SOL    HW2 9353   1.569   6.783   5.348
 2845SOL     OW 9354   1.662   6.440   4.983
 2845SOL    HW1 9355   1.658   6.353   4.934
 2845SOL    HW2 9356   1.649   6.516   4.919
 2846SOL     OW 9357   1.230   5.908   4.181
 2846SOL    HW1 9358   1.291   5.828   4.181
 2846SOL    HW2 9359   1.252   5.966   4.259
 2847SOL     OW 9360   0.575   6.311   4.407
 2847SOL    HW1 9361   0.628   6.394   4.390
 2847SOL    HW2 9362   0.510   6.297   4.333
 2848SOL     OW 9363   1.730   5.928   5.400
 2848SOL    HW1 9364   1.740   5.942   5.301
 2848SOL    HW2 9365   1.650   5.871   5.417
 2849SOL     OW 9366   1.780   6.512   5.222
 2849SOL    HW1 9367   1.775   6.611   5.234
 2849SOL    HW2 9368   1.744   6.487   5.132
 2850SOL     OW 9369   0.874   6.569   4.581
 2850SOL    HW1 9370   0.919   6.487   4.617
 2850SOL    HW2 9371   0.811   6.605   4.649
 2851SOL     OW 9372   1.159   6.641   3.804
 2851SOL    HW1 9373   1.082   6.663   3.745
 2851SOL    HW2 9374   1.196   6.552   3.777
 2852SOL     OW 9375   0.248   6.909   5.575
 2852SOL    HW1 9376   0.152   6.920   5.549
 2852SOL    HW2 9377   0.261   6.944   5.668
 2853SOL     OW 9378   0.179   6.878   4.382
 2853SOL    HW1 9379   0.143   6.828   4.460
 2853SOL    HW2 9380   0.222   6.814   4.318
 2854SOL     OW 9381   0.674   6.985   5.346
 2854SOL    HW1 9382   0.598   0.003   5.409
 2854SOL    HW2 9383   0.693   0.069   5.294
 2855SOL     OW 9384   1.812   5.750   4.957
 2855SOL    HW1 9385   1.818   5.653   4.981
 2855SOL    HW2 9386   1.825   5.761   4.859
 2856SOL     OW 9387   0.449   5.989   4.248
 2856SOL    HW1 9388   0.496   5.929   4.184
 2856SOL    HW2 9389   0.403   5.935   4.319
 2857SOL     OW 9390   1.601   0.033   4.862
 2857SOL    HW1 9391   1.539   0.005   4.789
 2857SOL    HW2 9392   1.605   6.961   4.932
 2858SOL     OW 9393   0.339   6.123   5.017
 2858SOL    HW1 9394   0.393   6.061   5.074
 2858SOL    HW2 9395   0.348   6.096   4.921
 2859SOL     OW 9396   1.422   5.823   4.836
 2859SOL    HW1 9397   1.433   5.725   4.855
 2859SOL    HW2 9398   1.372   5.867   4.910
 2860SOL     OW 9399   1.014   5.602   4.841
 2860SOL    HW1 9400   0.954   5.538   4.793
 2860SOL    HW2 9401   1.107   5.564   4.843
 2861SOL     OW 9402   0.753   6.890   3.989
 2861SOL    HW1 9403   0.742   6.794   4.014
 2861SOL    HW2 9404   0.783   6.942   4.070
 2862SOL     OW 9405   1.385   5.617   3.917
 2862SOL    HW1 9406   1.433   5.545   3.866
 2862SOL    HW2 9407   1.290   5.590   3.930
 2863SOL     OW 9408   1.283   6.070   4.395
 2863SOL    HW1 9409   1.234   6.157   4.391
 2863SOL    HW2 9410   1.283   6.036   4.489
 2864SOL     OW 9411   1.586   5.786   4.616
 2864SOL    HW1 9412   1.530   5.812   4.695
 2864SOL    HW2 9413   1.588   5.860   4.550
 2865SOL     OW 9414   0.050   6.668   3.985
 2865SOL    HW1 9415   0.145   6.639   3.989
 2865SOL    HW2 9416   6.990   6.589   4.001
 2866SOL     OW 9417   0.145   6.243   5.699
 2866SOL    HW1 9418   0.147   6.182   5.777
 2866SOL    HW2 9419   0.186   6.197   5.620
 2867SOL     OW 9420   0.211   5.857   6.600
 2867SOL    HW1 9421   0.269   5.821   6.673
 2867SOL    HW2 9422   0.116   5.827   6.616
 2868SOL     OW 9423   6.981   5.968   6.241
 2868SOL    HW1 9424   6.930   5.963   6.327
 2868SOL    HW2 9425   0.043   5.890   6.234
 2869SOL     OW 9426   0.566   6.905   6.772
 2869SOL    HW1 9427   0.497   6.927   6.703
 2869SOL    HW2 9428   0.522   6.890   6.860
 2870SOL     OW 9429   1.581   0.046   6.249
 2870SOL    HW1 9430   1.573   0.054   6.348
 2870SOL    HW2 9431   1.498   0.081   6.205
 2871SOL     OW 9432   1.125   6.303   6.253
 2871SOL    HW1 9433   1.172   6.391   6.249
 2871SOL    HW2 9434   1.071   6.298   6.337
 2872SOL     OW 9435   1.796   6.152   5.794
 2872SOL    HW1 9436   1.754   6.159   5.703
 2872SOL    HW2 9437   1.746   6.084   5.848
 2873SOL     OW 9438   0.672   6.702   6.610
 2873SOL    HW1 9439   0.645   6.773   6.675
 2873SOL    HW2 9440   0.636   6.725   6.519
 2874SOL     OW 9441   0.708   6.562   6.223
 2874SOL    HW1 9442   0.782   6.561   6.291
 2874SOL    HW2 9443   0.630   6.613   6.259
 2875SOL     OW 9444   0.374   6.981   6.599
 2875SOL    HW1 9445   0.318   6.924   6.539
 2875SOL    HW2 9446   0.411   0.058   6.547
 2876SOL     OW 9447   1.581   6.021   6.341
 2876SOL    HW1 9448   1.516   6.028   6.266
 2876SOL    HW2 9449   1.560   6.089   6.411
 2877SOL     OW 9450   0.276   6.681   6.497
 2877SOL    HW1 9451   0.281   6.586   6.526
 2877SOL    HW2 9452   0.195   6.724   6.537
 2878SOL     OW 9453   0.560   6.564   5.732
 2878SOL    HW1 9454   0.595   6.623   5.658
 2878SOL    HW2 9455   0.615   6.579   5.814
 2879SOL     OW 9456   0.129   6.191   6.172
 2879SOL    HW1 9457   0.063   6.119   6.193
 2879SOL    HW2 9458   0.111   6.270   6.230
 2880SOL     OW 9459   1.700   6.467   6.233
 2880SOL    HW1 9460   1.792   6.455   6.272
 2880SOL    HW2 9461   1.705   6.530   6.155
 2881SOL     OW 9462   1.686   6.684   6.043
 2881SOL    HW1 9463   1.766   6.673   5.985
 2881SOL    HW2 9464   1.709   6.740   6.123
 2882SOL     OW 9465   0.833   5.601   6.100
 2882SOL    HW1 9466   0.877   5.685   6.070
 2882SOL    HW2 9467   0.734   5.615   6.103
 2883SOL     OW 9468   0.216   6.508   6.831
 2883SOL    HW1 9469   0.310   6.475   6.842
 2883SOL    HW2 9470   0.183   6.482   6.740
 2884SOL     OW 9471   1.556   6.607   5.806
 2884SOL    HW1 9472   1.484   6.542   5.828
 2884SOL    HW2 9473   1.602   6.636   5.890
 2885SOL     OW 9474   1.461   6.969   6.502
 2885SOL    HW1 9475   1.392   0.022   6.454
 2885SOL    HW2 9476   1.440   6.872   6.495
 2886SOL     OW 9477   0.564   6.281   5.849
 2886SOL    HW1 9478   0.568   6.369   5.803
 2886SOL    HW2 9479   0.503   6.287   5.928
 2887SOL     OW 9480   1.276   5.977   6.513
 2887SOL    HW1 9481   1.183   5.942   6.516
 2887SOL    HW2 9482   1.334   5.924   6.575
 2888SOL     OW 9483   0.787   6.151   0.076
 2888SOL    HW1 9484   0.719   6.207   0.125
 2888SOL    HW2 9485   0.747   6.120   6.990
 2889SOL     OW 9486   0.990   5.994   6.767
 2889SOL    HW1 9487   0.898   6.012   6.802
 2889SOL    HW2 9488   0.985   5.929   6.691
 2890SOL     OW 9489   1.043   6.287   5.988
 2890SOL    HW1 9490   1.068   6.291   6.084
 2890SOL    HW2 9491   0.954   6.243   5.978
 2891SOL     OW 9492   0.089   6.396   6.372
 2891SOL    HW1 9493   0.182   6.410   6.407
 2891SOL    HW2 9494   0.024   6.396   6.447
 2892SOL     OW 9495   0.866   5.932   5.789
 2892SOL    HW1 9496   0.925   5.982   5.726
 2892SOL    HW2 9497   0.820   5.858   5.740
 2893SOL     OW 9498   1.435   6.744   6.176
 2893SOL    HW1 9499   1.513   6.714   6.121
 2893SOL    HW2 9500   1.428   6.844   6.172
 2894SOL     OW 9501   0.565   5.731   6.509
 2894SOL    HW1 9502   0.577   5.761   6.604
 2894SOL    HW2 9503   0.566   5.810   6.448
 2895SOL     OW 9504   1.816   6.663   6.474
 2895SOL    HW1 9505   1.779   6.711   6.395
 2895SOL    HW2 9506   1.743   6.639   6.537
 2896SOL     OW 9507   0.301   6.547   5.852
 2896SOL    HW1 9508   0.385   6.563   5.801
 2896SOL    HW2 9509   0.264   6.458   5.829
 2897SOL     OW 9510   1.469   6.348   6.295
 2897SOL    HW1 9511   1.471   6.298   6.381
 2897SOL    HW2 9512   1.556   6.394   6.281
 2898SOL     OW 9513   1.628   6.966   5.707
 2898SOL    HW1 9514   1.598   0.061   5.710
 2898SOL    HW2 9515   1.551   6.908   5.678
 2899SOL     OW 9516   1.396   5.682   6.044
 2899SOL    HW1 9517   1.396   5.660   5.947
 2899SOL    HW2 9518   1.485   5.657   6.083
 2900SOL     OW 9519   0.392   6.250   6.064
 2900SOL    HW1 9520   0.420   6.155   6.077
 2900SOL    HW2 9521   0.297   6.262   6.091
 2901SOL     OW 9522   0.672   5.689   5.692
 2901SOL    HW1 9523   0.731   5.611   5.713
 2901SOL    HW2 9524   0.603   5.661   5.626
 2902SOL     OW 9525   0.934   6.107   6.460
 2902SOL    HW1 9526   0.905   6.095   6.365
 2902SOL    HW2 9527   0.966   6.020   6.496
 2903SOL     OW 9528   0.563   5.641   6.083
 2903SOL    HW1 9529   0.479   5.641   6.138
 2903SOL    HW2 9530   0.559   5.717   6.017
 2904SOL     OW 9531   1.405   6.776   5.653
 2904SOL    HW1 9532   1.467   6.716   5.703
 2904SOL    HW2 9533   1.314   6.733   5.649
 2905SOL     OW 9534   0.280   5.651   5.793
 2905SOL    HW1 9535   0.317   5.720   5.731
 2905SOL    HW2 9536   0.353   5.590   5.823
 2906SOL     OW 9537   0.959   5.837   6.031
 2906SOL    HW1 9538   0.926   5.870   5.943
 2906SOL    HW2 9539   1.057   5.853   6.038
 2907SOL     OW 9540   1.293   0.123   6.330
 2907SOL    HW1 9541   1.290   0.221   6.314
 2907SOL    HW2 9542   1.202   0.084   6.321
 2908SOL     OW 9543   0.485   6.690   6.321
 2908SOL    HW1 9544   0.414   6.691   6.391
 2908SOL    HW2 9545   0.444   6.704   6.231
 2909SOL     OW 9546   1.025   6.092   5.631
 2909SOL    HW1 9547   0.981   6.180   5.610
 2909SOL    HW2 9548   1.095   6.105   5.701
 2910SOL     OW 9549   0.594   5.792   6.777
 2910SOL    HW1 9550   0.642   5.716   6.820
 2910SOL    HW2 9551   0.497   5.787   6.801
 2911SOL     OW 9552   0.868   6.044   6.201
 2911SOL    HW1 9553   0.822   6.102   6.134
 2911SOL    HW2 9554   0.902   5.961   6.156
 2912SOL     OW 9555   1.017   5.637   6.313
 2912SOL    HW1 9556   0.954   5.632   6.236
 2912SOL    HW2 9557   0.998   5.562   6.377
 2913SOL     OW 9558   1.424   6.691   6.464
 2913SOL    HW1 9559   1.369   6.611   6.489
 2913SOL    HW2 9560   1.431   6.697   6.365
 2914SOL     OW 9561   1.463   6.200   6.533
 2914SOL    HW1 9562   1.393   6.129   6.547
 2914SOL    HW2 9563   1.529   6.196   6.608
 2915SOL     OW 9564   1.826   6.371   5.955
 2915SOL    HW1 9565   1.882   6.335   6.029
 2915SOL    HW2 9566   1.812   6.300   5.886
 2916SOL     OW 9567   1.754   6.829   6.259
 2916SOL    HW1 9568   1.852   6.851   6.261
 2916SOL    HW2 9569   1.701   6.913   6.259
 2917SOL     OW 9570   1.388   6.161   5.648
 2917SOL    HW1 9571   1.338   6.130   5.729
 2917SOL    HW2 9572   1.486   6.147   5.662
 2918SOL     OW 9573   0.551   5.835   5.894
 2918SOL    HW1 9574   0.600   5.784   5.824
 2918SOL    HW2 9575   0.506   5.914   5.853
 2919SOL     OW 9576   1.743   6.834   0.261
 2919SOL    HW1 9577   1.829   6.785   0.248
 2919SOL    HW2 9578   1.735   6.905   0.192
 2920SOL     OW 9579   1.014   6.875   6.920
 2920SOL    HW1 9580   0.924   6.867   6.962
 2920SOL    HW2 9581   1.081   6.826   6.976
 2921SOL     OW 9582   1.133   6.746   6.702
 2921SOL    HW1 9583   1.084   6.807   6.765
 2921SOL    HW2 9584   1.123   6.779   6.609
 2922SOL     OW 9585   1.616   6.627   6.653
 2922SOL    HW1 9586   1.611   6.689   6.732
 2922SOL    HW2 9587   1.541   6.648   6.590
 2923SOL     OW 9588   0.730   6.616   5.940
 2923SOL    HW1 9589   0.726   6.598   6.039
 2923SOL    HW2 9590   0.811   6.571   5.902
 2924SOL     OW 9591   0.465   6.401   6.891
 2924SOL    HW1 9592   0.498   6.437   6.978
 2924SOL    HW2 9593   0.421   6.312   6.907
 2925SOL     OW 9594   1.255   6.009   6.835
 2925SOL    HW1 9595   1.284   6.078   6.901
 2925SOL    HW2 9596   1.159   6.023   6.811
 2926SOL     OW 9597   0.111   0.155   6.982
 2926SOL    HW1 9598   0.017   0.175   0.009
 2926SOL    HW2 9599   0.163   0.125   0.062
 2927SOL     OW 9600   0.364   6.726   6.068
 2927SOL    HW1 9601   0.438   6.779   6.026
 2927SOL    HW2 9602   0.334   6.655   6.004
 2928SOL     OW 9603   0.512   6.136   6.461
 2928SOL    HW1 9604   0.528   6.195   6.381
 2928SOL    HW2 9605   0.590   6.143   6.523
 2929SOL     OW 9606   1.584   6.212   6.071
 2929SOL    HW1 9607   1.524   6.251   6.141
 2929SOL    HW2 9608   1.650   6.281   6.042
 2930SOL     OW 9609   0.591   6.440   6.648
 2930SOL    HW1 9610   0.616   6.536   6.632
 2930SOL    HW2 9611   0.549   6.431   6.738
 2931SOL     OW 9612   1.313   6.442   6.569
 2931SOL    HW1 9613   1.216   6.418   6.563
 2931SOL    HW2 9614   1.368   6.359   6.556
 2932SOL     OW 9615   1.199   6.107   5.849
 2932SOL    HW1 9616   1.217   6.028   5.908
 2932SOL    HW2 9617   1.149   6.176   5.901
 2933SOL     OW 9618   0.332   5.766   6.836
 2933SOL    HW1 9619   0.294   5.785   6.927
 2933SOL    HW2 9620   0.302   5.676   6.806
 2934SOL     OW 9621   0.093   6.922   6.841
 2934SOL    HW1 9622   0.125   6.847   6.899
 2934SOL    HW2 9623   0.092   0.006   6.894
 2935SOL     OW 9624   0.721   6.193   6.626
 2935SOL    HW1 9625   0.800   6.182   6.565
 2935SOL    HW2 9626   0.693   6.289   6.625
 2936SOL     OW 9627   0.320   5.652   6.213
 2936SOL    HW1 9628   0.289   5.744   6.237
 2936SOL    HW2 9629   0.333   5.599   6.297
 2937SOL     OW 9630   1.624   5.982   5.928
 2937SOL    HW1 9631   1.668   5.914   5.987
 2937SOL    HW2 9632   1.597   6.061   5.983
 2938SOL     OW 9633   1.032   6.349   6.560
 2938SOL    HW1 9634   1.016   6.361   6.658
 2938SOL    HW2 9635   1.005   6.256   6.534
 2939SOL     OW 9636   1.522   5.846   5.706
 2939SOL    HW1 9637   1.470   5.768   5.742
 2939SOL    HW2 9638   1.559   5.899   5.782
 2940SOL     OW 9639   1.278   6.405   5.596
 2940SOL    HW1 9640   1.312   6.312   5.610
 2940SOL    HW2 9641   1.314   6.441   5.510
 2941SOL     OW 9642   0.319   6.403   6.550
 2941SOL    HW1 9643   0.418   6.417   6.553
 2941SOL    HW2 9644   0.298   6.308   6.572
 2942SOL     OW 9645   0.297   6.112   6.618
 2942SOL    HW1 9646   0.263   6.019   6.611
 2942SOL    HW2 9647   0.377   6.124   6.559
 2943SOL     OW 9648   1.195   5.843   0.046
 2943SOL    HW1 9649   1.275   5.859   0.104
 2943SOL    HW2 9650   1.205   5.895   6.961
 2944SOL     OW 9651   6.954   6.964   5.819
 2944SOL    HW1 9652   6.893   6.972   5.898
 2944SOL    HW2 9653   6.999   6.875   5.820
 2945SOL     OW 9654   0.968   6.376   6.829
 2945SOL    HW1 9655   1.011   6.313   6.893
 2945SOL    HW2 9656   0.886   6.416   6.871
 2946SOL     OW 9657   0.029   6.173   6.690
 2946SOL    HW1 9658   0.122   6.150   6.661
 2946SOL    HW2 9659   6.974   6.090   6.694
 2947SOL     OW 9660   0.801   6.158   5.944
 2947SOL    HW1 9661   0.816   6.075   5.890
 2947SOL    HW2 9662   0.719   6.204   5.912
 2948SOL     OW 9663   1.659   6.179   6.728
 2948SOL    HW1 9664   1.634   6.112   6.798
 2948SOL    HW2 9665   1.758   6.176   6.713
 2949SOL     OW 9666   0.710   6.033   6.842
 2949SOL    HW1 9667   0.665   5.948   6.814
 2949SOL    HW2 9668   0.709   6.097   6.766
 2950SOL     OW 9669   0.421   6.047   5.781
 2950SOL    HW1 9670   0.477   6.130   5.789
 2950SOL    HW2 9671   0.335   6.060   5.829
 2951SOL     OW 9672   0.183   6.717   0.000
 2951SOL    HW1 9673   0.143   6.688   0.087
 2951SOL    HW2 9674   0.188   6.639   6.938
 2952SOL     OW 9675   1.317   6.580   6.815
 2952SOL    HW1 9676   1.345   6.523   6.737
 2952SOL    HW2 9677   1.248   6.646   6.784
 2953SOL     OW 9678   1.344   6.447   5.864
 2953SOL    HW1 9679   1.285   6.399   5.930
 2953SOL    HW2 9680   1.313   6.428   5.771
 2954SOL     OW 9681   0.058   6.810   6.596
 2954SOL    HW1 9682   0.079   6.855   6.683
 2954SOL    HW2 9683   6.959   6.804   6.584
 2955SOL     OW 9684   1.770   5.791   6.065
 2955SOL    HW1 9685   1.824   5.770   5.984
 2955SOL    HW2 9686   1.725   5.707   6.097
 2956SOL     OW 9687   1.273   6.533   6.246
 2956SOL    HW1 9688   1.342   6.464   6.267
 2956SOL    HW2 9689   1.317   6.612   6.202
 2957SOL     OW 9690   0.769   6.833   0.048
 2957SOL    HW1 9691   0.795   6.842   0.144
 2957SOL    HW2 9692   0.695   6.897   0.027
 2958SOL     OW 9693   1.844   5.742   6.578
 2958SOL    HW1 9694   1.877   5.651   6.552
 2958SOL    HW2 9695   1.754   5.758   6.536
 2959SOL     OW 9696   0.262   5.899   6.320
 2959SOL    HW1 9697   0.239   5.995   6.303
 2959SOL    HW2 9698   0.250   5.878   6.417
 2960SOL     OW 9699   1.265   0.177   5.600
 2960SOL    HW1 9700   1.267   0.109   5.673
 2960SOL    HW2 9701   1.175   0.178   5.556
 2961SOL     OW 9702   0.764   6.587   6.920
 2961SOL    HW1 9703   0.752   6.606   6.822
 2961SOL    HW2 9704   0.776   6.674   6.969
 2962SOL     OW 9705   0.951   6.492   5.817
 2962SOL    HW1 9706   1.022   6.553   5.782
 2962SOL    HW2 9707   0.991   6.424   5.878
 2963SOL     OW 9708   0.409   6.881   6.997
 2963SOL    HW1 9709   0.383   6.960   0.053
 2963SOL    HW2 9710   0.333   6.815   6.994
 2964SOL     OW 9711   1.619   6.793   6.865
 2964SOL    HW1 9712   1.708   6.823   6.898
 2964SOL    HW2 9713   1.555   6.785   6.941
 2965SOL     OW 9714   1.082   6.744   6.381
 2965SOL    HW1 9715   1.003   6.687   6.402
 2965SOL    HW2 9716   1.153   6.689   6.337
 2966SOL     OW 9717   1.028   5.832   6.530
 2966SOL    HW1 9718   1.023   5.795   6.437
 2966SOL    HW2 9719   1.038   5.756   6.595
 2967SOL     OW 9720   1.645   5.988   6.924
 2967SOL    HW1 9721   1.691   6.024   0.005
 2967SOL    HW2 9722   1.674   5.894   6.907
 2968SOL     OW 9723   0.714   5.751   0.070
 2968SOL    HW1 9724   0.809   5.727   0.089
 2968SOL    HW2 9725   0.709   5.847   0.041
 2969SOL     OW 9726   0.075   5.867   5.586
 2969SOL    HW1 9727   0.008   5.803   5.625
 2969SOL    HW2 9728   0.027   5.948   5.552
 2970SOL     OW 9729   0.062   5.799   5.900
 2970SOL    HW1 9730   6.999   5.761   5.833
 2970SOL    HW2 9731   0.151   5.753   5.893
 2971SOL     OW 9732   1.483   6.893   0.352
 2971SOL    HW1 9733   1.432   6.815   0.315
 2971SOL    HW2 9734   1.578   6.887   0.322
 2972SOL     OW 9735   1.747   6.436   6.812
 2972SOL    HW1 9736   1.713   6.347   6.782
 2972SOL    HW2 9737   1.703   6.508   6.759
 2973SOL     OW 9738   1.228   5.905   6.043
 2973SOL    HW1 9739   1.290   5.826   6.041
 2973SOL    HW2 9740   1.253   5.964   6.119
 2974SOL     OW 9741   0.570   6.318   6.265
 2974SOL    HW1 9742   0.625   6.399   6.247
 2974SOL    HW2 9743   0.508   6.303   6.188
 2975SOL     OW 9744   1.740   6.379   0.088
 2975SOL    HW1 9745   1.675   6.443   0.130
 2975SOL    HW2 9746   1.753   6.403   6.992
 2976SOL     OW 9747   0.881   6.566   6.452
 2976SOL    HW1 9748   0.934   6.491   6.490
 2976SOL    HW2 9749   0.822   6.605   6.523
 2977SOL     OW 9750   1.160   6.642   5.665
 2977SOL    HW1 9751   1.082   6.664   5.606
 2977SOL    HW2 9752   1.197   6.553   5.639
 2978SOL     OW 9753   0.190   6.871   6.236
 2978SOL    HW1 9754   0.147   6.814   6.307
 2978SOL    HW2 9755   0.240   6.812   6.172
 2979SOL     OW 9756   1.785   5.740   6.849
 2979SOL    HW1 9757   1.774   5.641   6.859
 2979SOL    HW2 9758   1.805   5.761   6.753
 2980SOL     OW 9759   0.448   5.991   6.111
 2980SOL    HW1 9760   0.494   5.928   6.049
 2980SOL    HW2 9761   0.406   5.940   6.186
 2981SOL     OW 9762   1.588   0.032   6.736
 2981SOL    HW1 9763   1.549   0.012   6.646
 2981SOL    HW2 9764   1.595   6.947   6.788
 2982SOL     OW 9765   0.332   6.151   6.896
 2982SOL    HW1 9766   0.393   6.084   6.937
 2982SOL    HW2 9767   0.329   6.137   6.797
 2983SOL     OW 9768   1.414   5.831   6.699
 2983SOL    HW1 9769   1.405   5.739   6.737
 2983SOL    HW2 9770   1.370   5.897   6.761
 2984SOL     OW 9771   1.044   5.591   6.671
 2984SOL    HW1 9772   1.001   5.527   6.608
 2984SOL    HW2 9773   1.128   5.551   6.707
 2985SOL     OW 9774   0.757   6.887   5.846
 2985SOL    HW1 9775   0.743   6.792   5.874
 2985SOL    HW2 9776   0.796   6.939   5.922
 2986SOL     OW 9777   1.388   5.615   5.778
 2986SOL    HW1 9778   1.436   5.543   5.727
 2986SOL    HW2 9779   1.292   5.588   5.790
 2987SOL     OW 9780   1.290   6.068   6.253
 2987SOL    HW1 9781   1.241   6.154   6.247
 2987SOL    HW2 9782   1.287   6.034   6.347
 2988SOL     OW 9783   1.588   5.782   6.493
 2988SOL    HW1 9784   1.529   5.809   6.569
 2988SOL    HW2 9785   1.588   5.855   6.424
 2989SOL     OW 9786   0.048   6.665   5.851
 2989SOL    HW1 9787   0.143   6.635   5.854
 2989SOL    HW2 9788   6.988   6.586   5.866
 2990SOL     OW 9789   2.063   0.689   0.130
 2990SOL    HW1 9790   1.970   0.654   0.139
 2990SOL    HW2 9791   2.098   0.668   0.038
 2991SOL     OW 9792   2.078   0.301   0.998
 2991SOL    HW1 9793   2.120   0.268   1.082
 2991SOL    HW2 9794   2.003   0.240   0.972
 2992SOL     OW 9795   1.876   0.411   0.629
 2992SOL    HW1 9796   1.803   0.440   0.691
 2992SOL    HW2 9797   1.840   0.344   0.564
 2993SOL     OW 9798   2.436   1.319   1.221
 2993SOL    HW1 9799   2.352   1.315   1.166
 2993SOL    HW2 9800   2.456   1.414   1.245
 2994SOL     OW 9801   3.456   1.528   0.707
 2994SOL    HW1 9802   3.408   1.493   0.787
 2994SOL    HW2 9803   3.393   1.536   0.630
 2995SOL     OW 9804   2.999   0.704   0.678
 2995SOL    HW1 9805   3.051   0.790   0.670
 2995SOL    HW2 9806   2.940   0.708   0.758
 2996SOL     OW 9807   3.668   0.583   0.143
 2996SOL    HW1 9808   3.627   0.673   0.127
 2996SOL    HW2 9809   3.617   0.535   0.215
 2997SOL     OW 9810   2.580   1.131   1.063
 2997SOL    HW1 9811   2.522   1.166   1.136
 2997SOL    HW2 9812   2.622   1.207   1.014
 2998SOL     OW 9813   2.744   0.747   1.833
 2998SOL    HW1 9814   2.735   0.813   1.908
 2998SOL    HW2 9815   2.767   0.795   1.749
 2999SOL     OW 9816   2.556   0.976   0.651
 2999SOL    HW1 9817   2.626   0.977   0.723
 2999SOL    HW2 9818   2.483   1.040   0.675
 3000SOL     OW 9819   2.569   1.156   1.837
 3000SOL    HW1 9820   2.629   1.225   1.879
 3000SOL    HW2 9821   2.490   1.200   1.795
 3001SOL     OW 9822   2.204   1.391   1.067
 3001SOL    HW1 9823   2.122   1.351   1.026
 3001SOL    HW2 9824   2.249   1.450   1.000
 3002SOL     OW 9825   3.306   1.509   1.379
 3002SOL    HW1 9826   3.366   1.588   1.389
 3002SOL    HW2 9827   3.228   1.517   1.441
 3003SOL     OW 9828   2.316   0.380   1.439
 3003SOL    HW1 9829   2.400   0.338   1.475
 3003SOL    HW2 9830   2.236   0.331   1.475
 3004SOL     OW 9831   3.493   0.481   0.753
 3004SOL    HW1 9832   3.480   0.525   0.664
 3004SOL    HW2 9833   3.441   0.530   0.823
 3005SOL     OW 9834   2.075   1.711   0.491
 3005SOL    HW1 9835   2.095   1.794   0.543
 3005SOL    HW2 9836   2.160   1.675   0.451
 3006SOL     OW 9837   2.994   1.338   1.702
 3006SOL    HW1 9838   3.045   1.329   1.788
 3006SOL    HW2 9839   2.935   1.259   1.690
 3007SOL     OW 9840   2.112   1.433   0.573
 3007SOL    HW1 9841   2.069   1.523   0.581
 3007SOL    HW2 9842   2.051   1.364   0.612
 3008SOL     OW 9843   2.132   1.098   0.853
 3008SOL    HW1 9844   2.144   1.005   0.888
 3008SOL    HW2 9845   2.078   1.151   0.918
 3009SOL     OW 9846   2.420   1.828   1.408
 3009SOL    HW1 9847   2.343   1.799   1.465
 3009SOL    HW2 9848   2.465   1.906   1.451
 3010SOL     OW 9849   2.421   0.965   0.175
 3010SOL    HW1 9850   2.478   0.980   0.093
 3010SOL    HW2 9851   2.464   1.008   0.254
 3011SOL     OW 9852   3.426   0.121   1.452
 3011SOL    HW1 9853   3.484   0.195   1.417
 3011SOL    HW2 9854   3.395   0.144   1.544
 3012SOL     OW 9855   1.984   0.668   0.549
 3012SOL    HW1 9856   1.958   0.575   0.573
 3012SOL    HW2 9857   1.977   0.727   0.630
 3013SOL     OW 9858   3.713   1.744   0.370
 3013SOL    HW1 9859   3.792   1.716   0.424
 3013SOL    HW2 9860   3.723   1.840   0.345
 3014SOL     OW 9861   3.565   0.932   0.668
 3014SOL    HW1 9862   3.655   0.888   0.660
 3014SOL    HW2 9863   3.546   0.982   0.583
 3015SOL     OW 9864   3.516   1.100   0.448
 3015SOL    HW1 9865   3.564   1.118   0.362
 3015SOL    HW2 9866   3.541   1.170   0.515
 3016SOL     OW 9867   1.967   0.764   1.570
 3016SOL    HW1 9868   2.051   0.819   1.578
 3016SOL    HW2 9869   1.890   0.823   1.548
 3017SOL     OW 9870   2.487   1.387   0.733
 3017SOL    HW1 9871   2.442   1.298   0.736
 3017SOL    HW2 9872   2.481   1.425   0.641
 3018SOL     OW 9873   3.121   1.218   1.422
 3018SOL    HW1 9874   3.143   1.147   1.355
 3018SOL    HW2 9875   3.188   1.215   1.496
 3019SOL     OW 9876   2.696   0.044   0.545
 3019SOL    HW1 9877   2.745   0.128   0.521
 3019SOL    HW2 9878   2.598   0.059   0.535
 3020SOL     OW 9879   2.057   0.950   1.304
 3020SOL    HW1 9880   2.149   0.916   1.288
 3020SOL    HW2 9881   1.995   0.913   1.234
 3021SOL     OW 9882   3.321   1.041   0.210
 3021SOL    HW1 9883   3.251   0.980   0.245
 3021SOL    HW2 9884   3.411   1.008   0.236
 3022SOL     OW 9885   3.052   1.818   1.632
 3022SOL    HW1 9886   3.047   1.886   1.560
 3022SOL    HW2 9887   3.061   1.727   1.591
 3023SOL     OW 9888   2.203   0.290   1.805
 3023SOL    HW1 9889   2.256   0.356   1.859
 3023SOL    HW2 9890   2.110   0.283   1.841
 3024SOL     OW 9891   3.321   1.422   0.920
 3024SOL    HW1 9892   3.267   1.443   1.002
 3024SOL    HW2 9893   3.312   1.325   0.898
 3025SOL     OW 9894   3.454   1.826   0.584
 3025SOL    HW1 9895   3.443   1.789   0.492
 3025SOL    HW2 9896   3.479   1.753   0.647
 3026SOL     OW 9897   2.448   0.707   0.266
 3026SOL    HW1 9898   2.444   0.802   0.233
 3026SOL    HW2 9899   2.385   0.696   0.343
 3027SOL     OW 9900   3.153   0.390   0.945
 3027SOL    HW1 9901   3.060   0.354   0.956
 3027SOL    HW2 9902   3.215   0.342   1.007
 3028SOL     OW 9903   3.439   1.697   0.336
 3028SOL    HW1 9904   3.539   1.702   0.343
 3028SOL    HW2 9905   3.412   1.683   0.241
 3029SOL     OW 9906   2.658   0.595   1.464
 3029SOL    HW1 9907   2.628   0.561   1.552
 3029SOL    HW2 9908   2.633   0.529   1.392
 3030SOL     OW 9909   3.257   0.486   1.678
 3030SOL    HW1 9910   3.264   0.528   1.768
 3030SOL    HW2 9911   3.302   0.397   1.679
 3031SOL     OW 9912   2.811   0.876   1.594
 3031SOL    HW1 9913   2.869   0.809   1.548
 3031SOL    HW2 9914   2.757   0.926   1.526
 3032SOL     OW 9915   2.878   0.407   1.196
 3032SOL    HW1 9916   2.783   0.421   1.227
 3032SOL    HW2 9917   2.877   0.366   1.105
 3033SOL     OW 9918   2.922   0.711   0.414
 3033SOL    HW1 9919   2.947   0.707   0.511
 3033SOL    HW2 9920   2.832   0.670   0.401
 3034SOL     OW 9921   1.956   0.839   0.771
 3034SOL    HW1 9922   2.047   0.827   0.811
 3034SOL    HW2 9923   1.905   0.905   0.826
 3035SOL     OW 9924   1.968   1.888   1.598
 3035SOL    HW1 9925   1.980   1.857   1.693
 3035SOL    HW2 9926   1.877   1.862   1.565
 3036SOL     OW 9927   2.737   0.362   0.224
 3036SOL    HW1 9928   2.783   0.414   0.152
 3036SOL    HW2 9929   2.730   0.266   0.196
 3037SOL     OW 9930   3.551   0.568   1.826
 3037SOL    HW1 9931   3.525   0.651   1.775
 3037SOL    HW2 9932   3.570   0.494   1.762
 3038SOL     OW 9933   3.264   1.158   0.565
 3038SOL    HW1 9934   3.347   1.139   0.512
 3038SOL    HW2 9935   3.207   1.224   0.516
 3039SOL     OW 9936   2.363   0.187   0.928
 3039SOL    HW1 9937   2.403   0.211   1.016
 3039SOL    HW2 9938   2.380   0.261   0.862
 3040SOL     OW 9939   2.851   1.435   0.473
 3040SOL    HW1 9940   2.825   1.520   0.425
 3040SOL    HW2 9941   2.824   1.442   0.569
 3041SOL     OW 9942   2.219   1.806   0.877
 3041SOL    HW1 9943   2.260   1.716   0.882
 3041SOL    HW2 9944   2.286   1.875   0.904
 3042SOL     OW 9945   3.663   1.050   0.903
 3042SOL    HW1 9946   3.616   1.034   0.816
 3042SOL    HW2 9947   3.595   1.059   0.976
 3043SOL     OW 9948   3.065   1.537   1.517
 3043SOL    HW1 9949   3.057   1.467   1.588
 3043SOL    HW2 9950   3.003   1.514   1.441
 3044SOL     OW 9951   2.148   0.946   0.232
 3044SOL    HW1 9952   2.245   0.956   0.208
 3044SOL    HW2 9953   2.116   0.856   0.204
 3045SOL     OW 9954   3.348   0.779   0.727
 3045SOL    HW1 9955   3.347   0.728   0.813
 3045SOL    HW2 9956   3.430   0.836   0.723
 3046SOL     OW 9957   2.333   1.291   1.745
 3046SOL    HW1 9958   2.311   1.296   1.648
 3046SOL    HW2 9959   2.250   1.276   1.798
 3047SOL     OW 9960   2.987   1.773   0.249
 3047SOL    HW1 9961   2.915   1.732   0.305
 3047SOL    HW2 9962   3.021   1.705   0.184
 3048SOL     OW 9963   2.079   0.271   1.546
 3048SOL    HW1 9964   2.020   0.350   1.530
 3048SOL    HW2 9965   2.119   0.276   1.637
 3049SOL     OW 9966   3.507   1.438   0.122
 3049SOL    HW1 9967   3.454   1.511   0.079
 3049SOL    HW2 9968   3.449   1.389   0.188
 3050SOL     OW 9969   2.337   1.691   0.390
 3050SOL    HW1 9970   2.375   1.775   0.429
 3050SOL    HW2 9971   2.323   1.704   0.292
 3051SOL     OW 9972   3.320   0.165   0.381
 3051SOL    HW1 9973   3.314   0.066   0.368
 3051SOL    HW2 9974   3.408   0.188   0.420
 3052SOL     OW 9975   2.101   1.786   1.204
 3052SOL    HW1 9976   2.152   1.706   1.237
 3052SOL    HW2 9977   2.066   1.767   1.112
 3053SOL     OW 9978   2.817   1.701   0.889
 3053SOL    HW1 9979   2.905   1.659   0.913
 3053SOL    HW2 9980   2.774   1.647   0.817
 3054SOL     OW 9981   2.259   0.667   0.463
 3054SOL    HW1 9982   2.271   0.569   0.479
 3054SOL    HW2 9983   2.164   0.692   0.482
 3055SOL     OW 9984   3.357   0.219   1.713
 3055SOL    HW1 9985   3.399   0.217   1.804
 3055SOL    HW2 9986   3.260   0.194   1.721
 3056SOL     OW 9987   2.505   0.143   0.082
 3056SOL    HW1 9988   2.602   0.126   0.098
 3056SOL    HW2 9989   2.491   0.171   6.987
 3057SOL     OW 9990   2.641   0.263   1.799
 3057SOL    HW1 9991   2.731   0.224   1.781
 3057SOL    HW2 9992   2.585   0.197   1.849
 3058SOL     OW 9993   2.720   1.520   1.188
 3058SOL    HW1 9994   2.699   1.472   1.103
 3058SOL    HW2 9995   2.790   1.469   1.239
 3059SOL     OW 9996   3.191   0.591   1.433
 3059SOL    HW1 9997   3.226   0.563   1.522
 3059SOL    HW2 9998   3.222   0.684   1.413
 3060SOL     OW 9999   2.668   1.368   0.954
 3060SOL    HW110000   2.761   1.366   0.916
 3060SOL    HW210001   2.602   1.379   0.880
 3061SOL     OW10002   2.792   0.530   0.882
 3061SOL    HW110003   2.765   0.522   0.786
 3061SOL    HW210004   2.824   0.442   0.915
 3062SOL     OW10005   2.432   0.090   0.486
 3062SOL    HW110006   2.345   0.071   0.531
 3062SOL    HW210007   2.416   0.148   0.406
 3063SOL     OW10008   3.251   1.199   6.992
 3063SOL    HW110009   3.284   1.131   0.058
 3063SOL    HW210010   3.177   1.252   0.034
 3064SOL     OW10011   2.179   0.036   0.289
 3064SOL    HW110012   2.234   0.117   0.268
 3064SOL    HW210013   2.170   0.027   0.388
 3065SOL     OW10014   2.829   0.273   0.467
 3065SOL    HW110015   2.789   0.306   0.381
 3065SOL    HW210016   2.929   0.278   0.460
 3066SOL     OW10017   2.927   0.688   1.433
 3066SOL    HW110018   2.853   0.624   1.454
 3066SOL    HW210019   3.015   0.640   1.436
 3067SOL     OW10020   3.080   1.568   0.811
 3067SOL    HW110021   3.095   1.646   0.749
 3067SOL    HW210022   3.167   1.540   0.850
 3068SOL     OW10023   2.352   1.151   0.702
 3068SOL    HW110024   2.275   1.134   0.763
 3068SOL    HW210025   2.322   1.147   0.607
 3069SOL     OW10026   3.132   1.789   0.648
 3069SOL    HW110027   3.211   1.850   0.650
 3069SOL    HW210028   3.049   1.841   0.665
 3070SOL     OW10029   2.872   0.517   0.045
 3070SOL    HW110030   2.804   0.590   0.044
 3070SOL    HW210031   2.945   0.540   0.110
 3071SOL     OW10032   1.979   0.548   1.403
 3071SOL    HW110033   2.072   0.552   1.365
 3071SOL    HW210034   1.966   0.624   1.466
 3072SOL     OW10035   2.439   0.233   1.192
 3072SOL    HW110036   2.487   0.158   1.238
 3072SOL    HW210037   2.345   0.237   1.224
 3073SOL     OW10038   2.737   0.483   0.624
 3073SOL    HW110039   2.692   0.540   0.555
 3073SOL    HW210040   2.770   0.398   0.581
 3074SOL     OW10041   2.825   0.005   0.802
 3074SOL    HW110042   2.775   0.017   0.717
 3074SOL    HW210043   2.875   6.918   0.800
 3075SOL     OW10044   3.298   1.151   0.859
 3075SOL    HW110045   3.228   1.082   0.877
 3075SOL    HW210046   3.313   1.159   0.761
 3076SOL     OW10047   3.326   0.615   0.950
 3076SOL    HW110048   3.259   0.541   0.955
 3076SOL    HW210049   3.387   0.611   1.029
 3077SOL     OW10050   3.661   0.801   0.392
 3077SOL    HW110051   3.737   0.745   0.425
 3077SOL    HW210052   3.663   0.803   0.292
 3078SOL     OW10053   2.341   1.451   0.140
 3078SOL    HW110054   2.284   1.412   0.212
 3078SOL    HW210055   2.357   1.382   0.069
 3079SOL     OW10056   3.576   1.275   0.642
 3079SOL    HW110057   3.674   1.263   0.655
 3079SOL    HW210058   3.552   1.371   0.660
 3080SOL     OW10059   3.231   0.521   0.048
 3080SOL    HW110060   3.176   0.524   0.132
 3080SOL    HW210061   3.306   0.456   0.060
 3081SOL     OW10062   2.346   0.255   0.268
 3081SOL    HW110063   2.409   0.214   0.202
 3081SOL    HW210064   2.316   0.345   0.234
 3082SOL     OW10065   3.603   1.238   1.531
 3082SOL    HW110066   3.694   1.200   1.512
 3082SOL    HW210067   3.613   1.329   1.572
 3083SOL     OW10068   2.895   1.357   1.345
 3083SOL    HW110069   2.808   1.325   1.385
 3083SOL    HW210070   2.971   1.306   1.386
 3084SOL     OW10071   3.479   1.643   1.672
 3084SOL    HW110072   3.461   1.680   1.581
 3084SOL    HW210073   3.559   1.582   1.667
 3085SOL     OW10074   3.010   1.257   1.113
 3085SOL    HW110075   2.950   1.288   1.187
 3085SOL    HW210076   2.971   1.284   1.025
 3086SOL     OW10077   3.465   1.095   1.088
 3086SOL    HW110078   3.457   1.162   1.162
 3086SOL    HW210079   3.398   1.115   1.017
 3087SOL     OW10080   2.737   0.175   1.369
 3087SOL    HW110081   2.755   0.147   1.275
 3087SOL    HW210082   2.824   0.198   1.413
 3088SOL     OW10083   2.829   1.118   1.716
 3088SOL    HW110084   2.735   1.135   1.748
 3088SOL    HW210085   2.832   1.032   1.667
 3089SOL     OW10086   2.583   1.051   0.381
 3089SOL    HW110087   2.569   1.024   0.477
 3089SOL    HW210088   2.663   1.002   0.345
 3090SOL     OW10089   2.302   0.828   1.266
 3090SOL    HW110090   2.372   0.837   1.337
 3090SOL    HW210091   2.266   0.735   1.266
 3091SOL     OW10092   3.127   0.365   1.294
 3091SOL    HW110093   3.159   0.446   1.343
 3091SOL    HW210094   3.036   0.381   1.257
 3092SOL     OW10095   1.933   1.561   1.355
 3092SOL    HW110096   1.894   1.633   1.297
 3092SOL    HW210097   2.033   1.564   1.348
 3093SOL     OW10098   2.262   1.124   0.447
 3093SOL    HW110099   2.232   1.207   0.399
 3093SOL    HW210100   2.224   1.044   0.401
 3094SOL     OW10101   2.400   0.535   0.863
 3094SOL    HW110102   2.416   0.591   0.782
 3094SOL    HW210103   2.471   0.555   0.931
 3095SOL     OW10104   3.113   1.364   0.422
 3095SOL    HW110105   3.163   1.442   0.459
 3095SOL    HW210106   3.016   1.374   0.442
 3096SOL     OW10107   3.177   1.474   1.141
 3096SOL    HW110108   3.224   1.484   1.229
 3096SOL    HW210109   3.120   1.392   1.143
 3097SOL     OW10110   3.469   0.640   0.520
 3097SOL    HW110111   3.403   0.691   0.575
 3097SOL    HW210112   3.531   0.705   0.476
 3098SOL     OW10113   2.204   1.537   1.296
 3098SOL    HW110114   2.195   1.478   1.215
 3098SOL    HW210115   2.301   1.560   1.309
 3099SOL     OW10116   2.339   0.706   1.653
 3099SOL    HW110117   2.379   0.756   1.577
 3099SOL    HW210118   2.403   0.637   1.685
 3100SOL     OW10119   3.485   0.797   1.696
 3100SOL    HW110120   3.391   0.832   1.689
 3100SOL    HW210121   3.540   0.834   1.621
 3101SOL     OW10122   2.875   0.126   1.732
 3101SOL    HW110123   2.911   0.160   1.645
 3101SOL    HW210124   2.865   0.027   1.727
 3102SOL     OW10125   2.300   0.036   1.744
 3102SOL    HW110126   2.219   6.981   1.767
 3102SOL    HW210127   2.279   0.133   1.758
 3103SOL     OW10128   2.447   0.882   1.037
 3103SOL    HW110129   2.491   0.972   1.039
 3103SOL    HW210130   2.393   0.870   1.121
 3104SOL     OW10131   3.160   0.849   1.002
 3104SOL    HW110132   3.066   0.824   0.980
 3104SOL    HW210133   3.220   0.770   0.987
 3105SOL     OW10134   3.055   0.526   0.259
 3105SOL    HW110135   3.076   0.448   0.319
 3105SOL    HW210136   3.014   0.600   0.313
 3106SOL     OW10137   2.163   0.188   1.238
 3106SOL    HW110138   2.124   0.180   1.329
 3106SOL    HW210139   2.177   0.097   1.199
 3107SOL     OW10140   1.925   1.302   1.260
 3107SOL    HW110141   1.953   1.242   1.335
 3107SOL    HW210142   1.917   1.395   1.294
 3108SOL     OW10143   2.586   0.639   1.043
 3108SOL    HW110144   2.659   0.621   0.976
 3108SOL    HW210145   2.547   0.729   1.026
 3109SOL     OW10146   3.613   0.974   1.868
 3109SOL    HW110147   3.570   0.902   1.814
 3109SOL    HW210148   3.553   1.000   1.944
 3110SOL     OW10149   2.164   0.053   0.567
 3110SOL    HW110150   2.146   0.136   0.619
 3110SOL    HW210151   2.117   6.976   0.609
 3111SOL     OW10152   3.522   0.445   0.335
 3111SOL    HW110153   3.555   0.365   0.384
 3111SOL    HW210154   3.490   0.513   0.401
 3112SOL     OW10155   2.893   0.768   0.963
 3112SOL    HW110156   2.870   0.787   1.058
 3112SOL    HW210157   2.864   0.676   0.939
 3113SOL     OW10158   2.843   1.562   1.759
 3113SOL    HW110159   2.810   1.618   1.683
 3113SOL    HW210160   2.883   1.478   1.723
 3114SOL     OW10161   3.702   1.491   1.602
 3114SOL    HW110162   3.724   1.519   1.508
 3114SOL    HW210163   3.783   1.500   1.659
 3115SOL     OW10164   2.220   0.905   1.805
 3115SOL    HW110165   2.287   0.936   1.873
 3115SOL    HW210166   2.260   0.830   1.751
 3116SOL     OW10167   3.390   0.308   0.137
 3116SOL    HW110168   3.343   0.228   0.174
 3116SOL    HW210169   3.434   0.359   0.211
 3117SOL     OW10170   3.134   0.779   0.030
 3117SOL    HW110171   3.177   0.689   0.020
 3117SOL    HW210172   3.159   0.836   6.952
 3118SOL     OW10173   2.923   1.352   0.869
 3118SOL    HW110174   2.938   1.272   0.810
 3118SOL    HW210175   2.980   1.427   0.836
 3119SOL     OW10176   2.189   0.828   0.927
 3119SOL    HW110177   2.285   0.849   0.941
 3119SOL    HW210178   2.171   0.734   0.955
 3120SOL     OW10179   2.167   0.552   0.995
 3120SOL    HW110180   2.124   0.462   0.991
 3120SOL    HW210181   2.252   0.551   0.942
 3121SOL     OW10182   2.983   0.449   1.665
 3121SOL    HW110183   2.941   0.472   1.753
 3121SOL    HW210184   3.081   0.470   1.668
 3122SOL     OW10185   2.971   0.240   1.498
 3122SOL    HW110186   2.969   0.321   1.557
 3122SOL    HW210187   3.038   0.254   1.425
 3123SOL     OW10188   1.961   1.758   0.955
 3123SOL    HW110189   1.922   1.679   0.908
 3123SOL    HW210190   2.051   1.779   0.917
 3124SOL     OW10191   2.349   1.562   0.903
 3124SOL    HW110192   2.422   1.624   0.931
 3124SOL    HW210193   2.384   1.498   0.834
 3125SOL     OW10194   2.798   0.799   1.216
 3125SOL    HW110195   2.856   0.769   1.292
 3125SOL    HW210196   2.714   0.744   1.214
 3126SOL     OW10197   1.911   0.598   1.133
 3126SOL    HW110198   1.990   0.590   1.073
 3126SOL    HW210199   1.939   0.579   1.227
 3127SOL     OW10200   2.053   0.571   1.752
 3127SOL    HW110201   2.148   0.569   1.721
 3127SOL    HW210202   2.001   0.635   1.696
 3128SOL     OW10203   3.247   0.924   1.640
 3128SOL    HW110204   3.268   1.021   1.640
 3128SOL    HW210205   3.239   0.891   1.545
 3129SOL     OW10206   2.681   0.592   0.368
 3129SOL    HW110207   2.689   0.505   0.318
 3129SOL    HW210208   2.597   0.639   0.339
 3130SOL     OW10209   3.503   0.605   1.159
 3130SOL    HW110210   3.482   0.537   1.230
 3130SOL    HW210211   3.600   0.601   1.137
 3131SOL     OW10212   2.092   1.536   1.719
 3131SOL    HW110213   2.073   1.605   1.789
 3131SOL    HW210214   2.099   1.446   1.761
 3132SOL     OW10215   2.605   0.450   1.238
 3132SOL    HW110216   2.543   0.372   1.225
 3132SOL    HW210217   2.589   0.518   1.167
 3133SOL     OW10218   2.731   1.702   1.532
 3133SOL    HW110219   2.701   1.635   1.464
 3133SOL    HW210220   2.756   1.788   1.486
 3134SOL     OW10221   2.280   0.507   0.169
 3134SOL    HW110222   2.358   0.563   0.196
 3134SOL    HW210223   2.195   0.557   0.184
 3135SOL     OW10224   1.997   1.143   1.482
 3135SOL    HW110225   2.000   1.107   1.575
 3135SOL    HW210226   2.020   1.070   1.418
 3136SOL     OW10227   3.145   1.035   1.203
 3136SOL    HW110228   3.155   0.966   1.131
 3136SOL    HW210229   3.096   1.114   1.167
 3137SOL     OW10230   3.138   0.859   0.292
 3137SOL    HW110231   3.070   0.814   0.349
 3137SOL    HW210232   3.137   0.819   0.201
 3138SOL     OW10233   3.638   1.716   1.165
 3138SOL    HW110234   3.706   1.741   1.097
 3138SOL    HW210235   3.600   1.626   1.143
 3139SOL     OW10236   3.115   1.744   1.094
 3139SOL    HW110237   3.203   1.778   1.062
 3139SOL    HW210238   3.123   1.646   1.114
 3140SOL     OW10239   1.956   1.263   0.993
 3140SOL    HW110240   1.938   1.277   1.091
 3140SOL    HW210241   1.893   1.194   0.958
 3141SOL     OW10242   2.550   1.702   1.741
 3141SOL    HW110243   2.480   1.774   1.736
 3141SOL    HW210244   2.619   1.716   1.670
 3142SOL     OW10245   2.767   0.101   0.149
 3142SOL    HW110246   2.862   0.110   0.119
 3142SOL    HW210247   2.758   0.020   0.207
 3143SOL     OW10248   3.602   0.217   0.465
 3143SOL    HW110249   3.667   0.179   0.399
 3143SOL    HW210250   3.579   0.147   0.533
 3144SOL     OW10251   3.259   1.579   0.510
 3144SOL    HW110252   3.318   1.617   0.439
 3144SOL    HW210253   3.204   1.653   0.550
 3145SOL     OW10254   2.007   1.785   1.846
 3145SOL    HW110255   1.954   1.712   1.888
 3145SOL    HW210256   2.060   1.832   1.916
 3146SOL     OW10257   3.141   0.938   0.665
 3146SOL    HW110258   3.216   0.876   0.690
 3146SOL    HW210259   3.178   1.017   0.616
 3147SOL     OW10260   2.636   1.286   1.418
 3147SOL    HW110261   2.611   1.336   1.501
 3147SOL    HW210262   2.562   1.291   1.352
 3148SOL     OW10263   2.573   1.615   0.174
 3148SOL    HW110264   2.558   1.683   0.102
 3148SOL    HW210265   2.499   1.548   0.173
 3149SOL     OW10266   3.472   1.730   1.399
 3149SOL    HW110267   3.530   1.722   1.318
 3149SOL    HW210268   3.457   1.827   1.419
 3150SOL     OW10269   3.746   0.124   0.955
 3150SOL    HW110270   3.751   0.024   0.962
 3150SOL    HW210271   3.653   0.151   0.929
 3151SOL     OW10272   2.113   0.286   0.707
 3151SOL    HW110273   2.030   0.335   0.682
 3151SOL    HW210274   2.125   0.288   0.806
 3152SOL     OW10275   3.079   1.591   0.062
 3152SOL    HW110276   3.076   1.494   0.084
 3152SOL    HW210277   2.999   1.615   0.005
 3153SOL     OW10278   2.684   1.015   1.396
 3153SOL    HW110279   2.728   0.994   1.310
 3153SOL    HW210280   2.671   1.113   1.404
 3154SOL     OW10281   2.792   0.920   0.276
 3154SOL    HW110282   2.837   0.937   0.188
 3154SOL    HW210283   2.846   0.854   0.328
 3155SOL     OW10284   3.340   1.676   0.070
 3155SOL    HW110285   3.245   1.645   0.067
 3155SOL    HW210286   3.368   1.709   6.980
 3156SOL     OW10287   2.226   1.314   1.496
 3156SOL    HW110288   2.220   1.391   1.433
 3156SOL    HW210289   2.146   1.255   1.485
 3157SOL     OW10290   3.456   1.290   1.293
 3157SOL    HW110291   3.515   1.262   1.368
 3157SOL    HW210292   3.391   1.358   1.326
 3158SOL     OW10293   2.941   1.116   0.740
 3158SOL    HW110294   2.861   1.068   0.775
 3158SOL    HW210295   3.008   1.049   0.708
 3159SOL     OW10296   2.893   0.269   0.951
 3159SOL    HW110297   2.881   0.228   0.860
 3159SOL    HW210298   2.870   0.202   1.021
 3160SOL     OW10299   2.496   1.488   0.484
 3160SOL    HW110300   2.532   1.431   0.411
 3160SOL    HW210301   2.431   1.555   0.446
 3161SOL     OW10302   3.628   0.375   1.394
 3161SOL    HW110303   3.699   0.445   1.391
 3161SOL    HW210304   3.650   0.302   1.331
 3162SOL     OW10305   2.164   1.353   0.322
 3162SOL    HW110306   2.085   1.386   0.270
 3162SOL    HW210307   2.157   1.384   0.417
 3163SOL     OW10308   1.991   1.042   1.738
 3163SOL    HW110309   1.908   1.017   1.788
 3163SOL    HW210310   2.067   0.986   1.771
 3164SOL     OW10311   2.539   0.249   1.536
 3164SOL    HW110312   2.613   0.234   1.470
 3164SOL    HW210313   2.577   0.273   1.625
 3165SOL     OW10314   1.968   0.280   0.022
 3165SOL    HW110315   1.900   0.254   6.953
 3165SOL    HW210316   1.970   0.380   0.031
 3166SOL     OW10317   3.264   0.853   1.376
 3166SOL    HW110318   3.206   0.913   1.322
 3166SOL    HW210319   3.358   0.856   1.340
 3167SOL     OW10320   1.923   0.150   0.265
 3167SOL    HW110321   1.934   0.204   0.182
 3167SOL    HW210322   2.004   0.093   0.280
 3168SOL     OW10323   3.048   1.325   0.133
 3168SOL    HW110324   2.951   1.339   0.116
 3168SOL    HW210325   3.065   1.321   0.232
 3169SOL     OW10326   2.500   0.819   1.451
 3169SOL    HW110327   2.556   0.901   1.439
 3169SOL    HW210328   2.559   0.739   1.456
 3170SOL     OW10329   3.368   1.825   1.019
 3170SOL    HW110330   3.398   1.894   0.953
 3170SOL    HW210331   3.447   1.776   1.055
 3171SOL     OW10332   2.579   0.541   1.725
 3171SOL    HW110333   2.633   0.611   1.771
 3171SOL    HW210334   2.600   0.451   1.763
 3172SOL     OW10335   3.328   1.187   1.624
 3172SOL    HW110336   3.316   1.207   1.721
 3172SOL    HW210337   3.422   1.208   1.597
 3173SOL     OW10338   2.211   1.752   1.578
 3173SOL    HW110339   2.127   1.803   1.564
 3173SOL    HW210340   2.190   1.661   1.613
 3174SOL     OW10341   3.510   0.872   1.252
 3174SOL    HW110342   3.511   0.783   1.207
 3174SOL    HW210343   3.497   0.944   1.184
 3175SOL     OW10344   3.101   0.320   0.432
 3175SOL    HW110345   3.178   0.259   0.416
 3175SOL    HW210346   3.111   0.364   0.522
 3176SOL     OW10347   2.444   0.720   0.665
 3176SOL    HW110348   2.488   0.810   0.657
 3176SOL    HW210349   2.378   0.709   0.592
 3177SOL     OW10350   3.596   0.349   1.664
 3177SOL    HW110351   3.611   0.363   1.566
 3177SOL    HW210352   3.515   0.292   1.677
 3178SOL     OW10353   3.617   0.929   1.498
 3178SOL    HW110354   3.602   1.026   1.517
 3178SOL    HW210355   3.584   0.908   1.405
 3179SOL     OW10356   2.790   1.395   0.099
 3179SOL    HW110357   2.724   1.369   0.170
 3179SOL    HW210358   2.769   1.487   0.067
 3180SOL     OW10359   2.538   1.751   0.942
 3180SOL    HW110360   2.511   1.847   0.931
 3180SOL    HW210361   2.637   1.743   0.930
 3181SOL     OW10362   2.735   0.981   0.867
 3181SOL    HW110363   2.790   0.905   0.902
 3181SOL    HW210364   2.684   1.023   0.943
 3182SOL     OW10365   2.929   0.961   0.038
 3182SOL    HW110366   2.969   1.052   0.029
 3182SOL    HW210367   3.002   0.893   0.039
 3183SOL     OW10368   3.705   1.547   0.841
 3183SOL    HW110369   3.620   1.544   0.787
 3183SOL    HW210370   3.718   1.459   0.887
 3184SOL     OW10371   2.074   1.283   1.839
 3184SOL    HW110372   2.047   1.199   1.791
 3184SOL    HW210373   2.012   1.298   1.916
 3185SOL     OW10374   1.966   1.204   0.645
 3185SOL    HW110375   2.026   1.164   0.715
 3185SOL    HW210376   1.967   1.147   0.563
 3186SOL     OW10377   2.551   1.434   1.637
 3186SOL    HW110378   2.472   1.387   1.677
 3186SOL    HW210379   2.557   1.526   1.674
 3187SOL     OW10380   3.681   0.170   1.229
 3187SOL    HW110381   3.599   0.120   1.203
 3187SOL    HW210382   3.741   0.178   1.149
 3188SOL     OW10383   2.274   0.403   0.507
 3188SOL    HW110384   2.303   0.335   0.440
 3188SOL    HW210385   2.227   0.358   0.583
 3189SOL     OW10386   3.532   1.478   1.101
 3189SOL    HW110387   3.466   1.460   1.028
 3189SOL    HW210388   3.525   1.406   1.170
 3190SOL     OW10389   2.217   0.570   1.273
 3190SOL    HW110390   2.267   0.501   1.325
 3190SOL    HW210391   2.218   0.545   1.176
 3191SOL     OW10392   2.700   1.566   0.686
 3191SOL    HW110393   2.674   1.611   0.601
 3191SOL    HW210394   2.629   1.501   0.713
 3192SOL     OW10395   3.321   0.268   1.121
 3192SOL    HW110396   3.368   0.184   1.147
 3192SOL    HW210397   3.258   0.295   1.194
 3193SOL     OW10398   2.810   0.068   1.115
 3193SOL    HW110399   2.784   0.024   1.029
 3193SOL    HW210400   2.850   6.999   1.176
 3194SOL     OW10401   2.645   1.313   0.322
 3194SOL    HW110402   2.615   1.220   0.341
 3194SOL    HW210403   2.723   1.336   0.380
 3195SOL     OW10404   2.476   1.587   1.291
 3195SOL    HW110405   2.466   1.679   1.328
 3195SOL    HW210406   2.566   1.578   1.248
 3196SOL     OW10407   3.263   0.019   0.069
 3196SOL    HW110408   3.249   6.921   0.055
 3196SOL    HW210409   3.175   0.065   0.073
 3197SOL     OW10410   3.109   0.439   0.679
 3197SOL    HW110411   3.069   0.530   0.666
 3197SOL    HW210412   3.134   0.427   0.775
 3198SOL     OW10413   3.502   0.236   0.887
 3198SOL    HW110414   3.440   0.242   0.966
 3198SOL    HW210415   3.500   0.323   0.837
 3199SOL     OW10416   1.956   1.030   0.428
 3199SOL    HW110417   2.025   1.010   0.358
 3199SOL    HW210418   1.884   0.962   0.425
 3200SOL     OW10419   2.758   1.675   0.370
 3200SOL    HW110420   2.688   1.651   0.303
 3200SOL    HW210421   2.729   1.755   0.422
 3201SOL     OW10422   2.063   0.639   2.020
 3201SOL    HW110423   1.973   0.616   2.058
 3201SOL    HW210424   2.060   0.632   1.920
 3202SOL     OW10425   2.076   0.299   2.864
 3202SOL    HW110426   2.118   0.265   2.948
 3202SOL    HW210427   2.001   0.238   2.837
 3203SOL     OW10428   1.876   0.418   2.491
 3203SOL    HW110429   1.797   0.439   2.548
 3203SOL    HW210430   1.848   0.359   2.415
 3204SOL     OW10431   2.436   1.306   3.079
 3204SOL    HW110432   2.352   1.304   3.025
 3204SOL    HW210433   2.458   1.401   3.102
 3205SOL     OW10434   3.448   1.521   2.562
 3205SOL    HW110435   3.402   1.485   2.643
 3205SOL    HW210436   3.383   1.528   2.487
 3206SOL     OW10437   2.994   0.715   2.541
 3206SOL    HW110438   3.048   0.797   2.523
 3206SOL    HW210439   2.944   0.726   2.627
 3207SOL     OW10440   3.659   0.577   2.071
 3207SOL    HW110441   3.628   0.583   1.976
 3207SOL    HW210442   3.604   0.509   2.120
 3208SOL     OW10443   2.582   1.131   2.916
 3208SOL    HW110444   2.526   1.168   2.990
 3208SOL    HW210445   2.624   1.206   2.865
 3209SOL     OW10446   2.744   0.746   3.693
 3209SOL    HW110447   2.738   0.814   3.766
 3209SOL    HW210448   2.767   0.792   3.607
 3210SOL     OW10449   2.552   0.983   2.510
 3210SOL    HW110450   2.621   0.983   2.582
 3210SOL    HW210451   2.478   1.046   2.534
 3211SOL     OW10452   2.569   1.153   3.702
 3211SOL    HW110453   2.629   1.222   3.743
 3211SOL    HW210454   2.490   1.199   3.660
 3212SOL     OW10455   2.209   1.387   2.928
 3212SOL    HW110456   2.128   1.342   2.891
 3212SOL    HW210457   2.250   1.445   2.858
 3213SOL     OW10458   3.309   1.494   3.237
 3213SOL    HW110459   3.364   1.576   3.249
 3213SOL    HW210460   3.231   1.497   3.300
 3214SOL     OW10461   2.316   0.380   3.303
 3214SOL    HW110462   2.400   0.338   3.337
 3214SOL    HW210463   2.236   0.330   3.338
 3215SOL     OW10464   3.489   0.475   2.608
 3215SOL    HW110465   3.471   0.514   2.517
 3215SOL    HW210466   3.439   0.527   2.677
 3216SOL     OW10467   2.086   1.727   2.323
 3216SOL    HW110468   2.110   1.800   2.387
 3216SOL    HW210469   2.162   1.712   2.260
 3217SOL     OW10470   2.997   1.327   3.570
 3217SOL    HW110471   3.044   1.317   3.658
 3217SOL    HW210472   2.936   1.248   3.557
 3218SOL     OW10473   2.103   1.459   2.397
 3218SOL    HW110474   2.082   1.557   2.399
 3218SOL    HW210475   2.056   1.413   2.473
 3219SOL     OW10476   2.156   1.091   2.740
 3219SOL    HW110477   2.164   0.996   2.768
 3219SOL    HW210478   2.098   1.140   2.806
 3220SOL     OW10479   2.411   1.805   3.255
 3220SOL    HW110480   2.335   1.777   3.314
 3220SOL    HW210481   2.471   1.867   3.306
 3221SOL     OW10482   2.423   0.989   2.020
 3221SOL    HW110483   2.473   1.033   1.945
 3221SOL    HW210484   2.465   1.015   2.107
 3222SOL     OW10485   3.427   0.113   3.317
 3222SOL    HW110486   3.484   0.186   3.280
 3222SOL    HW210487   3.395   0.139   3.409
 3223SOL     OW10488   1.982   0.679   2.433
 3223SOL    HW110489   1.958   0.585   2.455
 3223SOL    HW210490   1.978   0.735   2.516
 3224SOL     OW10491   3.717   1.739   2.179
 3224SOL    HW110492   3.793   1.725   2.242
 3224SOL    HW210493   3.720   1.832   2.142
 3225SOL     OW10494   1.903   1.573   1.976
 3225SOL    HW110495   1.883   1.477   1.993
 3225SOL    HW210496   1.881   1.627   2.057
 3226SOL     OW10497   3.567   0.930   2.526
 3226SOL    HW110498   3.659   0.891   2.530
 3226SOL    HW210499   3.555   0.979   2.440
 3227SOL     OW10500   3.533   1.109   2.303
 3227SOL    HW110501   3.619   1.092   2.254
 3227SOL    HW210502   3.549   1.176   2.375
 3228SOL     OW10503   1.967   0.764   3.432
 3228SOL    HW110504   2.050   0.818   3.439
 3228SOL    HW210505   1.890   0.823   3.409
 3229SOL     OW10506   2.477   1.393   2.574
 3229SOL    HW110507   2.435   1.303   2.580
 3229SOL    HW210508   2.461   1.431   2.483
 3230SOL     OW10509   3.118   1.206   3.283
 3230SOL    HW110510   3.142   1.137   3.215
 3230SOL    HW210511   3.186   1.206   3.356
 3231SOL     OW10512   2.688   0.042   2.391
 3231SOL    HW110513   2.736   0.125   2.362
 3231SOL    HW210514   2.590   0.058   2.391
 3232SOL     OW10515   2.057   0.948   3.169
 3232SOL    HW110516   2.150   0.915   3.152
 3232SOL    HW210517   1.996   0.912   3.098
 3233SOL     OW10518   3.408   1.027   2.068
 3233SOL    HW110519   3.335   0.964   2.091
 3233SOL    HW210520   3.453   1.059   2.151
 3234SOL     OW10521   3.064   1.759   3.506
 3234SOL    HW110522   3.057   1.833   3.439
 3234SOL    HW210523   3.070   1.671   3.458
 3235SOL     OW10524   2.204   0.289   3.667
 3235SOL    HW110525   2.256   0.355   3.721
 3235SOL    HW210526   2.111   0.283   3.703
 3236SOL     OW10527   3.342   1.403   2.786
 3236SOL    HW110528   3.276   1.433   2.854
 3236SOL    HW210529   3.322   1.308   2.760
 3237SOL     OW10530   3.491   1.801   2.414
 3237SOL    HW110531   3.481   1.747   2.330
 3237SOL    HW210532   3.493   1.741   2.493
 3238SOL     OW10533   2.434   0.706   2.124
 3238SOL    HW110534   2.437   0.798   2.086
 3238SOL    HW210535   2.367   0.703   2.199
 3239SOL     OW10536   3.151   0.394   2.810
 3239SOL    HW110537   3.059   0.356   2.820
 3239SOL    HW210538   3.213   0.346   2.871
 3240SOL     OW10539   3.452   1.665   2.177
 3240SOL    HW110540   3.551   1.681   2.171
 3240SOL    HW210541   3.414   1.656   2.085
 3241SOL     OW10542   2.660   0.593   3.327
 3241SOL    HW110543   2.628   0.559   3.415
 3241SOL    HW210544   2.634   0.529   3.255
 3242SOL     OW10545   3.257   0.485   3.540
 3242SOL    HW110546   3.264   0.528   3.630
 3242SOL    HW210547   3.303   0.396   3.541
 3243SOL     OW10548   2.811   0.874   3.453
 3243SOL    HW110549   2.869   0.807   3.408
 3243SOL    HW210550   2.757   0.924   3.385
 3244SOL     OW10551   2.877   0.406   3.055
 3244SOL    HW110552   2.784   0.420   3.087
 3244SOL    HW210553   2.875   0.366   2.964
 3245SOL     OW10554   2.908   0.705   2.277
 3245SOL    HW110555   2.933   0.705   2.374
 3245SOL    HW210556   2.819   0.662   2.264
 3246SOL     OW10557   1.956   0.848   2.650
 3246SOL    HW110558   2.045   0.835   2.693
 3246SOL    HW210559   1.905   0.918   2.702
 3247SOL     OW10560   1.960   1.855   3.453
 3247SOL    HW110561   1.969   1.839   3.551
 3247SOL    HW210562   1.877   1.811   3.420
 3248SOL     OW10563   2.724   0.370   2.061
 3248SOL    HW110564   2.790   0.423   2.008
 3248SOL    HW210565   2.667   0.316   1.999
 3249SOL     OW10566   3.550   0.569   3.688
 3249SOL    HW110567   3.525   0.651   3.637
 3249SOL    HW210568   3.569   0.494   3.625
 3250SOL     OW10569   3.264   1.159   2.401
 3250SOL    HW110570   3.351   1.147   2.353
 3250SOL    HW210571   3.207   1.224   2.350
 3251SOL     OW10572   2.361   0.178   2.791
 3251SOL    HW110573   2.402   0.210   2.876
 3251SOL    HW210574   2.377   0.245   2.719
 3252SOL     OW10575   2.853   1.461   2.321
 3252SOL    HW110576   2.833   1.537   2.260
 3252SOL    HW210577   2.819   1.481   2.413
 3253SOL     OW10578   2.218   1.808   2.736
 3253SOL    HW110579   2.262   1.718   2.742
 3253SOL    HW210580   2.285   1.879   2.756
 3254SOL     OW10581   3.660   1.055   2.764
 3254SOL    HW110582   3.614   1.045   2.676
 3254SOL    HW210583   3.592   1.062   2.837
 3255SOL     OW10584   3.069   1.510   3.376
 3255SOL    HW110585   3.059   1.440   3.447
 3255SOL    HW210586   3.007   1.489   3.300
 3256SOL     OW10587   2.161   0.940   2.128
 3256SOL    HW110588   2.248   0.964   2.086
 3256SOL    HW210589   2.137   0.846   2.102
 3257SOL     OW10590   3.346   0.777   2.576
 3257SOL    HW110591   3.344   0.727   2.663
 3257SOL    HW210592   3.429   0.834   2.573
 3258SOL     OW10593   2.333   1.288   3.610
 3258SOL    HW110594   2.310   1.294   3.513
 3258SOL    HW210595   2.250   1.271   3.663
 3259SOL     OW10596   3.004   1.771   2.085
 3259SOL    HW110597   2.915   1.747   2.124
 3259SOL    HW210598   3.031   1.702   2.018
 3260SOL     OW10599   2.079   0.269   3.408
 3260SOL    HW110600   2.020   0.348   3.393
 3260SOL    HW210601   2.119   0.275   3.500
 3261SOL     OW10602   3.501   1.385   1.958
 3261SOL    HW110603   3.468   1.479   1.945
 3261SOL    HW210604   3.429   1.321   1.934
 3262SOL     OW10605   2.327   1.736   2.173
 3262SOL    HW110606   2.370   1.796   2.241
 3262SOL    HW210607   2.397   1.699   2.113
 3263SOL     OW10608   3.280   0.139   2.263
 3263SOL    HW110609   3.257   0.083   2.183
 3263SOL    HW210610   3.379   0.153   2.266
 3264SOL     OW10611   2.083   1.770   3.069
 3264SOL    HW110612   2.144   1.696   3.095
 3264SOL    HW210613   2.054   1.757   2.974
 3265SOL     OW10614   2.802   1.682   2.738
 3265SOL    HW110615   2.895   1.645   2.743
 3265SOL    HW210616   2.751   1.635   2.666
 3266SOL     OW10617   2.252   0.672   2.332
 3266SOL    HW110618   2.264   0.573   2.341
 3266SOL    HW210619   2.158   0.696   2.356
 3267SOL     OW10620   3.356   0.218   3.575
 3267SOL    HW110621   3.398   0.216   3.666
 3267SOL    HW210622   3.260   0.194   3.583
 3268SOL     OW10623   2.497   0.087   1.962
 3268SOL    HW110624   2.533   0.019   2.026
 3268SOL    HW210625   2.421   0.047   1.911
 3269SOL     OW10626   2.641   0.263   3.662
 3269SOL    HW110627   2.731   0.224   3.643
 3269SOL    HW210628   2.585   0.196   3.711
 3270SOL     OW10629   2.725   1.511   3.038
 3270SOL    HW110630   2.706   1.463   2.951
 3270SOL    HW210631   2.795   1.460   3.089
 3271SOL     OW10632   3.191   0.590   3.294
 3271SOL    HW110633   3.225   0.562   3.384
 3271SOL    HW210634   3.221   0.683   3.274
 3272SOL     OW10635   2.673   1.363   2.798
 3272SOL    HW110636   2.766   1.366   2.764
 3272SOL    HW210637   2.609   1.380   2.723
 3273SOL     OW10638   2.787   0.525   2.737
 3273SOL    HW110639   2.762   0.518   2.640
 3273SOL    HW210640   2.820   0.437   2.769
 3274SOL     OW10641   2.420   0.086   2.353
 3274SOL    HW110642   2.338   0.066   2.406
 3274SOL    HW210643   2.397   0.144   2.275
 3275SOL     OW10644   3.291   1.213   1.899
 3275SOL    HW110645   3.330   1.140   1.955
 3275SOL    HW210646   3.202   1.240   1.936
 3276SOL     OW10647   2.168   0.028   2.060
 3276SOL    HW110648   2.220   0.107   2.093
 3276SOL    HW210649   2.084   0.019   2.114
 3277SOL     OW10650   2.817   0.272   2.303
 3277SOL    HW110651   2.780   0.302   2.215
 3277SOL    HW210652   2.916   0.284   2.303
 3278SOL     OW10653   2.927   0.687   3.291
 3278SOL    HW110654   2.852   0.624   3.313
 3278SOL    HW210655   3.014   0.638   3.295
 3279SOL     OW10656   3.063   1.603   2.679
 3279SOL    HW110657   3.090   1.653   2.597
 3279SOL    HW210658   3.102   1.647   2.760
 3280SOL     OW10659   2.343   1.155   2.556
 3280SOL    HW110660   2.281   1.133   2.631
 3280SOL    HW210661   2.292   1.151   2.470
 3281SOL     OW10662   3.111   1.781   2.468
 3281SOL    HW110663   3.164   1.846   2.414
 3281SOL    HW210664   3.027   1.825   2.500
 3282SOL     OW10665   2.890   0.526   1.911
 3282SOL    HW110666   2.846   0.613   1.889
 3282SOL    HW210667   2.961   0.541   1.980
 3283SOL     OW10668   1.979   0.549   3.264
 3283SOL    HW110669   2.072   0.553   3.226
 3283SOL    HW210670   1.965   0.625   3.327
 3284SOL     OW10671   2.439   0.235   3.054
 3284SOL    HW110672   2.487   0.160   3.099
 3284SOL    HW210673   2.344   0.238   3.086
 3285SOL     OW10674   2.733   0.476   2.476
 3285SOL    HW110675   2.683   0.534   2.412
 3285SOL    HW210676   2.763   0.393   2.430
 3286SOL     OW10677   2.824   0.007   2.652
 3286SOL    HW110678   2.773   0.017   2.567
 3286SOL    HW210679   2.874   6.921   2.651
 3287SOL     OW10680   3.295   1.139   2.715
 3287SOL    HW110681   3.223   1.072   2.731
 3287SOL    HW210682   3.310   1.150   2.617
 3288SOL     OW10683   3.327   0.616   2.803
 3288SOL    HW110684   3.259   0.542   2.811
 3288SOL    HW210685   3.388   0.614   2.882
 3289SOL     OW10686   3.671   0.781   2.250
 3289SOL    HW110687   3.741   0.750   2.314
 3289SOL    HW210688   3.665   0.717   2.173
 3290SOL     OW10689   2.358   1.429   2.007
 3290SOL    HW110690   2.280   1.399   2.061
 3290SOL    HW210691   2.358   1.382   1.918
 3291SOL     OW10692   3.588   1.274   2.505
 3291SOL    HW110693   3.685   1.268   2.526
 3291SOL    HW210694   3.554   1.365   2.527
 3292SOL     OW10695   3.261   0.583   1.933
 3292SOL    HW110696   3.201   0.563   2.010
 3292SOL    HW210697   3.356   0.576   1.962
 3293SOL     OW10698   2.345   0.243   2.134
 3293SOL    HW110699   2.410   0.197   2.073
 3293SOL    HW210700   2.322   0.333   2.097
 3294SOL     OW10701   3.604   1.236   3.396
 3294SOL    HW110702   3.695   1.198   3.380
 3294SOL    HW210703   3.612   1.328   3.433
 3295SOL     OW10704   2.894   1.347   3.201
 3295SOL    HW110705   2.807   1.318   3.241
 3295SOL    HW210706   2.969   1.294   3.242
 3296SOL     OW10707   3.479   1.649   3.532
 3296SOL    HW110708   3.458   1.680   3.439
 3296SOL    HW210709   3.559   1.588   3.529
 3297SOL     OW10710   3.012   1.252   2.969
 3297SOL    HW110711   2.952   1.282   3.043
 3297SOL    HW210712   2.976   1.283   2.881
 3298SOL     OW10713   3.461   1.088   2.948
 3298SOL    HW110714   3.455   1.157   3.021
 3298SOL    HW210715   3.392   1.107   2.878
 3299SOL     OW10716   2.737   0.175   3.231
 3299SOL    HW110717   2.755   0.148   3.137
 3299SOL    HW210718   2.824   0.198   3.276
 3300SOL     OW10719   2.826   1.113   3.580
 3300SOL    HW110720   2.732   1.129   3.612
 3300SOL    HW210721   2.829   1.027   3.528
 3301SOL     OW10722   2.579   1.056   2.242
 3301SOL    HW110723   2.567   1.029   2.338
 3301SOL    HW210724   2.654   1.003   2.203
 3302SOL     OW10725   2.303   0.829   3.129
 3302SOL    HW110726   2.374   0.837   3.199
 3302SOL    HW210727   2.267   0.736   3.128
 3303SOL     OW10728   3.126   0.364   3.156
 3303SOL    HW110729   3.157   0.445   3.205
 3303SOL    HW210730   3.035   0.381   3.117
 3304SOL     OW10731   1.937   1.560   3.221
 3304SOL    HW110732   1.904   1.636   3.164
 3304SOL    HW210733   2.037   1.556   3.216
 3305SOL     OW10734   2.179   1.136   2.332
 3305SOL    HW110735   2.179   1.214   2.269
 3305SOL    HW210736   2.174   1.051   2.279
 3306SOL     OW10737   2.398   0.541   2.727
 3306SOL    HW110738   2.413   0.597   2.646
 3306SOL    HW210739   2.471   0.558   2.793
 3307SOL     OW10740   3.106   1.359   2.265
 3307SOL    HW110741   3.169   1.430   2.296
 3307SOL    HW210742   3.013   1.383   2.292
 3308SOL     OW10743   3.181   1.466   2.999
 3308SOL    HW110744   3.228   1.472   3.087
 3308SOL    HW210745   3.124   1.385   2.997
 3309SOL     OW10746   3.456   0.628   2.369
 3309SOL    HW110747   3.394   0.682   2.426
 3309SOL    HW210748   3.523   0.689   2.327
 3310SOL     OW10749   2.207   1.524   3.160
 3310SOL    HW110750   2.199   1.469   3.077
 3310SOL    HW210751   2.303   1.549   3.174
 3311SOL     OW10752   2.339   0.706   3.515
 3311SOL    HW110753   2.380   0.756   3.439
 3311SOL    HW210754   2.403   0.636   3.547
 3312SOL     OW10755   3.485   0.798   3.558
 3312SOL    HW110756   3.391   0.831   3.550
 3312SOL    HW210757   3.539   0.834   3.482
 3313SOL     OW10758   2.876   0.126   3.594
 3313SOL    HW110759   2.911   0.161   3.507
 3313SOL    HW210760   2.865   0.027   3.589
 3314SOL     OW10761   2.300   0.035   3.606
 3314SOL    HW110762   2.219   6.980   3.629
 3314SOL    HW210763   2.279   0.132   3.620
 3315SOL     OW10764   2.451   0.881   2.900
 3315SOL    HW110765   2.494   0.971   2.899
 3315SOL    HW210766   2.397   0.870   2.984
 3316SOL     OW10767   3.160   0.848   2.855
 3316SOL    HW110768   3.066   0.821   2.834
 3316SOL    HW210769   3.221   0.771   2.840
 3317SOL     OW10770   3.067   0.540   2.125
 3317SOL    HW110771   3.080   0.457   2.179
 3317SOL    HW210772   3.017   0.608   2.178
 3318SOL     OW10773   2.164   0.186   3.102
 3318SOL    HW110774   2.126   0.177   3.194
 3318SOL    HW210775   2.178   0.095   3.062
 3319SOL     OW10776   1.917   1.301   3.132
 3319SOL    HW110777   1.949   1.242   3.206
 3319SOL    HW210778   1.915   1.396   3.163
 3320SOL     OW10779   2.591   0.639   2.905
 3320SOL    HW110780   2.660   0.619   2.835
 3320SOL    HW210781   2.550   0.729   2.887
 3321SOL     OW10782   3.614   0.972   3.732
 3321SOL    HW110783   3.570   0.901   3.676
 3321SOL    HW210784   3.553   0.997   3.807
 3322SOL     OW10785   2.174   0.053   2.469
 3322SOL    HW110786   2.150   0.141   2.512
 3322SOL    HW210787   2.114   6.982   2.504
 3323SOL     OW10788   3.465   0.418   2.187
 3323SOL    HW110789   3.498   0.340   2.240
 3323SOL    HW210790   3.440   0.492   2.249
 3324SOL     OW10791   2.893   0.763   2.815
 3324SOL    HW110792   2.871   0.783   2.910
 3324SOL    HW210793   2.861   0.671   2.791
 3325SOL     OW10794   2.845   1.550   3.621
 3325SOL    HW110795   2.810   1.602   3.543
 3325SOL    HW210796   2.888   1.466   3.589
 3326SOL     OW10797   3.701   1.492   3.461
 3326SOL    HW110798   3.723   1.522   3.368
 3326SOL    HW210799   3.782   1.498   3.518
 3327SOL     OW10800   2.220   0.903   3.668
 3327SOL    HW110801   2.287   0.935   3.736
 3327SOL    HW210802   2.261   0.830   3.614
 3328SOL     OW10803   3.392   0.232   1.985
 3328SOL    HW110804   3.293   0.239   1.972
 3328SOL    HW210805   3.422   0.302   2.050
 3329SOL     OW10806   3.140   0.821   1.868
 3329SOL    HW110807   3.182   0.731   1.883
 3329SOL    HW210808   3.174   0.860   1.783
 3330SOL     OW10809   2.934   1.360   2.727
 3330SOL    HW110810   2.950   1.280   2.669
 3330SOL    HW210811   2.991   1.436   2.695
 3331SOL     OW10812   2.192   0.821   2.797
 3331SOL    HW110813   2.289   0.840   2.809
 3331SOL    HW210814   2.172   0.726   2.823
 3332SOL     OW10815   2.166   0.549   2.860
 3332SOL    HW110816   2.124   0.458   2.857
 3332SOL    HW210817   2.250   0.548   2.806
 3333SOL     OW10818   2.983   0.448   3.527
 3333SOL    HW110819   2.941   0.472   3.615
 3333SOL    HW210820   3.081   0.470   3.530
 3334SOL     OW10821   2.971   0.240   3.360
 3334SOL    HW110822   2.969   0.321   3.419
 3334SOL    HW210823   3.038   0.254   3.287
 3335SOL     OW10824   1.882   1.291   2.043
 3335SOL    HW110825   1.790   1.316   2.014
 3335SOL    HW210826   1.881   1.198   2.081
 3336SOL     OW10827   1.962   1.752   2.818
 3336SOL    HW110828   1.919   1.679   2.766
 3336SOL    HW210829   2.051   1.775   2.777
 3337SOL     OW10830   2.348   1.559   2.758
 3337SOL    HW110831   2.419   1.625   2.782
 3337SOL    HW210832   2.383   1.496   2.688
 3338SOL     OW10833   2.801   0.796   3.070
 3338SOL    HW110834   2.857   0.767   3.147
 3338SOL    HW210835   2.718   0.741   3.066
 3339SOL     OW10836   1.910   0.598   2.995
 3339SOL    HW110837   1.990   0.589   2.935
 3339SOL    HW210838   1.937   0.580   3.089
 3340SOL     OW10839   2.053   0.571   3.614
 3340SOL    HW110840   2.148   0.569   3.583
 3340SOL    HW210841   2.001   0.635   3.558
 3341SOL     OW10842   3.246   0.922   3.500
 3341SOL    HW110843   3.267   1.020   3.501
 3341SOL    HW210844   3.239   0.890   3.406
 3342SOL     OW10845   2.666   0.588   2.224
 3342SOL    HW110846   2.678   0.506   2.169
 3342SOL    HW210847   2.585   0.638   2.193
 3343SOL     OW10848   3.501   0.605   3.015
 3343SOL    HW110849   3.478   0.538   3.084
 3343SOL    HW210850   3.599   0.601   2.995
 3344SOL     OW10851   2.086   1.530   3.591
 3344SOL    HW110852   2.069   1.592   3.667
 3344SOL    HW210853   2.096   1.437   3.626
 3345SOL     OW10854   2.605   0.450   3.100
 3345SOL    HW110855   2.543   0.373   3.086
 3345SOL    HW210856   2.590   0.518   3.029
 3346SOL     OW10857   2.732   1.676   3.393
 3346SOL    HW110858   2.695   1.607   3.330
 3346SOL    HW210859   2.760   1.757   3.341
 3347SOL     OW10860   2.294   0.485   2.010
 3347SOL    HW110861   2.367   0.548   2.035
 3347SOL    HW210862   2.205   0.529   2.023
 3348SOL     OW10863   1.997   1.141   3.347
 3348SOL    HW110864   1.999   1.104   3.440
 3348SOL    HW210865   2.020   1.068   3.283
 3349SOL     OW10866   3.145   1.030   3.060
 3349SOL    HW110867   3.156   0.962   2.988
 3349SOL    HW210868   3.097   1.110   3.025
 3350SOL     OW10869   3.195   0.870   2.136
 3350SOL    HW110870   3.122   0.846   2.200
 3350SOL    HW210871   3.164   0.853   2.043
 3351SOL     OW10872   3.640   1.703   3.010
 3351SOL    HW110873   3.709   1.728   2.942
 3351SOL    HW210874   3.610   1.609   2.994
 3352SOL     OW10875   3.137   1.723   2.917
 3352SOL    HW110876   3.227   1.765   2.910
 3352SOL    HW210877   3.145   1.632   2.957
 3353SOL     OW10878   1.974   1.239   2.875
 3353SOL    HW110879   1.947   1.262   2.969
 3353SOL    HW210880   1.903   1.184   2.832
 3354SOL     OW10881   2.554   1.691   3.605
 3354SOL    HW110882   2.482   1.760   3.600
 3354SOL    HW210883   2.621   1.707   3.532
 3355SOL     OW10884   3.561   0.205   2.321
 3355SOL    HW110885   3.636   0.174   2.263
 3355SOL    HW210886   3.548   0.142   2.397
 3356SOL     OW10887   3.264   1.568   2.357
 3356SOL    HW110888   3.324   1.602   2.285
 3356SOL    HW210889   3.203   1.642   2.388
 3357SOL     OW10890   1.986   1.795   3.716
 3357SOL    HW110891   1.944   1.714   3.757
 3357SOL    HW210892   2.042   1.842   3.784
 3358SOL     OW10893   3.143   0.942   2.508
 3358SOL    HW110894   3.218   0.880   2.533
 3358SOL    HW210895   3.180   1.020   2.458
 3359SOL     OW10896   2.636   1.281   3.279
 3359SOL    HW110897   2.611   1.330   3.362
 3359SOL    HW210898   2.561   1.285   3.213
 3360SOL     OW10899   2.534   1.637   2.009
 3360SOL    HW110900   2.552   1.658   1.913
 3360SOL    HW210901   2.478   1.554   2.015
 3361SOL     OW10902   3.462   1.723   3.256
 3361SOL    HW110903   3.525   1.720   3.179
 3361SOL    HW210904   3.431   1.816   3.272
 3362SOL     OW10905   3.745   0.124   2.817
 3362SOL    HW110906   3.750   0.024   2.824
 3362SOL    HW210907   3.652   0.150   2.791
 3363SOL     OW10908   2.112   0.299   2.579
 3363SOL    HW110909   2.029   0.346   2.551
 3363SOL    HW210910   2.118   0.300   2.679
 3364SOL     OW10911   3.082   1.579   1.905
 3364SOL    HW110912   3.075   1.487   1.942
 3364SOL    HW210913   3.005   1.597   1.843
 3365SOL     OW10914   2.685   1.011   3.254
 3365SOL    HW110915   2.731   0.991   3.167
 3365SOL    HW210916   2.672   1.110   3.262
 3366SOL     OW10917   2.780   0.910   2.135
 3366SOL    HW110918   2.841   0.950   2.067
 3366SOL    HW210919   2.829   0.842   2.189
 3367SOL     OW10920   3.351   1.647   1.917
 3367SOL    HW110921   3.256   1.621   1.904
 3367SOL    HW210922   3.397   1.653   1.828
 3368SOL     OW10923   2.225   1.312   3.361
 3368SOL    HW110924   2.222   1.384   3.293
 3368SOL    HW210925   2.146   1.251   3.350
 3369SOL     OW10926   3.462   1.281   3.151
 3369SOL    HW110927   3.522   1.255   3.227
 3369SOL    HW210928   3.398   1.351   3.181
 3370SOL     OW10929   2.949   1.118   2.606
 3370SOL    HW110930   2.868   1.070   2.638
 3370SOL    HW210931   3.012   1.052   2.564
 3371SOL     OW10932   2.893   0.266   2.809
 3371SOL    HW110933   2.881   0.224   2.719
 3371SOL    HW210934   2.870   0.200   2.880
 3372SOL     OW10935   2.461   1.492   2.323
 3372SOL    HW110936   2.517   1.435   2.264
 3372SOL    HW210937   2.381   1.524   2.272
 3373SOL     OW10938   3.629   0.374   3.259
 3373SOL    HW110939   3.700   0.445   3.255
 3373SOL    HW210940   3.652   0.301   3.194
 3374SOL     OW10941   2.137   1.350   2.157
 3374SOL    HW110942   2.046   1.336   2.117
 3374SOL    HW210943   2.128   1.398   2.244
 3375SOL     OW10944   1.990   1.038   3.602
 3375SOL    HW110945   1.907   1.013   3.652
 3375SOL    HW210946   2.066   0.983   3.634
 3376SOL     OW10947   2.539   0.249   3.398
 3376SOL    HW110948   2.613   0.234   3.332
 3376SOL    HW210949   2.577   0.273   3.487
 3377SOL     OW10950   1.937   0.327   1.868
 3377SOL    HW110951   1.859   0.306   1.809
 3377SOL    HW210952   1.967   0.421   1.853
 3378SOL     OW10953   3.264   0.851   3.237
 3378SOL    HW110954   3.206   0.910   3.181
 3378SOL    HW210955   3.358   0.854   3.201
 3379SOL     OW10956   1.892   0.160   2.128
 3379SOL    HW110957   1.911   0.219   2.050
 3379SOL    HW210958   1.886   0.065   2.098
 3380SOL     OW10959   3.044   1.320   1.993
 3380SOL    HW110960   2.948   1.296   1.983
 3380SOL    HW210961   3.068   1.323   2.090
 3381SOL     OW10962   2.502   0.818   3.313
 3381SOL    HW110963   2.558   0.899   3.299
 3381SOL    HW210964   2.560   0.737   3.318
 3382SOL     OW10965   3.395   1.820   2.894
 3382SOL    HW110966   3.420   1.874   2.814
 3382SOL    HW210967   3.476   1.774   2.931
 3383SOL     OW10968   2.577   0.540   3.587
 3383SOL    HW110969   2.633   0.611   3.633
 3383SOL    HW210970   2.600   0.451   3.626
 3384SOL     OW10971   3.327   1.185   3.485
 3384SOL    HW110972   3.315   1.205   3.582
 3384SOL    HW210973   3.421   1.207   3.458
 3385SOL     OW10974   2.206   1.725   3.427
 3385SOL    HW110975   2.122   1.778   3.413
 3385SOL    HW210976   2.183   1.638   3.470
 3386SOL     OW10977   3.510   0.870   3.113
 3386SOL    HW110978   3.511   0.781   3.067
 3386SOL    HW210979   3.496   0.943   3.046
 3387SOL     OW10980   3.088   0.330   2.302
 3387SOL    HW110981   3.157   0.258   2.293
 3387SOL    HW210982   3.098   0.375   2.390
 3388SOL     OW10983   2.443   0.725   2.529
 3388SOL    HW110984   2.486   0.814   2.517
 3388SOL    HW210985   2.376   0.710   2.455
 3389SOL     OW10986   3.596   0.348   3.527
 3389SOL    HW110987   3.612   0.362   3.429
 3389SOL    HW210988   3.514   0.291   3.540
 3390SOL     OW10989   3.615   0.929   3.358
 3390SOL    HW110990   3.600   1.026   3.378
 3390SOL    HW210991   3.584   0.908   3.266
 3391SOL     OW10992   2.747   1.348   1.939
 3391SOL    HW110993   2.703   1.359   2.028
 3391SOL    HW210994   2.757   1.437   1.896
 3392SOL     OW10995   2.532   1.755   2.782
 3392SOL    HW110996   2.510   1.852   2.771
 3392SOL    HW210997   2.631   1.744   2.782
 3393SOL     OW10998   2.735   0.982   2.723
 3393SOL    HW110999   2.788   0.904   2.756
 3393SOL    HW211000   2.686   1.024   2.799
 3394SOL     OW11001   2.938   0.993   1.936
 3394SOL    HW111002   2.908   1.049   1.859
 3394SOL    HW211003   3.012   0.932   1.906
 3395SOL     OW11004   3.685   1.545   2.704
 3395SOL    HW111005   3.606   1.544   2.644
 3395SOL    HW211006   3.667   1.489   2.785
 3396SOL     OW11007   2.074   1.276   3.705
 3396SOL    HW111008   2.047   1.193   3.657
 3396SOL    HW211009   2.012   1.293   3.782
 3397SOL     OW11010   2.000   1.224   2.533
 3397SOL    HW111011   2.037   1.183   2.616
 3397SOL    HW211012   2.051   1.192   2.454
 3398SOL     OW11013   2.551   1.426   3.498
 3398SOL    HW111014   2.472   1.381   3.539
 3398SOL    HW211015   2.561   1.518   3.538
 3399SOL     OW11016   3.682   0.169   3.092
 3399SOL    HW111017   3.600   0.120   3.065
 3399SOL    HW211018   3.743   0.179   3.013
 3400SOL     OW11019   2.266   0.405   2.367
 3400SOL    HW111020   2.295   0.333   2.304
 3400SOL    HW211021   2.222   0.363   2.447
 3401SOL     OW11022   3.560   1.451   2.944
 3401SOL    HW111023   3.481   1.436   2.884
 3401SOL    HW211024   3.558   1.385   3.020
 3402SOL     OW11025   2.218   0.571   3.136
 3402SOL    HW111026   2.268   0.502   3.189
 3402SOL    HW211027   2.218   0.545   3.039
 3403SOL     OW11028   2.684   1.572   2.523
 3403SOL    HW111029   2.650   1.639   2.456
 3403SOL    HW211030   2.613   1.505   2.542
 3404SOL     OW11031   3.320   0.268   2.983
 3404SOL    HW111032   3.367   0.184   3.009
 3404SOL    HW211033   3.257   0.295   3.056
 3405SOL     OW11034   2.809   0.068   2.977
 3405SOL    HW111035   2.777   0.023   2.894
 3405SOL    HW211036   2.851   0.000   3.038
 3406SOL     OW11037   2.642   1.326   2.194
 3406SOL    HW111038   2.618   1.230   2.211
 3406SOL    HW211039   2.723   1.350   2.248
 3407SOL     OW11040   2.483   1.568   3.146
 3407SOL    HW111041   2.469   1.661   3.181
 3407SOL    HW211042   2.573   1.562   3.102
 3408SOL     OW11043   3.157   6.985   2.062
 3408SOL    HW111044   3.197   6.907   2.014
 3408SOL    HW211045   3.080   6.954   2.118
 3409SOL     OW11046   3.104   0.451   2.546
 3409SOL    HW111047   3.063   0.541   2.534
 3409SOL    HW211048   3.129   0.439   2.642
 3410SOL     OW11049   3.499   0.234   2.750
 3410SOL    HW111050   3.438   0.244   2.829
 3410SOL    HW211051   3.497   0.318   2.696
 3411SOL     OW11052   1.897   1.032   2.165
 3411SOL    HW111053   1.995   1.018   2.147
 3411SOL    HW211054   1.854   0.944   2.185
 3412SOL     OW11055   2.755   1.680   2.181
 3412SOL    HW111056   2.677   1.659   2.122
 3412SOL    HW211057   2.731   1.752   2.245
 3413SOL     OW11058   2.063   0.638   3.882
 3413SOL    HW111059   1.973   0.615   3.919
 3413SOL    HW211060   2.060   0.632   3.782
 3414SOL     OW11061   2.076   0.300   4.727
 3414SOL    HW111062   2.118   0.265   4.810
 3414SOL    HW211063   2.001   0.239   4.699
 3415SOL     OW11064   1.876   0.418   4.353
 3415SOL    HW111065   1.797   0.438   4.410
 3415SOL    HW211066   1.848   0.360   4.277
 3416SOL     OW11067   2.440   1.320   4.945
 3416SOL    HW111068   2.356   1.318   4.890
 3416SOL    HW211069   2.460   1.415   4.970
 3417SOL     OW11070   3.450   1.517   4.425
 3417SOL    HW111071   3.404   1.485   4.508
 3417SOL    HW211072   3.383   1.526   4.351
 3418SOL     OW11073   2.994   0.720   4.405
 3418SOL    HW111074   3.048   0.802   4.387
 3418SOL    HW211075   2.944   0.731   4.491
 3419SOL     OW11076   3.659   0.576   3.933
 3419SOL    HW111077   3.628   0.582   3.838
 3419SOL    HW211078   3.603   0.508   3.982
 3420SOL     OW11079   2.580   1.139   4.777
 3420SOL    HW111080   2.526   1.176   4.853
 3420SOL    HW211081   2.619   1.214   4.724
 3421SOL     OW11082   2.746   0.747   5.553
 3421SOL    HW111083   2.742   0.815   5.626
 3421SOL    HW211084   2.769   0.793   5.467
 3422SOL     OW11085   2.550   0.985   4.374
 3422SOL    HW111086   2.620   0.985   4.445
 3422SOL    HW211087   2.478   1.049   4.398
 3423SOL     OW11088   2.570   1.156   5.564
 3423SOL    HW111089   2.630   1.225   5.604
 3423SOL    HW211090   2.491   1.202   5.521
 3424SOL     OW11091   2.210   1.394   4.795
 3424SOL    HW111092   2.130   1.347   4.757
 3424SOL    HW211093   2.251   1.452   4.724
 3425SOL     OW11094   3.308   1.508   5.101
 3425SOL    HW111095   3.367   1.587   5.113
 3425SOL    HW211096   3.229   1.515   5.163
 3426SOL     OW11097   2.316   0.381   5.166
 3426SOL    HW111098   2.400   0.338   5.200
 3426SOL    HW211099   2.237   0.330   5.200
 3427SOL     OW11100   3.489   0.475   4.469
 3427SOL    HW111101   3.471   0.513   4.379
 3427SOL    HW211102   3.439   0.527   4.539
 3428SOL     OW11103   2.085   1.731   4.199
 3428SOL    HW111104   2.105   1.808   4.260
 3428SOL    HW211105   2.159   1.722   4.132
 3429SOL     OW11106   2.994   1.339   5.426
 3429SOL    HW111107   3.048   1.327   5.509
 3429SOL    HW211108   2.935   1.259   5.413
 3430SOL     OW11109   2.103   1.462   4.259
 3430SOL    HW111110   2.084   1.560   4.263
 3430SOL    HW211111   2.058   1.416   4.336
 3431SOL     OW11112   2.156   1.093   4.602
 3431SOL    HW111113   2.164   0.998   4.630
 3431SOL    HW211114   2.099   1.142   4.668
 3432SOL     OW11115   2.422   1.830   5.135
 3432SOL    HW111116   2.344   1.800   5.190
 3432SOL    HW211117   2.467   1.907   5.179
 3433SOL     OW11118   2.423   0.988   3.884
 3433SOL    HW111119   2.473   1.032   3.809
 3433SOL    HW211120   2.465   1.015   3.971
 3434SOL     OW11121   3.426   0.112   5.181
 3434SOL    HW111122   3.483   0.185   5.143
 3434SOL    HW211123   3.395   0.138   5.272
 3435SOL     OW11124   1.982   0.680   4.296
 3435SOL    HW111125   1.958   0.585   4.318
 3435SOL    HW211126   1.978   0.735   4.379
 3436SOL     OW11127   3.715   1.715   4.055
 3436SOL    HW111128   3.787   1.699   4.122
 3436SOL    HW211129   3.720   1.809   4.023
 3437SOL     OW11130   1.907   1.572   3.845
 3437SOL    HW111131   1.884   1.476   3.863
 3437SOL    HW211132   1.885   1.627   3.926
 3438SOL     OW11133   3.566   0.929   4.390
 3438SOL    HW111134   3.659   0.891   4.394
 3438SOL    HW211135   3.555   0.978   4.304
 3439SOL     OW11136   3.533   1.109   4.165
 3439SOL    HW111137   3.619   1.092   4.117
 3439SOL    HW211138   3.548   1.174   4.240
 3440SOL     OW11139   1.967   0.764   5.294
 3440SOL    HW111140   2.051   0.818   5.299
 3440SOL    HW211141   1.890   0.823   5.271
 3441SOL     OW11142   2.475   1.399   4.443
 3441SOL    HW111143   2.434   1.308   4.448
 3441SOL    HW211144   2.465   1.435   4.351
 3442SOL     OW11145   3.120   1.217   5.144
 3442SOL    HW111146   3.142   1.146   5.077
 3442SOL    HW211147   3.187   1.215   5.218
 3443SOL     OW11148   2.688   0.042   4.254
 3443SOL    HW111149   2.735   0.126   4.225
 3443SOL    HW211150   2.589   0.059   4.254
 3444SOL     OW11151   2.058   0.948   5.031
 3444SOL    HW111152   2.151   0.916   5.014
 3444SOL    HW211153   1.997   0.913   4.960
 3445SOL     OW11154   3.408   1.026   3.930
 3445SOL    HW111155   3.334   0.962   3.953
 3445SOL    HW211156   3.453   1.058   4.013
 3446SOL     OW11157   3.043   1.812   5.357
 3446SOL    HW111158   3.043   1.884   5.287
 3446SOL    HW211159   3.056   1.723   5.314
 3447SOL     OW11160   2.203   0.289   5.529
 3447SOL    HW111161   2.256   0.355   5.583
 3447SOL    HW211162   2.110   0.284   5.565
 3448SOL     OW11163   3.337   1.412   4.652
 3448SOL    HW111164   3.273   1.439   4.723
 3448SOL    HW211165   3.320   1.317   4.626
 3449SOL     OW11166   3.520   1.772   4.300
 3449SOL    HW111167   3.481   1.749   4.211
 3449SOL    HW211168   3.506   1.696   4.363
 3450SOL     OW11169   2.434   0.706   3.987
 3450SOL    HW111170   2.438   0.798   3.948
 3450SOL    HW211171   2.367   0.703   4.061
 3451SOL     OW11172   3.152   0.389   4.667
 3451SOL    HW111173   3.060   0.352   4.677
 3451SOL    HW211174   3.213   0.342   4.731
 3452SOL     OW11175   3.444   1.668   4.044
 3452SOL    HW111176   3.544   1.675   4.046
 3452SOL    HW211177   3.413   1.658   3.949
 3453SOL     OW11178   2.660   0.594   5.189
 3453SOL    HW111179   2.628   0.560   5.277
 3453SOL    HW211180   2.634   0.530   5.117
 3454SOL     OW11181   3.257   0.486   5.401
 3454SOL    HW111182   3.264   0.528   5.491
 3454SOL    HW211183   3.303   0.397   5.403
 3455SOL     OW11184   2.812   0.878   5.315
 3455SOL    HW111185   2.869   0.810   5.269
 3455SOL    HW211186   2.758   0.927   5.247
 3456SOL     OW11187   2.877   0.406   4.917
 3456SOL    HW111188   2.784   0.421   4.949
 3456SOL    HW211189   2.876   0.366   4.825
 3457SOL     OW11190   2.909   0.705   4.140
 3457SOL    HW111191   2.933   0.706   4.238
 3457SOL    HW211192   2.820   0.661   4.128
 3458SOL     OW11193   1.955   0.850   4.513
 3458SOL    HW111194   2.045   0.836   4.555
 3458SOL    HW211195   1.905   0.919   4.564
 3459SOL     OW11196   1.966   1.890   5.325
 3459SOL    HW111197   1.979   1.857   5.418
 3459SOL    HW211198   1.875   1.865   5.293
 3460SOL     OW11199   2.723   0.370   3.923
 3460SOL    HW111200   2.790   0.423   3.870
 3460SOL    HW211201   2.667   0.316   3.860
 3461SOL     OW11202   3.548   0.569   5.550
 3461SOL    HW111203   3.524   0.651   5.499
 3461SOL    HW211204   3.568   0.494   5.487
 3462SOL     OW11205   3.261   1.160   4.255
 3462SOL    HW111206   3.348   1.149   4.207
 3462SOL    HW211207   3.205   1.227   4.207
 3463SOL     OW11208   2.360   0.178   4.653
 3463SOL    HW111209   2.402   0.210   4.738
 3463SOL    HW211210   2.377   0.244   4.580
 3464SOL     OW11211   2.850   1.465   4.187
 3464SOL    HW111212   2.826   1.537   4.122
 3464SOL    HW211213   2.822   1.491   4.279
 3465SOL     OW11214   2.218   1.813   4.602
 3465SOL    HW111215   2.263   1.723   4.607
 3465SOL    HW211216   2.283   1.884   4.630
 3466SOL     OW11217   3.660   1.055   4.629
 3466SOL    HW111218   3.614   1.045   4.541
 3466SOL    HW211219   3.592   1.063   4.702
 3467SOL     OW11220   3.065   1.535   5.238
 3467SOL    HW111221   3.057   1.465   5.309
 3467SOL    HW211222   3.003   1.513   5.162
 3468SOL     OW11223   2.161   0.939   3.991
 3468SOL    HW111224   2.248   0.964   3.949
 3468SOL    HW211225   2.137   0.845   3.965
 3469SOL     OW11226   3.345   0.778   4.439
 3469SOL    HW111227   3.342   0.727   4.525
 3469SOL    HW211228   3.429   0.833   4.436
 3470SOL     OW11229   2.332   1.293   5.472
 3470SOL    HW111230   2.311   1.297   5.375
 3470SOL    HW211231   2.248   1.278   5.524
 3471SOL     OW11232   2.978   1.772   3.930
 3471SOL    HW111233   2.893   1.744   3.974
 3471SOL    HW211234   3.012   1.698   3.873
 3472SOL     OW11235   2.078   0.269   5.269
 3472SOL    HW111236   2.020   0.349   5.252
 3472SOL    HW211237   2.118   0.276   5.361
 3473SOL     OW11238   3.500   1.379   3.824
 3473SOL    HW111239   3.469   1.474   3.812
 3473SOL    HW211240   3.426   1.317   3.798
 3474SOL     OW11241   2.310   1.742   4.032
 3474SOL    HW111242   2.356   1.799   4.101
 3474SOL    HW211243   2.379   1.701   3.973
 3475SOL     OW11244   3.279   0.142   4.126
 3475SOL    HW111245   3.255   0.085   4.048
 3475SOL    HW211246   3.378   0.154   4.130
 3476SOL     OW11247   2.091   1.782   4.933
 3476SOL    HW111248   2.147   1.704   4.962
 3476SOL    HW211249   2.060   1.768   4.840
 3477SOL     OW11250   2.808   1.706   4.606
 3477SOL    HW111251   2.900   1.667   4.619
 3477SOL    HW211252   2.763   1.659   4.531
 3478SOL     OW11253   2.252   0.672   4.195
 3478SOL    HW111254   2.264   0.573   4.204
 3478SOL    HW211255   2.158   0.697   4.218
 3479SOL     OW11256   3.356   0.218   5.439
 3479SOL    HW111257   3.399   0.215   5.529
 3479SOL    HW211258   3.260   0.194   5.446
 3480SOL     OW11259   2.497   0.086   3.824
 3480SOL    HW111260   2.533   0.019   3.889
 3480SOL    HW211261   2.421   0.047   3.774
 3481SOL     OW11262   2.641   0.263   5.525
 3481SOL    HW111263   2.731   0.224   5.506
 3481SOL    HW211264   2.585   0.197   5.574
 3482SOL     OW11265   2.717   1.518   4.904
 3482SOL    HW111266   2.698   1.473   4.817
 3482SOL    HW211267   2.788   1.468   4.953
 3483SOL     OW11268   3.190   0.591   5.156
 3483SOL    HW111269   3.225   0.563   5.245
 3483SOL    HW211270   3.221   0.684   5.136
 3484SOL     OW11271   2.669   1.373   4.659
 3484SOL    HW111272   2.764   1.374   4.627
 3484SOL    HW211273   2.608   1.392   4.583
 3485SOL     OW11274   2.786   0.526   4.599
 3485SOL    HW111275   2.761   0.518   4.503
 3485SOL    HW211276   2.820   0.437   4.632
 3486SOL     OW11277   2.420   0.087   4.216
 3486SOL    HW111278   2.337   0.067   4.269
 3486SOL    HW211279   2.397   0.144   4.138
 3487SOL     OW11280   3.288   1.211   3.761
 3487SOL    HW111281   3.328   1.137   3.816
 3487SOL    HW211282   3.200   1.237   3.799
 3488SOL     OW11283   2.168   0.028   3.922
 3488SOL    HW111284   2.221   0.107   3.955
 3488SOL    HW211285   2.085   0.019   3.976
 3489SOL     OW11286   2.817   0.272   4.165
 3489SOL    HW111287   2.779   0.302   4.077
 3489SOL    HW211288   2.916   0.285   4.165
 3490SOL     OW11289   2.926   0.689   5.153
 3490SOL    HW111290   2.851   0.626   5.175
 3490SOL    HW211291   3.013   0.639   5.157
 3491SOL     OW11292   3.068   1.601   4.535
 3491SOL    HW111293   3.087   1.659   4.456
 3491SOL    HW211294   3.133   1.622   4.609
 3492SOL     OW11295   2.343   1.159   4.419
 3492SOL    HW111296   2.281   1.137   4.494
 3492SOL    HW211297   2.293   1.154   4.332
 3493SOL     OW11298   3.121   1.795   4.340
 3493SOL    HW111299   3.178   1.852   4.281
 3493SOL    HW211300   3.048   1.851   4.381
 3494SOL     OW11301   2.889   0.526   3.773
 3494SOL    HW111302   2.846   0.613   3.750
 3494SOL    HW211303   2.961   0.542   3.842
 3495SOL     OW11304   1.980   0.548   5.126
 3495SOL    HW111305   2.072   0.553   5.088
 3495SOL    HW211306   1.966   0.624   5.189
 3496SOL     OW11307   2.439   0.235   4.915
 3496SOL    HW111308   2.488   0.160   4.960
 3496SOL    HW211309   2.344   0.238   4.947
 3497SOL     OW11310   2.733   0.476   4.339
 3497SOL    HW111311   2.683   0.534   4.274
 3497SOL    HW211312   2.763   0.393   4.292
 3498SOL     OW11313   2.821   0.007   4.516
 3498SOL    HW111314   2.771   0.017   4.430
 3498SOL    HW211315   2.874   6.922   4.514
 3499SOL     OW11316   3.303   1.147   4.579
 3499SOL    HW111317   3.223   1.087   4.585
 3499SOL    HW211318   3.331   1.156   4.483
 3500SOL     OW11319   3.326   0.614   4.664
 3500SOL    HW111320   3.260   0.540   4.672
 3500SOL    HW211321   3.387   0.613   4.743
 3501SOL     OW11322   3.670   0.779   4.113
 3501SOL    HW111323   3.740   0.748   4.177
 3501SOL    HW211324   3.664   0.715   4.037
 3502SOL     OW11325   2.353   1.428   3.870
 3502SOL    HW111326   2.274   1.397   3.923
 3502SOL    HW211327   2.354   1.381   3.782
 3503SOL     OW11328   3.584   1.268   4.374
 3503SOL    HW111329   3.682   1.262   4.392
 3503SOL    HW211330   3.552   1.361   4.392
 3504SOL     OW11331   3.261   0.582   3.794
 3504SOL    HW111332   3.201   0.563   3.871
 3504SOL    HW211333   3.357   0.575   3.824
 3505SOL     OW11334   2.346   0.243   3.996
 3505SOL    HW111335   2.410   0.197   3.936
 3505SOL    HW211336   2.323   0.333   3.959
 3506SOL     OW11337   3.602   1.237   5.258
 3506SOL    HW111338   3.693   1.199   5.240
 3506SOL    HW211339   3.612   1.328   5.297
 3507SOL     OW11340   2.894   1.357   5.065
 3507SOL    HW111341   2.808   1.326   5.106
 3507SOL    HW211342   2.970   1.306   5.106
 3508SOL     OW11343   3.479   1.644   5.399
 3508SOL    HW111344   3.459   1.681   5.309
 3508SOL    HW211345   3.558   1.583   5.394
 3509SOL     OW11346   3.011   1.257   4.834
 3509SOL    HW111347   2.951   1.289   4.907
 3509SOL    HW211348   2.975   1.288   4.746
 3510SOL     OW11349   3.462   1.093   4.814
 3510SOL    HW111350   3.455   1.163   4.885
 3510SOL    HW211351   3.394   1.112   4.743
 3511SOL     OW11352   2.737   0.175   5.093
 3511SOL    HW111353   2.754   0.147   4.998
 3511SOL    HW211354   2.823   0.198   5.137
 3512SOL     OW11355   2.829   1.118   5.440
 3512SOL    HW111356   2.735   1.135   5.472
 3512SOL    HW211357   2.832   1.032   5.389
 3513SOL     OW11358   2.578   1.056   4.106
 3513SOL    HW111359   2.565   1.031   4.202
 3513SOL    HW211360   2.654   1.005   4.068
 3514SOL     OW11361   2.304   0.830   4.991
 3514SOL    HW111362   2.374   0.838   5.061
 3514SOL    HW211363   2.268   0.737   4.990
 3515SOL     OW11364   3.126   0.364   5.018
 3515SOL    HW111365   3.157   0.446   5.067
 3515SOL    HW211366   3.035   0.381   4.979
 3516SOL     OW11367   1.934   1.563   5.081
 3516SOL    HW111368   1.896   1.635   5.023
 3516SOL    HW211369   2.034   1.565   5.076
 3517SOL     OW11370   2.179   1.136   4.194
 3517SOL    HW111371   2.177   1.213   4.131
 3517SOL    HW211372   2.175   1.051   4.143
 3518SOL     OW11373   2.398   0.542   4.590
 3518SOL    HW111374   2.413   0.598   4.508
 3518SOL    HW211375   2.471   0.559   4.656
 3519SOL     OW11376   3.104   1.365   4.128
 3519SOL    HW111377   3.167   1.436   4.160
 3519SOL    HW211378   3.011   1.388   4.156
 3520SOL     OW11379   3.178   1.475   4.863
 3520SOL    HW111380   3.225   1.483   4.951
 3520SOL    HW211381   3.121   1.393   4.863
 3521SOL     OW11382   3.455   0.627   4.231
 3521SOL    HW111383   3.392   0.681   4.288
 3521SOL    HW211384   3.523   0.688   4.189
 3522SOL     OW11385   2.207   1.537   5.023
 3522SOL    HW111386   2.199   1.480   4.942
 3522SOL    HW211387   2.302   1.561   5.038
 3523SOL     OW11388   2.338   0.708   5.375
 3523SOL    HW111389   2.380   0.759   5.300
 3523SOL    HW211390   2.401   0.638   5.407
 3524SOL     OW11391   3.485   0.798   5.420
 3524SOL    HW111392   3.391   0.833   5.412
 3524SOL    HW211393   3.540   0.834   5.344
 3525SOL     OW11394   2.876   0.126   5.457
 3525SOL    HW111395   2.911   0.161   5.370
 3525SOL    HW211396   2.865   0.026   5.451
 3526SOL     OW11397   2.299   0.036   5.468
 3526SOL    HW111398   2.219   6.980   5.490
 3526SOL    HW211399   2.278   0.132   5.482
 3527SOL     OW11400   2.452   0.884   4.762
 3527SOL    HW111401   2.492   0.976   4.761
 3527SOL    HW211402   2.398   0.873   4.846
 3528SOL     OW11403   3.159   0.845   4.725
 3528SOL    HW111404   3.065   0.820   4.701
 3528SOL    HW211405   3.220   0.769   4.706
 3529SOL     OW11406   3.067   0.542   3.986
 3529SOL    HW111407   3.079   0.458   4.040
 3529SOL    HW211408   3.017   0.609   4.040
 3530SOL     OW11409   2.165   0.186   4.964
 3530SOL    HW111410   2.126   0.177   5.056
 3530SOL    HW211411   2.178   0.096   4.924
 3531SOL     OW11412   1.918   1.303   4.995
 3531SOL    HW111413   1.950   1.244   5.069
 3531SOL    HW211414   1.916   1.398   5.027
 3532SOL     OW11415   2.590   0.641   4.767
 3532SOL    HW111416   2.659   0.620   4.698
 3532SOL    HW211417   2.551   0.731   4.749
 3533SOL     OW11418   3.614   0.973   5.593
 3533SOL    HW111419   3.570   0.902   5.538
 3533SOL    HW211420   3.552   0.999   5.668
 3534SOL     OW11421   2.174   0.053   4.331
 3534SOL    HW111422   2.150   0.141   4.374
 3534SOL    HW211423   2.114   6.982   4.366
 3535SOL     OW11424   3.465   0.417   4.049
 3535SOL    HW111425   3.498   0.339   4.102
 3535SOL    HW211426   3.440   0.492   4.111
 3536SOL     OW11427   2.891   0.764   4.677
 3536SOL    HW111428   2.869   0.784   4.772
 3536SOL    HW211429   2.860   0.672   4.653
 3537SOL     OW11430   2.843   1.560   5.485
 3537SOL    HW111431   2.810   1.617   5.410
 3537SOL    HW211432   2.885   1.477   5.449
 3538SOL     OW11433   3.701   1.491   5.328
 3538SOL    HW111434   3.723   1.519   5.234
 3538SOL    HW211435   3.782   1.500   5.385
 3539SOL     OW11436   2.221   0.905   5.532
 3539SOL    HW111437   2.288   0.936   5.599
 3539SOL    HW211438   2.260   0.832   5.477
 3540SOL     OW11439   3.392   0.231   3.847
 3540SOL    HW111440   3.293   0.238   3.834
 3540SOL    HW211441   3.421   0.301   3.912
 3541SOL     OW11442   3.140   0.820   3.730
 3541SOL    HW111443   3.182   0.731   3.744
 3541SOL    HW211444   3.173   0.859   3.644
 3542SOL     OW11445   2.932   1.364   4.591
 3542SOL    HW111446   2.948   1.283   4.534
 3542SOL    HW211447   2.987   1.440   4.556
 3543SOL     OW11448   2.192   0.823   4.660
 3543SOL    HW111449   2.289   0.841   4.670
 3543SOL    HW211450   2.173   0.728   4.685
 3544SOL     OW11451   2.166   0.550   4.722
 3544SOL    HW111452   2.124   0.459   4.719
 3544SOL    HW211453   2.250   0.549   4.668
 3545SOL     OW11454   2.983   0.448   5.389
 3545SOL    HW111455   2.941   0.472   5.477
 3545SOL    HW211456   3.081   0.470   5.392
 3546SOL     OW11457   2.971   0.240   5.222
 3546SOL    HW111458   2.969   0.321   5.281
 3546SOL    HW211459   3.037   0.254   5.149
 3547SOL     OW11460   1.880   1.289   3.906
 3547SOL    HW111461   1.788   1.315   3.877
 3547SOL    HW211462   1.879   1.196   3.944
 3548SOL     OW11463   1.962   1.758   4.683
 3548SOL    HW111464   1.920   1.683   4.632
 3548SOL    HW211465   2.051   1.780   4.642
 3549SOL     OW11466   2.350   1.567   4.625
 3549SOL    HW111467   2.422   1.630   4.653
 3549SOL    HW211468   2.387   1.504   4.556
 3550SOL     OW11469   2.801   0.797   4.932
 3550SOL    HW111470   2.857   0.768   5.009
 3550SOL    HW211471   2.717   0.742   4.929
 3551SOL     OW11472   1.910   0.597   4.857
 3551SOL    HW111473   1.990   0.589   4.797
 3551SOL    HW211474   1.937   0.579   4.952
 3552SOL     OW11475   2.051   0.570   5.476
 3552SOL    HW111476   2.146   0.567   5.445
 3552SOL    HW211477   2.000   0.636   5.420
 3553SOL     OW11478   3.247   0.924   5.363
 3553SOL    HW111479   3.268   1.021   5.363
 3553SOL    HW211480   3.238   0.891   5.269
 3554SOL     OW11481   2.666   0.589   4.086
 3554SOL    HW111482   2.679   0.506   4.031
 3554SOL    HW211483   2.585   0.638   4.055
 3555SOL     OW11484   3.501   0.606   4.876
 3555SOL    HW111485   3.477   0.539   4.947
 3555SOL    HW211486   3.598   0.601   4.857
 3556SOL     OW11487   2.091   1.537   5.441
 3556SOL    HW111488   2.073   1.608   5.510
 3556SOL    HW211489   2.098   1.448   5.486
 3557SOL     OW11490   2.606   0.451   4.962
 3557SOL    HW111491   2.543   0.374   4.948
 3557SOL    HW211492   2.590   0.519   4.891
 3558SOL     OW11493   2.729   1.701   5.260
 3558SOL    HW111494   2.699   1.634   5.192
 3558SOL    HW211495   2.755   1.786   5.215
 3559SOL     OW11496   2.294   0.485   3.872
 3559SOL    HW111497   2.367   0.548   3.897
 3559SOL    HW211498   2.206   0.529   3.885
 3560SOL     OW11499   1.998   1.142   5.209
 3560SOL    HW111500   2.000   1.106   5.302
 3560SOL    HW211501   2.021   1.069   5.144
 3561SOL     OW11502   3.143   1.034   4.925
 3561SOL    HW111503   3.154   0.965   4.853
 3561SOL    HW211504   3.096   1.113   4.888
 3562SOL     OW11505   3.195   0.869   3.998
 3562SOL    HW111506   3.122   0.846   4.062
 3562SOL    HW211507   3.164   0.852   3.904
 3563SOL     OW11508   3.639   1.710   4.893
 3563SOL    HW111509   3.706   1.741   4.825
 3563SOL    HW211510   3.606   1.619   4.867
 3564SOL     OW11511   3.116   1.739   4.812
 3564SOL    HW111512   3.204   1.778   4.784
 3564SOL    HW211513   3.128   1.644   4.840
 3565SOL     OW11514   1.976   1.242   4.739
 3565SOL    HW111515   1.949   1.264   4.833
 3565SOL    HW211516   1.905   1.187   4.696
 3566SOL     OW11517   2.549   1.702   5.469
 3566SOL    HW111518   2.480   1.774   5.463
 3566SOL    HW211519   2.618   1.716   5.398
 3567SOL     OW11520   3.560   0.204   4.183
 3567SOL    HW111521   3.636   0.173   4.126
 3567SOL    HW211522   3.547   0.140   4.259
 3568SOL     OW11523   3.261   1.573   4.226
 3568SOL    HW111524   3.322   1.607   4.154
 3568SOL    HW211525   3.205   1.649   4.260
 3569SOL     OW11526   2.008   1.781   5.571
 3569SOL    HW111527   1.954   1.709   5.614
 3569SOL    HW211528   2.060   1.831   5.640
 3570SOL     OW11529   3.144   0.947   4.373
 3570SOL    HW111530   3.219   0.884   4.397
 3570SOL    HW211531   3.181   1.023   4.321
 3571SOL     OW11532   2.637   1.286   5.144
 3571SOL    HW111533   2.612   1.336   5.227
 3571SOL    HW211534   2.563   1.292   5.077
 3572SOL     OW11535   2.522   1.640   3.873
 3572SOL    HW111536   2.546   1.658   3.778
 3572SOL    HW211537   2.468   1.556   3.879
 3573SOL     OW11538   3.472   1.730   5.124
 3573SOL    HW111539   3.529   1.723   5.043
 3573SOL    HW211540   3.454   1.826   5.145
 3574SOL     OW11541   3.745   0.124   4.679
 3574SOL    HW111542   3.751   0.024   4.687
 3574SOL    HW211543   3.652   0.150   4.653
 3575SOL     OW11544   2.112   0.299   4.441
 3575SOL    HW111545   2.029   0.345   4.413
 3575SOL    HW211546   2.119   0.300   4.541
 3576SOL     OW11547   3.086   1.575   3.771
 3576SOL    HW111548   3.073   1.482   3.806
 3576SOL    HW211549   3.018   1.593   3.699
 3577SOL     OW11550   2.685   1.015   5.117
 3577SOL    HW111551   2.730   0.995   5.030
 3577SOL    HW211552   2.672   1.114   5.126
 3578SOL     OW11553   2.781   0.913   4.004
 3578SOL    HW111554   2.840   0.949   3.932
 3578SOL    HW211555   2.830   0.843   4.056
 3579SOL     OW11556   3.353   1.643   3.778
 3579SOL    HW111557   3.258   1.613   3.765
 3579SOL    HW211558   3.398   1.648   3.689
 3580SOL     OW11559   2.227   1.313   5.222
 3580SOL    HW111560   2.221   1.390   5.158
 3580SOL    HW211561   2.148   1.254   5.210
 3581SOL     OW11562   3.459   1.290   5.015
 3581SOL    HW111563   3.518   1.263   5.091
 3581SOL    HW211564   3.395   1.360   5.047
 3582SOL     OW11565   2.951   1.121   4.472
 3582SOL    HW111566   2.868   1.073   4.502
 3582SOL    HW211567   3.014   1.056   4.429
 3583SOL     OW11568   2.893   0.266   4.671
 3583SOL    HW111569   2.881   0.224   4.581
 3583SOL    HW211570   2.869   0.201   4.742
 3584SOL     OW11571   2.464   1.494   4.191
 3584SOL    HW111572   2.522   1.437   4.131
 3584SOL    HW211573   2.379   1.516   4.143
 3585SOL     OW11574   3.630   0.374   5.121
 3585SOL    HW111575   3.700   0.445   5.117
 3585SOL    HW211576   3.652   0.301   5.057
 3586SOL     OW11577   2.133   1.349   4.020
 3586SOL    HW111578   2.042   1.334   3.981
 3586SOL    HW211579   2.125   1.398   4.106
 3587SOL     OW11580   1.991   1.042   5.464
 3587SOL    HW111581   1.908   1.016   5.514
 3587SOL    HW211582   2.068   0.986   5.497
 3588SOL     OW11583   2.539   0.249   5.261
 3588SOL    HW111584   2.613   0.234   5.195
 3588SOL    HW211585   2.578   0.274   5.349
 3589SOL     OW11586   1.937   0.327   3.730
 3589SOL    HW111587   1.859   0.307   3.671
 3589SOL    HW211588   1.967   0.421   3.714
 3590SOL     OW11589   3.263   0.853   5.099
 3590SOL    HW111590   3.204   0.912   5.045
 3590SOL    HW211591   3.356   0.856   5.063
 3591SOL     OW11592   1.892   0.161   3.990
 3591SOL    HW111593   1.911   0.219   3.911
 3591SOL    HW211594   1.886   0.065   3.960
 3592SOL     OW11595   3.042   1.316   3.857
 3592SOL    HW111596   2.944   1.295   3.849
 3592SOL    HW211597   3.066   1.322   3.954
 3593SOL     OW11598   2.502   0.820   5.175
 3593SOL    HW111599   2.558   0.901   5.161
 3593SOL    HW211600   2.561   0.739   5.180
 3594SOL     OW11601   3.367   1.817   4.734
 3594SOL    HW111602   3.387   1.896   4.676
 3594SOL    HW211603   3.452   1.771   4.758
 3595SOL     OW11604   2.579   0.541   5.449
 3595SOL    HW111605   2.634   0.611   5.494
 3595SOL    HW211606   2.601   0.451   5.488
 3596SOL     OW11607   3.328   1.187   5.347
 3596SOL    HW111608   3.316   1.207   5.444
 3596SOL    HW211609   3.422   1.208   5.319
 3597SOL     OW11610   2.211   1.755   5.302
 3597SOL    HW111611   2.127   1.806   5.289
 3597SOL    HW211612   2.190   1.663   5.336
 3598SOL     OW11613   3.509   0.871   4.975
 3598SOL    HW111614   3.510   0.783   4.927
 3598SOL    HW211615   3.495   0.945   4.909
 3599SOL     OW11616   3.086   0.331   4.163
 3599SOL    HW111617   3.157   0.261   4.154
 3599SOL    HW211618   3.099   0.380   4.249
 3600SOL     OW11619   2.442   0.726   4.391
 3600SOL    HW111620   2.485   0.816   4.381
 3600SOL    HW211621   2.376   0.712   4.318
 3601SOL     OW11622   3.596   0.348   5.390
 3601SOL    HW111623   3.612   0.362   5.292
 3601SOL    HW211624   3.514   0.292   5.402
 3602SOL     OW11625   3.616   0.929   5.220
 3602SOL    HW111626   3.600   1.026   5.239
 3602SOL    HW211627   3.584   0.907   5.128
 3603SOL     OW11628   2.748   1.344   3.804
 3603SOL    HW111629   2.704   1.358   3.892
 3603SOL    HW211630   2.760   1.433   3.758
 3604SOL     OW11631   2.534   1.762   4.662
 3604SOL    HW111632   2.509   1.859   4.653
 3604SOL    HW211633   2.633   1.753   4.651
 3605SOL     OW11634   2.735   0.985   4.586
 3605SOL    HW111635   2.787   0.907   4.620
 3605SOL    HW211636   2.686   1.028   4.662
 3606SOL     OW11637   2.935   0.987   3.798
 3606SOL    HW111638   2.905   1.044   3.722
 3606SOL    HW211639   3.010   0.928   3.769
 3607SOL     OW11640   3.681   1.558   4.579
 3607SOL    HW111641   3.609   1.550   4.511
 3607SOL    HW211642   3.658   1.503   4.660
 3608SOL     OW11643   2.071   1.285   5.564
 3608SOL    HW111644   2.046   1.200   5.516
 3608SOL    HW211645   2.009   1.299   5.641
 3609SOL     OW11646   2.001   1.225   4.395
 3609SOL    HW111647   2.038   1.184   4.478
 3609SOL    HW211648   2.052   1.193   4.316
 3610SOL     OW11649   2.551   1.433   5.363
 3610SOL    HW111650   2.471   1.388   5.402
 3610SOL    HW211651   2.558   1.526   5.400
 3611SOL     OW11652   3.685   0.170   4.955
 3611SOL    HW111653   3.602   0.120   4.928
 3611SOL    HW211654   3.745   0.180   4.876
 3612SOL     OW11655   2.266   0.405   4.229
 3612SOL    HW111656   2.296   0.333   4.166
 3612SOL    HW211657   2.222   0.363   4.309
 3613SOL     OW11658   3.554   1.464   4.812
 3613SOL    HW111659   3.476   1.448   4.751
 3613SOL    HW211660   3.553   1.397   4.886
 3614SOL     OW11661   2.218   0.571   4.998
 3614SOL    HW111662   2.268   0.502   5.051
 3614SOL    HW211663   2.218   0.546   4.902
 3615SOL     OW11664   2.694   1.607   4.383
 3615SOL    HW111665   2.682   1.691   4.331
 3615SOL    HW211666   2.611   1.551   4.376
 3616SOL     OW11667   3.319   0.267   4.844
 3616SOL    HW111668   3.367   0.183   4.871
 3616SOL    HW211669   3.257   0.294   4.918
 3617SOL     OW11670   2.809   0.068   4.839
 3617SOL    HW111671   2.778   0.023   4.754
 3617SOL    HW211672   2.850   6.999   4.899
 3618SOL     OW11673   2.642   1.327   4.059
 3618SOL    HW111674   2.617   1.231   4.075
 3618SOL    HW211675   2.722   1.350   4.114
 3619SOL     OW11676   2.479   1.588   5.018
 3619SOL    HW111677   2.470   1.680   5.054
 3619SOL    HW211678   2.567   1.579   4.971
 3620SOL     OW11679   3.157   6.985   3.927
 3620SOL    HW111680   3.198   6.908   3.878
 3620SOL    HW211681   3.079   6.953   3.981
 3621SOL     OW11682   3.105   0.456   4.404
 3621SOL    HW111683   3.064   0.547   4.395
 3621SOL    HW211684   3.130   0.440   4.499
 3622SOL     OW11685   3.498   0.233   4.612
 3622SOL    HW111686   3.438   0.244   4.692
 3622SOL    HW211687   3.497   0.318   4.558
 3623SOL     OW11688   1.897   1.031   4.028
 3623SOL    HW111689   1.994   1.017   4.010
 3623SOL    HW211690   1.854   0.943   4.048
 3624SOL     OW11691   2.743   1.675   4.040
 3624SOL    HW111692   2.665   1.656   3.981
 3624SOL    HW211693   2.715   1.738   4.113
 3625SOL     OW11694   2.062   0.636   5.744
 3625SOL    HW111695   1.972   0.613   5.781
 3625SOL    HW211696   2.060   0.631   5.645
 3626SOL     OW11697   2.057   0.337   6.602
 3626SOL    HW111698   2.112   0.301   6.678
 3626SOL    HW211699   1.987   0.271   6.577
 3627SOL     OW11700   1.869   0.419   6.213
 3627SOL    HW111701   1.791   0.442   6.271
 3627SOL    HW211702   1.840   0.357   6.140
 3628SOL     OW11703   2.399   1.297   6.782
 3628SOL    HW111704   2.317   1.312   6.727
 3628SOL    HW211705   2.435   1.385   6.813
 3629SOL     OW11706   3.450   1.512   6.299
 3629SOL    HW111707   3.392   1.484   6.375
 3629SOL    HW211708   3.393   1.529   6.218
 3630SOL     OW11709   2.991   0.708   6.261
 3630SOL    HW111710   3.039   0.796   6.257
 3630SOL    HW211711   2.929   0.707   6.340
 3631SOL     OW11712   3.657   0.577   5.794
 3631SOL    HW111713   3.626   0.583   5.700
 3631SOL    HW211714   3.603   0.508   5.843
 3632SOL     OW11715   2.572   1.134   6.634
 3632SOL    HW111716   2.509   1.167   6.704
 3632SOL    HW211717   2.607   1.212   6.582
 3633SOL     OW11718   2.544   0.987   6.241
 3633SOL    HW111719   2.614   0.983   6.312
 3633SOL    HW211720   2.471   1.049   6.269
 3634SOL     OW11721   2.181   1.395   6.630
 3634SOL    HW111722   2.092   1.368   6.593
 3634SOL    HW211723   2.229   1.451   6.562
 3635SOL     OW11724   3.484   0.482   6.327
 3635SOL    HW111725   3.466   0.520   6.236
 3635SOL    HW211726   3.432   0.532   6.396
 3636SOL     OW11727   2.088   1.732   6.055
 3636SOL    HW111728   2.112   1.806   6.118
 3636SOL    HW211729   2.163   1.718   5.990
 3637SOL     OW11730   2.102   1.461   6.122
 3637SOL    HW111731   2.082   1.559   6.125
 3637SOL    HW211732   2.058   1.416   6.199
 3638SOL     OW11733   2.144   1.093   6.489
 3638SOL    HW111734   2.161   0.995   6.501
 3638SOL    HW211735   2.114   1.132   6.576
 3639SOL     OW11736   2.474   1.809   6.978
 3639SOL    HW111737   2.391   1.781   0.027
 3639SOL    HW211738   2.506   1.896   0.015
 3640SOL     OW11739   2.425   0.990   5.747
 3640SOL    HW111740   2.474   1.034   5.672
 3640SOL    HW211741   2.466   1.016   5.834
 3641SOL     OW11742   1.980   0.679   6.157
 3641SOL    HW111743   1.953   0.585   6.179
 3641SOL    HW211744   1.982   0.733   6.241
 3642SOL     OW11745   3.716   1.749   5.908
 3642SOL    HW111746   3.794   1.735   5.970
 3642SOL    HW211747   3.718   1.843   5.873
 3643SOL     OW11748   1.902   1.573   5.704
 3643SOL    HW111749   1.883   1.477   5.723
 3643SOL    HW211750   1.882   1.628   5.785
 3644SOL     OW11751   3.574   0.930   6.245
 3644SOL    HW111752   3.662   0.883   6.235
 3644SOL    HW211753   3.555   0.982   6.162
 3645SOL     OW11754   3.532   1.110   6.026
 3645SOL    HW111755   3.617   1.092   5.976
 3645SOL    HW211756   3.549   1.178   6.097
 3646SOL     OW11757   2.468   1.397   6.294
 3646SOL    HW111758   2.424   1.308   6.303
 3646SOL    HW211759   2.457   1.432   6.201
 3647SOL     OW11760   2.691   0.044   6.098
 3647SOL    HW111761   2.736   0.130   6.075
 3647SOL    HW211762   2.592   0.059   6.107
 3648SOL     OW11763   2.036   0.978   6.825
 3648SOL    HW111764   2.122   0.928   6.817
 3648SOL    HW211765   1.959   0.918   6.803
 3649SOL     OW11766   3.406   1.028   5.791
 3649SOL    HW111767   3.333   0.964   5.815
 3649SOL    HW211768   3.451   1.060   5.874
 3650SOL     OW11769   3.285   1.423   6.504
 3650SOL    HW111770   3.239   1.432   6.592
 3650SOL    HW211771   3.285   1.327   6.476
 3651SOL     OW11772   3.492   1.835   6.131
 3651SOL    HW111773   3.483   1.772   6.054
 3651SOL    HW211774   3.507   1.783   6.215
 3652SOL     OW11775   2.435   0.706   5.850
 3652SOL    HW111776   2.439   0.798   5.811
 3652SOL    HW211777   2.367   0.704   5.923
 3653SOL     OW11778   3.146   0.400   6.531
 3653SOL    HW111779   3.055   0.359   6.534
 3653SOL    HW211780   3.208   0.347   6.589
 3654SOL     OW11781   3.453   1.671   5.908
 3654SOL    HW111782   3.551   1.688   5.901
 3654SOL    HW211783   3.415   1.661   5.816
 3655SOL     OW11784   2.641   0.664   0.020
 3655SOL    HW111785   2.586   0.688   0.100
 3655SOL    HW211786   2.593   0.592   6.968
 3656SOL     OW11787   2.873   0.421   6.789
 3656SOL    HW111788   2.864   0.461   6.880
 3656SOL    HW211789   2.803   0.351   6.776
 3657SOL     OW11790   2.910   0.703   5.998
 3657SOL    HW111791   2.936   0.702   6.094
 3657SOL    HW211792   2.820   0.660   5.987
 3658SOL     OW11793   1.971   0.846   6.376
 3658SOL    HW111794   2.059   0.829   6.422
 3658SOL    HW211795   1.922   0.919   6.423
 3659SOL     OW11796   2.012   1.816   0.090
 3659SOL    HW111797   1.954   1.739   0.116
 3659SOL    HW211798   2.021   1.820   6.991
 3660SOL     OW11799   2.724   0.372   5.785
 3660SOL    HW111800   2.791   0.425   5.732
 3660SOL    HW211801   2.668   0.317   5.723
 3661SOL     OW11802   3.263   1.163   6.130
 3661SOL    HW111803   3.349   1.148   6.081
 3661SOL    HW211804   3.206   1.227   6.079
 3662SOL     OW11805   2.329   0.197   6.493
 3662SOL    HW111806   2.385   0.273   6.526
 3662SOL    HW211807   2.323   0.200   6.393
 3663SOL     OW11808   2.853   1.466   6.051
 3663SOL    HW111809   2.831   1.541   5.988
 3663SOL    HW211810   2.819   1.488   6.142
 3664SOL     OW11811   2.217   1.811   6.472
 3664SOL    HW111812   2.259   1.720   6.472
 3664SOL    HW211813   2.286   1.879   6.495
 3665SOL     OW11814   3.667   1.047   6.481
 3665SOL    HW111815   3.628   1.029   6.390
 3665SOL    HW211816   3.594   1.047   6.549
 3666SOL     OW11817   2.162   0.943   5.857
 3666SOL    HW111818   2.249   0.969   5.814
 3666SOL    HW211819   2.139   0.849   5.830
 3667SOL     OW11820   3.347   0.783   6.295
 3667SOL    HW111821   3.341   0.732   6.381
 3667SOL    HW211822   3.431   0.837   6.294
 3668SOL     OW11823   3.006   1.769   5.814
 3668SOL    HW111824   2.916   1.746   5.851
 3668SOL    HW211825   3.032   1.702   5.745
 3669SOL     OW11826   3.501   1.386   5.685
 3669SOL    HW111827   3.470   1.480   5.670
 3669SOL    HW211828   3.428   1.323   5.659
 3670SOL     OW11829   2.327   1.739   5.900
 3670SOL    HW111830   2.372   1.796   5.969
 3670SOL    HW211831   2.396   1.702   5.838
 3671SOL     OW11832   3.284   0.130   6.003
 3671SOL    HW111833   3.251   0.079   5.923
 3671SOL    HW211834   3.380   0.154   5.990
 3672SOL     OW11835   2.089   1.809   6.812
 3672SOL    HW111836   2.146   1.728   6.825
 3672SOL    HW211837   2.045   1.805   6.722
 3673SOL     OW11838   2.821   1.690   6.465
 3673SOL    HW111839   2.912   1.648   6.467
 3673SOL    HW211840   2.766   1.646   6.395
 3674SOL     OW11841   2.249   0.673   6.054
 3674SOL    HW111842   2.260   0.574   6.063
 3674SOL    HW211843   2.155   0.698   6.077
 3675SOL     OW11844   2.495   0.087   5.686
 3675SOL    HW111845   2.531   0.018   5.749
 3675SOL    HW211846   2.420   0.048   5.633
 3676SOL     OW11847   2.726   1.475   6.753
 3676SOL    HW111848   2.685   1.455   6.664
 3676SOL    HW211849   2.801   1.411   6.770
 3677SOL     OW11850   2.651   1.366   6.506
 3677SOL    HW111851   2.745   1.368   6.472
 3677SOL    HW211852   2.587   1.380   6.429
 3678SOL     OW11853   2.803   0.527   6.474
 3678SOL    HW111854   2.775   0.514   6.379
 3678SOL    HW211855   2.839   0.441   6.510
 3679SOL     OW11856   2.419   0.088   6.083
 3679SOL    HW111857   2.336   0.070   6.136
 3679SOL    HW211858   2.395   0.144   6.003
 3680SOL     OW11859   3.291   1.215   5.622
 3680SOL    HW111860   3.329   1.141   5.678
 3680SOL    HW211861   3.202   1.242   5.660
 3681SOL     OW11862   2.166   0.026   5.781
 3681SOL    HW111863   2.217   0.105   5.815
 3681SOL    HW211864   2.083   0.015   5.835
 3682SOL     OW11865   2.819   0.277   6.028
 3682SOL    HW111866   2.783   0.308   5.940
 3682SOL    HW211867   2.918   0.289   6.029
 3683SOL     OW11868   3.073   1.581   6.389
 3683SOL    HW111869   3.094   1.651   6.321
 3683SOL    HW211870   3.158   1.543   6.425
 3684SOL     OW11871   2.332   1.158   6.296
 3684SOL    HW111872   2.270   1.138   6.372
 3684SOL    HW211873   2.282   1.150   6.210
 3685SOL     OW11874   3.112   1.787   6.203
 3685SOL    HW111875   3.164   1.851   6.146
 3685SOL    HW211876   3.031   1.833   6.239
 3686SOL     OW11877   2.890   0.527   5.636
 3686SOL    HW111878   2.848   0.614   5.612
 3686SOL    HW211879   2.962   0.542   5.704
 3687SOL     OW11880   2.446   0.205   6.818
 3687SOL    HW111881   2.461   0.112   6.785
 3687SOL    HW211882   2.348   0.224   6.820
 3688SOL     OW11883   2.738   0.479   6.212
 3688SOL    HW111884   2.685   0.535   6.149
 3688SOL    HW211885   2.768   0.396   6.165
 3689SOL     OW11886   2.890   0.022   6.319
 3689SOL    HW111887   2.820   0.027   6.248
 3689SOL    HW211888   2.906   6.927   6.344
 3690SOL     OW11889   3.282   1.152   6.429
 3690SOL    HW111890   3.212   1.082   6.445
 3690SOL    HW211891   3.297   1.162   6.330
 3691SOL     OW11892   3.320   0.626   6.521
 3691SOL    HW111893   3.255   0.551   6.536
 3691SOL    HW211894   3.387   0.627   6.594
 3692SOL     OW11895   3.671   0.782   5.972
 3692SOL    HW111896   3.741   0.749   6.036
 3692SOL    HW211897   3.664   0.718   5.895
 3693SOL     OW11898   2.359   1.428   5.733
 3693SOL    HW111899   2.280   1.396   5.787
 3693SOL    HW211900   2.358   1.383   5.644
 3694SOL     OW11901   3.591   1.276   6.225
 3694SOL    HW111902   3.688   1.269   6.249
 3694SOL    HW211903   3.556   1.366   6.253
 3695SOL     OW11904   3.261   0.583   5.656
 3695SOL    HW111905   3.202   0.562   5.733
 3695SOL    HW211906   3.357   0.577   5.683
 3696SOL     OW11907   2.343   0.241   5.860
 3696SOL    HW111908   2.408   0.195   5.800
 3696SOL    HW211909   2.321   0.331   5.823
 3697SOL     OW11910   3.620   1.141   0.183
 3697SOL    HW111911   3.715   1.138   0.152
 3697SOL    HW211912   3.581   1.231   0.161
 3698SOL     OW11913   2.937   1.290   6.706
 3698SOL    HW111914   2.924   1.192   6.717
 3698SOL    HW211915   2.927   1.314   6.609
 3699SOL     OW11916   3.454   1.074   6.648
 3699SOL    HW111917   3.454   1.151   6.712
 3699SOL    HW211918   3.390   1.093   6.573
 3700SOL     OW11919   2.577   1.059   5.972
 3700SOL    HW111920   2.562   1.032   6.067
 3700SOL    HW211921   2.654   1.007   5.935
 3701SOL     OW11922   2.291   0.854   6.857
 3701SOL    HW111923   2.345   0.892   6.932
 3701SOL    HW211924   2.265   0.760   6.880
 3702SOL     OW11925   3.117   0.340   6.876
 3702SOL    HW111926   3.158   0.416   6.927
 3702SOL    HW211927   3.034   0.371   6.831
 3703SOL     OW11928   1.945   1.558   6.934
 3703SOL    HW111929   1.891   1.623   6.881
 3703SOL    HW211930   2.041   1.561   6.904
 3704SOL     OW11931   2.175   1.136   6.067
 3704SOL    HW111932   2.177   1.213   6.004
 3704SOL    HW211933   2.172   1.050   6.014
 3705SOL     OW11934   2.412   0.523   6.441
 3705SOL    HW111935   2.419   0.584   6.362
 3705SOL    HW211936   2.485   0.544   6.506
 3706SOL     OW11937   3.107   1.365   5.994
 3706SOL    HW111938   3.171   1.436   6.025
 3706SOL    HW211939   3.014   1.390   6.020
 3707SOL     OW11940   3.165   1.436   6.750
 3707SOL    HW111941   3.221   1.394   6.822
 3707SOL    HW211942   3.078   1.389   6.743
 3708SOL     OW11943   3.452   0.632   6.086
 3708SOL    HW111944   3.391   0.686   6.144
 3708SOL    HW211945   3.521   0.692   6.045
 3709SOL     OW11946   2.205   1.564   6.840
 3709SOL    HW111947   2.189   1.498   6.766
 3709SOL    HW211948   2.302   1.565   6.862
 3710SOL     OW11949   2.465   0.872   6.641
 3710SOL    HW111950   2.505   0.964   6.637
 3710SOL    HW211951   2.404   0.866   6.720
 3711SOL     OW11952   3.149   0.861   6.575
 3711SOL    HW111953   3.053   0.832   6.572
 3711SOL    HW211954   3.208   0.783   6.556
 3712SOL     OW11955   3.069   0.538   5.849
 3712SOL    HW111956   3.083   0.456   5.904
 3712SOL    HW211957   3.018   0.606   5.902
 3713SOL     OW11958   2.171   0.218   6.825
 3713SOL    HW111959   2.114   0.221   6.908
 3713SOL    HW211960   2.166   0.127   6.785
 3714SOL     OW11961   1.874   1.300   6.870
 3714SOL    HW111962   1.923   1.235   6.929
 3714SOL    HW211963   1.896   1.393   6.897
 3715SOL     OW11964   2.585   0.610   6.632
 3715SOL    HW111965   2.669   0.594   6.580
 3715SOL    HW211966   2.562   0.707   6.628
 3716SOL     OW11967   2.180   0.061   6.212
 3716SOL    HW111968   2.142   0.147   6.245
 3716SOL    HW211969   2.120   6.985   6.239
 3717SOL     OW11970   3.463   0.416   5.912
 3717SOL    HW111971   3.500   0.342   5.967
 3717SOL    HW211972   3.438   0.493   5.971
 3718SOL     OW11973   2.877   0.773   6.580
 3718SOL    HW111974   2.849   0.787   6.675
 3718SOL    HW211975   2.860   0.678   6.553
 3719SOL     OW11976   3.390   0.230   5.713
 3719SOL    HW111977   3.291   0.238   5.697
 3719SOL    HW211978   3.419   0.302   5.776
 3720SOL     OW11979   3.140   0.822   5.593
 3720SOL    HW111980   3.182   0.732   5.607
 3720SOL    HW211981   3.173   0.861   5.507
 3721SOL     OW11982   2.915   1.360   6.441
 3721SOL    HW111983   2.935   1.275   6.392
 3721SOL    HW211984   2.973   1.433   6.407
 3722SOL     OW11985   2.206   0.821   6.528
 3722SOL    HW111986   2.303   0.844   6.535
 3722SOL    HW211987   2.190   0.729   6.562
 3723SOL     OW11988   2.218   0.556   6.624
 3723SOL    HW111989   2.154   0.480   6.609
 3723SOL    HW211990   2.294   0.549   6.559
 3724SOL     OW11991   3.032   0.182   0.090
 3724SOL    HW111992   3.047   0.242   0.168
 3724SOL    HW211993   3.058   0.230   0.006
 3725SOL     OW11994   1.882   1.291   5.769
 3725SOL    HW111995   1.790   1.317   5.740
 3725SOL    HW211996   1.881   1.198   5.806
 3726SOL     OW11997   1.961   1.764   6.557
 3726SOL    HW111998   1.921   1.684   6.512
 3726SOL    HW211999   2.051   1.783   6.518
 3727SOL     OW12000   2.345   1.565   6.478
 3727SOL    HW112001   2.419   1.624   6.511
 3727SOL    HW212002   2.380   1.503   6.408
 3728SOL     OW12003   2.783   0.826   6.843
 3728SOL    HW112004   2.845   0.875   6.904
 3728SOL    HW212005   2.733   0.756   6.894
 3729SOL     OW12006   1.924   0.575   6.678
 3729SOL    HW112007   1.951   0.487   6.640
 3729SOL    HW212008   1.998   0.612   6.733
 3730SOL     OW12009   2.666   0.587   5.953
 3730SOL    HW112010   2.678   0.505   5.897
 3730SOL    HW212011   2.585   0.637   5.921
 3731SOL     OW12012   3.519   0.629   6.708
 3731SOL    HW112013   3.505   0.569   6.787
 3731SOL    HW212014   3.613   0.619   6.676
 3732SOL     OW12015   2.522   0.475   6.862
 3732SOL    HW112016   2.501   0.378   6.846
 3732SOL    HW212017   2.542   0.520   6.775
 3733SOL     OW12018   2.835   1.650   6.941
 3733SOL    HW112019   2.797   1.595   6.867
 3733SOL    HW212020   2.823   1.747   6.921
 3734SOL     OW12021   2.294   0.483   5.736
 3734SOL    HW112022   2.367   0.547   5.760
 3734SOL    HW212023   2.206   0.528   5.749
 3735SOL     OW12024   2.004   1.124   0.050
 3735SOL    HW112025   2.064   1.088   0.122
 3735SOL    HW212026   2.018   1.071   6.966
 3736SOL     OW12027   3.168   0.961   6.833
 3736SOL    HW112028   3.170   0.936   6.736
 3736SOL    HW212029   3.213   1.049   6.846
 3737SOL     OW12030   3.193   0.871   5.861
 3737SOL    HW112031   3.121   0.843   5.925
 3737SOL    HW212032   3.163   0.854   5.767
 3738SOL     OW12033   3.604   1.753   6.734
 3738SOL    HW112034   3.684   1.764   6.675
 3738SOL    HW212035   3.573   1.658   6.729
 3739SOL     OW12036   3.133   1.720   6.723
 3739SOL    HW112037   3.216   1.756   6.679
 3739SOL    HW212038   3.143   1.622   6.736
 3740SOL     OW12039   1.915   1.302   6.587
 3740SOL    HW112040   1.897   1.296   6.685
 3740SOL    HW212041   1.883   1.219   6.542
 3741SOL     OW12042   3.567   0.210   6.051
 3741SOL    HW112043   3.639   0.178   5.990
 3741SOL    HW212044   3.551   0.143   6.124
 3742SOL     OW12045   3.269   1.574   6.091
 3742SOL    HW112046   3.329   1.607   6.018
 3742SOL    HW212047   3.208   1.648   6.119
 3743SOL     OW12048   3.137   0.942   6.233
 3743SOL    HW112049   3.212   0.880   6.256
 3743SOL    HW212050   3.173   1.020   6.183
 3744SOL     OW12051   2.533   1.638   5.736
 3744SOL    HW112052   2.551   1.660   5.640
 3744SOL    HW212053   2.478   1.554   5.742
 3745SOL     OW12054   3.736   0.146   6.571
 3745SOL    HW112055   3.743   0.046   6.570
 3745SOL    HW212056   3.647   0.173   6.533
 3746SOL     OW12057   2.104   0.306   6.308
 3746SOL    HW112058   2.020   0.350   6.275
 3746SOL    HW212059   2.112   0.321   6.407
 3747SOL     OW12060   3.083   1.581   5.631
 3747SOL    HW112061   3.076   1.488   5.666
 3747SOL    HW212062   3.008   1.599   5.568
 3748SOL     OW12063   2.583   0.999   6.958
 3748SOL    HW112064   2.640   0.937   6.904
 3748SOL    HW212065   2.629   1.087   6.966
 3749SOL     OW12066   2.783   0.918   5.873
 3749SOL    HW112067   2.840   0.952   5.798
 3749SOL    HW212068   2.832   0.845   5.921
 3750SOL     OW12069   3.352   1.653   5.646
 3750SOL    HW112070   3.257   1.626   5.633
 3750SOL    HW212071   3.398   1.658   5.557
 3751SOL     OW12072   3.460   1.278   6.829
 3751SOL    HW112073   3.554   1.275   6.863
 3751SOL    HW212074   3.398   1.251   6.903
 3752SOL     OW12075   2.946   1.112   6.341
 3752SOL    HW112076   2.865   1.063   6.372
 3752SOL    HW212077   3.009   1.048   6.296
 3753SOL     OW12078   2.905   0.252   6.516
 3753SOL    HW112079   2.893   0.188   6.440
 3753SOL    HW212080   2.889   0.204   6.602
 3754SOL     OW12081   2.461   1.492   6.043
 3754SOL    HW112082   2.520   1.435   5.986
 3754SOL    HW212083   2.383   1.523   5.989
 3755SOL     OW12084   3.547   0.461   6.916
 3755SOL    HW112085   3.587   0.487   0.004
 3755SOL    HW212086   3.566   0.365   6.898
 3756SOL     OW12087   2.138   1.347   5.884
 3756SOL    HW112088   2.048   1.333   5.843
 3756SOL    HW212089   2.128   1.397   5.970
 3757SOL     OW12090   1.937   0.327   5.593
 3757SOL    HW112091   1.859   0.306   5.533
 3757SOL    HW212092   1.966   0.422   5.577
 3758SOL     OW12093   1.891   0.161   5.855
 3758SOL    HW112094   1.910   0.219   5.777
 3758SOL    HW212095   1.885   0.065   5.825
 3759SOL     OW12096   3.045   1.321   5.719
 3759SOL    HW112097   2.948   1.300   5.708
 3759SOL    HW212098   3.068   1.325   5.816
 3760SOL     OW12099   3.365   1.829   6.619
 3760SOL    HW112100   3.385   1.887   6.540
 3760SOL    HW212101   3.450   1.800   6.661
 3761SOL     OW12102   3.341   1.304   0.281
 3761SOL    HW112103   3.259   1.331   0.332
 3761SOL    HW212104   3.335   1.206   0.259
 3762SOL     OW12105   2.268   1.719   0.125
 3762SOL    HW112106   2.174   1.752   0.122
 3762SOL    HW212107   2.269   1.619   0.121
 3763SOL     OW12108   3.581   0.876   6.825
 3763SOL    HW112109   3.557   0.786   6.789
 3763SOL    HW212110   3.536   0.947   6.771
 3764SOL     OW12111   3.092   0.327   6.028
 3764SOL    HW112112   3.160   0.254   6.022
 3764SOL    HW212113   3.102   0.375   6.115
 3765SOL     OW12114   2.437   0.724   6.252
 3765SOL    HW112115   2.480   0.814   6.243
 3765SOL    HW212116   2.371   0.712   6.178
 3766SOL     OW12117   3.616   0.863   0.108
 3766SOL    HW112118   3.616   0.958   0.139
 3766SOL    HW212119   3.604   0.860   0.009
 3767SOL     OW12120   2.751   1.347   5.664
 3767SOL    HW112121   2.706   1.359   5.753
 3767SOL    HW212122   2.760   1.436   5.619
 3768SOL     OW12123   2.539   1.750   6.529
 3768SOL    HW112124   2.512   1.846   6.519
 3768SOL    HW212125   2.638   1.743   6.525
 3769SOL     OW12126   2.731   0.980   6.455
 3769SOL    HW112127   2.779   0.903   6.497
 3769SOL    HW212128   2.676   1.026   6.525
 3770SOL     OW12129   2.931   0.985   5.659
 3770SOL    HW112130   2.904   1.045   5.584
 3770SOL    HW212131   3.007   0.928   5.630
 3771SOL     OW12132   3.695   1.556   6.428
 3771SOL    HW112133   3.610   1.549   6.377
 3771SOL    HW212134   3.703   1.479   6.492
 3772SOL     OW12135   2.004   1.232   6.272
 3772SOL    HW112136   2.033   1.184   6.355
 3772SOL    HW212137   2.054   1.195   6.193
 3773SOL     OW12138   3.649   0.203   6.833
 3773SOL    HW112139   3.568   0.146   6.827
 3773SOL    HW212140   3.698   0.202   6.746
 3774SOL     OW12141   2.259   0.406   6.091
 3774SOL    HW112142   2.290   0.333   6.029
 3774SOL    HW212143   2.215   0.366   6.171
 3775SOL     OW12144   3.492   1.508   6.685
 3775SOL    HW112145   3.428   1.499   6.609
 3775SOL    HW212146   3.489   1.426   6.742
 3776SOL     OW12147   2.199   0.596   6.899
 3776SOL    HW112148   2.251   0.535   6.958
 3776SOL    HW212149   2.218   0.573   6.803
 3777SOL     OW12150   2.685   1.589   6.252
 3777SOL    HW112151   2.661   1.663   6.188
 3777SOL    HW212152   2.608   1.526   6.260
 3778SOL     OW12153   3.309   0.262   6.698
 3778SOL    HW112154   3.358   0.178   6.723
 3778SOL    HW212155   3.245   0.287   6.770
 3779SOL     OW12156   2.831   0.090   6.732
 3779SOL    HW112157   2.753   0.041   6.694
 3779SOL    HW212158   2.869   0.038   6.808
 3780SOL     OW12159   2.645   1.327   5.920
 3780SOL    HW112160   2.620   1.232   5.937
 3780SOL    HW212161   2.725   1.351   5.975
 3781SOL     OW12162   2.483   1.558   6.856
 3781SOL    HW112163   2.488   1.653   6.888
 3781SOL    HW212164   2.573   1.530   6.822
 3782SOL     OW12165   3.156   6.986   5.795
 3782SOL    HW112166   3.199   6.911   5.744
 3782SOL    HW212167   3.077   6.952   5.845
 3783SOL     OW12168   3.113   0.455   6.266
 3783SOL    HW112169   3.069   0.544   6.255
 3783SOL    HW212170   3.131   0.439   6.363
 3784SOL     OW12171   3.500   0.250   6.486
 3784SOL    HW112172   3.430   0.259   6.557
 3784SOL    HW212173   3.493   0.327   6.422
 3785SOL     OW12174   1.897   1.032   5.890
 3785SOL    HW112175   1.995   1.020   5.872
 3785SOL    HW212176   1.855   0.944   5.908
 3786SOL     OW12177   2.754   1.683   5.908
 3786SOL    HW112178   2.676   1.663   5.849
 3786SOL    HW212179   2.730   1.756   5.972
 3787SOL     OW12180   2.057   2.522   0.131
 3787SOL    HW112181   1.965   2.485   0.143
 3787SOL    HW212182   2.085   2.510   0.036
 3788SOL     OW12183   2.076   2.150   0.992
 3788SOL    HW112184   2.114   2.115   1.077
 3788SOL    HW212185   1.987   2.107   0.975
 3789SOL     OW12186   1.842   2.274   0.636
 3789SOL    HW112187   1.760   2.305   0.686
 3789SOL    HW212188   1.819   2.193   0.583
 3790SOL     OW12189   2.434   3.177   1.215
 3790SOL    HW112190   2.349   3.175   1.161
 3790SOL    HW212191   2.454   3.272   1.240
 3791SOL     OW12192   3.450   3.392   0.703
 3791SOL    HW112193   3.404   3.354   0.783
 3791SOL    HW212194   3.385   3.397   0.627
 3792SOL     OW12195   3.003   2.576   0.691
 3792SOL    HW112196   3.057   2.659   0.677
 3792SOL    HW212197   2.951   2.583   0.776
 3793SOL     OW12198   3.679   2.426   0.172
 3793SOL    HW112199   3.621   2.497   0.133
 3793SOL    HW212200   3.624   2.369   0.234
 3794SOL     OW12201   2.581   2.990   1.059
 3794SOL    HW112202   2.521   3.025   1.131
 3794SOL    HW212203   2.625   3.067   1.013
 3795SOL     OW12204   2.756   2.596   1.822
 3795SOL    HW112205   2.771   2.664   1.894
 3795SOL    HW212206   2.770   2.639   1.733
 3796SOL     OW12207   2.555   2.836   0.651
 3796SOL    HW112208   2.626   2.837   0.722
 3796SOL    HW212209   2.483   2.901   0.676
 3797SOL     OW12210   2.584   3.024   1.793
 3797SOL    HW112211   2.639   3.099   1.829
 3797SOL    HW212212   2.500   3.060   1.754
 3798SOL     OW12213   2.202   3.251   1.064
 3798SOL    HW112214   2.122   3.207   1.024
 3798SOL    HW212215   2.246   3.309   0.996
 3799SOL     OW12216   3.308   3.374   1.366
 3799SOL    HW112217   3.367   3.455   1.377
 3799SOL    HW212218   3.225   3.386   1.421
 3800SOL     OW12219   2.331   2.227   1.447
 3800SOL    HW112220   2.411   2.170   1.462
 3800SOL    HW212221   2.249   2.179   1.477
 3801SOL     OW12222   3.446   2.310   0.758
 3801SOL    HW112223   3.383   2.321   0.681
 3801SOL    HW212224   3.421   2.374   0.830
 3802SOL     OW12225   2.076   3.573   0.491
 3802SOL    HW112226   2.096   3.656   0.543
 3802SOL    HW212227   2.161   3.537   0.451
 3803SOL     OW12228   2.968   3.199   1.643
 3803SOL    HW112229   3.029   3.192   1.722
 3803SOL    HW212230   2.913   3.115   1.636
 3804SOL     OW12231   2.108   3.295   0.574
 3804SOL    HW112232   2.067   3.385   0.583
 3804SOL    HW212233   2.047   3.227   0.615
 3805SOL     OW12234   2.133   2.953   0.853
 3805SOL    HW112235   2.145   2.860   0.887
 3805SOL    HW212236   2.080   3.007   0.918
 3806SOL     OW12237   2.421   3.682   1.411
 3806SOL    HW112238   2.343   3.656   1.468
 3806SOL    HW212239   2.467   3.761   1.451
 3807SOL     OW12240   2.428   2.819   0.171
 3807SOL    HW112241   2.486   2.834   0.091
 3807SOL    HW212242   2.469   2.864   0.250
 3808SOL     OW12243   3.453   1.994   1.459
 3808SOL    HW112244   3.499   2.074   1.421
 3808SOL    HW212245   3.408   2.018   1.545
 3809SOL     OW12246   1.973   2.527   0.545
 3809SOL    HW112247   1.937   2.437   0.569
 3809SOL    HW212248   1.970   2.586   0.625
 3810SOL     OW12249   3.712   3.606   0.370
 3810SOL    HW112250   3.791   3.578   0.425
 3810SOL    HW212251   3.722   3.703   0.346
 3811SOL     OW12252   3.566   2.793   0.660
 3811SOL    HW112253   3.656   2.749   0.653
 3811SOL    HW212254   3.547   2.843   0.576
 3812SOL     OW12255   3.517   2.965   0.442
 3812SOL    HW112256   3.569   2.983   0.358
 3812SOL    HW212257   3.542   3.033   0.512
 3813SOL     OW12258   1.988   2.610   1.576
 3813SOL    HW112259   2.080   2.651   1.569
 3813SOL    HW212260   1.920   2.679   1.552
 3814SOL     OW12261   2.487   3.248   0.734
 3814SOL    HW112262   2.442   3.159   0.737
 3814SOL    HW212263   2.481   3.286   0.641
 3815SOL     OW12264   3.135   3.081   1.406
 3815SOL    HW112265   3.152   3.008   1.340
 3815SOL    HW212266   3.203   3.077   1.479
 3816SOL     OW12267   2.690   1.899   0.518
 3816SOL    HW112268   2.735   1.984   0.493
 3816SOL    HW212269   2.591   1.912   0.517
 3817SOL     OW12270   2.055   2.806   1.312
 3817SOL    HW112271   2.147   2.769   1.293
 3817SOL    HW212272   1.993   2.778   1.239
 3818SOL     OW12273   3.321   2.907   0.221
 3818SOL    HW112274   3.249   2.846   0.252
 3818SOL    HW212275   3.408   2.882   0.264
 3819SOL     OW12276   3.043   3.675   1.620
 3819SOL    HW112277   3.051   3.749   1.553
 3819SOL    HW212278   3.069   3.589   1.577
 3820SOL     OW12279   2.214   2.118   1.875
 3820SOL    HW112280   2.252   2.200   1.916
 3820SOL    HW212281   2.115   2.128   1.865
 3821SOL     OW12282   3.327   3.279   0.920
 3821SOL    HW112283   3.270   3.300   0.999
 3821SOL    HW212284   3.317   3.182   0.896
 3822SOL     OW12285   3.451   3.688   0.584
 3822SOL    HW112286   3.441   3.651   0.491
 3822SOL    HW212287   3.474   3.614   0.647
 3823SOL     OW12288   2.452   2.561   0.265
 3823SOL    HW112289   2.452   2.655   0.232
 3823SOL    HW212290   2.388   2.552   0.341
 3824SOL     OW12291   3.144   2.252   0.939
 3824SOL    HW112292   3.050   2.217   0.939
 3824SOL    HW212293   3.201   2.196   0.998
 3825SOL     OW12294   3.438   3.560   0.336
 3825SOL    HW112295   3.538   3.564   0.342
 3825SOL    HW212296   3.412   3.545   0.240
 3826SOL     OW12297   2.652   2.453   1.436
 3826SOL    HW112298   2.626   2.427   1.528
 3826SOL    HW212299   2.627   2.380   1.372
 3827SOL     OW12300   3.253   2.324   1.659
 3827SOL    HW112301   3.258   2.371   1.747
 3827SOL    HW212302   3.294   2.233   1.667
 3828SOL     OW12303   2.808   2.724   1.581
 3828SOL    HW112304   2.864   2.657   1.532
 3828SOL    HW212305   2.755   2.778   1.516
 3829SOL     OW12306   2.870   2.245   1.193
 3829SOL    HW112307   2.775   2.258   1.219
 3829SOL    HW212308   2.874   2.194   1.107
 3830SOL     OW12309   2.916   2.580   0.429
 3830SOL    HW112310   2.941   2.577   0.526
 3830SOL    HW212311   2.829   2.534   0.415
 3831SOL     OW12312   1.956   2.698   0.768
 3831SOL    HW112313   2.047   2.684   0.807
 3831SOL    HW212314   1.906   2.764   0.823
 3832SOL     OW12315   1.970   3.749   1.622
 3832SOL    HW112316   1.980   3.717   1.716
 3832SOL    HW212317   1.878   3.725   1.588
 3833SOL     OW12318   2.766   2.218   0.214
 3833SOL    HW112319   2.812   2.277   0.147
 3833SOL    HW212320   2.780   2.123   0.189
 3834SOL     OW12321   3.538   2.427   1.842
 3834SOL    HW112322   3.519   2.504   1.781
 3834SOL    HW212323   3.560   2.346   1.787
 3835SOL     OW12324   3.266   3.022   0.563
 3835SOL    HW112325   3.349   3.007   0.509
 3835SOL    HW212326   3.207   3.087   0.516
 3836SOL     OW12327   2.415   2.004   0.926
 3836SOL    HW112328   2.423   2.028   1.023
 3836SOL    HW212329   2.413   2.087   0.871
 3837SOL     OW12330   2.848   3.298   0.474
 3837SOL    HW112331   2.823   3.382   0.426
 3837SOL    HW212332   2.822   3.305   0.570
 3838SOL     OW12333   2.217   3.668   0.879
 3838SOL    HW112334   2.259   3.577   0.882
 3838SOL    HW212335   2.285   3.737   0.907
 3839SOL     OW12336   3.662   2.906   0.899
 3839SOL    HW112337   3.615   2.892   0.812
 3839SOL    HW212338   3.594   2.917   0.972
 3840SOL     OW12339   3.066   3.418   1.492
 3840SOL    HW112340   3.045   3.331   1.538
 3840SOL    HW212341   2.983   3.456   1.452
 3841SOL     OW12342   2.156   2.810   0.235
 3841SOL    HW112343   2.252   2.816   0.207
 3841SOL    HW212344   2.120   2.720   0.212
 3842SOL     OW12345   3.356   2.628   0.716
 3842SOL    HW112346   3.353   2.582   0.805
 3842SOL    HW212347   3.436   2.687   0.712
 3843SOL     OW12348   2.336   3.140   1.717
 3843SOL    HW112349   2.315   3.142   1.620
 3843SOL    HW212350   2.250   3.141   1.769
 3844SOL     OW12351   2.987   3.635   0.249
 3844SOL    HW112352   2.915   3.594   0.305
 3844SOL    HW212353   3.022   3.567   0.185
 3845SOL     OW12354   2.077   2.119   1.493
 3845SOL    HW112355   2.007   2.191   1.494
 3845SOL    HW212356   2.040   2.037   1.535
 3846SOL     OW12357   3.509   3.300   0.121
 3846SOL    HW112358   3.456   3.372   0.076
 3846SOL    HW212359   3.450   3.253   0.187
 3847SOL     OW12360   2.338   3.553   0.389
 3847SOL    HW112361   2.375   3.637   0.429
 3847SOL    HW212362   2.324   3.566   0.291
 3848SOL     OW12363   2.096   3.648   1.203
 3848SOL    HW112364   2.149   3.571   1.236
 3848SOL    HW212365   2.066   3.630   1.109
 3849SOL     OW12366   2.816   3.563   0.890
 3849SOL    HW112367   2.905   3.521   0.911
 3849SOL    HW212368   2.770   3.510   0.818
 3850SOL     OW12369   2.255   2.532   0.460
 3850SOL    HW112370   2.267   2.435   0.479
 3850SOL    HW212371   2.160   2.558   0.477
 3851SOL     OW12372   3.341   2.062   1.704
 3851SOL    HW112373   3.362   2.077   1.801
 3851SOL    HW212374   3.268   1.994   1.697
 3852SOL     OW12375   2.625   2.125   1.753
 3852SOL    HW112376   2.714   2.080   1.749
 3852SOL    HW212377   2.568   2.080   1.822
 3853SOL     OW12378   2.730   3.378   1.198
 3853SOL    HW112379   2.701   3.343   1.109
 3853SOL    HW212380   2.792   3.313   1.242
 3854SOL     OW12381   3.188   2.450   1.425
 3854SOL    HW112382   3.222   2.414   1.512
 3854SOL    HW212383   3.222   2.542   1.410
 3855SOL     OW12384   2.668   3.235   0.956
 3855SOL    HW112385   2.759   3.231   0.916
 3855SOL    HW212386   2.600   3.243   0.883
 3856SOL     OW12387   2.784   2.373   0.889
 3856SOL    HW112388   2.761   2.365   0.792
 3856SOL    HW212389   2.813   2.284   0.923
 3857SOL     OW12390   2.415   1.938   0.486
 3857SOL    HW112391   2.334   1.936   0.545
 3857SOL    HW212392   2.401   2.005   0.413
 3858SOL     OW12393   3.255   3.058   6.995
 3858SOL    HW112394   3.289   2.991   0.062
 3858SOL    HW212395   3.181   3.110   0.035
 3859SOL     OW12396   2.831   2.127   0.462
 3859SOL    HW112397   2.798   2.164   0.375
 3859SOL    HW212398   2.930   2.138   0.468
 3860SOL     OW12399   2.927   2.542   1.419
 3860SOL    HW112400   2.854   2.474   1.429
 3860SOL    HW212401   3.016   2.496   1.421
 3861SOL     OW12402   3.074   3.434   0.812
 3861SOL    HW112403   3.092   3.509   0.748
 3861SOL    HW212404   3.158   3.414   0.863
 3862SOL     OW12405   2.352   3.012   0.702
 3862SOL    HW112406   2.275   2.993   0.763
 3862SOL    HW212407   2.322   3.008   0.607
 3863SOL     OW12408   3.132   3.651   0.646
 3863SOL    HW112409   3.211   3.712   0.650
 3863SOL    HW212410   3.049   3.704   0.664
 3864SOL     OW12411   2.878   2.395   0.039
 3864SOL    HW112412   2.801   2.458   0.045
 3864SOL    HW212413   2.944   2.417   0.112
 3865SOL     OW12414   1.974   2.404   1.397
 3865SOL    HW112415   2.067   2.402   1.361
 3865SOL    HW212416   1.965   2.478   1.465
 3866SOL     OW12417   2.427   2.058   1.194
 3866SOL    HW112418   2.463   1.985   1.252
 3866SOL    HW212419   2.329   2.068   1.212
 3867SOL     OW12420   2.735   2.328   0.628
 3867SOL    HW112421   2.692   2.388   0.560
 3867SOL    HW212422   2.769   2.246   0.583
 3868SOL     OW12423   2.886   1.912   0.727
 3868SOL    HW112424   2.820   1.913   0.653
 3868SOL    HW212425   2.862   1.840   0.793
 3869SOL     OW12426   3.301   3.010   0.856
 3869SOL    HW112427   3.228   2.944   0.872
 3869SOL    HW212428   3.317   3.019   0.758
 3870SOL     OW12429   3.320   2.477   0.952
 3870SOL    HW112430   3.252   2.405   0.959
 3870SOL    HW212431   3.381   2.474   1.030
 3871SOL     OW12432   3.664   2.671   0.384
 3871SOL    HW112433   3.735   2.608   0.415
 3871SOL    HW212434   3.661   2.671   0.284
 3872SOL     OW12435   2.340   3.314   0.140
 3872SOL    HW112436   2.283   3.275   0.213
 3872SOL    HW212437   2.357   3.245   0.070
 3873SOL     OW12438   3.575   3.136   0.641
 3873SOL    HW112439   3.673   3.123   0.656
 3873SOL    HW212440   3.551   3.232   0.660
 3874SOL     OW12441   3.227   2.395   0.072
 3874SOL    HW112442   3.159   2.402   0.146
 3874SOL    HW212443   3.291   2.320   0.092
 3875SOL     OW12444   2.376   2.122   0.284
 3875SOL    HW112445   2.438   2.082   0.217
 3875SOL    HW212446   2.332   2.203   0.244
 3876SOL     OW12447   3.607   3.100   1.524
 3876SOL    HW112448   3.695   3.059   1.501
 3876SOL    HW212449   3.621   3.190   1.564
 3877SOL     OW12450   2.886   3.189   1.325
 3877SOL    HW112451   2.804   3.165   1.376
 3877SOL    HW212452   2.967   3.160   1.376
 3878SOL     OW12453   3.485   3.494   1.648
 3878SOL    HW112454   3.469   3.536   1.559
 3878SOL    HW212455   3.566   3.437   1.645
 3879SOL     OW12456   3.014   3.110   1.099
 3879SOL    HW112457   2.954   3.135   1.176
 3879SOL    HW212458   2.972   3.140   1.013
 3880SOL     OW12459   3.466   2.955   1.086
 3880SOL    HW112460   3.459   3.024   1.158
 3880SOL    HW212461   3.399   2.975   1.014
 3881SOL     OW12462   2.788   1.936   1.383
 3881SOL    HW112463   2.806   1.917   1.286
 3881SOL    HW212464   2.868   1.980   1.423
 3882SOL     OW12465   2.838   2.960   1.708
 3882SOL    HW112466   2.744   2.982   1.733
 3882SOL    HW212467   2.841   2.873   1.660
 3883SOL     OW12468   2.580   2.912   0.382
 3883SOL    HW112469   2.566   2.887   0.477
 3883SOL    HW212470   2.661   2.864   0.347
 3884SOL     OW12471   2.295   2.678   1.262
 3884SOL    HW112472   2.368   2.690   1.329
 3884SOL    HW212473   2.261   2.584   1.266
 3885SOL     OW12474   3.123   2.224   1.288
 3885SOL    HW112475   3.153   2.307   1.335
 3885SOL    HW212476   3.030   2.237   1.253
 3886SOL     OW12477   1.930   3.421   1.348
 3886SOL    HW112478   1.891   3.493   1.291
 3886SOL    HW212479   2.030   3.424   1.342
 3887SOL     OW12480   2.262   2.987   0.447
 3887SOL    HW112481   2.232   3.071   0.401
 3887SOL    HW212482   2.232   2.907   0.394
 3888SOL     OW12483   2.390   2.397   0.862
 3888SOL    HW112484   2.406   2.454   0.781
 3888SOL    HW212485   2.461   2.415   0.930
 3889SOL     OW12486   3.110   3.227   0.422
 3889SOL    HW112487   3.160   3.305   0.459
 3889SOL    HW212488   3.013   3.236   0.443
 3890SOL     OW12489   3.173   3.334   1.133
 3890SOL    HW112490   3.219   3.344   1.221
 3890SOL    HW212491   3.116   3.252   1.135
 3891SOL     OW12492   3.466   2.503   0.490
 3891SOL    HW112493   3.411   2.543   0.563
 3891SOL    HW212494   3.527   2.572   0.453
 3892SOL     OW12495   2.203   3.398   1.290
 3892SOL    HW112496   2.194   3.341   1.209
 3892SOL    HW212497   2.299   3.422   1.305
 3893SOL     OW12498   2.293   2.618   1.617
 3893SOL    HW112499   2.358   2.657   1.552
 3893SOL    HW212500   2.331   2.535   1.657
 3894SOL     OW12501   3.488   2.638   1.678
 3894SOL    HW112502   3.398   2.681   1.676
 3894SOL    HW212503   3.543   2.674   1.602
 3895SOL     OW12504   2.862   1.996   1.754
 3895SOL    HW112505   2.920   2.077   1.741
 3895SOL    HW212506   2.916   1.914   1.735
 3896SOL     OW12507   2.350   1.902   1.765
 3896SOL    HW112508   2.296   1.847   1.701
 3896SOL    HW212509   2.298   1.983   1.791
 3897SOL     OW12510   2.451   2.735   1.039
 3897SOL    HW112511   2.493   2.826   1.040
 3897SOL    HW212512   2.393   2.724   1.119
 3898SOL     OW12513   3.155   2.704   0.998
 3898SOL    HW112514   3.061   2.676   0.977
 3898SOL    HW212515   3.217   2.628   0.981
 3899SOL     OW12516   3.039   2.399   0.267
 3899SOL    HW112517   3.059   2.317   0.322
 3899SOL    HW212518   3.001   2.470   0.326
 3900SOL     OW12519   2.156   2.049   1.235
 3900SOL    HW112520   2.125   2.081   1.325
 3900SOL    HW212521   2.137   1.952   1.226
 3901SOL     OW12522   1.920   3.159   1.261
 3901SOL    HW112523   1.947   3.101   1.338
 3901SOL    HW212524   1.914   3.254   1.292
 3902SOL     OW12525   2.577   2.483   1.046
 3902SOL    HW112526   2.653   2.465   0.984
 3902SOL    HW212527   2.544   2.577   1.031
 3903SOL     OW12528   3.625   2.819   1.839
 3903SOL    HW112529   3.593   2.742   1.784
 3903SOL    HW212530   3.554   2.843   1.906
 3904SOL     OW12531   2.180   1.927   0.634
 3904SOL    HW112532   2.142   2.017   0.654
 3904SOL    HW212533   2.193   1.877   0.720
 3905SOL     OW12534   3.520   2.272   0.358
 3905SOL    HW112535   3.547   2.201   0.423
 3905SOL    HW212536   3.495   2.355   0.409
 3906SOL     OW12537   2.889   2.615   0.955
 3906SOL    HW112538   2.864   2.637   1.049
 3906SOL    HW212539   2.858   2.522   0.933
 3907SOL     OW12540   2.830   3.435   1.691
 3907SOL    HW112541   2.821   3.482   1.603
 3907SOL    HW212542   2.861   3.341   1.675
 3908SOL     OW12543   3.712   3.349   1.594
 3908SOL    HW112544   3.732   3.378   1.500
 3908SOL    HW212545   3.794   3.360   1.650
 3909SOL     OW12546   2.221   2.792   1.819
 3909SOL    HW112547   2.306   2.817   1.866
 3909SOL    HW212548   2.242   2.730   1.744
 3910SOL     OW12549   3.371   2.174   0.151
 3910SOL    HW112550   3.324   2.089   0.172
 3910SOL    HW212551   3.425   2.204   0.230
 3911SOL     OW12552   3.129   2.650   0.037
 3911SOL    HW112553   3.177   2.562   0.033
 3911SOL    HW212554   3.154   2.705   6.957
 3912SOL     OW12555   2.919   3.213   0.861
 3912SOL    HW112556   2.937   3.133   0.804
 3912SOL    HW212557   2.976   3.289   0.830
 3913SOL     OW12558   2.188   2.683   0.926
 3913SOL    HW112559   2.286   2.701   0.936
 3913SOL    HW212560   2.168   2.590   0.959
 3914SOL     OW12561   2.162   2.405   1.001
 3914SOL    HW112562   2.120   2.314   0.996
 3914SOL    HW212563   2.245   2.406   0.946
 3915SOL     OW12564   2.999   2.226   1.688
 3915SOL    HW112565   2.949   2.277   1.758
 3915SOL    HW212566   3.088   2.268   1.673
 3916SOL     OW12567   3.021   2.050   1.477
 3916SOL    HW112568   3.004   2.112   1.554
 3916SOL    HW212569   3.067   2.099   1.403
 3917SOL     OW12570   1.958   3.622   0.951
 3917SOL    HW112571   1.918   3.544   0.902
 3917SOL    HW212572   2.049   3.642   0.914
 3918SOL     OW12573   2.347   3.423   0.901
 3918SOL    HW112574   2.420   3.485   0.930
 3918SOL    HW212575   2.383   3.359   0.833
 3919SOL     OW12576   2.794   2.654   1.206
 3919SOL    HW112577   2.855   2.628   1.280
 3919SOL    HW212578   2.707   2.605   1.216
 3920SOL     OW12579   1.909   2.458   1.131
 3920SOL    HW112580   1.990   2.451   1.073
 3920SOL    HW212581   1.934   2.441   1.226
 3921SOL     OW12582   2.056   2.412   1.757
 3921SOL    HW112583   2.134   2.370   1.709
 3921SOL    HW212584   2.019   2.486   1.700
 3922SOL     OW12585   3.255   2.783   1.638
 3922SOL    HW112586   3.278   2.881   1.635
 3922SOL    HW212587   3.242   2.749   1.545
 3923SOL     OW12588   2.686   2.442   0.369
 3923SOL    HW112589   2.701   2.359   0.314
 3923SOL    HW212590   2.602   2.487   0.338
 3924SOL     OW12591   3.500   2.466   1.157
 3924SOL    HW112592   3.482   2.402   1.232
 3924SOL    HW212593   3.597   2.462   1.134
 3925SOL     OW12594   2.080   3.412   1.722
 3925SOL    HW112595   2.063   3.484   1.789
 3925SOL    HW212596   2.096   3.326   1.769
 3926SOL     OW12597   2.598   2.279   1.229
 3926SOL    HW112598   2.534   2.204   1.220
 3926SOL    HW212599   2.578   2.350   1.162
 3927SOL     OW12600   2.817   3.531   1.425
 3927SOL    HW112601   2.779   3.483   1.346
 3927SOL    HW212602   2.802   3.629   1.415
 3928SOL     OW12603   2.287   2.360   0.163
 3928SOL    HW112604   2.358   2.422   0.195
 3928SOL    HW212605   2.197   2.404   0.175
 3929SOL     OW12606   1.991   3.005   1.484
 3929SOL    HW112607   1.998   2.977   1.580
 3929SOL    HW212608   2.017   2.928   1.425
 3930SOL     OW12609   3.147   2.891   1.196
 3930SOL    HW112610   3.156   2.821   1.126
 3930SOL    HW212611   3.099   2.971   1.159
 3931SOL     OW12612   3.131   2.730   0.299
 3931SOL    HW112613   3.067   2.682   0.359
 3931SOL    HW212614   3.130   2.689   0.209
 3932SOL     OW12615   3.631   3.574   1.152
 3932SOL    HW112616   3.702   3.603   1.087
 3932SOL    HW212617   3.601   3.482   1.130
 3933SOL     OW12618   3.119   3.606   1.092
 3933SOL    HW112619   3.210   3.638   1.063
 3933SOL    HW212620   3.124   3.508   1.112
 3934SOL     OW12621   1.961   3.112   0.997
 3934SOL    HW112622   1.940   3.129   1.094
 3934SOL    HW212623   1.895   3.046   0.960
 3935SOL     OW12624   2.552   3.553   1.736
 3935SOL    HW112625   2.495   3.634   1.730
 3935SOL    HW212626   2.646   3.576   1.713
 3936SOL     OW12627   2.814   1.963   0.123
 3936SOL    HW112628   2.890   2.005   0.073
 3936SOL    HW212629   2.848   1.886   0.176
 3937SOL     OW12630   3.603   2.058   0.516
 3937SOL    HW112631   3.661   2.026   0.441
 3937SOL    HW212632   3.550   1.982   0.552
 3938SOL     OW12633   3.255   3.442   0.507
 3938SOL    HW112634   3.316   3.480   0.436
 3938SOL    HW212635   3.202   3.517   0.547
 3939SOL     OW12636   1.997   3.632   1.875
 3939SOL    HW112637   1.928   3.582   1.927
 3939SOL    HW212638   2.048   3.691   1.938
 3940SOL     OW12639   3.153   2.799   0.665
 3940SOL    HW112640   3.227   2.735   0.683
 3940SOL    HW212641   3.188   2.879   0.616
 3941SOL     OW12642   2.628   3.139   1.416
 3941SOL    HW112643   2.606   3.196   1.494
 3941SOL    HW212644   2.556   3.146   1.347
 3942SOL     OW12645   2.573   3.478   0.174
 3942SOL    HW112646   2.558   3.545   0.101
 3942SOL    HW212647   2.499   3.411   0.173
 3943SOL     OW12648   3.473   3.597   1.387
 3943SOL    HW112649   3.528   3.593   1.304
 3943SOL    HW212650   3.456   3.693   1.411
 3944SOL     OW12651   3.710   2.013   0.957
 3944SOL    HW112652   3.739   1.919   0.938
 3944SOL    HW212653   3.618   2.027   0.920
 3945SOL     OW12654   2.092   2.174   0.710
 3945SOL    HW112655   2.005   2.216   0.684
 3945SOL    HW212656   2.100   2.172   0.810
 3946SOL     OW12657   3.079   3.452   0.062
 3946SOL    HW112658   3.076   3.355   0.084
 3946SOL    HW212659   2.999   3.476   0.006
 3947SOL     OW12660   2.684   2.873   1.390
 3947SOL    HW112661   2.728   2.858   1.302
 3947SOL    HW212662   2.666   2.971   1.402
 3948SOL     OW12663   2.790   2.782   0.279
 3948SOL    HW112664   2.837   2.800   0.192
 3948SOL    HW212665   2.844   2.719   0.334
 3949SOL     OW12666   3.340   3.539   0.070
 3949SOL    HW112667   3.245   3.506   0.067
 3949SOL    HW212668   3.366   3.573   6.980
 3950SOL     OW12669   2.223   3.171   1.474
 3950SOL    HW112670   2.215   3.250   1.413
 3950SOL    HW212671   2.139   3.116   1.469
 3951SOL     OW12672   3.459   3.154   1.285
 3951SOL    HW112673   3.518   3.127   1.362
 3951SOL    HW212674   3.394   3.223   1.316
 3952SOL     OW12675   2.948   2.974   0.739
 3952SOL    HW112676   2.867   2.925   0.775
 3952SOL    HW212677   3.015   2.907   0.708
 3953SOL     OW12678   2.896   2.102   0.951
 3953SOL    HW112679   2.893   2.064   0.858
 3953SOL    HW212680   2.890   2.027   1.017
 3954SOL     OW12681   2.495   3.349   0.484
 3954SOL    HW112682   2.531   3.292   0.411
 3954SOL    HW212683   2.431   3.416   0.446
 3955SOL     OW12684   3.629   2.223   1.403
 3955SOL    HW112685   3.694   2.298   1.395
 3955SOL    HW212686   3.649   2.154   1.334
 3956SOL     OW12687   2.163   3.215   0.323
 3956SOL    HW112688   2.085   3.249   0.270
 3956SOL    HW212689   2.155   3.245   0.418
 3957SOL     OW12690   1.987   2.927   1.749
 3957SOL    HW112691   1.904   2.894   1.794
 3957SOL    HW212692   2.065   2.871   1.778
 3958SOL     OW12693   2.554   2.051   1.496
 3958SOL    HW112694   2.639   2.021   1.451
 3958SOL    HW212695   2.575   2.084   1.588
 3959SOL     OW12696   1.960   2.178   6.991
 3959SOL    HW112697   1.896   2.117   6.945
 3959SOL    HW212698   1.912   2.261   0.019
 3960SOL     OW12699   3.266   2.711   1.374
 3960SOL    HW112700   3.206   2.771   1.320
 3960SOL    HW212701   3.359   2.717   1.339
 3961SOL     OW12702   1.909   2.004   0.265
 3961SOL    HW112703   1.919   2.100   0.238
 3961SOL    HW212704   1.960   1.946   0.202
 3962SOL     OW12705   3.049   3.185   0.132
 3962SOL    HW112706   2.951   3.201   0.116
 3962SOL    HW212707   3.066   3.181   0.230
 3963SOL     OW12708   2.497   2.682   1.441
 3963SOL    HW112709   2.556   2.762   1.430
 3963SOL    HW212710   2.552   2.599   1.444
 3964SOL     OW12711   3.375   3.685   1.022
 3964SOL    HW112712   3.401   3.754   0.955
 3964SOL    HW212713   3.457   3.643   1.060
 3965SOL     OW12714   2.588   2.400   1.695
 3965SOL    HW112715   2.639   2.462   1.755
 3965SOL    HW212716   2.602   2.306   1.725
 3966SOL     OW12717   3.340   3.046   1.605
 3966SOL    HW112718   3.329   3.070   1.701
 3966SOL    HW212719   3.433   3.067   1.575
 3967SOL     OW12720   2.210   3.616   1.578
 3967SOL    HW112721   2.128   3.672   1.573
 3967SOL    HW212722   2.186   3.525   1.613
 3968SOL     OW12723   3.512   2.734   1.250
 3968SOL    HW112724   3.512   2.646   1.203
 3968SOL    HW212725   3.498   2.808   1.184
 3969SOL     OW12726   3.100   2.194   0.447
 3969SOL    HW112727   3.175   2.134   0.422
 3969SOL    HW212728   3.123   2.245   0.530
 3970SOL     OW12729   2.438   2.583   0.666
 3970SOL    HW112730   2.484   2.672   0.658
 3970SOL    HW212731   2.372   2.573   0.591
 3971SOL     OW12732   3.589   2.203   1.679
 3971SOL    HW112733   3.602   2.216   1.581
 3971SOL    HW212734   3.510   2.144   1.694
 3972SOL     OW12735   3.631   2.780   1.493
 3972SOL    HW112736   3.613   2.875   1.518
 3972SOL    HW212737   3.596   2.763   1.401
 3973SOL     OW12738   2.791   3.257   0.100
 3973SOL    HW112739   2.725   3.231   0.170
 3973SOL    HW212740   2.770   3.349   0.067
 3974SOL     OW12741   2.536   3.612   0.941
 3974SOL    HW112742   2.509   3.708   0.933
 3974SOL    HW212743   2.636   3.605   0.930
 3975SOL     OW12744   2.738   2.840   0.864
 3975SOL    HW112745   2.788   2.760   0.898
 3975SOL    HW212746   2.687   2.881   0.940
 3976SOL     OW12747   2.923   2.829   0.040
 3976SOL    HW112748   2.961   2.921   0.030
 3976SOL    HW212749   2.998   2.763   0.043
 3977SOL     OW12750   3.690   3.418   0.842
 3977SOL    HW112751   3.611   3.415   0.780
 3977SOL    HW212752   3.678   3.350   0.915
 3978SOL     OW12753   2.097   3.164   1.842
 3978SOL    HW112754   2.044   3.084   1.812
 3978SOL    HW212755   2.089   3.173   1.942
 3979SOL     OW12756   1.962   3.065   0.650
 3979SOL    HW112757   2.023   3.025   0.718
 3979SOL    HW212758   1.964   3.010   0.566
 3980SOL     OW12759   2.544   3.297   1.623
 3980SOL    HW112760   2.463   3.253   1.661
 3980SOL    HW212761   2.549   3.392   1.653
 3981SOL     OW12762   3.674   2.023   1.229
 3981SOL    HW112763   3.668   1.925   1.250
 3981SOL    HW212764   3.689   2.035   1.131
 3982SOL     OW12765   2.271   2.271   0.512
 3982SOL    HW112766   2.306   2.199   0.452
 3982SOL    HW212767   2.216   2.230   0.585
 3983SOL     OW12768   3.549   3.326   1.082
 3983SOL    HW112769   3.472   3.312   1.019
 3983SOL    HW212770   3.543   3.260   1.157
 3984SOL     OW12771   2.219   2.415   1.281
 3984SOL    HW112772   2.273   2.349   1.334
 3984SOL    HW212773   2.221   2.390   1.185
 3985SOL     OW12774   2.697   3.430   0.687
 3985SOL    HW112775   2.669   3.474   0.602
 3985SOL    HW212776   2.628   3.364   0.715
 3986SOL     OW12777   3.286   2.096   1.113
 3986SOL    HW112778   3.296   1.998   1.132
 3986SOL    HW212779   3.235   2.139   1.187
 3987SOL     OW12780   2.876   1.877   1.117
 3987SOL    HW112781   2.817   1.814   1.066
 3987SOL    HW212782   2.968   1.839   1.122
 3988SOL     OW12783   2.644   3.175   0.321
 3988SOL    HW112784   2.614   3.082   0.341
 3988SOL    HW212785   2.721   3.198   0.381
 3989SOL     OW12786   2.475   3.443   1.287
 3989SOL    HW112787   2.465   3.533   1.331
 3989SOL    HW212788   2.569   3.432   1.255
 3990SOL     OW12789   3.218   1.930   0.195
 3990SOL    HW112790   3.280   1.857   0.166
 3990SOL    HW212791   3.134   1.889   0.231
 3991SOL     OW12792   3.154   2.336   0.673
 3991SOL    HW112793   3.105   2.423   0.670
 3991SOL    HW212794   3.154   2.301   0.767
 3992SOL     OW12795   3.450   2.065   0.893
 3992SOL    HW112796   3.395   2.089   0.973
 3992SOL    HW212797   3.452   2.143   0.830
 3993SOL     OW12798   1.955   2.898   0.429
 3993SOL    HW112799   2.028   2.883   0.363
 3993SOL    HW212800   1.885   2.827   0.419
 3994SOL     OW12801   2.758   3.537   0.369
 3994SOL    HW112802   2.688   3.514   0.302
 3994SOL    HW212803   2.729   3.617   0.422
 3995SOL     OW12804   2.052   2.483   2.023
 3995SOL    HW112805   1.961   2.464   2.059
 3995SOL    HW212806   2.053   2.468   1.924
 3996SOL     OW12807   2.048   2.191   2.885
 3996SOL    HW112808   2.097   2.149   2.961
 3996SOL    HW212809   1.981   2.126   2.849
 3997SOL     OW12810   1.818   2.256   2.496
 3997SOL    HW112811   1.735   2.279   2.547
 3997SOL    HW212812   1.799   2.182   2.432
 3998SOL     OW12813   2.432   3.170   3.070
 3998SOL    HW112814   2.348   3.164   3.016
 3998SOL    HW212815   2.446   3.266   3.097
 3999SOL     OW12816   2.980   2.503   2.505
 3999SOL    HW112817   3.024   2.587   2.475
 3999SOL    HW212818   2.920   2.522   2.583
 4000SOL     OW12819   3.669   2.432   2.082
 4000SOL    HW112820   3.625   2.445   1.993
 4000SOL    HW212821   3.626   2.355   2.130
 4001SOL     OW12822   2.678   3.083   2.972
 4001SOL    HW112823   2.586   3.080   3.012
 4001SOL    HW212824   2.689   3.168   2.920
 4002SOL     OW12825   2.695   2.793   3.694
 4002SOL    HW112826   2.781   2.801   3.744
 4002SOL    HW212827   2.714   2.780   3.597
 4003SOL     OW12828   2.558   3.101   3.730
 4003SOL    HW112829   2.630   3.169   3.743
 4003SOL    HW212830   2.498   3.129   3.656
 4004SOL     OW12831   2.195   3.239   2.923
 4004SOL    HW112832   2.106   3.215   2.885
 4004SOL    HW212833   2.243   3.300   2.860
 4005SOL     OW12834   3.281   3.406   3.226
 4005SOL    HW112835   3.339   3.488   3.233
 4005SOL    HW212836   3.211   3.409   3.297
 4006SOL     OW12837   2.368   2.146   3.305
 4006SOL    HW112838   2.439   2.084   3.338
 4006SOL    HW212839   2.279   2.113   3.334
 4007SOL     OW12840   3.437   2.261   2.542
 4007SOL    HW112841   3.351   2.265   2.491
 4007SOL    HW212842   3.421   2.293   2.635
 4008SOL     OW12843   2.999   3.228   3.567
 4008SOL    HW112844   3.042   3.218   3.657
 4008SOL    HW212845   2.929   3.158   3.557
 4009SOL     OW12846   2.427   3.663   3.290
 4009SOL    HW112847   2.337   3.643   3.329
 4009SOL    HW212848   2.465   3.744   3.335
 4010SOL     OW12849   2.454   2.841   1.958
 4010SOL    HW112850   2.509   2.888   1.889
 4010SOL    HW212851   2.471   2.882   2.048
 4011SOL     OW12852   3.400   1.981   3.319
 4011SOL    HW112853   3.473   2.045   3.296
 4011SOL    HW212854   3.364   2.002   3.410
 4012SOL     OW12855   1.982   2.482   2.488
 4012SOL    HW112856   1.923   2.401   2.487
 4012SOL    HW212857   2.058   2.466   2.551
 4013SOL     OW12858   3.682   3.652   2.125
 4013SOL    HW112859   3.719   3.645   2.218
 4013SOL    HW212860   3.699   3.743   2.089
 4014SOL     OW12861   1.844   3.455   2.033
 4014SOL    HW112862   1.778   3.390   1.996
 4014SOL    HW212863   1.920   3.406   2.075
 4015SOL     OW12864   3.505   2.713   2.376
 4015SOL    HW112865   3.589   2.671   2.344
 4015SOL    HW212866   3.493   2.802   2.331
 4016SOL     OW12867   3.516   2.959   2.231
 4016SOL    HW112868   3.609   2.929   2.208
 4016SOL    HW212869   3.520   3.051   2.270
 4017SOL     OW12870   1.865   2.712   3.515
 4017SOL    HW112871   1.965   2.725   3.514
 4017SOL    HW212872   1.825   2.768   3.442
 4018SOL     OW12873   3.132   3.135   3.296
 4018SOL    HW112874   3.164   3.075   3.222
 4018SOL    HW212875   3.200   3.135   3.370
 4019SOL     OW12876   2.690   1.879   2.359
 4019SOL    HW112877   2.737   1.962   2.328
 4019SOL    HW212878   2.592   1.898   2.366
 4020SOL     OW12879   2.145   2.902   3.222
 4020SOL    HW112880   2.218   2.971   3.220
 4020SOL    HW212881   2.157   2.839   3.145
 4021SOL     OW12882   3.402   2.852   2.009
 4021SOL    HW112883   3.347   2.774   2.037
 4021SOL    HW212884   3.448   2.892   2.089
 4022SOL     OW12885   3.125   3.682   3.493
 4022SOL    HW112886   3.106   3.745   3.418
 4022SOL    HW212887   3.110   3.588   3.462
 4023SOL     OW12888   2.196   2.085   3.692
 4023SOL    HW112889   2.238   2.166   3.651
 4023SOL    HW212890   2.097   2.098   3.698
 4024SOL     OW12891   3.326   3.252   2.863
 4024SOL    HW112892   3.248   3.277   2.920
 4024SOL    HW212893   3.300   3.255   2.767
 4025SOL     OW12894   2.435   2.573   2.094
 4025SOL    HW112895   2.445   2.660   2.047
 4025SOL    HW212896   2.374   2.583   2.172
 4026SOL     OW12897   3.123   2.194   2.782
 4026SOL    HW112898   3.030   2.159   2.781
 4026SOL    HW212899   3.178   2.142   2.847
 4027SOL     OW12900   3.414   3.602   2.121
 4027SOL    HW112901   3.512   3.619   2.118
 4027SOL    HW212902   3.385   3.560   2.035
 4028SOL     OW12903   2.829   2.816   3.438
 4028SOL    HW112904   2.914   2.765   3.431
 4028SOL    HW212905   2.797   2.843   3.347
 4029SOL     OW12906   2.853   2.177   3.049
 4029SOL    HW112907   2.760   2.181   3.084
 4029SOL    HW212908   2.852   2.167   2.949
 4030SOL     OW12909   2.879   2.519   2.249
 4030SOL    HW112910   2.910   2.504   2.342
 4030SOL    HW212911   2.787   2.479   2.238
 4031SOL     OW12912   1.934   3.716   3.452
 4031SOL    HW112913   1.960   3.699   3.547
 4031SOL    HW212914   1.844   3.676   3.435
 4032SOL     OW12915   2.721   2.203   2.045
 4032SOL    HW112916   2.780   2.256   1.985
 4032SOL    HW212917   2.681   2.127   1.994
 4033SOL     OW12918   3.227   2.930   2.266
 4033SOL    HW112919   3.325   2.936   2.247
 4033SOL    HW212920   3.181   3.007   2.222
 4034SOL     OW12921   2.416   2.013   2.765
 4034SOL    HW112922   2.415   2.012   2.865
 4034SOL    HW212923   2.427   2.107   2.732
 4035SOL     OW12924   2.195   3.640   2.834
 4035SOL    HW112925   2.257   3.562   2.826
 4035SOL    HW212926   2.242   3.723   2.806
 4036SOL     OW12927   3.068   3.427   3.393
 4036SOL    HW112928   3.069   3.354   3.461
 4036SOL    HW212929   2.996   3.409   3.325
 4037SOL     OW12930   2.115   2.752   2.068
 4037SOL    HW112931   2.150   2.775   1.978
 4037SOL    HW212932   2.094   2.654   2.071
 4038SOL     OW12933   3.329   2.557   2.502
 4038SOL    HW112934   3.361   2.509   2.584
 4038SOL    HW212935   3.403   2.614   2.467
 4039SOL     OW12936   2.344   3.157   3.564
 4039SOL    HW112937   2.310   3.149   3.470
 4039SOL    HW212938   2.266   3.160   3.627
 4040SOL     OW12939   3.006   3.626   2.037
 4040SOL    HW112940   2.909   3.621   2.063
 4040SOL    HW212941   3.028   3.547   1.980
 4041SOL     OW12942   2.104   2.073   3.363
 4041SOL    HW112943   2.055   2.159   3.377
 4041SOL    HW212944   2.050   1.997   3.400
 4042SOL     OW12945   3.493   3.244   1.979
 4042SOL    HW112946   3.464   3.337   1.957
 4042SOL    HW212947   3.428   3.179   1.940
 4043SOL     OW12948   2.355   3.615   2.090
 4043SOL    HW112949   2.408   3.695   2.062
 4043SOL    HW212950   2.406   3.532   2.065
 4044SOL     OW12951   3.270   1.943   2.313
 4044SOL    HW112952   3.272   1.920   2.216
 4044SOL    HW212953   3.356   1.913   2.356
 4045SOL     OW12954   2.093   3.607   3.084
 4045SOL    HW112955   2.138   3.524   3.118
 4045SOL    HW212956   2.116   3.620   2.987
 4046SOL     OW12957   2.825   3.546   2.795
 4046SOL    HW112958   2.914   3.554   2.840
 4046SOL    HW212959   2.835   3.569   2.698
 4047SOL     OW12960   2.261   2.544   2.314
 4047SOL    HW112961   2.254   2.445   2.315
 4047SOL    HW212962   2.174   2.585   2.340
 4048SOL     OW12963   3.349   2.012   3.598
 4048SOL    HW112964   3.362   2.054   3.688
 4048SOL    HW212965   3.331   1.915   3.609
 4049SOL     OW12966   2.528   1.965   1.964
 4049SOL    HW112967   2.584   1.888   1.994
 4049SOL    HW212968   2.460   1.933   1.898
 4050SOL     OW12969   2.643   2.055   3.638
 4050SOL    HW112970   2.730   2.006   3.644
 4050SOL    HW212971   2.584   2.027   3.714
 4051SOL     OW12972   2.749   3.422   3.124
 4051SOL    HW112973   2.729   3.386   3.033
 4051SOL    HW212974   2.799   3.353   3.177
 4052SOL     OW12975   2.673   3.336   2.873
 4052SOL    HW112976   2.729   3.409   2.833
 4052SOL    HW212977   2.577   3.352   2.850
 4053SOL     OW12978   2.744   2.308   2.717
 4053SOL    HW112979   2.733   2.310   2.618
 4053SOL    HW212980   2.792   2.225   2.744
 4054SOL     OW12981   2.420   1.929   2.344
 4054SOL    HW112982   2.343   1.928   2.408
 4054SOL    HW212983   2.412   2.008   2.284
 4055SOL     OW12984   3.301   3.073   1.876
 4055SOL    HW112985   3.325   2.986   1.918
 4055SOL    HW212986   3.203   3.089   1.887
 4056SOL     OW12987   2.150   1.906   2.047
 4056SOL    HW112988   2.199   1.981   2.003
 4056SOL    HW212989   2.216   1.845   2.091
 4057SOL     OW12990   2.825   2.103   2.279
 4057SOL    HW112991   2.791   2.140   2.193
 4057SOL    HW212992   2.924   2.115   2.284
 4058SOL     OW12993   2.884   2.363   1.893
 4058SOL    HW112994   2.844   2.452   1.872
 4058SOL    HW212995   2.954   2.374   1.965
 4059SOL     OW12996   2.400   1.980   3.033
 4059SOL    HW112997   2.419   1.907   3.099
 4059SOL    HW212998   2.312   2.022   3.054
 4060SOL     OW12999   2.713   2.292   2.448
 4060SOL    HW113000   2.658   2.345   2.384
 4060SOL    HW213001   2.758   2.217   2.401
 4061SOL     OW13002   2.872   1.888   2.571
 4061SOL    HW113003   2.808   1.890   2.495
 4061SOL    HW213004   2.846   1.817   2.636
 4062SOL     OW13005   3.362   2.332   2.787
 4062SOL    HW113006   3.266   2.301   2.785
 4062SOL    HW213007   3.397   2.325   2.881
 4063SOL     OW13008   3.737   2.619   2.276
 4063SOL    HW113009   3.793   2.575   2.346
 4063SOL    HW213010   3.713   2.553   2.205
 4064SOL     OW13011   2.363   3.242   1.993
 4064SOL    HW113012   2.274   3.232   2.037
 4064SOL    HW213013   2.363   3.191   1.907
 4065SOL     OW13014   3.252   2.429   1.908
 4065SOL    HW113015   3.198   2.400   1.987
 4065SOL    HW213016   3.349   2.420   1.929
 4066SOL     OW13017   2.394   2.123   2.151
 4066SOL    HW113018   2.450   2.071   2.086
 4066SOL    HW213019   2.361   2.206   2.107
 4067SOL     OW13020   3.609   3.128   3.446
 4067SOL    HW113021   3.695   3.078   3.444
 4067SOL    HW213022   3.624   3.219   3.485
 4068SOL     OW13023   2.883   3.236   3.267
 4068SOL    HW113024   2.804   3.187   3.304
 4068SOL    HW213025   2.967   3.195   3.302
 4069SOL     OW13026   3.458   3.512   3.513
 4069SOL    HW113027   3.446   3.551   3.421
 4069SOL    HW213028   3.542   3.458   3.516
 4070SOL     OW13029   2.946   3.107   3.031
 4070SOL    HW113030   2.924   3.141   3.122
 4070SOL    HW213031   2.862   3.079   2.984
 4071SOL     OW13032   3.543   3.039   3.025
 4071SOL    HW113033   3.530   3.106   3.098
 4071SOL    HW213034   3.474   3.053   2.954
 4072SOL     OW13035   2.801   1.896   3.240
 4072SOL    HW113036   2.814   1.892   3.141
 4072SOL    HW213037   2.884   1.932   3.283
 4073SOL     OW13038   2.808   3.042   3.579
 4073SOL    HW113039   2.722   3.042   3.630
 4073SOL    HW213040   2.813   2.960   3.522
 4074SOL     OW13041   2.566   2.948   2.198
 4074SOL    HW113042   2.482   2.910   2.236
 4074SOL    HW213043   2.638   2.879   2.202
 4075SOL     OW13044   3.104   2.159   3.145
 4075SOL    HW113045   3.128   2.251   3.178
 4075SOL    HW213046   3.011   2.159   3.109
 4076SOL     OW13047   1.923   3.417   3.233
 4076SOL    HW113048   1.884   3.488   3.174
 4076SOL    HW213049   2.023   3.420   3.228
 4077SOL     OW13050   2.303   2.865   2.243
 4077SOL    HW113051   2.253   2.890   2.326
 4077SOL    HW213052   2.241   2.823   2.178
 4078SOL     OW13053   2.459   2.310   2.701
 4078SOL    HW113054   2.453   2.376   2.626
 4078SOL    HW213055   2.552   2.309   2.737
 4079SOL     OW13056   3.115   3.169   2.169
 4079SOL    HW113057   3.173   3.250   2.170
 4079SOL    HW213058   3.034   3.183   2.226
 4080SOL     OW13059   3.118   3.324   3.017
 4080SOL    HW113060   3.170   3.339   3.101
 4080SOL    HW213061   3.058   3.245   3.028
 4081SOL     OW13062   3.349   2.434   2.255
 4081SOL    HW113063   3.336   2.463   2.350
 4081SOL    HW213064   3.318   2.506   2.194
 4082SOL     OW13065   2.205   3.374   3.157
 4082SOL    HW113066   2.191   3.319   3.075
 4082SOL    HW213067   2.302   3.399   3.166
 4083SOL     OW13068   3.473   2.814   3.537
 4083SOL    HW113069   3.375   2.798   3.542
 4083SOL    HW213070   3.501   2.827   3.442
 4084SOL     OW13071   2.885   1.934   3.660
 4084SOL    HW113072   2.956   2.000   3.638
 4084SOL    HW213073   2.916   1.842   3.634
 4085SOL     OW13074   2.338   1.865   3.621
 4085SOL    HW113075   2.293   1.810   3.552
 4085SOL    HW213076   2.285   1.948   3.639
 4086SOL     OW13077   3.061   2.370   2.105
 4086SOL    HW113078   3.086   2.292   2.162
 4086SOL    HW213079   3.005   2.434   2.158
 4087SOL     OW13080   2.136   2.036   3.093
 4087SOL    HW113081   2.130   2.061   3.190
 4087SOL    HW213082   2.116   1.938   3.083
 4088SOL     OW13083   1.903   3.165   3.129
 4088SOL    HW113084   1.924   3.103   3.204
 4088SOL    HW213085   1.898   3.259   3.163
 4089SOL     OW13086   3.600   2.852   3.769
 4089SOL    HW113087   3.563   2.832   3.678
 4089SOL    HW213088   3.525   2.872   3.831
 4090SOL     OW13089   2.184   1.920   2.490
 4090SOL    HW113090   2.142   2.010   2.500
 4090SOL    HW213091   2.194   1.877   2.580
 4091SOL     OW13092   3.508   2.229   2.179
 4091SOL    HW113093   3.536   2.167   2.253
 4091SOL    HW213094   3.446   2.298   2.215
 4092SOL     OW13095   2.842   3.452   3.609
 4092SOL    HW113096   2.802   3.503   3.533
 4092SOL    HW213097   2.883   3.368   3.574
 4093SOL     OW13098   3.697   3.383   3.491
 4093SOL    HW113099   3.729   3.409   3.400
 4093SOL    HW213100   3.775   3.384   3.555
 4094SOL     OW13101   2.148   2.816   3.617
 4094SOL    HW113102   2.163   2.829   3.715
 4094SOL    HW213103   2.236   2.807   3.571
 4095SOL     OW13104   3.393   2.102   1.963
 4095SOL    HW113105   3.339   2.029   2.003
 4095SOL    HW213106   3.440   2.153   2.035
 4096SOL     OW13107   3.135   2.674   1.863
 4096SOL    HW113108   3.171   2.581   1.868
 4096SOL    HW213109   3.171   2.720   1.782
 4097SOL     OW13110   2.176   2.347   2.697
 4097SOL    HW113111   2.133   2.305   2.776
 4097SOL    HW213112   2.275   2.346   2.708
 4098SOL     OW13113   3.087   2.106   3.591
 4098SOL    HW113114   3.077   2.193   3.640
 4098SOL    HW213115   3.182   2.076   3.595
 4099SOL     OW13116   3.035   1.987   3.349
 4099SOL    HW113117   3.045   2.039   3.434
 4099SOL    HW213118   3.073   2.040   3.273
 4100SOL     OW13119   1.853   3.137   2.077
 4100SOL    HW113120   1.769   3.173   2.034
 4100SOL    HW213121   1.844   3.039   2.091
 4101SOL     OW13122   1.919   3.637   2.825
 4101SOL    HW113123   1.877   3.558   2.779
 4101SOL    HW213124   2.018   3.635   2.810
 4102SOL     OW13125   2.382   3.434   2.809
 4102SOL    HW113126   2.444   3.506   2.839
 4102SOL    HW213127   2.390   3.424   2.709
 4103SOL     OW13128   1.834   2.294   3.026
 4103SOL    HW113129   1.904   2.270   2.959
 4103SOL    HW213130   1.877   2.321   3.112
 4104SOL     OW13131   3.178   2.845   3.560
 4104SOL    HW113132   3.204   2.930   3.606
 4104SOL    HW213133   3.199   2.852   3.463
 4105SOL     OW13134   2.631   2.412   2.207
 4105SOL    HW113135   2.649   2.335   2.147
 4105SOL    HW213136   2.563   2.472   2.165
 4106SOL     OW13137   2.096   3.413   3.576
 4106SOL    HW113138   2.082   3.483   3.646
 4106SOL    HW213139   2.107   3.324   3.621
 4107SOL     OW13140   2.586   2.171   3.111
 4107SOL    HW113141   2.532   2.099   3.067
 4107SOL    HW213142   2.532   2.214   3.182
 4108SOL     OW13143   2.737   3.573   3.383
 4108SOL    HW113144   2.728   3.516   3.302
 4108SOL    HW213145   2.757   3.667   3.356
 4109SOL     OW13146   2.295   2.345   2.015
 4109SOL    HW113147   2.364   2.416   2.028
 4109SOL    HW213148   2.204   2.382   2.036
 4110SOL     OW13149   1.969   3.038   3.372
 4110SOL    HW113150   1.961   3.012   3.468
 4110SOL    HW213151   2.024   2.970   3.324
 4111SOL     OW13152   3.180   2.977   3.075
 4111SOL    HW113153   3.218   2.929   2.996
 4111SOL    HW213154   3.091   3.016   3.051
 4112SOL     OW13155   3.238   2.655   2.123
 4112SOL    HW113156   3.181   2.673   2.203
 4112SOL    HW213157   3.181   2.661   2.040
 4113SOL     OW13158   3.637   3.594   3.067
 4113SOL    HW113159   3.696   3.629   2.994
 4113SOL    HW213160   3.594   3.509   3.037
 4114SOL     OW13161   3.072   3.569   2.911
 4114SOL    HW113162   3.160   3.614   2.896
 4114SOL    HW213163   3.087   3.478   2.948
 4115SOL     OW13164   1.911   3.184   2.857
 4115SOL    HW113165   1.907   3.177   2.956
 4115SOL    HW213166   1.846   3.120   2.816
 4116SOL     OW13167   2.543   3.566   3.579
 4116SOL    HW113168   2.469   3.633   3.574
 4116SOL    HW213169   2.610   3.586   3.508
 4117SOL     OW13170   3.630   2.031   2.337
 4117SOL    HW113171   3.682   2.012   2.253
 4117SOL    HW213172   3.590   1.946   2.371
 4118SOL     OW13173   2.020   3.661   3.703
 4118SOL    HW113174   1.960   3.592   3.744
 4118SOL    HW213175   2.060   3.718   3.775
 4119SOL     OW13176   3.129   2.702   2.385
 4119SOL    HW113177   3.205   2.655   2.429
 4119SOL    HW213178   3.159   2.792   2.354
 4120SOL     OW13179   2.615   3.144   3.291
 4120SOL    HW113180   2.595   3.204   3.369
 4120SOL    HW213181   2.537   3.144   3.228
 4121SOL     OW13182   2.545   3.437   1.984
 4121SOL    HW113183   2.545   3.476   1.891
 4121SOL    HW213184   2.482   3.359   1.987
 4122SOL     OW13185   3.451   3.621   3.261
 4122SOL    HW113186   3.520   3.620   3.189
 4122SOL    HW213187   3.425   3.715   3.282
 4123SOL     OW13188   3.716   2.019   2.804
 4123SOL    HW113189   3.752   1.927   2.789
 4123SOL    HW213190   3.626   2.027   2.761
 4124SOL     OW13191   2.078   2.166   2.523
 4124SOL    HW113192   1.980   2.188   2.516
 4124SOL    HW213193   2.121   2.227   2.590
 4125SOL     OW13194   3.071   3.429   1.856
 4125SOL    HW113195   3.056   3.333   1.878
 4125SOL    HW213196   3.002   3.460   1.791
 4126SOL     OW13197   2.745   2.924   3.206
 4126SOL    HW113198   2.736   2.930   3.107
 4126SOL    HW213199   2.694   2.999   3.248
 4127SOL     OW13200   2.778   2.772   2.176
 4127SOL    HW113201   2.827   2.802   2.095
 4127SOL    HW213202   2.819   2.688   2.211
 4128SOL     OW13203   3.342   3.491   1.880
 4128SOL    HW113204   3.247   3.464   1.863
 4128SOL    HW213205   3.392   3.493   1.793
 4129SOL     OW13206   2.217   3.161   3.327
 4129SOL    HW113207   2.212   3.244   3.271
 4129SOL    HW213208   2.125   3.130   3.350
 4130SOL     OW13209   3.484   3.222   3.218
 4130SOL    HW113210   3.522   3.194   3.306
 4130SOL    HW213211   3.400   3.274   3.233
 4131SOL     OW13212   2.879   2.066   2.787
 4131SOL    HW113213   2.877   2.020   2.698
 4131SOL    HW213214   2.877   1.997   2.860
 4132SOL     OW13215   3.628   2.138   3.277
 4132SOL    HW113216   3.636   2.231   3.243
 4132SOL    HW213217   3.651   2.074   3.204
 4133SOL     OW13218   2.106   3.214   2.115
 4133SOL    HW113219   2.011   3.184   2.111
 4133SOL    HW213220   2.135   3.222   2.210
 4134SOL     OW13221   1.931   2.972   3.635
 4134SOL    HW113222   1.848   2.928   3.668
 4134SOL    HW213223   2.006   2.906   3.633
 4135SOL     OW13224   2.574   1.981   3.384
 4135SOL    HW113225   2.656   1.969   3.329
 4135SOL    HW213226   2.599   2.017   3.474
 4136SOL     OW13227   1.941   2.183   1.863
 4136SOL    HW113228   1.860   2.166   1.807
 4136SOL    HW213229   1.977   2.274   1.841
 4137SOL     OW13230   3.269   2.855   3.304
 4137SOL    HW113231   3.224   2.888   3.221
 4137SOL    HW213232   3.367   2.869   3.296
 4138SOL     OW13233   1.904   2.010   2.102
 4138SOL    HW113234   1.890   2.078   2.030
 4138SOL    HW213235   1.997   1.974   2.096
 4139SOL     OW13236   3.032   3.161   1.911
 4139SOL    HW113237   2.933   3.157   1.899
 4139SOL    HW213238   3.054   3.149   2.008
 4140SOL     OW13239   3.326   3.668   2.897
 4140SOL    HW113240   3.330   3.755   2.946
 4140SOL    HW213241   3.409   3.615   2.917
 4141SOL     OW13242   3.331   3.126   3.483
 4141SOL    HW113243   3.296   3.111   3.575
 4141SOL    HW213244   3.431   3.118   3.484
 4142SOL     OW13245   2.188   3.604   3.407
 4142SOL    HW113246   2.102   3.654   3.393
 4142SOL    HW213247   2.169   3.519   3.456
 4143SOL     OW13248   3.097   2.159   2.290
 4143SOL    HW113249   3.157   2.079   2.288
 4143SOL    HW213250   3.114   2.211   2.374
 4144SOL     OW13251   2.457   2.508   2.509
 4144SOL    HW113252   2.534   2.569   2.491
 4144SOL    HW213253   2.386   2.522   2.440
 4145SOL     OW13254   3.618   2.072   3.542
 4145SOL    HW113255   3.626   2.099   3.446
 4145SOL    HW213256   3.523   2.052   3.563
 4146SOL     OW13257   3.537   2.906   3.280
 4146SOL    HW113258   3.565   2.985   3.336
 4146SOL    HW213259   3.556   2.926   3.184
 4147SOL     OW13260   2.760   3.219   1.888
 4147SOL    HW113261   2.731   3.216   1.983
 4147SOL    HW213262   2.745   3.311   1.851
 4148SOL     OW13263   2.552   3.632   2.869
 4148SOL    HW113264   2.522   3.706   2.929
 4148SOL    HW213265   2.652   3.633   2.864
 4149SOL     OW13266   2.912   2.819   1.939
 4149SOL    HW113267   2.893   2.885   1.867
 4149SOL    HW213268   2.993   2.766   1.916
 4150SOL     OW13269   3.745   3.375   2.836
 4150SOL    HW113270   3.660   3.374   2.887
 4150SOL    HW213271   3.792   3.287   2.847
 4151SOL     OW13272   2.108   3.170   3.697
 4151SOL    HW113273   2.036   3.104   3.674
 4151SOL    HW213274   2.108   3.186   3.795
 4152SOL     OW13275   2.551   3.310   3.491
 4152SOL    HW113276   2.466   3.265   3.519
 4152SOL    HW213277   2.551   3.405   3.524
 4153SOL     OW13278   3.672   1.975   3.072
 4153SOL    HW113279   3.669   1.875   3.070
 4153SOL    HW213280   3.695   2.010   2.981
 4154SOL     OW13281   2.240   2.278   2.330
 4154SOL    HW113282   2.300   2.212   2.284
 4154SOL    HW213283   2.182   2.231   2.396
 4155SOL     OW13284   3.527   3.365   2.993
 4155SOL    HW113285   3.454   3.329   2.936
 4155SOL    HW213286   3.528   3.317   3.081
 4156SOL     OW13287   3.290   2.073   2.960
 4156SOL    HW113288   3.324   1.980   2.967
 4156SOL    HW213289   3.232   2.093   3.039
 4157SOL     OW13290   2.887   1.848   2.963
 4157SOL    HW113291   2.827   1.780   2.920
 4157SOL    HW213292   2.981   1.815   2.962
 4158SOL     OW13293   2.677   3.192   2.141
 4158SOL    HW113294   2.641   3.101   2.163
 4158SOL    HW213295   2.609   3.261   2.163
 4159SOL     OW13296   2.475   3.431   3.161
 4159SOL    HW113297   2.455   3.515   3.211
 4159SOL    HW213298   2.573   3.421   3.148
 4160SOL     OW13299   3.251   1.883   2.046
 4160SOL    HW113300   3.295   1.809   1.995
 4160SOL    HW213301   3.154   1.860   2.061
 4161SOL     OW13302   3.149   2.287   2.523
 4161SOL    HW113303   3.092   2.369   2.513
 4161SOL    HW213304   3.137   2.249   2.614
 4162SOL     OW13305   3.454   2.033   2.720
 4162SOL    HW113306   3.397   2.076   2.789
 4162SOL    HW213307   3.452   2.087   2.635
 4163SOL     OW13308   1.871   2.861   2.164
 4163SOL    HW113309   1.959   2.846   2.121
 4163SOL    HW213310   1.845   2.779   2.215
 4164SOL     OW13311   2.739   3.599   2.092
 4164SOL    HW113312   2.674   3.532   2.054
 4164SOL    HW213313   2.688   3.672   2.137
 4165SOL     OW13314   2.077   2.127   4.715
 4165SOL    HW113315   2.110   2.095   4.803
 4165SOL    HW213316   1.984   2.092   4.700
 4166SOL     OW13317   1.770   2.241   4.357
 4166SOL    HW113318   1.684   2.269   4.401
 4166SOL    HW213319   1.756   2.154   4.309
 4167SOL     OW13320   2.485   3.173   4.956
 4167SOL    HW113321   2.393   3.134   4.958
 4167SOL    HW213322   2.479   3.273   4.961
 4168SOL     OW13323   3.086   2.525   4.486
 4168SOL    HW113324   3.181   2.554   4.500
 4168SOL    HW213325   3.026   2.577   4.547
 4169SOL     OW13326   2.689   3.041   4.815
 4169SOL    HW113327   2.620   3.082   4.875
 4169SOL    HW213328   2.666   3.058   4.720
 4170SOL     OW13329   2.751   2.594   5.564
 4170SOL    HW113330   2.741   2.657   5.641
 4170SOL    HW213331   2.771   2.646   5.481
 4171SOL     OW13332   2.572   3.016   5.563
 4171SOL    HW113333   2.631   3.086   5.604
 4171SOL    HW213334   2.491   3.060   5.523
 4172SOL     OW13335   2.177   3.173   4.880
 4172SOL    HW113336   2.080   3.153   4.891
 4172SOL    HW213337   2.220   3.103   4.822
 4173SOL     OW13338   3.309   3.372   5.103
 4173SOL    HW113339   3.366   3.453   5.112
 4173SOL    HW213340   3.233   3.377   5.169
 4174SOL     OW13341   2.330   2.231   5.177
 4174SOL    HW113342   2.411   2.172   5.190
 4174SOL    HW213343   2.248   2.181   5.205
 4175SOL     OW13344   3.404   2.292   4.457
 4175SOL    HW113345   3.311   2.269   4.430
 4175SOL    HW213346   3.408   2.388   4.485
 4176SOL     OW13347   2.089   3.604   4.167
 4176SOL    HW113348   2.106   3.691   4.214
 4176SOL    HW213349   2.162   3.587   4.102
 4177SOL     OW13350   2.997   3.197   5.436
 4177SOL    HW113351   3.046   3.187   5.522
 4177SOL    HW213352   2.938   3.118   5.421
 4178SOL     OW13353   2.044   3.340   4.199
 4178SOL    HW113354   2.056   3.440   4.196
 4178SOL    HW213355   2.091   3.305   4.280
 4179SOL     OW13356   2.191   2.921   4.759
 4179SOL    HW113357   2.192   2.832   4.715
 4179SOL    HW213358   2.097   2.948   4.778
 4180SOL     OW13359   2.414   3.694   5.127
 4180SOL    HW113360   2.336   3.663   5.182
 4180SOL    HW213361   2.459   3.770   5.174
 4181SOL     OW13362   2.443   2.870   3.808
 4181SOL    HW113363   2.481   2.959   3.783
 4181SOL    HW213364   2.510   2.799   3.788
 4182SOL     OW13365   3.443   1.993   5.186
 4182SOL    HW113366   3.493   2.068   5.142
 4182SOL    HW213367   3.406   2.024   5.273
 4183SOL     OW13368   1.973   2.400   4.443
 4183SOL    HW113369   1.897   2.347   4.407
 4183SOL    HW213370   1.940   2.490   4.474
 4184SOL     OW13371   3.733   3.629   3.984
 4184SOL    HW113372   3.797   3.611   4.058
 4184SOL    HW213373   3.728   3.727   3.966
 4185SOL     OW13374   1.884   3.463   3.816
 4185SOL    HW113375   1.864   3.366   3.827
 4185SOL    HW213376   1.863   3.512   3.901
 4186SOL     OW13377   3.531   3.098   4.058
 4186SOL    HW113378   3.623   3.060   4.044
 4186SOL    HW213379   3.537   3.198   4.062
 4187SOL     OW13380   1.982   2.618   5.297
 4187SOL    HW113381   2.073   2.660   5.291
 4187SOL    HW213382   1.913   2.687   5.276
 4188SOL     OW13383   3.139   3.077   5.161
 4188SOL    HW113384   3.166   3.015   5.087
 4188SOL    HW213385   3.205   3.070   5.236
 4189SOL     OW13386   2.666   1.849   4.242
 4189SOL    HW113387   2.714   1.934   4.217
 4189SOL    HW213388   2.568   1.867   4.244
 4190SOL     OW13389   2.064   2.812   5.042
 4190SOL    HW113390   2.153   2.772   5.019
 4190SOL    HW213391   2.008   2.820   4.960
 4191SOL     OW13392   3.379   2.926   3.920
 4191SOL    HW113393   3.325   2.865   3.978
 4191SOL    HW213394   3.427   2.993   3.977
 4192SOL     OW13395   3.053   3.677   5.370
 4192SOL    HW113396   3.049   3.748   5.299
 4192SOL    HW213397   3.065   3.588   5.327
 4193SOL     OW13398   2.217   2.120   5.607
 4193SOL    HW113399   2.256   2.202   5.649
 4193SOL    HW213400   2.119   2.133   5.593
 4194SOL     OW13401   3.530   3.618   4.208
 4194SOL    HW113402   3.521   3.565   4.123
 4194SOL    HW213403   3.459   3.589   4.272
 4195SOL     OW13404   3.142   2.214   4.698
 4195SOL    HW113405   3.050   2.173   4.700
 4195SOL    HW213406   3.203   2.161   4.757
 4196SOL     OW13407   3.489   3.498   3.968
 4196SOL    HW113408   3.578   3.541   3.955
 4196SOL    HW213409   3.435   3.509   3.884
 4197SOL     OW13410   2.650   2.457   5.154
 4197SOL    HW113411   2.629   2.428   5.248
 4197SOL    HW213412   2.623   2.384   5.090
 4198SOL     OW13413   3.252   2.331   5.396
 4198SOL    HW113414   3.255   2.380   5.483
 4198SOL    HW213415   3.297   2.243   5.406
 4199SOL     OW13416   2.809   2.732   5.328
 4199SOL    HW113417   2.866   2.662   5.285
 4199SOL    HW213418   2.756   2.779   5.258
 4200SOL     OW13419   2.867   2.245   4.925
 4200SOL    HW113420   2.772   2.261   4.949
 4200SOL    HW213421   2.872   2.195   4.839
 4201SOL     OW13422   1.904   2.655   4.553
 4201SOL    HW113423   2.001   2.657   4.575
 4201SOL    HW213424   1.855   2.719   4.612
 4202SOL     OW13425   1.962   3.751   5.332
 4202SOL    HW113426   1.979   3.715   5.424
 4202SOL    HW213427   1.866   3.737   5.308
 4203SOL     OW13428   2.780   2.066   3.907
 4203SOL    HW113429   2.746   2.124   3.833
 4203SOL    HW213430   2.840   1.995   3.868
 4204SOL     OW13431   3.530   2.419   5.562
 4204SOL    HW113432   3.515   2.502   5.509
 4204SOL    HW213433   3.558   2.345   5.501
 4205SOL     OW13434   2.409   2.015   4.660
 4205SOL    HW113435   2.420   2.026   4.759
 4205SOL    HW213436   2.402   2.105   4.617
 4206SOL     OW13437   2.844   3.327   4.162
 4206SOL    HW113438   2.810   3.397   4.099
 4206SOL    HW213439   2.830   3.357   4.257
 4207SOL     OW13440   3.078   3.401   5.256
 4207SOL    HW113441   3.072   3.333   5.330
 4207SOL    HW213442   3.018   3.374   5.181
 4208SOL     OW13443   2.180   2.879   3.884
 4208SOL    HW113444   2.277   2.885   3.861
 4208SOL    HW213445   2.170   2.833   3.972
 4209SOL     OW13446   3.362   2.552   4.544
 4209SOL    HW113447   3.334   2.518   4.634
 4209SOL    HW213448   3.409   2.640   4.555
 4210SOL     OW13449   2.332   3.149   5.478
 4210SOL    HW113450   2.316   3.147   5.379
 4210SOL    HW213451   2.245   3.139   5.527
 4211SOL     OW13452   2.952   3.648   3.924
 4211SOL    HW113453   2.867   3.609   3.960
 4211SOL    HW213454   2.999   3.580   3.869
 4212SOL     OW13455   2.076   2.122   5.221
 4212SOL    HW113456   2.006   2.194   5.218
 4212SOL    HW213457   2.038   2.041   5.264
 4213SOL     OW13458   3.446   3.255   3.756
 4213SOL    HW113459   3.407   3.346   3.752
 4213SOL    HW213460   3.373   3.187   3.753
 4214SOL     OW13461   2.304   3.582   3.996
 4214SOL    HW113462   2.351   3.641   4.062
 4214SOL    HW213463   2.370   3.542   3.934
 4215SOL     OW13464   3.259   1.954   4.158
 4215SOL    HW113465   3.251   1.913   4.067
 4215SOL    HW213466   3.327   2.027   4.155
 4216SOL     OW13467   2.115   3.636   4.925
 4216SOL    HW113468   2.157   3.561   4.977
 4216SOL    HW213469   2.155   3.639   4.833
 4217SOL     OW13470   3.350   2.072   5.443
 4217SOL    HW113471   3.367   2.092   5.540
 4217SOL    HW213472   3.279   2.002   5.436
 4218SOL     OW13473   2.481   1.951   3.843
 4218SOL    HW113474   2.537   1.877   3.881
 4218SOL    HW213475   2.425   1.915   3.768
 4219SOL     OW13476   2.627   2.128   5.484
 4219SOL    HW113477   2.716   2.081   5.480
 4219SOL    HW213478   2.570   2.084   5.554
 4220SOL     OW13479   2.765   3.424   5.010
 4220SOL    HW113480   2.823   3.467   4.941
 4220SOL    HW213481   2.810   3.342   5.046
 4221SOL     OW13482   3.189   2.450   5.157
 4221SOL    HW113483   3.224   2.418   5.245
 4221SOL    HW213484   3.224   2.543   5.140
 4222SOL     OW13485   2.804   2.369   4.598
 4222SOL    HW113486   2.773   2.355   4.504
 4222SOL    HW213487   2.841   2.284   4.634
 4223SOL     OW13488   2.405   1.921   4.214
 4223SOL    HW113489   2.326   1.927   4.275
 4223SOL    HW213490   2.414   2.006   4.162
 4224SOL     OW13491   3.243   3.062   3.733
 4224SOL    HW113492   3.293   3.003   3.796
 4224SOL    HW213493   3.161   3.098   3.778
 4225SOL     OW13494   2.135   1.921   3.911
 4225SOL    HW113495   2.181   1.984   3.849
 4225SOL    HW213496   2.201   1.858   3.952
 4226SOL     OW13497   2.787   2.086   4.179
 4226SOL    HW113498   2.774   2.086   4.080
 4226SOL    HW213499   2.884   2.099   4.200
 4227SOL     OW13500   2.931   2.540   5.180
 4227SOL    HW113501   2.859   2.471   5.177
 4227SOL    HW213502   3.021   2.497   5.172
 4228SOL     OW13503   1.974   2.409   5.121
 4228SOL    HW113504   2.068   2.408   5.084
 4228SOL    HW213505   1.964   2.484   5.185
 4229SOL     OW13506   2.427   2.051   4.929
 4229SOL    HW113507   2.459   1.976   4.987
 4229SOL    HW213508   2.328   2.064   4.943
 4230SOL     OW13509   2.692   2.293   4.356
 4230SOL    HW113510   2.594   2.297   4.338
 4230SOL    HW213511   2.734   2.227   4.293
 4231SOL     OW13512   2.894   1.928   4.465
 4231SOL    HW113513   2.835   1.946   4.387
 4231SOL    HW213514   2.859   1.849   4.516
 4232SOL     OW13515   3.271   2.456   4.778
 4232SOL    HW113516   3.220   2.372   4.759
 4232SOL    HW213517   3.344   2.436   4.844
 4233SOL     OW13518   2.352   3.274   3.873
 4233SOL    HW113519   2.259   3.257   3.907
 4233SOL    HW213520   2.396   3.186   3.854
 4234SOL     OW13521   2.429   2.139   4.048
 4234SOL    HW113522   2.447   2.074   3.974
 4234SOL    HW213523   2.446   2.232   4.016
 4235SOL     OW13524   3.603   3.099   5.277
 4235SOL    HW113525   3.693   3.060   5.260
 4235SOL    HW213526   3.613   3.192   5.312
 4236SOL     OW13527   2.905   3.212   5.120
 4236SOL    HW113528   2.821   3.174   5.160
 4236SOL    HW213529   2.984   3.162   5.155
 4237SOL     OW13530   3.474   3.510   5.405
 4237SOL    HW113531   3.453   3.549   5.315
 4237SOL    HW213532   3.552   3.448   5.397
 4238SOL     OW13533   2.958   3.097   4.879
 4238SOL    HW113534   2.942   3.141   4.967
 4238SOL    HW213535   2.871   3.070   4.838
 4239SOL     OW13536   3.459   2.942   4.852
 4239SOL    HW113537   3.451   3.010   4.925
 4239SOL    HW213538   3.369   2.927   4.811
 4240SOL     OW13539   2.788   1.934   5.113
 4240SOL    HW113540   2.806   1.911   5.017
 4240SOL    HW213541   2.868   1.980   5.152
 4241SOL     OW13542   2.829   2.979   5.439
 4241SOL    HW113543   2.736   2.996   5.472
 4241SOL    HW213544   2.832   2.890   5.394
 4242SOL     OW13545   2.300   2.679   4.981
 4242SOL    HW113546   2.372   2.692   5.049
 4242SOL    HW213547   2.265   2.585   4.986
 4243SOL     OW13548   3.121   2.225   5.023
 4243SOL    HW113549   3.152   2.309   5.066
 4243SOL    HW213550   3.030   2.238   4.984
 4244SOL     OW13551   1.942   3.425   5.091
 4244SOL    HW113552   1.905   3.501   5.039
 4244SOL    HW213553   2.042   3.425   5.085
 4245SOL     OW13554   2.404   2.294   4.599
 4245SOL    HW113555   2.415   2.299   4.500
 4245SOL    HW213556   2.474   2.350   4.643
 4246SOL     OW13557   3.100   3.254   4.094
 4246SOL    HW113558   3.165   3.325   4.120
 4246SOL    HW213559   3.010   3.275   4.132
 4247SOL     OW13560   3.106   3.349   4.909
 4247SOL    HW113561   3.185   3.339   4.970
 4247SOL    HW213562   3.076   3.258   4.878
 4248SOL     OW13563   2.216   3.394   5.030
 4248SOL    HW113564   2.202   3.317   4.968
 4248SOL    HW213565   2.313   3.417   5.035
 4249SOL     OW13566   2.301   2.610   5.345
 4249SOL    HW113567   2.363   2.652   5.278
 4249SOL    HW213568   2.338   2.522   5.374
 4250SOL     OW13569   3.488   2.649   5.428
 4250SOL    HW113570   3.396   2.687   5.416
 4250SOL    HW213571   3.548   2.684   5.356
 4251SOL     OW13572   2.863   1.994   5.484
 4251SOL    HW113573   2.920   2.075   5.472
 4251SOL    HW213574   2.914   1.912   5.459
 4252SOL     OW13575   2.349   1.903   5.492
 4252SOL    HW113576   2.296   1.850   5.427
 4252SOL    HW213577   2.299   1.985   5.518
 4253SOL     OW13578   2.422   2.686   4.725
 4253SOL    HW113579   2.507   2.738   4.714
 4253SOL    HW213580   2.383   2.703   4.815
 4254SOL     OW13581   3.155   2.702   4.760
 4254SOL    HW113582   3.061   2.684   4.731
 4254SOL    HW213583   3.202   2.615   4.776
 4255SOL     OW13584   2.155   2.044   4.966
 4255SOL    HW113585   2.123   2.078   5.054
 4255SOL    HW213586   2.133   1.946   4.958
 4256SOL     OW13587   1.883   3.164   5.037
 4256SOL    HW113588   1.925   3.107   5.108
 4256SOL    HW213589   1.902   3.261   5.057
 4257SOL     OW13590   2.579   2.450   4.736
 4257SOL    HW113591   2.664   2.441   4.684
 4257SOL    HW213592   2.540   2.541   4.721
 4258SOL     OW13593   3.606   2.835   5.598
 4258SOL    HW113594   3.568   2.759   5.546
 4258SOL    HW213595   3.544   2.859   5.673
 4259SOL     OW13596   2.174   1.934   4.362
 4259SOL    HW113597   2.154   2.031   4.380
 4259SOL    HW213598   2.185   1.886   4.449
 4260SOL     OW13599   3.438   2.165   4.115
 4260SOL    HW113600   3.514   2.111   4.151
 4260SOL    HW213601   3.439   2.256   4.156
 4261SOL     OW13602   2.902   2.611   4.695
 4261SOL    HW113603   2.875   2.616   4.792
 4261SOL    HW213604   2.873   2.522   4.658
 4262SOL     OW13605   2.842   3.420   5.486
 4262SOL    HW113606   2.808   3.475   5.409
 4262SOL    HW213607   2.884   3.337   5.450
 4263SOL     OW13608   3.697   3.355   5.342
 4263SOL    HW113609   3.735   3.387   5.255
 4263SOL    HW213610   3.769   3.356   5.412
 4264SOL     OW13611   2.222   2.781   5.546
 4264SOL    HW113612   2.299   2.799   5.607
 4264SOL    HW213613   2.251   2.717   5.474
 4265SOL     OW13614   3.362   2.100   3.853
 4265SOL    HW113615   3.307   2.019   3.874
 4265SOL    HW213616   3.395   2.141   3.938
 4266SOL     OW13617   2.163   2.644   4.651
 4266SOL    HW113618   2.261   2.665   4.654
 4266SOL    HW213619   2.148   2.548   4.676
 4267SOL     OW13620   2.175   2.376   4.734
 4267SOL    HW113621   2.123   2.291   4.727
 4267SOL    HW213622   2.261   2.366   4.683
 4268SOL     OW13623   2.999   2.226   5.423
 4268SOL    HW113624   2.951   2.277   5.494
 4268SOL    HW213625   3.088   2.269   5.406
 4269SOL     OW13626   3.019   2.051   5.209
 4269SOL    HW113627   3.003   2.112   5.287
 4269SOL    HW213628   3.063   2.101   5.135
 4270SOL     OW13629   1.830   3.204   3.878
 4270SOL    HW113630   1.736   3.222   3.850
 4270SOL    HW213631   1.839   3.108   3.905
 4271SOL     OW13632   2.814   2.640   4.952
 4271SOL    HW113633   2.873   2.619   5.030
 4271SOL    HW213634   2.724   2.598   4.966
 4272SOL     OW13635   1.897   2.445   4.853
 4272SOL    HW113636   1.974   2.435   4.790
 4272SOL    HW213637   1.930   2.436   4.947
 4273SOL     OW13638   2.055   2.413   5.468
 4273SOL    HW113639   2.127   2.369   5.414
 4273SOL    HW213640   2.017   2.490   5.417
 4274SOL     OW13641   3.254   2.781   5.369
 4274SOL    HW113642   3.276   2.879   5.371
 4274SOL    HW213643   3.243   2.752   5.274
 4275SOL     OW13644   3.492   2.431   4.941
 4275SOL    HW113645   3.492   2.367   5.019
 4275SOL    HW213646   3.579   2.424   4.893
 4276SOL     OW13647   2.100   3.400   5.438
 4276SOL    HW113648   2.081   3.473   5.503
 4276SOL    HW213649   2.103   3.312   5.486
 4277SOL     OW13650   2.593   2.280   4.952
 4277SOL    HW113651   2.532   2.201   4.946
 4277SOL    HW213652   2.578   2.340   4.873
 4278SOL     OW13653   2.735   3.564   5.259
 4278SOL    HW113654   2.737   3.504   5.179
 4278SOL    HW213655   2.753   3.658   5.231
 4279SOL     OW13656   2.007   3.002   5.225
 4279SOL    HW113657   2.008   2.964   5.317
 4279SOL    HW213658   2.028   2.930   5.159
 4280SOL     OW13659   3.159   2.911   4.928
 4280SOL    HW113660   3.157   2.836   4.863
 4280SOL    HW213661   3.088   2.978   4.904
 4281SOL     OW13662   3.656   3.595   4.938
 4281SOL    HW113663   3.684   3.630   4.848
 4281SOL    HW213664   3.625   3.501   4.929
 4282SOL     OW13665   3.055   3.616   4.909
 4282SOL    HW113666   3.144   3.663   4.910
 4282SOL    HW213667   3.071   3.517   4.905
 4283SOL     OW13668   1.938   2.996   4.825
 4283SOL    HW113669   1.891   3.052   4.893
 4283SOL    HW213670   1.870   2.957   4.762
 4284SOL     OW13671   2.549   3.565   5.465
 4284SOL    HW113672   2.481   3.638   5.460
 4284SOL    HW213673   2.617   3.576   5.393
 4285SOL     OW13674   3.634   2.011   4.224
 4285SOL    HW113675   3.695   1.992   4.147
 4285SOL    HW213676   3.601   1.925   4.262
 4286SOL     OW13677   3.268   3.466   4.138
 4286SOL    HW113678   3.345   3.457   4.075
 4286SOL    HW213679   3.246   3.563   4.151
 4287SOL     OW13680   2.016   3.635   5.572
 4287SOL    HW113681   1.961   3.565   5.616
 4287SOL    HW213682   2.066   3.687   5.641
 4288SOL     OW13683   2.647   3.140   5.176
 4288SOL    HW113684   2.615   3.194   5.255
 4288SOL    HW213685   2.583   3.152   5.100
 4289SOL     OW13686   2.515   3.482   3.836
 4289SOL    HW113687   2.530   3.502   3.739
 4289SOL    HW213688   2.460   3.399   3.844
 4290SOL     OW13689   3.457   3.612   5.139
 4290SOL    HW113690   3.528   3.604   5.069
 4290SOL    HW213691   3.433   3.708   5.151
 4291SOL     OW13692   3.704   2.014   4.693
 4291SOL    HW113693   3.734   1.923   4.665
 4291SOL    HW213694   3.614   2.033   4.654
 4292SOL     OW13695   2.148   2.193   4.448
 4292SOL    HW113696   2.090   2.273   4.433
 4292SOL    HW213697   2.140   2.163   4.543
 4293SOL     OW13698   3.065   3.461   3.764
 4293SOL    HW113699   3.061   3.370   3.805
 4293SOL    HW213700   2.988   3.473   3.701
 4294SOL     OW13701   2.690   2.874   5.128
 4294SOL    HW113702   2.736   2.865   5.040
 4294SOL    HW213703   2.676   2.971   5.149
 4295SOL     OW13704   3.328   3.517   3.747
 4295SOL    HW113705   3.232   3.494   3.737
 4295SOL    HW213706   3.370   3.524   3.656
 4296SOL     OW13707   2.242   3.163   5.221
 4296SOL    HW113708   2.225   3.249   5.173
 4296SOL    HW213709   2.161   3.105   5.214
 4297SOL     OW13710   3.438   3.130   5.052
 4297SOL    HW113711   3.500   3.112   5.128
 4297SOL    HW213712   3.376   3.204   5.076
 4298SOL     OW13713   2.895   2.091   4.692
 4298SOL    HW113714   2.897   2.054   4.600
 4298SOL    HW213715   2.882   2.017   4.758
 4299SOL     OW13716   2.430   3.367   4.158
 4299SOL    HW113717   2.496   3.304   4.117
 4299SOL    HW213718   2.366   3.398   4.088
 4300SOL     OW13719   3.623   2.231   5.125
 4300SOL    HW113720   3.695   2.300   5.121
 4300SOL    HW213721   3.644   2.158   5.060
 4301SOL     OW13722   2.088   3.233   3.958
 4301SOL    HW113723   1.994   3.225   3.927
 4301SOL    HW213724   2.089   3.268   4.052
 4302SOL     OW13725   1.988   2.905   5.478
 4302SOL    HW113726   1.905   2.877   5.525
 4302SOL    HW213727   2.065   2.851   5.510
 4303SOL     OW13728   2.555   2.051   5.227
 4303SOL    HW113729   2.639   2.022   5.182
 4303SOL    HW213730   2.576   2.085   5.318
 4304SOL     OW13731   1.927   2.120   3.729
 4304SOL    HW113732   1.877   2.038   3.755
 4304SOL    HW213733   1.885   2.200   3.773
 4305SOL     OW13734   3.264   2.715   5.105
 4305SOL    HW113735   3.214   2.780   5.048
 4305SOL    HW213736   3.359   2.710   5.074
 4306SOL     OW13737   1.911   2.027   4.032
 4306SOL    HW113738   1.923   2.125   4.050
 4306SOL    HW213739   1.995   1.990   3.993
 4307SOL     OW13740   3.031   3.197   3.842
 4307SOL    HW113741   2.931   3.199   3.837
 4307SOL    HW213742   3.060   3.205   3.938
 4308SOL     OW13743   2.498   2.684   5.166
 4308SOL    HW113744   2.559   2.763   5.158
 4308SOL    HW213745   2.552   2.600   5.165
 4309SOL     OW13746   2.600   2.399   5.416
 4309SOL    HW113747   2.647   2.461   5.479
 4309SOL    HW213748   2.609   2.305   5.448
 4310SOL     OW13749   3.335   3.044   5.363
 4310SOL    HW113750   3.318   3.064   5.459
 4310SOL    HW213751   3.431   3.063   5.341
 4311SOL     OW13752   2.206   3.619   5.296
 4311SOL    HW113753   2.121   3.671   5.290
 4311SOL    HW213754   2.188   3.528   5.332
 4312SOL     OW13755   3.517   2.708   5.002
 4312SOL    HW113756   3.518   2.616   4.963
 4312SOL    HW213757   3.512   2.776   4.928
 4313SOL     OW13758   3.047   2.114   4.226
 4313SOL    HW113759   3.122   2.056   4.195
 4313SOL    HW213760   3.078   2.174   4.300
 4314SOL     OW13761   3.595   2.201   5.400
 4314SOL    HW113762   3.606   2.216   5.302
 4314SOL    HW213763   3.514   2.145   5.417
 4315SOL     OW13764   3.632   2.780   5.238
 4315SOL    HW113765   3.612   2.876   5.254
 4315SOL    HW213766   3.599   2.753   5.148
 4316SOL     OW13767   2.764   3.269   3.805
 4316SOL    HW113768   2.713   3.290   3.889
 4316SOL    HW213769   2.773   3.352   3.750
 4317SOL     OW13770   2.674   2.784   4.707
 4317SOL    HW113771   2.758   2.733   4.687
 4317SOL    HW213772   2.695   2.865   4.761
 4318SOL     OW13773   2.964   2.865   3.741
 4318SOL    HW113774   2.921   2.943   3.697
 4318SOL    HW213775   3.041   2.834   3.686
 4319SOL     OW13776   2.069   3.151   5.564
 4319SOL    HW113777   2.045   3.064   5.522
 4319SOL    HW213778   2.009   3.169   5.642
 4320SOL     OW13779   2.546   3.296   5.376
 4320SOL    HW113780   2.465   3.253   5.417
 4320SOL    HW213781   2.552   3.391   5.408
 4321SOL     OW13782   3.670   2.018   4.965
 4321SOL    HW113783   3.679   1.920   4.983
 4321SOL    HW213784   3.683   2.036   4.868
 4322SOL     OW13785   2.395   2.255   4.321
 4322SOL    HW113786   2.400   2.217   4.228
 4322SOL    HW213787   2.304   2.238   4.359
 4323SOL     OW13788   3.581   3.340   4.914
 4323SOL    HW113789   3.492   3.298   4.930
 4323SOL    HW213790   3.654   3.276   4.937
 4324SOL     OW13791   2.220   2.417   5.006
 4324SOL    HW113792   2.274   2.351   5.059
 4324SOL    HW213793   2.219   2.390   4.910
 4325SOL     OW13794   3.305   2.088   4.874
 4325SOL    HW113795   3.325   1.995   4.905
 4325SOL    HW213796   3.247   2.134   4.941
 4326SOL     OW13797   2.872   1.863   4.851
 4326SOL    HW113798   2.813   1.801   4.800
 4326SOL    HW213799   2.966   1.828   4.849
 4327SOL     OW13800   2.625   3.201   4.046
 4327SOL    HW113801   2.624   3.103   4.026
 4327SOL    HW213802   2.707   3.224   4.099
 4328SOL     OW13803   2.487   3.452   5.012
 4328SOL    HW113804   2.467   3.542   5.050
 4328SOL    HW213805   2.586   3.440   5.008
 4329SOL     OW13806   3.229   1.869   3.897
 4329SOL    HW113807   3.275   1.791   3.857
 4329SOL    HW213808   3.132   1.848   3.909
 4330SOL     OW13809   3.134   2.267   4.431
 4330SOL    HW113810   3.104   2.362   4.428
 4330SOL    HW213811   3.137   2.235   4.526
 4331SOL     OW13812   3.443   2.069   4.631
 4331SOL    HW113813   3.400   2.095   4.717
 4331SOL    HW213814   3.432   2.144   4.565
 4332SOL     OW13815   1.881   2.946   3.951
 4332SOL    HW113816   1.979   2.937   3.934
 4332SOL    HW213817   1.830   2.894   3.883
 4333SOL     OW13818   2.728   3.509   4.002
 4333SOL    HW113819   2.651   3.493   3.940
 4333SOL    HW213820   2.699   3.570   4.076
 4334SOL     OW13821   2.064   2.479   5.737
 4334SOL    HW113822   1.971   2.462   5.772
 4334SOL    HW213823   2.063   2.473   5.638
 4335SOL     OW13824   2.077   2.158   6.584
 4335SOL    HW113825   2.120   2.126   6.668
 4335SOL    HW213826   1.986   2.117   6.575
 4336SOL     OW13827   1.845   2.276   6.229
 4336SOL    HW113828   1.760   2.299   6.276
 4336SOL    HW213829   1.828   2.201   6.165
 4337SOL     OW13830   2.399   3.158   6.781
 4337SOL    HW113831   2.317   3.174   6.725
 4337SOL    HW213832   2.436   3.245   6.812
 4338SOL     OW13833   3.447   3.376   6.298
 4338SOL    HW113834   3.390   3.346   6.374
 4338SOL    HW213835   3.390   3.391   6.217
 4339SOL     OW13836   2.996   2.572   6.258
 4339SOL    HW113837   3.045   2.660   6.254
 4339SOL    HW213838   2.935   2.572   6.338
 4340SOL     OW13839   3.660   2.430   5.796
 4340SOL    HW113840   3.619   2.434   5.705
 4340SOL    HW213841   3.612   2.361   5.852
 4341SOL     OW13842   2.573   2.993   6.633
 4341SOL    HW113843   2.511   3.026   6.704
 4341SOL    HW213844   2.607   3.071   6.581
 4342SOL     OW13845   2.546   2.850   6.239
 4342SOL    HW113846   2.616   2.846   6.310
 4342SOL    HW213847   2.473   2.912   6.268
 4343SOL     OW13848   2.181   3.256   6.629
 4343SOL    HW113849   2.093   3.228   6.592
 4343SOL    HW213850   2.229   3.312   6.562
 4344SOL     OW13851   3.445   2.310   6.335
 4344SOL    HW113852   3.374   2.318   6.264
 4344SOL    HW213853   3.425   2.375   6.409
 4345SOL     OW13854   2.088   3.594   6.055
 4345SOL    HW113855   2.111   3.668   6.118
 4345SOL    HW213856   2.163   3.580   5.991
 4346SOL     OW13857   2.103   3.324   6.123
 4346SOL    HW113858   2.082   3.421   6.126
 4346SOL    HW213859   2.058   3.278   6.200
 4347SOL     OW13860   2.145   2.950   6.488
 4347SOL    HW113861   2.164   2.853   6.502
 4347SOL    HW213862   2.113   2.990   6.574
 4348SOL     OW13863   2.473   3.672   6.977
 4348SOL    HW113864   2.391   3.643   0.025
 4348SOL    HW213865   2.506   3.758   0.014
 4349SOL     OW13866   2.431   2.851   5.747
 4349SOL    HW113867   2.480   2.895   5.672
 4349SOL    HW213868   2.472   2.876   5.834
 4350SOL     OW13869   1.966   2.532   6.164
 4350SOL    HW113870   1.932   2.439   6.183
 4350SOL    HW213871   1.973   2.583   6.249
 4351SOL     OW13872   3.716   3.610   5.907
 4351SOL    HW113873   3.793   3.596   5.969
 4351SOL    HW213874   3.718   3.704   5.873
 4352SOL     OW13875   1.900   3.434   5.705
 4352SOL    HW113876   1.880   3.338   5.725
 4352SOL    HW213877   1.879   3.489   5.785
 4353SOL     OW13878   3.575   2.789   6.241
 4353SOL    HW113879   3.658   2.737   6.223
 4353SOL    HW213880   3.553   2.845   6.161
 4354SOL     OW13881   3.534   2.971   6.027
 4354SOL    HW113882   3.618   2.953   5.977
 4354SOL    HW213883   3.551   3.041   6.097
 4355SOL     OW13884   2.469   3.259   6.295
 4355SOL    HW113885   2.424   3.170   6.303
 4355SOL    HW213886   2.457   3.293   6.201
 4356SOL     OW13887   2.691   1.882   6.093
 4356SOL    HW113888   2.738   1.966   6.066
 4356SOL    HW213889   2.592   1.898   6.097
 4357SOL     OW13890   2.033   2.828   6.831
 4357SOL    HW113891   2.120   2.780   6.819
 4357SOL    HW213892   1.958   2.768   6.805
 4358SOL     OW13893   3.403   2.888   5.796
 4358SOL    HW113894   3.329   2.825   5.820
 4358SOL    HW213895   3.449   2.918   5.880
 4359SOL     OW13896   3.285   3.284   6.504
 4359SOL    HW113897   3.239   3.293   6.592
 4359SOL    HW213898   3.285   3.188   6.476
 4360SOL     OW13899   3.492   3.697   6.133
 4360SOL    HW113900   3.482   3.634   6.056
 4360SOL    HW213901   3.506   3.645   6.217
 4361SOL     OW13902   2.441   2.565   5.862
 4361SOL    HW113903   2.447   2.655   5.819
 4361SOL    HW213904   2.371   2.567   5.934
 4362SOL     OW13905   3.145   2.265   6.518
 4362SOL    HW113906   3.053   2.227   6.517
 4362SOL    HW213907   3.205   2.206   6.574
 4363SOL     OW13908   3.452   3.534   5.910
 4363SOL    HW113909   3.551   3.550   5.903
 4363SOL    HW213910   3.414   3.523   5.818
 4364SOL     OW13911   2.633   2.515   0.020
 4364SOL    HW113912   2.575   2.537   0.098
 4364SOL    HW213913   2.591   2.440   6.967
 4365SOL     OW13914   2.893   2.314   6.780
 4365SOL    HW113915   2.883   2.346   6.875
 4365SOL    HW213916   2.813   2.261   6.754
 4366SOL     OW13917   2.915   2.558   5.995
 4366SOL    HW113918   2.942   2.559   6.091
 4366SOL    HW213919   2.827   2.512   5.985
 4367SOL     OW13920   1.970   2.693   6.385
 4367SOL    HW113921   2.060   2.686   6.428
 4367SOL    HW213922   1.920   2.769   6.426
 4368SOL     OW13923   2.012   3.679   0.091
 4368SOL    HW113924   1.955   3.601   0.117
 4368SOL    HW213925   2.020   3.682   6.991
 4369SOL     OW13926   2.727   2.211   5.791
 4369SOL    HW113927   2.788   2.260   5.729
 4369SOL    HW213928   2.678   2.140   5.741
 4370SOL     OW13929   3.266   3.026   6.134
 4370SOL    HW113930   3.351   3.011   6.084
 4370SOL    HW213931   3.207   3.088   6.082
 4371SOL     OW13932   2.417   2.006   6.515
 4371SOL    HW113933   2.426   2.035   6.610
 4371SOL    HW213934   2.422   2.086   6.455
 4372SOL     OW13935   2.852   3.328   6.052
 4372SOL    HW113936   2.831   3.403   5.989
 4372SOL    HW213937   2.818   3.351   6.143
 4373SOL     OW13938   2.217   3.673   6.473
 4373SOL    HW113939   2.259   3.582   6.473
 4373SOL    HW213940   2.286   3.741   6.496
 4374SOL     OW13941   3.668   2.902   6.478
 4374SOL    HW113942   3.630   2.883   6.388
 4374SOL    HW213943   3.594   2.904   6.546
 4375SOL     OW13944   2.166   2.810   5.861
 4375SOL    HW113945   2.251   2.836   5.815
 4375SOL    HW213946   2.141   2.717   5.834
 4376SOL     OW13947   3.353   2.636   6.297
 4376SOL    HW113948   3.350   2.587   6.385
 4376SOL    HW213949   3.437   2.690   6.292
 4377SOL     OW13950   3.003   3.635   5.813
 4377SOL    HW113951   2.914   3.611   5.851
 4377SOL    HW213952   3.030   3.566   5.746
 4378SOL     OW13953   3.500   3.248   5.686
 4378SOL    HW113954   3.467   3.341   5.673
 4378SOL    HW213955   3.426   3.184   5.664
 4379SOL     OW13956   2.327   3.602   5.900
 4379SOL    HW113957   2.372   3.657   5.970
 4379SOL    HW213958   2.395   3.564   5.839
 4380SOL     OW13959   3.259   1.958   6.044
 4380SOL    HW113960   3.258   1.936   5.947
 4380SOL    HW213961   3.348   1.933   6.083
 4381SOL     OW13962   2.089   3.671   6.812
 4381SOL    HW113963   2.146   3.589   6.825
 4381SOL    HW213964   2.044   3.666   6.722
 4382SOL     OW13965   2.821   3.552   6.466
 4382SOL    HW113966   2.912   3.510   6.468
 4382SOL    HW213967   2.766   3.507   6.396
 4383SOL     OW13968   2.244   2.540   6.060
 4383SOL    HW113969   2.259   2.441   6.071
 4383SOL    HW213970   2.148   2.561   6.080
 4384SOL     OW13971   2.526   1.968   5.694
 4384SOL    HW113972   2.588   1.894   5.716
 4384SOL    HW213973   2.458   1.937   5.627
 4385SOL     OW13974   2.726   3.336   6.753
 4385SOL    HW113975   2.685   3.316   6.664
 4385SOL    HW213976   2.801   3.272   6.771
 4386SOL     OW13977   2.651   3.226   6.506
 4386SOL    HW113978   2.745   3.228   6.472
 4386SOL    HW213979   2.588   3.241   6.430
 4387SOL     OW13980   2.795   2.380   6.471
 4387SOL    HW113981   2.768   2.369   6.376
 4387SOL    HW213982   2.836   2.296   6.505
 4388SOL     OW13983   2.420   1.926   6.079
 4388SOL    HW113984   2.341   1.925   6.140
 4388SOL    HW213985   2.412   2.003   6.015
 4389SOL     OW13986   3.289   3.076   5.633
 4389SOL    HW113987   3.326   3.002   5.687
 4389SOL    HW213988   3.200   3.103   5.670
 4390SOL     OW13989   2.149   1.906   5.771
 4390SOL    HW113990   2.196   1.982   5.726
 4390SOL    HW213991   2.216   1.847   5.815
 4391SOL     OW13992   2.823   2.115   6.032
 4391SOL    HW113993   2.790   2.150   5.945
 4391SOL    HW213994   2.922   2.130   6.039
 4392SOL     OW13995   3.072   3.442   6.390
 4392SOL    HW113996   3.094   3.512   6.322
 4392SOL    HW213997   3.158   3.404   6.426
 4393SOL     OW13998   2.333   3.020   6.297
 4393SOL    HW113999   2.272   2.998   6.372
 4393SOL    HW214000   2.283   3.013   6.210
 4394SOL     OW14001   3.112   3.649   6.204
 4394SOL    HW114002   3.164   3.714   6.147
 4394SOL    HW214003   3.031   3.694   6.240
 4395SOL     OW14004   2.891   2.365   5.632
 4395SOL    HW114005   2.848   2.453   5.610
 4395SOL    HW214006   2.961   2.379   5.702
 4396SOL     OW14007   2.430   2.063   6.785
 4396SOL    HW114008   2.466   1.981   6.830
 4396SOL    HW214009   2.332   2.072   6.806
 4397SOL     OW14010   2.738   2.323   6.208
 4397SOL    HW114011   2.693   2.380   6.139
 4397SOL    HW214012   2.770   2.239   6.165
 4398SOL     OW14013   2.879   1.907   6.305
 4398SOL    HW114014   2.814   1.905   6.229
 4398SOL    HW214015   2.856   1.835   6.371
 4399SOL     OW14016   3.283   3.014   6.429
 4399SOL    HW114017   3.214   2.943   6.445
 4399SOL    HW214018   3.298   3.024   6.331
 4400SOL     OW14019   3.326   2.489   6.535
 4400SOL    HW114020   3.257   2.416   6.544
 4400SOL    HW214021   3.390   2.484   6.612
 4401SOL     OW14022   3.675   2.642   5.967
 4401SOL    HW114023   3.738   2.606   6.035
 4401SOL    HW214024   3.666   2.577   5.892
 4402SOL     OW14025   2.358   3.290   5.735
 4402SOL    HW114026   2.280   3.260   5.789
 4402SOL    HW214027   2.361   3.240   5.649
 4403SOL     OW14028   3.593   3.142   6.222
 4403SOL    HW114029   3.689   3.134   6.248
 4403SOL    HW214030   3.557   3.230   6.252
 4404SOL     OW14031   3.252   2.440   5.647
 4404SOL    HW114032   3.202   2.409   5.727
 4404SOL    HW214033   3.350   2.423   5.660
 4405SOL     OW14034   2.390   2.118   5.888
 4405SOL    HW114035   2.444   2.068   5.820
 4405SOL    HW214036   2.356   2.203   5.848
 4406SOL     OW14037   3.623   3.011   0.182
 4406SOL    HW114038   3.718   3.002   0.149
 4406SOL    HW214039   3.587   3.101   0.156
 4407SOL     OW14040   2.939   3.152   6.706
 4407SOL    HW114041   2.926   3.054   6.718
 4407SOL    HW214042   2.928   3.175   6.609
 4408SOL     OW14043   3.455   2.933   6.647
 4408SOL    HW114044   3.457   3.010   6.711
 4408SOL    HW214045   3.392   2.954   6.572
 4409SOL     OW14046   2.584   2.917   5.971
 4409SOL    HW114047   2.569   2.892   6.066
 4409SOL    HW214048   2.659   2.863   5.933
 4410SOL     OW14049   2.290   2.704   6.859
 4410SOL    HW114050   2.338   2.739   6.939
 4410SOL    HW214051   2.259   2.611   6.877
 4411SOL     OW14052   3.148   2.250   6.852
 4411SOL    HW114053   3.178   2.317   6.920
 4411SOL    HW214054   3.061   2.280   6.812
 4412SOL     OW14055   1.945   3.419   6.933
 4412SOL    HW114056   1.891   3.484   6.880
 4412SOL    HW214057   2.040   3.422   6.904
 4413SOL     OW14058   2.177   3.001   6.068
 4413SOL    HW114059   2.177   3.078   6.005
 4413SOL    HW214060   2.175   2.916   6.015
 4414SOL     OW14061   2.404   2.391   6.446
 4414SOL    HW114062   2.414   2.453   6.368
 4414SOL    HW214063   2.477   2.409   6.513
 4415SOL     OW14064   3.107   3.226   5.998
 4415SOL    HW114065   3.170   3.297   6.028
 4415SOL    HW214066   3.014   3.251   6.024
 4416SOL     OW14067   3.166   3.299   6.750
 4416SOL    HW114068   3.221   3.257   6.822
 4416SOL    HW214069   3.079   3.251   6.743
 4417SOL     OW14070   3.446   2.492   6.069
 4417SOL    HW114071   3.394   2.536   6.143
 4417SOL    HW214072   3.512   2.558   6.032
 4418SOL     OW14073   2.205   3.425   6.839
 4418SOL    HW114074   2.188   3.359   6.765
 4418SOL    HW214075   2.302   3.426   6.862
 4419SOL     OW14076   2.464   2.731   6.644
 4419SOL    HW114077   2.504   2.823   6.638
 4419SOL    HW214078   2.404   2.726   6.723
 4420SOL     OW14079   3.149   2.722   6.577
 4420SOL    HW114080   3.054   2.690   6.571
 4420SOL    HW214081   3.211   2.646   6.560
 4421SOL     OW14082   3.067   2.380   5.848
 4421SOL    HW114083   3.084   2.301   5.907
 4421SOL    HW214084   3.020   2.451   5.900
 4422SOL     OW14085   2.162   2.071   6.834
 4422SOL    HW114086   2.103   2.117   6.900
 4422SOL    HW214087   2.139   1.974   6.832
 4423SOL     OW14088   1.876   3.160   6.868
 4423SOL    HW114089   1.924   3.096   6.927
 4423SOL    HW214090   1.896   3.254   6.896
 4424SOL     OW14091   2.585   2.470   6.638
 4424SOL    HW114092   2.665   2.453   6.580
 4424SOL    HW214093   2.560   2.567   6.634
 4425SOL     OW14094   2.185   1.925   6.225
 4425SOL    HW114095   2.147   2.016   6.241
 4425SOL    HW214096   2.194   1.877   6.312
 4426SOL     OW14097   3.485   2.259   5.928
 4426SOL    HW114098   3.529   2.191   5.987
 4426SOL    HW214099   3.457   2.338   5.984
 4427SOL     OW14100   2.876   2.627   6.575
 4427SOL    HW114101   2.851   2.640   6.671
 4427SOL    HW214102   2.859   2.533   6.547
 4428SOL     OW14103   3.382   2.121   5.706
 4428SOL    HW114104   3.330   2.044   5.743
 4428SOL    HW214105   3.419   2.175   5.782
 4429SOL     OW14106   3.138   2.683   5.596
 4429SOL    HW114107   3.176   2.591   5.610
 4429SOL    HW214108   3.175   2.722   5.511
 4430SOL     OW14109   2.915   3.220   6.441
 4430SOL    HW114110   2.936   3.135   6.391
 4430SOL    HW214111   2.974   3.294   6.407
 4431SOL     OW14112   2.208   2.678   6.529
 4431SOL    HW114113   2.305   2.699   6.540
 4431SOL    HW214114   2.191   2.583   6.556
 4432SOL     OW14115   2.188   2.404   6.602
 4432SOL    HW114116   2.139   2.317   6.594
 4432SOL    HW214117   2.269   2.402   6.543
 4433SOL     OW14118   3.040   2.071   0.031
 4433SOL    HW114119   3.114   2.029   0.083
 4433SOL    HW214120   3.078   2.133   6.962
 4434SOL     OW14121   1.881   3.154   5.770
 4434SOL    HW114122   1.788   3.178   5.741
 4434SOL    HW214123   1.881   3.060   5.807
 4435SOL     OW14124   1.960   3.625   6.557
 4435SOL    HW114125   1.921   3.545   6.512
 4435SOL    HW214126   2.051   3.644   6.518
 4436SOL     OW14127   2.345   3.427   6.478
 4436SOL    HW114128   2.419   3.485   6.510
 4436SOL    HW214129   2.380   3.365   6.408
 4437SOL     OW14130   2.788   2.675   6.842
 4437SOL    HW114131   2.849   2.724   6.903
 4437SOL    HW214132   2.735   2.607   6.894
 4438SOL     OW14133   1.933   2.483   6.720
 4438SOL    HW114134   1.983   2.470   6.635
 4438SOL    HW214135   1.995   2.469   6.798
 4439SOL     OW14136   2.673   2.435   5.953
 4439SOL    HW114137   2.683   2.353   5.896
 4439SOL    HW214138   2.592   2.486   5.924
 4440SOL     OW14139   3.521   2.471   6.737
 4440SOL    HW114140   3.506   2.399   6.805
 4440SOL    HW214141   3.618   2.476   6.715
 4441SOL     OW14142   2.536   2.312   6.857
 4441SOL    HW114143   2.498   2.224   6.828
 4441SOL    HW214144   2.551   2.370   6.777
 4442SOL     OW14145   2.835   3.511   6.941
 4442SOL    HW114146   2.796   3.457   6.867
 4442SOL    HW214147   2.822   3.608   6.922
 4443SOL     OW14148   2.301   2.344   5.757
 4443SOL    HW114149   2.371   2.412   5.781
 4443SOL    HW214150   2.211   2.387   5.760
 4444SOL     OW14151   2.006   2.986   0.049
 4444SOL    HW114152   2.067   2.954   0.121
 4444SOL    HW214153   2.016   2.928   6.968
 4445SOL     OW14154   3.161   2.826   6.834
 4445SOL    HW114155   3.166   2.800   6.737
 4445SOL    HW214156   3.211   2.911   6.848
 4446SOL     OW14157   3.189   2.733   5.864
 4446SOL    HW114158   3.122   2.692   5.926
 4446SOL    HW214159   3.162   2.715   5.769
 4447SOL     OW14160   3.603   3.612   6.731
 4447SOL    HW114161   3.684   3.627   6.674
 4447SOL    HW214162   3.575   3.516   6.726
 4448SOL     OW14163   3.133   3.583   6.723
 4448SOL    HW114164   3.216   3.618   6.679
 4448SOL    HW214165   3.142   3.484   6.736
 4449SOL     OW14166   1.916   3.160   6.585
 4449SOL    HW114167   1.898   3.154   6.683
 4449SOL    HW214168   1.883   3.076   6.541
 4450SOL     OW14169   3.632   2.068   6.064
 4450SOL    HW114170   3.686   2.047   5.983
 4450SOL    HW214171   3.587   1.985   6.097
 4451SOL     OW14172   3.267   3.436   6.092
 4451SOL    HW114173   3.328   3.469   6.019
 4451SOL    HW214174   3.206   3.510   6.120
 4452SOL     OW14175   3.146   2.802   6.238
 4452SOL    HW114176   3.220   2.739   6.259
 4452SOL    HW214177   3.181   2.880   6.187
 4453SOL     OW14178   2.532   3.501   5.735
 4453SOL    HW114179   2.550   3.522   5.639
 4453SOL    HW214180   2.477   3.418   5.741
 4454SOL     OW14181   3.705   2.032   6.562
 4454SOL    HW114182   3.739   1.939   6.545
 4454SOL    HW214183   3.616   2.044   6.517
 4455SOL     OW14184   2.094   2.172   6.300
 4455SOL    HW114185   2.008   2.214   6.273
 4455SOL    HW214186   2.102   2.173   6.399
 4456SOL     OW14187   3.080   3.442   5.635
 4456SOL    HW114188   3.072   3.349   5.672
 4456SOL    HW214189   3.004   3.458   5.571
 4457SOL     OW14190   2.599   2.854   6.962
 4457SOL    HW114191   2.648   2.792   6.902
 4457SOL    HW214192   2.658   2.931   6.987
 4458SOL     OW14193   2.783   2.768   5.864
 4458SOL    HW114194   2.841   2.810   5.795
 4458SOL    HW214195   2.834   2.697   5.913
 4459SOL     OW14196   3.348   3.514   5.651
 4459SOL    HW114197   3.253   3.487   5.638
 4459SOL    HW214198   3.393   3.520   5.562
 4460SOL     OW14199   3.463   3.138   6.829
 4460SOL    HW114200   3.557   3.134   6.862
 4460SOL    HW214201   3.401   3.110   6.902
 4461SOL     OW14202   2.950   2.972   6.340
 4461SOL    HW114203   2.868   2.922   6.370
 4461SOL    HW214204   3.014   2.908   6.297
 4462SOL     OW14205   2.907   2.112   6.510
 4462SOL    HW114206   2.901   2.065   6.422
 4462SOL    HW214207   2.908   2.044   6.584
 4463SOL     OW14208   2.461   3.353   6.043
 4463SOL    HW114209   2.520   3.296   5.986
 4463SOL    HW214210   2.382   3.382   5.989
 4464SOL     OW14211   3.522   2.261   6.923
 4464SOL    HW114212   3.472   2.240   0.007
 4464SOL    HW214213   3.554   2.176   6.881
 4465SOL     OW14214   2.136   3.211   5.884
 4465SOL    HW114215   2.046   3.196   5.845
 4465SOL    HW214216   2.127   3.261   5.971
 4466SOL     OW14217   2.556   2.046   0.077
 4466SOL    HW114218   2.648   2.012   0.096
 4466SOL    HW214219   2.562   2.139   0.040
 4467SOL     OW14220   1.945   2.183   5.583
 4467SOL    HW114221   1.864   2.165   5.528
 4467SOL    HW214222   1.980   2.275   5.562
 4468SOL     OW14223   1.905   2.013   5.829
 4468SOL    HW114224   1.889   2.081   5.758
 4468SOL    HW214225   1.998   1.976   5.820
 4469SOL     OW14226   3.043   3.182   5.725
 4469SOL    HW114227   2.947   3.156   5.715
 4469SOL    HW214228   3.067   3.186   5.822
 4470SOL     OW14229   3.365   3.690   6.618
 4470SOL    HW114230   3.385   3.748   6.539
 4470SOL    HW214231   3.450   3.660   6.660
 4471SOL     OW14232   3.339   3.172   0.281
 4471SOL    HW114233   3.257   3.198   0.332
 4471SOL    HW214234   3.335   3.075   0.260
 4472SOL     OW14235   2.269   3.582   0.124
 4472SOL    HW114236   2.174   3.615   0.122
 4472SOL    HW214237   2.269   3.482   0.120
 4473SOL     OW14238   3.577   2.734   6.829
 4473SOL    HW114239   3.552   2.642   6.799
 4473SOL    HW214240   3.534   2.802   6.769
 4474SOL     OW14241   3.093   2.180   6.044
 4474SOL    HW114242   3.154   2.101   6.043
 4474SOL    HW214243   3.119   2.240   6.121
 4475SOL     OW14244   2.432   2.592   6.259
 4475SOL    HW114245   2.478   2.680   6.247
 4475SOL    HW214246   2.365   2.578   6.186
 4476SOL     OW14247   3.623   2.729   0.108
 4476SOL    HW114248   3.615   2.824   0.138
 4476SOL    HW214249   3.610   2.723   0.009
 4477SOL     OW14250   2.747   3.208   5.664
 4477SOL    HW114251   2.704   3.220   5.754
 4477SOL    HW214252   2.758   3.297   5.620
 4478SOL     OW14253   2.538   3.612   6.528
 4478SOL    HW114254   2.512   3.709   6.519
 4478SOL    HW214255   2.638   3.605   6.526
 4479SOL     OW14256   2.733   2.840   6.454
 4479SOL    HW114257   2.779   2.761   6.495
 4479SOL    HW214258   2.678   2.886   6.524
 4480SOL     OW14259   2.937   2.857   5.662
 4480SOL    HW114260   2.906   2.910   5.584
 4480SOL    HW214261   3.010   2.795   5.634
 4481SOL     OW14262   3.687   3.424   6.432
 4481SOL    HW114263   3.605   3.416   6.375
 4481SOL    HW214264   3.682   3.360   6.508
 4482SOL     OW14265   2.003   3.094   6.271
 4482SOL    HW114266   2.030   3.044   6.354
 4482SOL    HW214267   2.054   3.058   6.193
 4483SOL     OW14268   3.641   2.023   6.828
 4483SOL    HW114269   3.618   1.926   6.834
 4483SOL    HW214270   3.666   2.046   6.734
 4484SOL     OW14271   2.269   2.276   6.101
 4484SOL    HW114272   2.310   2.204   6.044
 4484SOL    HW214273   2.215   2.233   6.174
 4485SOL     OW14274   3.502   3.362   6.675
 4485SOL    HW114275   3.432   3.355   6.604
 4485SOL    HW214276   3.497   3.283   6.736
 4486SOL     OW14277   2.182   2.447   6.883
 4486SOL    HW114278   2.230   2.381   6.940
 4486SOL    HW214279   2.197   2.425   6.786
 4487SOL     OW14280   2.685   3.451   6.253
 4487SOL    HW114281   2.660   3.524   6.190
 4487SOL    HW214282   2.608   3.387   6.262
 4488SOL     OW14283   3.292   2.101   6.681
 4488SOL    HW114284   3.290   2.004   6.702
 4488SOL    HW214285   3.248   2.152   6.755
 4489SOL     OW14286   2.907   1.871   6.665
 4489SOL    HW114287   2.862   1.807   6.602
 4489SOL    HW214288   2.991   1.829   6.700
 4490SOL     OW14289   2.646   3.188   5.921
 4490SOL    HW114290   2.623   3.092   5.937
 4490SOL    HW214291   2.726   3.212   5.976
 4491SOL     OW14292   2.483   3.420   6.856
 4491SOL    HW114293   2.488   3.515   6.887
 4491SOL    HW214294   2.573   3.391   6.822
 4492SOL     OW14295   3.248   1.890   5.778
 4492SOL    HW114296   3.296   1.819   5.728
 4492SOL    HW214297   3.152   1.863   5.791
 4493SOL     OW14298   3.159   2.343   6.255
 4493SOL    HW114299   3.105   2.427   6.247
 4493SOL    HW214300   3.156   2.310   6.349
 4494SOL     OW14301   3.452   2.063   6.466
 4494SOL    HW114302   3.396   2.087   6.546
 4494SOL    HW214303   3.453   2.140   6.402
 4495SOL     OW14304   1.899   2.895   5.891
 4495SOL    HW114305   1.997   2.885   5.875
 4495SOL    HW214306   1.858   2.805   5.906
 4496SOL     OW14307   2.754   3.546   5.908
 4496SOL    HW114308   2.675   3.525   5.850
 4496SOL    HW214309   2.729   3.618   5.973
 4497SOL     OW14310   2.057   4.384   0.131
 4497SOL    HW114311   1.965   4.347   0.143
 4497SOL    HW214312   2.085   4.372   0.036
 4498SOL     OW14313   2.075   4.012   0.992
 4498SOL    HW114314   2.112   3.977   1.078
 4498SOL    HW214315   1.986   3.970   0.975
 4499SOL     OW14316   1.841   4.136   0.636
 4499SOL    HW114317   1.760   4.167   0.686
 4499SOL    HW214318   1.819   4.055   0.583
 4500SOL     OW14319   2.436   5.044   1.220
 4500SOL    HW114320   2.352   5.040   1.165
 4500SOL    HW214321   2.456   5.139   1.243
 4501SOL     OW14322   3.456   5.250   0.706
 4501SOL    HW114323   3.408   5.216   0.786
 4501SOL    HW214324   3.392   5.259   0.629
 4502SOL     OW14325   3.004   4.437   0.691
 4502SOL    HW114326   3.057   4.521   0.678
 4502SOL    HW214327   2.952   4.444   0.776
 4503SOL     OW14328   3.679   4.288   0.173
 4503SOL    HW114329   3.621   4.361   0.134
 4503SOL    HW214330   3.624   4.232   0.235
 4504SOL     OW14331   2.579   4.851   1.064
 4504SOL    HW114332   2.520   4.887   1.137
 4504SOL    HW214333   2.621   4.926   1.015
 4505SOL     OW14334   2.730   4.472   1.829
 4505SOL    HW114335   2.724   4.531   1.910
 4505SOL    HW214336   2.753   4.528   1.749
 4506SOL     OW14337   2.555   4.699   0.652
 4506SOL    HW114338   2.626   4.699   0.723
 4506SOL    HW214339   2.483   4.763   0.677
 4507SOL     OW14340   2.568   4.886   1.816
 4507SOL    HW114341   2.624   4.956   1.860
 4507SOL    HW214342   2.485   4.929   1.778
 4508SOL     OW14343   2.204   5.114   1.067
 4508SOL    HW114344   2.123   5.072   1.026
 4508SOL    HW214345   2.249   5.173   0.999
 4509SOL     OW14346   3.307   5.233   1.379
 4509SOL    HW114347   3.367   5.313   1.390
 4509SOL    HW214348   3.229   5.242   1.440
 4510SOL     OW14349   2.327   4.086   1.448
 4510SOL    HW114350   2.408   4.030   1.463
 4510SOL    HW214351   2.247   4.039   1.483
 4511SOL     OW14352   3.444   4.173   0.760
 4511SOL    HW114353   3.379   4.183   0.684
 4511SOL    HW214354   3.422   4.237   0.832
 4512SOL     OW14355   2.075   5.434   0.490
 4512SOL    HW114356   2.095   5.518   0.542
 4512SOL    HW214357   2.160   5.399   0.451
 4513SOL     OW14358   2.996   5.066   1.701
 4513SOL    HW114359   3.043   5.058   1.788
 4513SOL    HW214360   2.938   4.987   1.686
 4514SOL     OW14361   2.110   5.157   0.574
 4514SOL    HW114362   2.068   5.248   0.582
 4514SOL    HW214363   2.049   5.089   0.614
 4515SOL     OW14364   2.133   4.817   0.855
 4515SOL    HW114365   2.144   4.724   0.889
 4515SOL    HW214366   2.079   4.871   0.919
 4516SOL     OW14367   2.421   5.555   1.407
 4516SOL    HW114368   2.345   5.525   1.464
 4516SOL    HW214369   2.467   5.632   1.452
 4517SOL     OW14370   2.428   4.681   0.172
 4517SOL    HW114371   2.485   4.696   0.091
 4517SOL    HW214372   2.469   4.726   0.251
 4518SOL     OW14373   3.444   3.858   1.461
 4518SOL    HW114374   3.483   3.940   1.420
 4518SOL    HW214375   3.400   3.881   1.548
 4519SOL     OW14376   1.973   4.389   0.545
 4519SOL    HW114377   1.937   4.299   0.570
 4519SOL    HW214378   1.970   4.449   0.625
 4520SOL     OW14379   3.713   5.468   0.370
 4520SOL    HW114380   3.792   5.440   0.424
 4520SOL    HW214381   3.722   5.565   0.345
 4521SOL     OW14382   3.566   4.655   0.662
 4521SOL    HW114383   3.656   4.611   0.655
 4521SOL    HW214384   3.547   4.704   0.577
 4522SOL     OW14385   3.517   4.826   0.442
 4522SOL    HW114386   3.569   4.845   0.359
 4522SOL    HW214387   3.541   4.894   0.512
 4523SOL     OW14388   1.992   4.476   1.573
 4523SOL    HW114389   2.080   4.523   1.572
 4523SOL    HW214390   1.919   4.541   1.554
 4524SOL     OW14391   2.487   5.111   0.734
 4524SOL    HW114392   2.441   5.022   0.737
 4524SOL    HW214393   2.480   5.148   0.641
 4525SOL     OW14394   3.121   4.943   1.420
 4525SOL    HW114395   3.143   4.872   1.354
 4525SOL    HW214396   3.189   4.943   1.493
 4526SOL     OW14397   2.689   3.761   0.518
 4526SOL    HW114398   2.735   3.846   0.493
 4526SOL    HW214399   2.590   3.774   0.517
 4527SOL     OW14400   2.056   4.671   1.301
 4527SOL    HW114401   2.147   4.631   1.285
 4527SOL    HW214402   1.992   4.635   1.233
 4528SOL     OW14403   3.321   4.769   0.221
 4528SOL    HW114404   3.249   4.708   0.253
 4528SOL    HW214405   3.407   4.744   0.266
 4529SOL     OW14406   3.046   5.539   1.631
 4529SOL    HW114407   3.045   5.610   1.561
 4529SOL    HW214408   3.057   5.449   1.589
 4530SOL     OW14409   2.209   3.979   1.820
 4530SOL    HW114410   2.246   3.987   1.913
 4530SOL    HW214411   2.109   3.991   1.824
 4531SOL     OW14412   3.320   5.146   0.920
 4531SOL    HW114413   3.267   5.167   1.002
 4531SOL    HW214414   3.312   5.049   0.898
 4532SOL     OW14415   3.454   5.552   0.583
 4532SOL    HW114416   3.443   5.514   0.491
 4532SOL    HW214417   3.480   5.478   0.646
 4533SOL     OW14418   2.452   4.423   0.265
 4533SOL    HW114419   2.452   4.517   0.232
 4533SOL    HW214420   2.388   4.414   0.341
 4534SOL     OW14421   3.145   4.115   0.938
 4534SOL    HW114422   3.051   4.080   0.938
 4534SOL    HW214423   3.202   4.059   0.998
 4535SOL     OW14424   3.439   5.420   0.337
 4535SOL    HW114425   3.539   5.425   0.343
 4535SOL    HW214426   3.412   5.407   0.242
 4536SOL     OW14427   2.657   4.319   1.433
 4536SOL    HW114428   2.622   4.297   1.524
 4536SOL    HW214429   2.632   4.247   1.369
 4537SOL     OW14430   3.253   4.187   1.655
 4537SOL    HW114431   3.258   4.242   1.738
 4537SOL    HW214432   3.294   4.097   1.672
 4538SOL     OW14433   2.803   4.604   1.592
 4538SOL    HW114434   2.862   4.536   1.548
 4538SOL    HW214435   2.752   4.654   1.523
 4539SOL     OW14436   2.870   4.108   1.189
 4539SOL    HW114437   2.775   4.122   1.217
 4539SOL    HW214438   2.873   4.057   1.103
 4540SOL     OW14439   2.916   4.442   0.429
 4540SOL    HW114440   2.941   4.438   0.526
 4540SOL    HW214441   2.829   4.396   0.415
 4541SOL     OW14442   1.956   4.561   0.768
 4541SOL    HW114443   2.047   4.547   0.807
 4541SOL    HW214444   1.906   4.628   0.822
 4542SOL     OW14445   1.968   5.613   1.597
 4542SOL    HW114446   1.980   5.582   1.692
 4542SOL    HW214447   1.878   5.587   1.564
 4543SOL     OW14448   2.766   4.080   0.214
 4543SOL    HW114449   2.812   4.139   0.148
 4543SOL    HW214450   2.780   3.985   0.189
 4544SOL     OW14451   3.543   4.290   1.827
 4544SOL    HW114452   3.523   4.372   1.774
 4544SOL    HW214453   3.561   4.213   1.766
 4545SOL     OW14454   3.266   4.884   0.564
 4545SOL    HW114455   3.348   4.868   0.510
 4545SOL    HW214456   3.207   4.950   0.517
 4546SOL     OW14457   2.414   3.865   0.930
 4546SOL    HW114458   2.422   3.891   1.027
 4546SOL    HW214459   2.412   3.947   0.874
 4547SOL     OW14460   2.849   5.159   0.474
 4547SOL    HW114461   2.824   5.243   0.426
 4547SOL    HW214462   2.822   5.167   0.570
 4548SOL     OW14463   2.219   5.531   0.878
 4548SOL    HW114464   2.260   5.440   0.882
 4548SOL    HW214465   2.286   5.599   0.905
 4549SOL     OW14466   3.662   4.772   0.900
 4549SOL    HW114467   3.615   4.757   0.813
 4549SOL    HW214468   3.595   4.782   0.973
 4550SOL     OW14469   3.065   5.263   1.514
 4550SOL    HW114470   3.058   5.193   1.586
 4550SOL    HW214471   3.003   5.240   1.439
 4551SOL     OW14472   2.155   4.673   0.235
 4551SOL    HW114473   2.251   4.679   0.208
 4551SOL    HW214474   2.120   4.582   0.212
 4552SOL     OW14475   3.356   4.490   0.718
 4552SOL    HW114476   3.352   4.445   0.807
 4552SOL    HW214477   3.437   4.549   0.714
 4553SOL     OW14478   2.329   5.019   1.743
 4553SOL    HW114479   2.306   5.024   1.646
 4553SOL    HW214480   2.246   5.004   1.797
 4554SOL     OW14481   2.985   5.495   0.248
 4554SOL    HW114482   2.913   5.454   0.304
 4554SOL    HW214483   3.021   5.426   0.184
 4555SOL     OW14484   2.071   3.977   1.493
 4555SOL    HW114485   2.007   4.052   1.505
 4555SOL    HW214486   2.040   3.898   1.545
 4556SOL     OW14487   3.509   5.161   0.121
 4556SOL    HW114488   3.457   5.234   0.076
 4556SOL    HW214489   3.450   5.115   0.187
 4557SOL     OW14490   2.337   5.414   0.389
 4557SOL    HW114491   2.375   5.498   0.429
 4557SOL    HW214492   2.323   5.428   0.291
 4558SOL     OW14493   2.101   5.511   1.204
 4558SOL    HW114494   2.151   5.431   1.237
 4558SOL    HW214495   2.066   5.492   1.112
 4559SOL     OW14496   2.817   5.424   0.891
 4559SOL    HW114497   2.905   5.383   0.914
 4559SOL    HW214498   2.773   5.370   0.819
 4560SOL     OW14499   2.255   4.394   0.460
 4560SOL    HW114500   2.267   4.297   0.479
 4560SOL    HW214501   2.160   4.420   0.477
 4561SOL     OW14502   3.351   3.934   1.723
 4561SOL    HW114503   3.382   3.967   1.813
 4561SOL    HW214504   3.281   3.864   1.736
 4562SOL     OW14505   2.632   4.004   1.739
 4562SOL    HW114506   2.710   3.943   1.729
 4562SOL    HW214507   2.626   4.036   1.834
 4563SOL     OW14508   2.719   5.243   1.187
 4563SOL    HW114509   2.698   5.193   1.102
 4563SOL    HW214510   2.789   5.193   1.238
 4564SOL     OW14511   3.181   4.316   1.425
 4564SOL    HW114512   3.217   4.279   1.510
 4564SOL    HW214513   3.218   4.408   1.410
 4565SOL     OW14514   2.668   5.088   0.954
 4565SOL    HW114515   2.761   5.087   0.915
 4565SOL    HW214516   2.602   5.100   0.880
 4566SOL     OW14517   2.786   4.239   0.887
 4566SOL    HW114518   2.763   4.231   0.790
 4566SOL    HW214519   2.816   4.150   0.922
 4567SOL     OW14520   2.414   3.800   0.486
 4567SOL    HW114521   2.334   3.798   0.546
 4567SOL    HW214522   2.401   3.867   0.414
 4568SOL     OW14523   3.255   4.919   6.995
 4568SOL    HW114524   3.289   4.853   0.062
 4568SOL    HW214525   3.180   4.972   0.035
 4569SOL     OW14526   2.831   3.989   0.462
 4569SOL    HW114527   2.798   4.026   0.375
 4569SOL    HW214528   2.930   4.000   0.468
 4570SOL     OW14529   2.923   4.419   1.432
 4570SOL    HW114530   2.848   4.353   1.438
 4570SOL    HW214531   3.010   4.369   1.430
 4571SOL     OW14532   3.080   5.292   0.811
 4571SOL    HW114533   3.095   5.370   0.750
 4571SOL    HW214534   3.167   5.263   0.850
 4572SOL     OW14535   2.352   4.874   0.704
 4572SOL    HW114536   2.275   4.856   0.765
 4572SOL    HW214537   2.321   4.870   0.609
 4573SOL     OW14538   3.132   5.513   0.648
 4573SOL    HW114539   3.210   5.575   0.648
 4573SOL    HW214540   3.048   5.565   0.665
 4574SOL     OW14541   2.878   4.258   0.041
 4574SOL    HW114542   2.801   4.321   0.046
 4574SOL    HW214543   2.944   4.279   0.113
 4575SOL     OW14544   1.973   4.270   1.394
 4575SOL    HW114545   2.066   4.265   1.360
 4575SOL    HW214546   1.966   4.343   1.462
 4576SOL     OW14547   2.426   3.928   1.196
 4576SOL    HW114548   2.468   3.864   1.261
 4576SOL    HW214549   2.328   3.934   1.214
 4577SOL     OW14550   2.736   4.191   0.627
 4577SOL    HW114551   2.692   4.250   0.559
 4577SOL    HW214552   2.769   4.108   0.582
 4578SOL     OW14553   2.886   3.773   0.726
 4578SOL    HW114554   2.819   3.773   0.651
 4578SOL    HW214555   2.862   3.701   0.791
 4579SOL     OW14556   3.300   4.875   0.859
 4579SOL    HW114557   3.229   4.807   0.874
 4579SOL    HW214558   3.317   4.884   0.761
 4580SOL     OW14559   3.320   4.342   0.955
 4580SOL    HW114560   3.252   4.270   0.961
 4580SOL    HW214561   3.381   4.337   1.034
 4581SOL     OW14562   3.664   4.534   0.384
 4581SOL    HW114563   3.735   4.471   0.416
 4581SOL    HW214564   3.661   4.533   0.284
 4582SOL     OW14565   2.339   5.176   0.140
 4582SOL    HW114566   2.283   5.137   0.213
 4582SOL    HW214567   2.356   5.107   0.070
 4583SOL     OW14568   3.575   4.996   0.642
 4583SOL    HW114569   3.673   4.984   0.655
 4583SOL    HW214570   3.551   5.092   0.659
 4584SOL     OW14571   3.226   4.256   0.072
 4584SOL    HW114572   3.160   4.263   0.146
 4584SOL    HW214573   3.291   4.182   0.092
 4585SOL     OW14574   2.375   3.984   0.284
 4585SOL    HW114575   2.438   3.943   0.218
 4585SOL    HW214576   2.331   4.065   0.244
 4586SOL     OW14577   3.605   4.965   1.530
 4586SOL    HW114578   3.695   4.926   1.511
 4586SOL    HW214579   3.615   5.056   1.571
 4587SOL     OW14580   2.893   5.082   1.345
 4587SOL    HW114581   2.807   5.050   1.385
 4587SOL    HW214582   2.970   5.031   1.386
 4588SOL     OW14583   3.480   5.370   1.675
 4588SOL    HW114584   3.460   5.406   1.584
 4588SOL    HW214585   3.559   5.309   1.670
 4589SOL     OW14586   3.009   4.981   1.113
 4589SOL    HW114587   2.949   5.013   1.187
 4589SOL    HW214588   2.971   5.008   1.025
 4590SOL     OW14589   3.466   4.818   1.087
 4590SOL    HW114590   3.458   4.886   1.160
 4590SOL    HW214591   3.399   4.839   1.016
 4591SOL     OW14592   2.791   3.806   1.368
 4591SOL    HW114593   2.811   3.791   1.271
 4591SOL    HW214594   2.870   3.847   1.413
 4592SOL     OW14595   2.829   4.847   1.709
 4592SOL    HW114596   2.736   4.867   1.738
 4592SOL    HW214597   2.831   4.759   1.661
 4593SOL     OW14598   2.581   4.774   0.382
 4593SOL    HW114599   2.566   4.749   0.478
 4593SOL    HW214600   2.661   4.726   0.347
 4594SOL     OW14601   2.295   4.538   1.262
 4594SOL    HW114602   2.368   4.552   1.328
 4594SOL    HW214603   2.262   4.444   1.267
 4595SOL     OW14604   3.123   4.091   1.284
 4595SOL    HW114605   3.151   4.175   1.332
 4595SOL    HW214606   3.030   4.102   1.249
 4596SOL     OW14607   1.933   5.284   1.353
 4596SOL    HW114608   1.893   5.356   1.296
 4596SOL    HW214609   2.032   5.287   1.346
 4597SOL     OW14610   2.262   4.849   0.448
 4597SOL    HW114611   2.233   4.932   0.402
 4597SOL    HW214612   2.232   4.769   0.396
 4598SOL     OW14613   2.391   4.259   0.862
 4598SOL    HW114614   2.406   4.316   0.781
 4598SOL    HW214615   2.462   4.278   0.930
 4599SOL     OW14616   3.112   5.090   0.423
 4599SOL    HW114617   3.161   5.167   0.461
 4599SOL    HW214618   3.014   5.099   0.444
 4600SOL     OW14619   3.177   5.198   1.142
 4600SOL    HW114620   3.224   5.208   1.229
 4600SOL    HW214621   3.120   5.116   1.144
 4601SOL     OW14622   3.465   4.366   0.490
 4601SOL    HW114623   3.411   4.406   0.564
 4601SOL    HW214624   3.527   4.436   0.453
 4602SOL     OW14625   2.204   5.261   1.295
 4602SOL    HW114626   2.195   5.203   1.214
 4602SOL    HW214627   2.300   5.285   1.309
 4603SOL     OW14628   2.322   4.461   1.630
 4603SOL    HW114629   2.374   4.508   1.558
 4603SOL    HW214630   2.373   4.381   1.661
 4604SOL     OW14631   3.487   4.518   1.691
 4604SOL    HW114632   3.394   4.555   1.684
 4604SOL    HW214633   3.543   4.554   1.616
 4605SOL     OW14634   2.857   3.850   1.737
 4605SOL    HW114635   2.914   3.932   1.731
 4605SOL    HW214636   2.912   3.770   1.714
 4606SOL     OW14637   2.368   3.767   1.748
 4606SOL    HW114638   2.312   3.707   1.691
 4606SOL    HW214639   2.318   3.851   1.766
 4607SOL     OW14640   2.449   4.597   1.039
 4607SOL    HW114641   2.490   4.688   1.042
 4607SOL    HW214642   2.391   4.584   1.119
 4608SOL     OW14643   3.155   4.572   1.001
 4608SOL    HW114644   3.062   4.544   0.979
 4608SOL    HW214645   3.218   4.496   0.986
 4609SOL     OW14646   3.040   4.260   0.268
 4609SOL    HW114647   3.059   4.179   0.323
 4609SOL    HW214648   3.001   4.332   0.327
 4610SOL     OW14649   2.154   3.912   1.236
 4610SOL    HW114650   2.123   3.943   1.326
 4610SOL    HW214651   2.135   3.814   1.226
 4611SOL     OW14652   1.924   5.024   1.260
 4611SOL    HW114653   1.953   4.964   1.335
 4611SOL    HW214654   1.917   5.118   1.294
 4612SOL     OW14655   2.578   4.348   1.043
 4612SOL    HW114656   2.654   4.331   0.981
 4612SOL    HW214657   2.544   4.441   1.029
 4613SOL     OW14658   3.611   4.694   1.866
 4613SOL    HW114659   3.571   4.621   1.811
 4613SOL    HW214660   3.549   4.719   1.940
 4614SOL     OW14661   2.180   3.788   0.636
 4614SOL    HW114662   2.142   3.878   0.655
 4614SOL    HW214663   2.193   3.739   0.721
 4615SOL     OW14664   3.519   4.135   0.359
 4615SOL    HW114665   3.545   4.063   0.423
 4615SOL    HW214666   3.495   4.218   0.409
 4616SOL     OW14667   2.890   4.480   0.957
 4616SOL    HW114668   2.865   4.501   1.052
 4616SOL    HW214669   2.859   4.387   0.935
 4617SOL     OW14670   2.844   5.288   1.757
 4617SOL    HW114671   2.810   5.345   1.681
 4617SOL    HW214672   2.886   5.205   1.721
 4618SOL     OW14673   3.702   5.218   1.602
 4618SOL    HW114674   3.724   5.244   1.508
 4618SOL    HW214675   3.784   5.228   1.659
 4619SOL     OW14676   2.220   4.642   1.809
 4619SOL    HW114677   2.294   4.673   1.870
 4619SOL    HW214678   2.255   4.573   1.746
 4620SOL     OW14679   3.372   4.037   0.151
 4620SOL    HW114680   3.325   3.951   0.172
 4620SOL    HW214681   3.425   4.066   0.230
 4621SOL     OW14682   3.130   4.512   0.037
 4621SOL    HW114683   3.177   4.424   0.033
 4621SOL    HW214684   3.155   4.567   6.957
 4622SOL     OW14685   2.924   5.074   0.868
 4622SOL    HW114686   2.940   4.994   0.811
 4622SOL    HW214687   2.980   5.150   0.835
 4623SOL     OW14688   2.187   4.545   0.926
 4623SOL    HW114689   2.285   4.564   0.937
 4623SOL    HW214690   2.167   4.453   0.958
 4624SOL     OW14691   2.161   4.267   0.999
 4624SOL    HW114692   2.119   4.176   0.995
 4624SOL    HW214693   2.244   4.268   0.944
 4625SOL     OW14694   2.998   4.084   1.683
 4625SOL    HW114695   2.947   4.143   1.745
 4625SOL    HW214696   3.089   4.123   1.667
 4626SOL     OW14697   3.026   3.911   1.470
 4626SOL    HW114698   3.009   3.970   1.548
 4626SOL    HW214699   3.071   3.963   1.398
 4627SOL     OW14700   1.961   5.481   0.955
 4627SOL    HW114701   1.921   5.403   0.907
 4627SOL    HW214702   2.051   5.502   0.917
 4628SOL     OW14703   2.349   5.286   0.903
 4628SOL    HW114704   2.422   5.348   0.931
 4628SOL    HW214705   2.384   5.222   0.835
 4629SOL     OW14706   2.795   4.520   1.209
 4629SOL    HW114707   2.855   4.499   1.286
 4629SOL    HW214708   2.711   4.467   1.217
 4630SOL     OW14709   1.911   4.327   1.128
 4630SOL    HW114710   1.992   4.316   1.071
 4630SOL    HW214711   1.935   4.309   1.223
 4631SOL     OW14712   2.068   4.280   1.756
 4631SOL    HW114713   2.150   4.238   1.717
 4631SOL    HW214714   2.034   4.351   1.694
 4632SOL     OW14715   3.254   4.655   1.633
 4632SOL    HW114716   3.276   4.752   1.631
 4632SOL    HW214717   3.245   4.621   1.539
 4633SOL     OW14718   2.686   4.304   0.368
 4633SOL    HW114719   2.701   4.221   0.314
 4633SOL    HW214720   2.602   4.349   0.338
 4634SOL     OW14721   3.503   4.327   1.160
 4634SOL    HW114722   3.487   4.262   1.234
 4634SOL    HW214723   3.599   4.325   1.133
 4635SOL     OW14724   2.092   5.262   1.718
 4635SOL    HW114725   2.074   5.331   1.789
 4635SOL    HW214726   2.098   5.172   1.761
 4636SOL     OW14727   2.599   4.147   1.228
 4636SOL    HW114728   2.533   4.072   1.220
 4636SOL    HW214729   2.579   4.217   1.160
 4637SOL     OW14730   2.730   5.427   1.532
 4637SOL    HW114731   2.698   5.361   1.465
 4637SOL    HW214732   2.755   5.512   1.486
 4638SOL     OW14733   2.287   4.222   0.163
 4638SOL    HW114734   2.359   4.284   0.195
 4638SOL    HW214735   2.198   4.265   0.175
 4639SOL     OW14736   1.997   4.864   1.480
 4639SOL    HW114737   1.999   4.829   1.573
 4639SOL    HW214738   2.020   4.791   1.416
 4640SOL     OW14739   3.145   4.759   1.202
 4640SOL    HW114740   3.153   4.690   1.129
 4640SOL    HW214741   3.096   4.839   1.166
 4641SOL     OW14742   3.131   4.592   0.299
 4641SOL    HW114743   3.066   4.544   0.359
 4641SOL    HW214744   3.130   4.551   0.209
 4642SOL     OW14745   3.638   5.440   1.166
 4642SOL    HW114746   3.706   5.466   1.098
 4642SOL    HW214747   3.600   5.351   1.144
 4643SOL     OW14748   3.115   5.467   1.095
 4643SOL    HW114749   3.203   5.503   1.062
 4643SOL    HW214750   3.123   5.370   1.114
 4644SOL     OW14751   1.958   4.982   0.994
 4644SOL    HW114752   1.939   4.997   1.092
 4644SOL    HW214753   1.894   4.914   0.958
 4645SOL     OW14754   2.551   5.429   1.743
 4645SOL    HW114755   2.481   5.501   1.737
 4645SOL    HW214756   2.619   5.443   1.671
 4646SOL     OW14757   2.814   3.825   0.123
 4646SOL    HW114758   2.890   3.867   0.073
 4646SOL    HW214759   2.848   3.747   0.176
 4647SOL     OW14760   3.601   3.920   0.517
 4647SOL    HW114761   3.660   3.888   0.442
 4647SOL    HW214762   3.548   3.844   0.553
 4648SOL     OW14763   3.259   5.304   0.511
 4648SOL    HW114764   3.318   5.341   0.440
 4648SOL    HW214765   3.204   5.378   0.550
 4649SOL     OW14766   2.008   5.511   1.845
 4649SOL    HW114767   1.954   5.438   1.888
 4649SOL    HW214768   2.060   5.559   1.915
 4650SOL     OW14769   3.153   4.662   0.667
 4650SOL    HW114770   3.227   4.597   0.684
 4650SOL    HW214771   3.188   4.742   0.618
 4651SOL     OW14772   2.634   5.012   1.419
 4651SOL    HW114773   2.608   5.063   1.500
 4651SOL    HW214774   2.560   5.017   1.351
 4652SOL     OW14775   2.573   5.339   0.174
 4652SOL    HW114776   2.558   5.408   0.102
 4652SOL    HW214777   2.498   5.272   0.172
 4653SOL     OW14778   3.472   5.456   1.401
 4653SOL    HW114779   3.530   5.449   1.320
 4653SOL    HW214780   3.456   5.552   1.422
 4654SOL     OW14781   3.708   3.876   0.957
 4654SOL    HW114782   3.739   3.783   0.936
 4654SOL    HW214783   3.617   3.890   0.919
 4655SOL     OW14784   2.092   4.035   0.710
 4655SOL    HW114785   2.005   4.078   0.684
 4655SOL    HW214786   2.100   4.034   0.810
 4656SOL     OW14787   3.079   5.312   0.062
 4656SOL    HW114788   3.076   5.215   0.084
 4656SOL    HW214789   3.000   5.336   0.006
 4657SOL     OW14790   2.684   4.743   1.391
 4657SOL    HW114791   2.726   4.727   1.302
 4657SOL    HW214792   2.669   4.841   1.403
 4658SOL     OW14793   2.790   4.643   0.279
 4658SOL    HW114794   2.836   4.661   0.192
 4658SOL    HW214795   2.844   4.580   0.333
 4659SOL     OW14796   3.340   5.401   0.071
 4659SOL    HW114797   3.245   5.368   0.067
 4659SOL    HW214798   3.366   5.436   6.981
 4660SOL     OW14799   2.223   5.039   1.494
 4660SOL    HW114800   2.217   5.115   1.430
 4660SOL    HW214801   2.144   4.978   1.482
 4661SOL     OW14802   3.456   5.014   1.292
 4661SOL    HW114803   3.517   4.987   1.367
 4661SOL    HW214804   3.391   5.083   1.325
 4662SOL     OW14805   2.948   4.836   0.744
 4662SOL    HW114806   2.867   4.788   0.777
 4662SOL    HW214807   3.015   4.770   0.711
 4663SOL     OW14808   2.897   3.967   0.946
 4663SOL    HW114809   2.893   3.930   0.853
 4663SOL    HW214810   2.894   3.892   1.012
 4664SOL     OW14811   2.495   5.211   0.485
 4664SOL    HW114812   2.531   5.154   0.411
 4664SOL    HW214813   2.430   5.277   0.447
 4665SOL     OW14814   3.617   4.099   1.389
 4665SOL    HW114815   3.689   4.168   1.387
 4665SOL    HW214816   3.640   4.025   1.325
 4666SOL     OW14817   2.164   5.077   0.323
 4666SOL    HW114818   2.086   5.111   0.270
 4666SOL    HW214819   2.156   5.107   0.418
 4667SOL     OW14820   1.986   4.768   1.737
 4667SOL    HW114821   1.904   4.742   1.788
 4667SOL    HW214822   2.064   4.714   1.770
 4668SOL     OW14823   2.554   3.910   1.488
 4668SOL    HW114824   2.641   3.881   1.446
 4668SOL    HW214825   2.572   3.944   1.580
 4669SOL     OW14826   1.960   4.040   6.991
 4669SOL    HW114827   1.895   3.979   6.945
 4669SOL    HW214828   1.912   4.123   0.019
 4670SOL     OW14829   3.266   4.577   1.372
 4670SOL    HW114830   3.208   4.637   1.318
 4670SOL    HW214831   3.360   4.579   1.337
 4671SOL     OW14832   1.907   3.866   0.266
 4671SOL    HW114833   1.919   3.962   0.241
 4671SOL    HW214834   1.959   3.808   0.203
 4672SOL     OW14835   3.049   5.046   0.132
 4672SOL    HW114836   2.951   5.062   0.116
 4672SOL    HW214837   3.066   5.042   0.231
 4673SOL     OW14838   2.500   4.548   1.436
 4673SOL    HW114839   2.558   4.629   1.426
 4673SOL    HW214840   2.558   4.466   1.437
 4674SOL     OW14841   3.367   5.550   1.020
 4674SOL    HW114842   3.397   5.619   0.954
 4674SOL    HW214843   3.447   5.501   1.055
 4675SOL     OW14844   2.563   4.282   1.688
 4675SOL    HW114845   2.616   4.340   1.749
 4675SOL    HW214846   2.580   4.186   1.709
 4676SOL     OW14847   3.332   4.917   1.618
 4676SOL    HW114848   3.320   4.935   1.716
 4676SOL    HW214849   3.426   4.938   1.592
 4677SOL     OW14850   2.213   5.478   1.577
 4677SOL    HW114851   2.128   5.529   1.563
 4677SOL    HW214852   2.191   5.387   1.612
 4678SOL     OW14853   3.513   4.596   1.250
 4678SOL    HW114854   3.514   4.508   1.204
 4678SOL    HW214855   3.500   4.669   1.183
 4679SOL     OW14856   3.100   4.056   0.448
 4679SOL    HW114857   3.175   3.994   0.423
 4679SOL    HW214858   3.124   4.107   0.530
 4680SOL     OW14859   2.439   4.445   0.665
 4680SOL    HW114860   2.484   4.534   0.658
 4680SOL    HW214861   2.373   4.435   0.591
 4681SOL     OW14862   3.592   4.071   1.662
 4681SOL    HW114863   3.598   4.084   1.563
 4681SOL    HW214864   3.516   4.009   1.683
 4682SOL     OW14865   3.621   4.651   1.495
 4682SOL    HW114866   3.605   4.748   1.516
 4682SOL    HW214867   3.588   4.632   1.403
 4683SOL     OW14868   2.791   5.119   0.100
 4683SOL    HW114869   2.724   5.093   0.170
 4683SOL    HW214870   2.771   5.211   0.067
 4684SOL     OW14871   2.538   5.475   0.943
 4684SOL    HW114872   2.511   5.571   0.932
 4684SOL    HW214873   2.637   5.467   0.931
 4685SOL     OW14874   2.737   4.702   0.866
 4685SOL    HW114875   2.788   4.622   0.899
 4685SOL    HW214876   2.686   4.742   0.942
 4686SOL     OW14877   2.923   4.690   0.040
 4686SOL    HW114878   2.960   4.782   0.031
 4686SOL    HW214879   2.998   4.624   0.043
 4687SOL     OW14880   3.704   5.272   0.840
 4687SOL    HW114881   3.620   5.268   0.786
 4687SOL    HW214882   3.717   5.185   0.887
 4688SOL     OW14883   2.069   5.009   1.837
 4688SOL    HW114884   2.043   4.925   1.790
 4688SOL    HW214885   2.006   5.025   1.914
 4689SOL     OW14886   1.964   4.928   0.649
 4689SOL    HW114887   2.024   4.888   0.718
 4689SOL    HW214888   1.965   4.872   0.567
 4690SOL     OW14889   2.545   5.164   1.632
 4690SOL    HW114890   2.467   5.117   1.673
 4690SOL    HW214891   2.555   5.254   1.673
 4691SOL     OW14892   3.673   3.890   1.229
 4691SOL    HW114893   3.687   3.795   1.256
 4691SOL    HW214894   3.686   3.899   1.130
 4692SOL     OW14895   2.270   4.133   0.512
 4692SOL    HW114896   2.305   4.061   0.452
 4692SOL    HW214897   2.216   4.092   0.585
 4693SOL     OW14898   3.532   5.202   1.100
 4693SOL    HW114899   3.466   5.185   1.027
 4693SOL    HW214900   3.525   5.130   1.169
 4694SOL     OW14901   2.220   4.275   1.281
 4694SOL    HW114902   2.271   4.208   1.335
 4694SOL    HW214903   2.222   4.248   1.185
 4695SOL     OW14904   2.699   5.290   0.687
 4695SOL    HW114905   2.673   5.338   0.604
 4695SOL    HW214906   2.628   5.225   0.713
 4696SOL     OW14907   3.286   3.958   1.113
 4696SOL    HW114908   3.297   3.861   1.136
 4696SOL    HW214909   3.235   4.004   1.185
 4697SOL     OW14910   2.882   3.742   1.108
 4697SOL    HW114911   2.825   3.680   1.054
 4697SOL    HW214912   2.973   3.703   1.117
 4698SOL     OW14913   2.644   5.037   0.322
 4698SOL    HW114914   2.614   4.944   0.341
 4698SOL    HW214915   2.722   5.059   0.381
 4699SOL     OW14916   2.476   5.312   1.289
 4699SOL    HW114917   2.466   5.404   1.327
 4699SOL    HW214918   2.566   5.302   1.247
 4700SOL     OW14919   3.218   3.792   0.196
 4700SOL    HW114920   3.281   3.720   0.168
 4700SOL    HW214921   3.133   3.752   0.231
 4701SOL     OW14922   3.156   4.199   0.673
 4701SOL    HW114923   3.106   4.285   0.670
 4701SOL    HW214924   3.155   4.164   0.767
 4702SOL     OW14925   3.448   3.926   0.892
 4702SOL    HW114926   3.394   3.949   0.973
 4702SOL    HW214927   3.451   4.004   0.830
 4703SOL     OW14928   1.956   4.760   0.430
 4703SOL    HW114929   2.028   4.745   0.363
 4703SOL    HW214930   1.885   4.689   0.419
 4704SOL     OW14931   2.758   5.397   0.369
 4704SOL    HW114932   2.687   5.374   0.302
 4704SOL    HW214933   2.729   5.477   0.422
 4705SOL     OW14934   2.068   4.374   2.017
 4705SOL    HW114935   1.977   4.347   2.048
 4705SOL    HW214936   2.077   4.356   1.919
 4706SOL     OW14937   2.043   4.005   2.971
 4706SOL    HW114938   2.091   3.937   3.028
 4706SOL    HW214939   1.976   3.959   2.913
 4707SOL     OW14940   2.437   5.069   3.084
 4707SOL    HW114941   2.358   5.059   3.024
 4707SOL    HW214942   2.456   5.166   3.099
 4708SOL     OW14943   3.441   5.247   2.565
 4708SOL    HW114944   3.389   5.225   2.648
 4708SOL    HW214945   3.378   5.262   2.489
 4709SOL     OW14946   2.944   4.526   2.491
 4709SOL    HW114947   3.019   4.591   2.501
 4709SOL    HW214948   2.878   4.540   2.566
 4710SOL     OW14949   3.674   4.304   2.061
 4710SOL    HW114950   3.632   4.306   1.970
 4710SOL    HW214951   3.629   4.236   2.118
 4711SOL     OW14952   2.610   4.863   2.883
 4711SOL    HW114953   2.657   4.852   2.971
 4711SOL    HW214954   2.610   4.959   2.857
 4712SOL     OW14955   2.553   4.766   2.468
 4712SOL    HW114956   2.620   4.753   2.542
 4712SOL    HW214957   2.477   4.822   2.502
 4713SOL     OW14958   2.588   4.911   3.697
 4713SOL    HW114959   2.645   4.986   3.731
 4713SOL    HW214960   2.509   4.949   3.649
 4714SOL     OW14961   2.200   5.128   2.930
 4714SOL    HW114962   2.117   5.088   2.892
 4714SOL    HW214963   2.245   5.184   2.860
 4715SOL     OW14964   3.299   5.251   3.229
 4715SOL    HW114965   3.363   5.327   3.241
 4715SOL    HW214966   3.222   5.262   3.292
 4716SOL     OW14967   2.310   4.043   3.462
 4716SOL    HW114968   2.395   4.005   3.426
 4716SOL    HW214969   2.232   4.002   3.415
 4717SOL     OW14970   2.088   5.461   2.327
 4717SOL    HW114971   2.112   5.535   2.391
 4717SOL    HW214972   2.163   5.447   2.262
 4718SOL     OW14973   3.008   5.088   3.551
 4718SOL    HW114974   3.091   5.042   3.581
 4718SOL    HW214975   2.936   5.020   3.537
 4719SOL     OW14976   2.106   5.193   2.391
 4719SOL    HW114977   2.085   5.291   2.392
 4719SOL    HW214978   2.054   5.147   2.462
 4720SOL     OW14979   2.133   4.854   2.735
 4720SOL    HW114980   2.208   4.822   2.794
 4720SOL    HW214981   2.064   4.898   2.791
 4721SOL     OW14982   2.420   5.574   3.263
 4721SOL    HW114983   2.344   5.541   3.319
 4721SOL    HW214984   2.468   5.647   3.311
 4722SOL     OW14985   2.423   4.728   1.996
 4722SOL    HW114986   2.471   4.768   1.919
 4722SOL    HW214987   2.464   4.759   2.081
 4723SOL     OW14988   3.399   3.881   3.316
 4723SOL    HW114989   3.456   3.962   3.302
 4723SOL    HW214990   3.372   3.875   3.412
 4724SOL     OW14991   2.013   4.440   2.402
 4724SOL    HW114992   2.004   4.353   2.451
 4724SOL    HW214993   2.008   4.516   2.467
 4725SOL     OW14994   3.717   5.474   2.183
 4725SOL    HW114995   3.795   5.459   2.245
 4725SOL    HW214996   3.719   5.568   2.149
 4726SOL     OW14997   1.905   5.301   1.978
 4726SOL    HW114998   1.883   5.205   1.995
 4726SOL    HW214999   1.882   5.355   2.058
 4727SOL     OW15000   3.577   4.668   2.504
 4727SOL    HW115001   3.674   4.644   2.506
 4727SOL    HW215002   3.557   4.718   2.420
 4728SOL     OW15003   3.528   4.848   2.290
 4728SOL    HW115004   3.617   4.841   2.245
 4728SOL    HW215005   3.535   4.910   2.369
 4729SOL     OW15006   2.472   5.141   2.569
 4729SOL    HW115007   2.428   5.051   2.573
 4729SOL    HW215008   2.463   5.178   2.476
 4730SOL     OW15009   3.123   4.969   3.273
 4730SOL    HW115010   3.160   4.923   3.192
 4730SOL    HW215011   3.189   4.964   3.348
 4731SOL     OW15012   2.102   4.850   3.097
 4731SOL    HW115013   2.195   4.861   3.060
 4731SOL    HW215014   2.056   4.775   3.049
 4732SOL     OW15015   3.404   4.746   2.063
 4732SOL    HW115016   3.331   4.683   2.089
 4732SOL    HW215017   3.450   4.780   2.145
 4733SOL     OW15018   3.056   5.551   3.495
 4733SOL    HW115019   3.048   5.622   3.425
 4733SOL    HW215020   3.064   5.462   3.452
 4734SOL     OW15021   2.210   3.956   3.705
 4734SOL    HW115022   2.249   4.003   3.626
 4734SOL    HW215023   2.113   3.979   3.714
 4735SOL     OW15024   3.302   5.163   2.789
 4735SOL    HW115025   3.242   5.172   2.869
 4735SOL    HW215026   3.301   5.068   2.757
 4736SOL     OW15027   3.489   5.556   2.409
 4736SOL    HW115028   3.481   5.498   2.328
 4736SOL    HW215029   3.492   5.499   2.491
 4737SOL     OW15030   2.461   4.471   2.116
 4737SOL    HW115031   2.458   4.557   2.065
 4737SOL    HW215032   2.401   4.477   2.196
 4738SOL     OW15033   3.453   5.400   2.181
 4738SOL    HW115034   3.551   5.415   2.175
 4738SOL    HW215035   3.415   5.388   2.089
 4739SOL     OW15036   2.678   4.157   3.303
 4739SOL    HW115037   2.664   4.171   3.401
 4739SOL    HW215038   2.592   4.127   3.261
 4740SOL     OW15039   3.264   4.168   3.522
 4740SOL    HW115040   3.247   4.168   3.621
 4740SOL    HW215041   3.361   4.151   3.505
 4741SOL     OW15042   2.886   4.097   3.139
 4741SOL    HW115043   2.818   4.126   3.206
 4741SOL    HW215044   2.845   4.033   3.075
 4742SOL     OW15045   2.913   4.433   2.237
 4742SOL    HW115046   2.923   4.462   2.333
 4742SOL    HW215047   2.827   4.383   2.226
 4743SOL     OW15048   1.985   4.645   2.579
 4743SOL    HW115049   2.072   4.694   2.581
 4743SOL    HW215050   1.935   4.662   2.665
 4744SOL     OW15051   1.967   5.615   3.465
 4744SOL    HW115052   1.979   5.581   3.558
 4744SOL    HW215053   1.876   5.588   3.431
 4745SOL     OW15054   2.690   4.104   1.987
 4745SOL    HW115055   2.760   4.155   1.937
 4745SOL    HW215056   2.733   4.047   2.057
 4746SOL     OW15057   3.247   4.891   2.358
 4746SOL    HW115058   3.336   4.882   2.314
 4746SOL    HW215059   3.195   4.964   2.314
 4747SOL     OW15060   2.854   5.197   2.324
 4747SOL    HW115061   2.830   5.272   2.263
 4747SOL    HW215062   2.824   5.218   2.417
 4748SOL     OW15063   2.220   5.537   2.742
 4748SOL    HW115064   2.262   5.447   2.747
 4748SOL    HW215065   2.287   5.607   2.768
 4749SOL     OW15066   3.652   4.777   2.756
 4749SOL    HW115067   3.602   4.760   2.671
 4749SOL    HW215068   3.588   4.802   2.828
 4750SOL     OW15069   3.068   5.293   3.377
 4750SOL    HW115070   3.065   5.224   3.450
 4750SOL    HW215071   3.005   5.267   3.304
 4751SOL     OW15072   2.155   4.665   2.122
 4751SOL    HW115073   2.234   4.695   2.070
 4751SOL    HW215074   2.126   4.574   2.089
 4752SOL     OW15075   3.349   4.531   2.545
 4752SOL    HW115076   3.360   4.465   2.619
 4752SOL    HW215077   3.434   4.583   2.533
 4753SOL     OW15078   2.354   5.012   3.581
 4753SOL    HW115079   2.316   5.019   3.489
 4753SOL    HW215080   2.281   5.019   3.649
 4754SOL     OW15081   3.006   5.495   2.090
 4754SOL    HW115082   2.915   5.473   2.126
 4754SOL    HW215083   3.031   5.427   2.021
 4755SOL     OW15084   2.072   3.937   3.377
 4755SOL    HW115085   2.015   4.019   3.368
 4755SOL    HW215086   2.015   3.860   3.407
 4756SOL     OW15087   3.495   5.116   1.960
 4756SOL    HW115088   3.460   5.209   1.945
 4756SOL    HW215089   3.426   5.049   1.932
 4757SOL     OW15090   2.328   5.465   2.174
 4757SOL    HW115091   2.373   5.520   2.244
 4757SOL    HW215092   2.396   5.429   2.111
 4758SOL     OW15093   3.275   3.844   2.138
 4758SOL    HW115094   3.231   3.820   2.052
 4758SOL    HW215095   3.327   3.766   2.172
 4759SOL     OW15096   2.095   5.519   3.063
 4759SOL    HW115097   2.150   5.441   3.094
 4759SOL    HW215098   2.065   5.503   2.969
 4760SOL     OW15099   2.812   5.427   2.751
 4760SOL    HW115100   2.901   5.387   2.773
 4760SOL    HW215101   2.771   5.377   2.675
 4761SOL     OW15102   2.277   4.412   2.320
 4761SOL    HW115103   2.283   4.329   2.264
 4761SOL    HW215104   2.182   4.432   2.341
 4762SOL     OW15105   3.358   3.868   3.590
 4762SOL    HW115106   3.366   3.896   3.686
 4762SOL    HW215107   3.284   3.801   3.582
 4763SOL     OW15108   2.521   3.809   1.979
 4763SOL    HW115109   2.618   3.821   1.960
 4763SOL    HW215110   2.471   3.797   1.893
 4764SOL     OW15111   2.647   3.909   3.649
 4764SOL    HW115112   2.736   3.870   3.629
 4764SOL    HW215113   2.596   3.848   3.710
 4765SOL     OW15114   2.723   5.271   3.042
 4765SOL    HW115115   2.699   5.219   2.960
 4765SOL    HW215116   2.796   5.223   3.092
 4766SOL     OW15117   2.647   5.124   2.803
 4766SOL    HW115118   2.741   5.120   2.768
 4766SOL    HW215119   2.584   5.140   2.726
 4767SOL     OW15120   3.296   4.937   1.893
 4767SOL    HW115121   3.331   4.861   1.948
 4767SOL    HW215122   3.207   4.965   1.930
 4768SOL     OW15123   2.128   3.770   2.077
 4768SOL    HW115124   2.178   3.857   2.083
 4768SOL    HW215125   2.191   3.694   2.092
 4769SOL     OW15126   2.825   3.985   2.185
 4769SOL    HW115127   2.789   4.009   2.276
 4769SOL    HW215128   2.925   3.989   2.187
 4770SOL     OW15129   3.072   5.306   2.665
 4770SOL    HW115130   3.089   5.378   2.598
 4770SOL    HW215131   3.158   5.282   2.710
 4771SOL     OW15132   2.331   4.906   2.547
 4771SOL    HW115133   2.269   4.888   2.624
 4771SOL    HW215134   2.281   4.894   2.461
 4772SOL     OW15135   3.108   5.519   2.483
 4772SOL    HW115136   3.158   5.583   2.425
 4772SOL    HW215137   3.028   5.565   2.523
 4773SOL     OW15138   2.885   4.250   1.867
 4773SOL    HW115139   2.837   4.337   1.851
 4773SOL    HW215140   2.955   4.263   1.937
 4774SOL     OW15141   1.956   4.188   3.290
 4774SOL    HW115142   2.045   4.178   3.245
 4774SOL    HW215143   1.966   4.243   3.373
 4775SOL     OW15144   2.435   3.807   3.054
 4775SOL    HW115145   2.459   3.748   3.131
 4775SOL    HW215146   2.340   3.835   3.063
 4776SOL     OW15147   3.327   4.909   2.685
 4776SOL    HW115148   3.257   4.853   2.640
 4776SOL    HW215149   3.402   4.925   2.621
 4777SOL     OW15150   3.676   4.520   2.227
 4777SOL    HW115151   3.749   4.497   2.292
 4777SOL    HW215152   3.674   4.452   2.154
 4778SOL     OW15153   2.358   5.156   2.007
 4778SOL    HW115154   2.279   5.124   2.060
 4778SOL    HW215155   2.360   5.109   1.918
 4779SOL     OW15156   3.551   4.992   2.520
 4779SOL    HW115157   3.651   4.983   2.528
 4779SOL    HW215158   3.526   5.088   2.531
 4780SOL     OW15159   3.261   4.316   1.894
 4780SOL    HW115160   3.203   4.289   1.971
 4780SOL    HW215161   3.356   4.297   1.915
 4781SOL     OW15162   2.311   3.975   2.076
 4781SOL    HW115163   2.403   3.938   2.064
 4781SOL    HW215164   2.317   4.073   2.094
 4782SOL     OW15165   3.601   4.988   3.413
 4782SOL    HW115166   3.677   4.943   3.366
 4782SOL    HW215167   3.627   5.082   3.436
 4783SOL     OW15168   2.899   5.132   3.222
 4783SOL    HW115169   2.813   5.094   3.255
 4783SOL    HW215170   2.973   5.068   3.243
 4784SOL     OW15171   3.488   5.378   3.536
 4784SOL    HW115172   3.467   5.409   3.443
 4784SOL    HW215173   3.568   5.319   3.534
 4785SOL     OW15174   2.965   4.968   2.956
 4785SOL    HW115175   2.886   4.937   3.008
 4785SOL    HW215176   2.935   5.013   2.872
 4786SOL     OW15177   3.480   4.875   2.936
 4786SOL    HW115178   3.466   4.917   3.026
 4786SOL    HW215179   3.397   4.885   2.881
 4787SOL     OW15180   2.782   3.819   3.273
 4787SOL    HW115181   2.800   3.773   3.186
 4787SOL    HW215182   2.865   3.865   3.305
 4788SOL     OW15183   2.816   4.897   3.529
 4788SOL    HW115184   2.731   4.903   3.582
 4788SOL    HW215185   2.831   4.803   3.501
 4789SOL     OW15186   2.590   4.798   2.202
 4789SOL    HW115187   2.580   4.782   2.300
 4789SOL    HW215188   2.659   4.735   2.166
 4790SOL     OW15189   3.154   4.077   3.131
 4790SOL    HW115190   3.195   4.148   3.188
 4790SOL    HW215191   3.055   4.091   3.127
 4791SOL     OW15192   1.942   5.315   3.223
 4791SOL    HW115193   1.914   5.394   3.170
 4791SOL    HW215194   2.041   5.305   3.220
 4792SOL     OW15195   2.170   4.859   2.326
 4792SOL    HW115196   2.171   4.937   2.264
 4792SOL    HW215197   2.168   4.774   2.274
 4793SOL     OW15198   3.105   5.107   2.253
 4793SOL    HW115199   3.168   5.175   2.290
 4793SOL    HW215200   3.012   5.128   2.283
 4794SOL     OW15201   3.144   5.194   3.007
 4794SOL    HW115202   3.197   5.203   3.091
 4794SOL    HW215203   3.076   5.121   3.018
 4795SOL     OW15204   3.457   4.375   2.335
 4795SOL    HW115205   3.394   4.428   2.393
 4795SOL    HW215206   3.524   4.437   2.295
 4796SOL     OW15207   2.209   5.277   3.155
 4796SOL    HW115208   2.199   5.216   3.077
 4796SOL    HW215209   2.305   5.303   3.165
 4797SOL     OW15210   2.893   3.820   3.591
 4797SOL    HW115211   2.938   3.905   3.563
 4797SOL    HW215212   2.958   3.744   3.583
 4798SOL     OW15213   2.326   3.731   3.610
 4798SOL    HW115214   2.269   3.684   3.543
 4798SOL    HW215215   2.278   3.811   3.644
 4799SOL     OW15216   2.344   4.782   2.886
 4799SOL    HW115217   2.436   4.822   2.890
 4799SOL    HW215218   2.350   4.683   2.891
 4800SOL     OW15219   3.062   4.266   2.078
 4800SOL    HW115220   3.074   4.179   2.125
 4800SOL    HW215221   3.015   4.330   2.138
 4801SOL     OW15222   2.180   3.849   3.142
 4801SOL    HW115223   2.149   3.888   3.228
 4801SOL    HW215224   2.143   3.756   3.132
 4802SOL     OW15225   1.879   5.070   3.120
 4802SOL    HW115226   1.916   5.000   3.181
 4802SOL    HW215227   1.897   5.160   3.159
 4803SOL     OW15228   3.506   4.143   2.204
 4803SOL    HW115229   3.508   4.064   2.264
 4803SOL    HW215230   3.478   4.224   2.255
 4804SOL     OW15231   2.848   5.301   3.623
 4804SOL    HW115232   2.811   5.355   3.547
 4804SOL    HW215233   2.895   5.220   3.586
 4805SOL     OW15234   3.717   5.231   3.465
 4805SOL    HW115235   3.737   5.268   3.374
 4805SOL    HW215236   3.799   5.238   3.522
 4806SOL     OW15237   3.416   4.016   1.972
 4806SOL    HW115238   3.366   3.949   2.026
 4806SOL    HW215239   3.466   4.078   2.032
 4807SOL     OW15240   3.142   4.560   1.861
 4807SOL    HW115241   3.178   4.468   1.870
 4807SOL    HW215242   3.175   4.602   1.777
 4808SOL     OW15243   2.901   5.099   2.721
 4808SOL    HW115244   2.916   5.015   2.667
 4808SOL    HW215245   2.965   5.169   2.690
 4809SOL     OW15246   3.018   4.053   3.504
 4809SOL    HW115247   2.966   4.096   3.578
 4809SOL    HW215248   3.108   4.096   3.497
 4810SOL     OW15249   3.058   3.875   3.308
 4810SOL    HW115250   3.042   3.944   3.379
 4810SOL    HW215251   3.103   3.919   3.230
 4811SOL     OW15252   1.878   5.020   2.041
 4811SOL    HW115253   1.786   5.047   2.012
 4811SOL    HW215254   1.876   4.928   2.080
 4812SOL     OW15255   1.961   5.494   2.814
 4812SOL    HW115256   1.917   5.420   2.763
 4812SOL    HW215257   2.052   5.511   2.775
 4813SOL     OW15258   2.345   5.292   2.761
 4813SOL    HW115259   2.418   5.352   2.793
 4813SOL    HW215260   2.378   5.236   2.685
 4814SOL     OW15261   1.842   4.187   3.035
 4814SOL    HW115262   1.905   4.124   2.990
 4814SOL    HW215263   1.875   4.207   3.127
 4815SOL     OW15264   2.096   4.200   3.549
 4815SOL    HW115265   2.180   4.163   3.509
 4815SOL    HW215266   2.113   4.293   3.583
 4816SOL     OW15267   2.678   4.310   2.177
 4816SOL    HW115268   2.671   4.233   2.113
 4816SOL    HW215269   2.603   4.374   2.160
 4817SOL     OW15270   2.101   5.277   3.573
 4817SOL    HW115271   2.076   5.351   3.636
 4817SOL    HW215272   2.117   5.193   3.625
 4818SOL     OW15273   2.470   4.077   3.129
 4818SOL    HW115274   2.470   3.979   3.107
 4818SOL    HW215275   2.525   4.126   3.061
 4819SOL     OW15276   2.727   5.438   3.403
 4819SOL    HW115277   2.705   5.365   3.338
 4819SOL    HW215278   2.751   5.521   3.353
 4820SOL     OW15279   2.300   4.246   2.093
 4820SOL    HW115280   2.373   4.312   2.075
 4820SOL    HW215281   2.213   4.284   2.062
 4821SOL     OW15282   1.977   4.911   3.335
 4821SOL    HW115283   1.989   4.864   3.422
 4821SOL    HW215284   2.030   4.865   3.264
 4822SOL     OW15285   3.194   4.851   3.034
 4822SOL    HW115286   3.208   4.760   2.996
 4822SOL    HW215287   3.110   4.890   2.997
 4823SOL     OW15288   3.189   4.588   2.132
 4823SOL    HW115289   3.115   4.553   2.188
 4823SOL    HW215290   3.166   4.578   2.035
 4824SOL     OW15291   3.627   5.451   3.020
 4824SOL    HW115292   3.699   5.476   2.954
 4824SOL    HW215293   3.595   5.358   3.001
 4825SOL     OW15294   3.109   5.468   2.958
 4825SOL    HW115295   3.200   5.497   2.928
 4825SOL    HW215296   3.111   5.370   2.978
 4826SOL     OW15297   1.946   4.998   2.865
 4826SOL    HW115298   1.929   5.017   2.961
 4826SOL    HW215299   1.859   4.981   2.818
 4827SOL     OW15300   2.548   5.433   3.615
 4827SOL    HW115301   2.477   5.503   3.609
 4827SOL    HW215302   2.616   5.447   3.544
 4828SOL     OW15303   3.263   5.309   2.363
 4828SOL    HW115304   3.323   5.343   2.290
 4828SOL    HW215305   3.201   5.381   2.392
 4829SOL     OW15306   2.008   5.502   3.710
 4829SOL    HW115307   1.952   5.430   3.752
 4829SOL    HW215308   2.058   5.551   3.781
 4830SOL     OW15309   3.148   4.712   2.530
 4830SOL    HW115310   3.217   4.640   2.537
 4830SOL    HW215311   3.175   4.776   2.459
 4831SOL     OW15312   2.638   5.042   3.273
 4831SOL    HW115313   2.614   5.084   3.360
 4831SOL    HW215314   2.558   5.044   3.212
 4832SOL     OW15315   2.532   5.366   2.010
 4832SOL    HW115316   2.552   5.386   1.914
 4832SOL    HW215317   2.479   5.281   2.016
 4833SOL     OW15318   3.477   5.461   3.262
 4833SOL    HW115319   3.531   5.455   3.178
 4833SOL    HW215320   3.460   5.557   3.284
 4834SOL     OW15321   3.662   3.877   2.925
 4834SOL    HW115322   3.693   3.798   2.872
 4834SOL    HW215323   3.565   3.894   2.906
 4835SOL     OW15324   3.082   5.308   1.905
 4835SOL    HW115325   3.075   5.214   1.939
 4835SOL    HW215326   3.006   5.327   1.842
 4836SOL     OW15327   2.759   4.861   3.112
 4836SOL    HW115328   2.800   4.788   3.167
 4836SOL    HW215329   2.713   4.926   3.172
 4837SOL     OW15330   2.776   4.629   2.087
 4837SOL    HW115331   2.843   4.684   2.037
 4837SOL    HW215332   2.824   4.561   2.142
 4838SOL     OW15333   3.351   5.377   1.921
 4838SOL    HW115334   3.255   5.352   1.907
 4838SOL    HW215335   3.397   5.383   1.832
 4839SOL     OW15336   2.219   5.058   3.350
 4839SOL    HW115337   2.227   5.135   3.286
 4839SOL    HW215338   2.128   5.019   3.345
 4840SOL     OW15339   3.458   5.033   3.166
 4840SOL    HW115340   3.501   5.001   3.250
 4840SOL    HW215341   3.390   5.103   3.188
 4841SOL     OW15342   2.924   4.854   2.610
 4841SOL    HW115343   2.850   4.791   2.633
 4841SOL    HW215344   3.004   4.802   2.580
 4842SOL     OW15345   2.800   3.913   2.955
 4842SOL    HW115346   2.845   3.924   2.866
 4842SOL    HW215347   2.818   3.821   2.991
 4843SOL     OW15348   2.466   5.231   2.317
 4843SOL    HW115349   2.524   5.175   2.258
 4843SOL    HW215350   2.387   5.263   2.265
 4844SOL     OW15351   3.581   4.082   3.289
 4844SOL    HW115352   3.638   4.164   3.290
 4844SOL    HW215353   3.632   4.006   3.247
 4845SOL     OW15354   2.135   5.074   2.154
 4845SOL    HW115355   2.044   5.064   2.114
 4845SOL    HW215356   2.129   5.126   2.239
 4846SOL     OW15357   1.938   4.850   3.632
 4846SOL    HW115358   1.843   4.834   3.659
 4846SOL    HW215359   1.994   4.775   3.667
 4847SOL     OW15360   2.543   3.887   3.395
 4847SOL    HW115361   2.625   3.881   3.338
 4847SOL    HW215362   2.571   3.898   3.491
 4848SOL     OW15363   1.939   4.051   1.846
 4848SOL    HW115364   1.859   4.042   1.787
 4848SOL    HW215365   1.980   4.142   1.833
 4849SOL     OW15366   1.888   3.927   2.098
 4849SOL    HW115367   1.896   3.974   2.011
 4849SOL    HW215368   1.963   3.861   2.108
 4850SOL     OW15369   3.054   5.044   1.988
 4850SOL    HW115370   2.976   4.983   1.983
 4850SOL    HW215371   3.076   5.063   2.084
 4851SOL     OW15372   3.366   5.547   2.890
 4851SOL    HW115373   3.392   5.614   2.820
 4851SOL    HW215374   3.449   5.507   2.930
 4852SOL     OW15375   2.614   4.170   3.569
 4852SOL    HW115376   2.526   4.203   3.604
 4852SOL    HW215377   2.632   4.078   3.603
 4853SOL     OW15378   3.319   4.952   3.476
 4853SOL    HW115379   3.304   4.947   3.575
 4853SOL    HW215380   3.417   4.959   3.457
 4854SOL     OW15381   2.215   5.491   3.432
 4854SOL    HW115382   2.128   5.540   3.422
 4854SOL    HW215383   2.197   5.398   3.466
 4855SOL     OW15384   3.099   4.036   2.222
 4855SOL    HW115385   3.159   3.964   2.188
 4855SOL    HW215386   3.129   4.066   2.312
 4856SOL     OW15387   2.423   4.529   2.527
 4856SOL    HW115388   2.467   4.610   2.487
 4856SOL    HW215389   2.374   4.480   2.455
 4857SOL     OW15390   3.581   4.046   3.562
 4857SOL    HW115391   3.590   4.060   3.464
 4857SOL    HW215392   3.516   3.972   3.579
 4858SOL     OW15393   2.727   5.080   1.921
 4858SOL    HW115394   2.697   5.095   2.015
 4858SOL    HW215395   2.756   5.167   1.881
 4859SOL     OW15396   2.536   5.479   2.801
 4859SOL    HW115397   2.513   5.576   2.793
 4859SOL    HW215398   2.635   5.468   2.795
 4860SOL     OW15399   2.706   4.693   2.689
 4860SOL    HW115400   2.654   4.608   2.695
 4860SOL    HW215401   2.677   4.756   2.762
 4861SOL     OW15402   2.958   4.756   1.931
 4861SOL    HW115403   2.915   4.792   1.849
 4861SOL    HW215404   3.026   4.687   1.906
 4862SOL     OW15405   3.672   5.284   2.714
 4862SOL    HW115406   3.600   5.278   2.645
 4862SOL    HW215407   3.641   5.240   2.799
 4863SOL     OW15408   2.117   5.042   3.720
 4863SOL    HW115409   2.044   4.983   3.686
 4863SOL    HW215410   2.109   5.052   3.819
 4864SOL     OW15411   1.994   4.968   2.522
 4864SOL    HW115412   2.037   4.933   2.606
 4864SOL    HW215413   2.039   4.928   2.442
 4865SOL     OW15414   2.558   5.174   3.500
 4865SOL    HW115415   2.480   5.119   3.531
 4865SOL    HW215416   2.556   5.263   3.545
 4866SOL     OW15417   3.721   3.880   3.188
 4866SOL    HW115418   3.753   3.790   3.219
 4866SOL    HW215419   3.699   3.875   3.090
 4867SOL     OW15420   3.537   5.204   2.944
 4867SOL    HW115421   3.451   5.189   2.896
 4867SOL    HW215422   3.547   5.136   3.017
 4868SOL     OW15423   2.195   4.143   3.172
 4868SOL    HW115424   2.294   4.129   3.171
 4868SOL    HW215425   2.156   4.107   3.087
 4869SOL     OW15426   2.696   5.322   2.528
 4869SOL    HW115427   2.672   5.399   2.469
 4869SOL    HW215428   2.617   5.261   2.536
 4870SOL     OW15429   3.344   3.896   3.043
 4870SOL    HW115430   3.372   3.876   3.137
 4870SOL    HW215431   3.273   3.967   3.043
 4871SOL     OW15432   2.860   3.667   3.062
 4871SOL    HW115433   2.815   3.581   3.084
 4871SOL    HW215434   2.949   3.649   3.021
 4872SOL     OW15435   2.646   5.070   2.185
 4872SOL    HW115436   2.625   4.972   2.190
 4872SOL    HW215437   2.726   5.089   2.242
 4873SOL     OW15438   2.478   5.336   3.142
 4873SOL    HW115439   2.468   5.427   3.182
 4873SOL    HW215440   2.569   5.325   3.103
 4874SOL     OW15441   3.203   3.751   1.894
 4874SOL    HW115442   3.262   3.671   1.877
 4874SOL    HW215443   3.116   3.721   1.933
 4875SOL     OW15444   1.891   4.763   2.163
 4875SOL    HW115445   1.988   4.749   2.144
 4875SOL    HW215446   1.846   4.675   2.175
 4876SOL     OW15447   2.754   5.413   2.182
 4876SOL    HW115448   2.675   5.391   2.125
 4876SOL    HW215449   2.728   5.482   2.249
 4877SOL     OW15450   2.028   4.061   4.774
 4877SOL    HW115451   2.077   4.008   4.843
 4877SOL    HW215452   1.953   4.005   4.737
 4878SOL     OW15453   2.435   5.053   4.954
 4878SOL    HW115454   2.350   5.051   4.900
 4878SOL    HW215455   2.455   5.148   4.979
 4879SOL     OW15456   3.441   5.247   4.430
 4879SOL    HW115457   3.392   5.208   4.508
 4879SOL    HW215458   3.376   5.262   4.355
 4880SOL     OW15459   2.922   4.510   4.455
 4880SOL    HW115460   2.994   4.562   4.408
 4880SOL    HW215461   2.923   4.534   4.553
 4881SOL     OW15462   2.575   4.885   4.785
 4881SOL    HW115463   2.519   4.921   4.859
 4881SOL    HW215464   2.618   4.961   4.735
 4882SOL     OW15465   2.745   4.459   5.581
 4882SOL    HW115466   2.735   4.520   5.659
 4882SOL    HW215467   2.764   4.513   5.499
 4883SOL     OW15468   2.551   4.733   4.383
 4883SOL    HW115469   2.619   4.733   4.457
 4883SOL    HW215470   2.480   4.800   4.403
 4884SOL     OW15471   2.568   4.884   5.564
 4884SOL    HW115472   2.626   4.954   5.605
 4884SOL    HW215473   2.488   4.927   5.521
 4885SOL     OW15474   2.210   5.122   4.800
 4885SOL    HW115475   2.131   5.072   4.762
 4885SOL    HW215476   2.251   5.178   4.728
 4886SOL     OW15477   3.306   5.238   5.101
 4886SOL    HW115478   3.365   5.317   5.114
 4886SOL    HW215479   3.228   5.244   5.163
 4887SOL     OW15480   2.323   4.095   5.187
 4887SOL    HW115481   2.403   4.035   5.198
 4887SOL    HW215482   2.240   4.045   5.211
 4888SOL     OW15483   2.090   5.453   4.192
 4888SOL    HW115484   2.111   5.527   4.256
 4888SOL    HW215485   2.165   5.442   4.127
 4889SOL     OW15486   2.996   5.067   5.430
 4889SOL    HW115487   3.049   5.056   5.513
 4889SOL    HW215488   2.937   4.987   5.417
 4890SOL     OW15489   2.106   5.180   4.243
 4890SOL    HW115490   2.088   5.278   4.251
 4890SOL    HW215491   2.062   5.132   4.319
 4891SOL     OW15492   2.154   4.817   4.593
 4891SOL    HW115493   2.160   4.721   4.621
 4891SOL    HW215494   2.101   4.868   4.662
 4892SOL     OW15495   2.419   5.561   5.132
 4892SOL    HW115496   2.343   5.530   5.189
 4892SOL    HW215497   2.466   5.637   5.178
 4893SOL     OW15498   2.440   4.871   3.935
 4893SOL    HW115499   2.484   4.864   3.845
 4893SOL    HW215500   2.503   4.839   4.006
 4894SOL     OW15501   3.415   3.887   5.172
 4894SOL    HW115502   3.483   3.958   5.156
 4894SOL    HW215503   3.374   3.899   5.262
 4895SOL     OW15504   3.717   5.474   4.049
 4895SOL    HW115505   3.795   5.458   4.110
 4895SOL    HW215506   3.720   5.568   4.015
 4896SOL     OW15507   1.891   5.295   3.836
 4896SOL    HW115508   1.864   5.200   3.849
 4896SOL    HW215509   1.873   5.346   3.920
 4897SOL     OW15510   3.558   4.654   4.390
 4897SOL    HW115511   3.652   4.622   4.403
 4897SOL    HW215512   3.551   4.704   4.304
 4898SOL     OW15513   3.552   4.833   4.170
 4898SOL    HW115514   3.644   4.821   4.132
 4898SOL    HW215515   3.555   4.901   4.244
 4899SOL     OW15516   1.983   4.483   5.309
 4899SOL    HW115517   2.074   4.525   5.307
 4899SOL    HW215518   1.915   4.552   5.286
 4900SOL     OW15519   2.483   5.130   4.442
 4900SOL    HW115520   2.436   5.041   4.447
 4900SOL    HW215521   2.471   5.169   4.351
 4901SOL     OW15522   3.120   4.953   5.154
 4901SOL    HW115523   3.142   4.883   5.087
 4901SOL    HW215524   3.186   4.949   5.229
 4902SOL     OW15525   2.648   3.688   4.177
 4902SOL    HW115526   2.710   3.762   4.150
 4902SOL    HW215527   2.554   3.721   4.178
 4903SOL     OW15528   2.049   4.675   5.027
 4903SOL    HW115529   2.141   4.639   5.012
 4903SOL    HW215530   1.987   4.636   4.960
 4904SOL     OW15531   3.370   4.823   3.962
 4904SOL    HW115532   3.293   4.775   4.004
 4904SOL    HW215533   3.445   4.830   4.028
 4905SOL     OW15534   3.046   5.539   5.357
 4905SOL    HW115535   3.045   5.610   5.286
 4905SOL    HW215536   3.057   5.449   5.314
 4906SOL     OW15537   2.218   3.981   5.607
 4906SOL    HW115538   2.258   4.063   5.649
 4906SOL    HW215539   2.120   3.995   5.594
 4907SOL     OW15540   3.335   5.122   4.651
 4907SOL    HW115541   3.271   5.156   4.719
 4907SOL    HW215542   3.317   5.025   4.633
 4908SOL     OW15543   3.488   5.554   4.272
 4908SOL    HW115544   3.480   5.497   4.190
 4908SOL    HW215545   3.492   5.495   4.353
 4909SOL     OW15546   3.206   4.135   4.738
 4909SOL    HW115547   3.126   4.097   4.692
 4909SOL    HW215548   3.247   4.065   4.797
 4910SOL     OW15549   3.452   5.401   4.042
 4910SOL    HW115550   3.551   5.415   4.038
 4910SOL    HW215551   3.416   5.393   3.949
 4911SOL     OW15552   2.662   4.309   5.177
 4911SOL    HW115553   2.631   4.286   5.269
 4911SOL    HW215554   2.638   4.236   5.114
 4912SOL     OW15555   3.250   4.194   5.394
 4912SOL    HW115556   3.255   4.244   5.480
 4912SOL    HW215557   3.290   4.104   5.405
 4913SOL     OW15558   2.801   4.598   5.345
 4913SOL    HW115559   2.857   4.533   5.294
 4913SOL    HW215560   2.743   4.649   5.281
 4914SOL     OW15561   2.854   4.071   4.867
 4914SOL    HW115562   2.767   4.097   4.909
 4914SOL    HW215563   2.863   3.972   4.868
 4915SOL     OW15564   1.933   4.596   4.513
 4915SOL    HW115565   2.020   4.562   4.549
 4915SOL    HW215566   1.898   4.668   4.572
 4916SOL     OW15567   1.967   5.614   5.323
 4916SOL    HW115568   1.980   5.582   5.417
 4916SOL    HW215569   1.876   5.589   5.291
 4917SOL     OW15570   2.734   4.042   3.875
 4917SOL    HW115571   2.811   4.094   3.838
 4917SOL    HW215572   2.690   3.991   3.802
 4918SOL     OW15573   3.526   4.286   5.566
 4918SOL    HW115574   3.514   4.366   5.508
 4918SOL    HW215575   3.549   4.207   5.510
 4919SOL     OW15576   3.247   4.876   4.234
 4919SOL    HW115577   3.343   4.893   4.213
 4919SOL    HW215578   3.191   4.952   4.200
 4920SOL     OW15579   2.860   5.210   4.197
 4920SOL    HW115580   2.839   5.285   4.134
 4920SOL    HW215581   2.826   5.233   4.288
 4921SOL     OW15582   2.219   5.532   4.605
 4921SOL    HW115583   2.262   5.442   4.610
 4921SOL    HW215584   2.286   5.602   4.631
 4922SOL     OW15585   3.653   4.791   4.628
 4922SOL    HW115586   3.600   4.770   4.546
 4922SOL    HW215587   3.592   4.797   4.707
 4923SOL     OW15588   3.064   5.264   5.241
 4923SOL    HW115589   3.058   5.195   5.312
 4923SOL    HW215590   3.002   5.240   5.166
 4924SOL     OW15591   3.327   4.529   4.465
 4924SOL    HW115592   3.336   4.465   4.542
 4924SOL    HW215593   3.418   4.565   4.441
 4925SOL     OW15594   2.332   5.018   5.473
 4925SOL    HW115595   2.309   5.022   5.375
 4925SOL    HW215596   2.248   5.002   5.525
 4926SOL     OW15597   3.006   5.498   3.954
 4926SOL    HW115598   2.915   5.476   3.988
 4926SOL    HW215599   3.033   5.432   3.885
 4927SOL     OW15600   2.071   3.983   5.225
 4927SOL    HW115601   2.003   4.057   5.227
 4927SOL    HW215602   2.033   3.902   5.269
 4928SOL     OW15603   3.479   5.125   3.802
 4928SOL    HW115604   3.453   5.221   3.791
 4928SOL    HW215605   3.402   5.066   3.777
 4929SOL     OW15606   2.327   5.466   4.039
 4929SOL    HW115607   2.372   5.521   4.109
 4929SOL    HW215608   2.396   5.425   3.980
 4930SOL     OW15609   3.262   3.743   4.129
 4930SOL    HW115610   3.225   3.748   4.036
 4930SOL    HW215611   3.345   3.798   4.134
 4931SOL     OW15612   2.092   5.514   4.932
 4931SOL    HW115613   2.146   5.436   4.964
 4931SOL    HW215614   2.060   5.496   4.839
 4932SOL     OW15615   2.808   5.428   4.616
 4932SOL    HW115616   2.899   5.388   4.632
 4932SOL    HW215617   2.764   5.381   4.541
 4933SOL     OW15618   3.333   3.929   5.444
 4933SOL    HW115619   3.352   3.950   5.540
 4933SOL    HW215620   3.263   3.858   5.439
 4934SOL     OW15621   2.498   3.765   3.820
 4934SOL    HW115622   2.533   3.677   3.853
 4934SOL    HW215623   2.429   3.748   3.749
 4935SOL     OW15624   2.622   3.990   5.499
 4935SOL    HW115625   2.710   3.945   5.489
 4935SOL    HW215626   2.567   3.942   5.567
 4936SOL     OW15627   2.719   5.253   4.910
 4936SOL    HW115628   2.701   5.209   4.822
 4936SOL    HW215629   2.788   5.200   4.960
 4937SOL     OW15630   3.170   4.315   5.158
 4937SOL    HW115631   3.209   4.279   5.243
 4937SOL    HW215632   3.208   4.405   5.139
 4938SOL     OW15633   2.673   5.111   4.665
 4938SOL    HW115634   2.767   5.105   4.632
 4938SOL    HW215635   2.611   5.124   4.587
 4939SOL     OW15636   2.832   4.290   4.694
 4939SOL    HW115637   2.840   4.268   4.597
 4939SOL    HW215638   2.848   4.208   4.749
 4940SOL     OW15639   2.389   3.778   4.159
 4940SOL    HW115640   2.370   3.812   4.251
 4940SOL    HW215641   2.388   3.854   4.094
 4941SOL     OW15642   3.265   4.958   3.749
 4941SOL    HW115643   3.309   4.899   3.817
 4941SOL    HW215644   3.180   4.995   3.786
 4942SOL     OW15645   2.139   3.791   3.919
 4942SOL    HW115646   2.191   3.865   3.876
 4942SOL    HW215647   2.201   3.716   3.943
 4943SOL     OW15648   2.819   3.860   4.061
 4943SOL    HW115649   2.789   3.934   4.001
 4943SOL    HW215650   2.887   3.804   4.013
 4944SOL     OW15651   2.916   4.421   5.174
 4944SOL    HW115652   2.840   4.357   5.180
 4944SOL    HW215653   3.002   4.370   5.171
 4945SOL     OW15654   3.067   5.323   4.536
 4945SOL    HW115655   3.085   5.379   4.456
 4945SOL    HW215656   3.116   5.361   4.615
 4946SOL     OW15657   2.335   4.899   4.410
 4946SOL    HW115658   2.275   4.870   4.484
 4946SOL    HW215659   2.283   4.902   4.324
 4947SOL     OW15660   3.102   5.518   4.338
 4947SOL    HW115661   3.155   5.582   4.282
 4947SOL    HW215662   3.024   5.565   4.378
 4948SOL     OW15663   2.934   4.165   3.737
 4948SOL    HW115664   2.912   4.261   3.722
 4948SOL    HW215665   3.030   4.156   3.763
 4949SOL     OW15666   1.963   4.279   5.130
 4949SOL    HW115667   2.056   4.278   5.093
 4949SOL    HW215668   1.955   4.352   5.197
 4950SOL     OW15669   2.424   3.927   4.933
 4950SOL    HW115670   2.447   3.843   4.982
 4950SOL    HW215671   2.325   3.940   4.934
 4951SOL     OW15672   3.297   4.846   4.609
 4951SOL    HW115673   3.245   4.767   4.640
 4951SOL    HW215674   3.308   4.842   4.510
 4952SOL     OW15675   3.321   4.379   4.700
 4952SOL    HW115676   3.269   4.294   4.701
 4952SOL    HW215677   3.394   4.375   4.768
 4953SOL     OW15678   2.366   5.139   3.928
 4953SOL    HW115679   2.266   5.136   3.939
 4953SOL    HW215680   2.402   5.046   3.930
 4954SOL     OW15681   3.573   5.005   4.371
 4954SOL    HW115682   3.669   5.003   4.400
 4954SOL    HW215683   3.534   5.095   4.393
 4955SOL     OW15684   3.205   4.150   3.791
 4955SOL    HW115685   3.221   4.223   3.857
 4955SOL    HW215686   3.261   4.071   3.814
 4956SOL     OW15687   2.400   3.969   3.972
 4956SOL    HW115688   2.444   3.903   3.910
 4956SOL    HW215689   2.433   4.061   3.952
 4957SOL     OW15690   3.604   4.966   5.261
 4957SOL    HW115691   3.694   4.927   5.240
 4957SOL    HW215692   3.616   5.057   5.301
 4958SOL     OW15693   2.892   5.088   5.071
 4958SOL    HW115694   2.806   5.056   5.109
 4958SOL    HW215695   2.968   5.038   5.112
 4959SOL     OW15696   3.479   5.371   5.399
 4959SOL    HW115697   3.460   5.408   5.308
 4959SOL    HW215698   3.558   5.310   5.395
 4960SOL     OW15699   3.009   4.989   4.839
 4960SOL    HW115700   2.945   5.020   4.909
 4960SOL    HW215701   2.973   5.015   4.749
 4961SOL     OW15702   3.470   4.822   4.829
 4961SOL    HW115703   3.462   4.894   4.898
 4961SOL    HW215704   3.399   4.836   4.759
 4962SOL     OW15705   2.779   3.815   5.147
 4962SOL    HW115706   2.793   3.807   5.048
 4962SOL    HW215707   2.862   3.852   5.190
 4963SOL     OW15708   2.830   4.848   5.447
 4963SOL    HW115709   2.737   4.868   5.479
 4963SOL    HW215710   2.832   4.758   5.403
 4964SOL     OW15711   2.626   4.799   4.127
 4964SOL    HW115712   2.597   4.775   4.219
 4964SOL    HW215713   2.703   4.742   4.100
 4965SOL     OW15714   2.291   4.550   4.991
 4965SOL    HW115715   2.367   4.558   5.055
 4965SOL    HW215716   2.254   4.457   4.995
 4966SOL     OW15717   3.083   4.090   5.027
 4966SOL    HW115718   3.114   4.177   5.064
 4966SOL    HW215719   3.005   4.105   4.966
 4967SOL     OW15720   1.932   5.292   5.083
 4967SOL    HW115721   1.893   5.362   5.023
 4967SOL    HW215722   2.032   5.295   5.077
 4968SOL     OW15723   2.171   4.859   4.155
 4968SOL    HW115724   2.151   4.941   4.100
 4968SOL    HW215725   2.244   4.807   4.111
 4969SOL     OW15726   2.426   4.313   4.631
 4969SOL    HW115727   2.425   4.390   4.567
 4969SOL    HW215728   2.492   4.331   4.704
 4970SOL     OW15729   3.102   5.096   4.138
 4970SOL    HW115730   3.169   5.166   4.164
 4970SOL    HW215731   3.011   5.124   4.167
 4971SOL     OW15732   3.179   5.202   4.862
 4971SOL    HW115733   3.226   5.210   4.950
 4971SOL    HW215734   3.121   5.120   4.863
 4972SOL     OW15735   2.204   5.270   5.025
 4972SOL    HW115736   2.197   5.211   4.944
 4972SOL    HW215737   2.299   5.294   5.041
 4973SOL     OW15738   2.305   4.465   5.355
 4973SOL    HW115739   2.362   4.504   5.282
 4973SOL    HW215740   2.347   4.381   5.389
 4974SOL     OW15741   3.489   4.511   5.420
 4974SOL    HW115742   3.398   4.551   5.411
 4974SOL    HW215743   3.549   4.548   5.349
 4975SOL     OW15744   2.859   3.857   5.490
 4975SOL    HW115745   2.917   3.938   5.482
 4975SOL    HW215746   2.913   3.775   5.471
 4976SOL     OW15747   2.348   3.764   5.490
 4976SOL    HW115748   2.294   3.713   5.423
 4976SOL    HW215749   2.298   3.847   5.516
 4977SOL     OW15750   2.489   4.617   4.799
 4977SOL    HW115751   2.509   4.714   4.792
 4977SOL    HW215752   2.404   4.604   4.851
 4978SOL     OW15753   3.176   4.617   4.724
 4978SOL    HW115754   3.079   4.594   4.717
 4978SOL    HW215755   3.231   4.534   4.710
 4979SOL     OW15756   2.146   3.908   4.968
 4979SOL    HW115757   2.118   3.939   5.059
 4979SOL    HW215758   2.131   3.810   4.960
 4980SOL     OW15759   1.924   5.032   4.995
 4980SOL    HW115760   1.952   4.971   5.069
 4980SOL    HW215761   1.918   5.126   5.029
 4981SOL     OW15762   2.607   4.377   4.829
 4981SOL    HW115763   2.688   4.363   4.773
 4981SOL    HW215764   2.570   4.469   4.812
 4982SOL     OW15765   3.609   4.697   5.591
 4982SOL    HW115766   3.570   4.620   5.540
 4982SOL    HW215767   3.548   4.722   5.667
 4983SOL     OW15768   2.904   4.549   4.728
 4983SOL    HW115769   2.875   4.575   4.820
 4983SOL    HW215770   2.888   4.451   4.715
 4984SOL     OW15771   2.843   5.288   5.486
 4984SOL    HW115772   2.810   5.344   5.410
 4984SOL    HW215773   2.885   5.205   5.451
 4985SOL     OW15774   3.701   5.219   5.329
 4985SOL    HW115775   3.723   5.248   5.235
 4985SOL    HW215776   3.783   5.227   5.386
 4986SOL     OW15777   2.220   4.647   5.542
 4986SOL    HW115778   2.294   4.668   5.606
 4986SOL    HW215779   2.252   4.580   5.475
 4987SOL     OW15780   3.369   3.947   3.862
 4987SOL    HW115781   3.301   3.873   3.866
 4987SOL    HW215782   3.436   3.935   3.935
 4988SOL     OW15783   2.932   5.086   4.591
 4988SOL    HW115784   2.940   5.009   4.528
 4988SOL    HW215785   2.988   5.162   4.558
 4989SOL     OW15786   2.175   4.540   4.638
 4989SOL    HW115787   2.256   4.537   4.580
 4989SOL    HW215788   2.170   4.458   4.694
 4990SOL     OW15789   2.190   4.281   4.754
 4990SOL    HW115790   2.136   4.198   4.739
 4990SOL    HW215791   2.275   4.275   4.701
 4991SOL     OW15792   3.000   4.088   5.437
 4991SOL    HW115793   2.951   4.140   5.508
 4991SOL    HW215794   3.087   4.133   5.417
 4992SOL     OW15795   3.023   3.915   5.226
 4992SOL    HW115796   3.010   3.975   5.305
 4992SOL    HW215797   3.051   3.969   5.147
 4993SOL     OW15798   1.843   5.017   3.923
 4993SOL    HW115799   1.754   5.048   3.888
 4993SOL    HW215800   1.838   4.919   3.945
 4994SOL     OW15801   1.961   5.486   4.682
 4994SOL    HW115802   1.917   5.411   4.632
 4994SOL    HW215803   2.051   5.504   4.643
 4995SOL     OW15804   2.349   5.288   4.627
 4995SOL    HW115805   2.421   5.351   4.658
 4995SOL    HW215806   2.387   5.228   4.556
 4996SOL     OW15807   2.789   4.558   4.975
 4996SOL    HW115808   2.847   4.519   5.047
 4996SOL    HW215809   2.712   4.497   4.957
 4997SOL     OW15810   1.868   4.269   4.870
 4997SOL    HW115811   1.926   4.204   4.820
 4997SOL    HW215812   1.905   4.284   4.961
 4998SOL     OW15813   2.060   4.271   5.469
 4998SOL    HW115814   2.138   4.237   5.417
 4998SOL    HW215815   2.020   4.349   5.420
 4999SOL     OW15816   3.256   4.647   5.367
 4999SOL    HW115817   3.275   4.745   5.366
 4999SOL    HW215818   3.243   4.615   5.273
 5000SOL     OW15819   3.506   4.341   4.899
 5000SOL    HW115820   3.485   4.286   4.979
 5000SOL    HW215821   3.604   4.335   4.878
 5001SOL     OW15822   2.093   5.262   5.443
 5001SOL    HW115823   2.074   5.331   5.512
 5001SOL    HW215824   2.099   5.172   5.486
 5002SOL     OW15825   2.607   4.135   4.967
 5002SOL    HW115826   2.537   4.065   4.954
 5002SOL    HW215827   2.583   4.217   4.915
 5003SOL     OW15828   2.729   5.428   5.259
 5003SOL    HW115829   2.700   5.361   5.191
 5003SOL    HW215830   2.755   5.513   5.213
 5004SOL     OW15831   1.996   4.867   5.208
 5004SOL    HW115832   1.999   4.831   5.301
 5004SOL    HW215833   2.017   4.794   5.143
 5005SOL     OW15834   3.148   4.776   4.940
 5005SOL    HW115835   3.170   4.714   4.866
 5005SOL    HW215836   3.096   4.854   4.905
 5006SOL     OW15837   3.627   5.436   4.884
 5006SOL    HW115838   3.698   5.465   4.819
 5006SOL    HW215839   3.598   5.343   4.861
 5007SOL     OW15840   3.118   5.459   4.791
 5007SOL    HW115841   3.208   5.501   4.780
 5007SOL    HW215842   3.129   5.367   4.828
 5008SOL     OW15843   1.982   4.971   4.739
 5008SOL    HW115844   1.956   4.992   4.833
 5008SOL    HW215845   1.907   4.921   4.694
 5009SOL     OW15846   2.550   5.428   5.469
 5009SOL    HW115847   2.481   5.500   5.464
 5009SOL    HW215848   2.619   5.443   5.398
 5010SOL     OW15849   3.525   3.858   4.075
 5010SOL    HW115850   3.615   3.891   4.045
 5010SOL    HW215851   3.537   3.775   4.130
 5011SOL     OW15852   3.263   5.306   4.223
 5011SOL    HW115853   3.324   5.339   4.151
 5011SOL    HW215854   3.200   5.379   4.250
 5012SOL     OW15855   2.007   5.508   5.570
 5012SOL    HW115856   1.953   5.435   5.613
 5012SOL    HW215857   2.059   5.557   5.640
 5013SOL     OW15858   3.124   4.677   4.369
 5013SOL    HW115859   3.195   4.615   4.404
 5013SOL    HW215860   3.167   4.747   4.312
 5014SOL     OW15861   2.636   5.016   5.147
 5014SOL    HW115862   2.610   5.066   5.230
 5014SOL    HW215863   2.561   5.020   5.081
 5015SOL     OW15864   2.530   5.356   3.881
 5015SOL    HW115865   2.542   5.376   3.784
 5015SOL    HW215866   2.478   5.271   3.892
 5016SOL     OW15867   3.472   5.458   5.124
 5016SOL    HW115868   3.527   5.450   5.041
 5016SOL    HW215869   3.458   5.555   5.146
 5017SOL     OW15870   3.643   4.011   4.804
 5017SOL    HW115871   3.618   3.981   4.712
 5017SOL    HW215872   3.592   4.094   4.827
 5018SOL     OW15873   3.089   5.317   3.765
 5018SOL    HW115874   3.080   5.223   3.797
 5018SOL    HW215875   3.015   5.338   3.701
 5019SOL     OW15876   2.672   4.743   5.153
 5019SOL    HW115877   2.719   4.712   5.070
 5019SOL    HW215878   2.663   4.842   5.151
 5020SOL     OW15879   3.355   5.391   3.779
 5020SOL    HW115880   3.259   5.364   3.764
 5020SOL    HW215881   3.401   5.396   3.690
 5021SOL     OW15882   2.225   5.039   5.223
 5021SOL    HW115883   2.218   5.116   5.160
 5021SOL    HW215884   2.147   4.979   5.211
 5022SOL     OW15885   3.464   5.023   5.022
 5022SOL    HW115886   3.518   4.994   5.100
 5022SOL    HW215887   3.398   5.092   5.051
 5023SOL     OW15888   2.927   4.857   4.447
 5023SOL    HW115889   2.851   4.809   4.491
 5023SOL    HW215890   2.995   4.791   4.415
 5024SOL     OW15891   2.472   5.230   4.194
 5024SOL    HW115892   2.535   5.176   4.138
 5024SOL    HW215893   2.390   5.252   4.141
 5025SOL     OW15894   3.628   4.082   5.149
 5025SOL    HW115895   3.693   4.157   5.138
 5025SOL    HW215896   3.664   4.000   5.105
 5026SOL     OW15897   2.096   5.078   3.997
 5026SOL    HW115898   2.000   5.062   3.974
 5026SOL    HW215899   2.101   5.126   4.085
 5027SOL     OW15900   1.987   4.769   5.464
 5027SOL    HW115901   1.904   4.742   5.513
 5027SOL    HW215902   2.065   4.717   5.499
 5028SOL     OW15903   2.539   3.912   5.243
 5028SOL    HW115904   2.626   3.886   5.201
 5028SOL    HW215905   2.555   3.947   5.335
 5029SOL     OW15906   1.943   4.040   3.712
 5029SOL    HW115907   1.851   4.030   3.673
 5029SOL    HW215908   1.993   4.110   3.661
 5030SOL     OW15909   3.259   4.575   5.103
 5030SOL    HW115910   3.202   4.641   5.054
 5030SOL    HW215911   3.353   4.582   5.070
 5031SOL     OW15912   1.889   3.880   3.984
 5031SOL    HW115913   1.865   3.952   3.918
 5031SOL    HW215914   1.985   3.854   3.972
 5032SOL     OW15915   3.042   5.064   3.865
 5032SOL    HW115916   2.944   5.058   3.846
 5032SOL    HW215917   3.056   5.067   3.964
 5033SOL     OW15918   2.496   4.536   5.168
 5033SOL    HW115919   2.552   4.619   5.169
 5033SOL    HW215920   2.555   4.456   5.170
 5034SOL     OW15921   3.374   5.554   4.760
 5034SOL    HW115922   3.400   5.618   4.688
 5034SOL    HW215923   3.456   5.510   4.797
 5035SOL     OW15924   2.588   4.264   5.435
 5035SOL    HW115925   2.636   4.326   5.497
 5035SOL    HW215926   2.599   4.170   5.466
 5036SOL     OW15927   3.330   4.913   5.351
 5036SOL    HW115928   3.318   4.932   5.448
 5036SOL    HW215929   3.424   4.934   5.324
 5037SOL     OW15930   2.212   5.479   5.302
 5037SOL    HW115931   2.127   5.530   5.289
 5037SOL    HW215932   2.191   5.388   5.337
 5038SOL     OW15933   3.510   4.604   4.991
 5038SOL    HW115934   3.512   4.516   4.942
 5038SOL    HW215935   3.499   4.678   4.925
 5039SOL     OW15936   2.384   4.524   4.456
 5039SOL    HW115937   2.452   4.594   4.434
 5039SOL    HW215938   2.345   4.487   4.372
 5040SOL     OW15939   3.583   4.057   5.418
 5040SOL    HW115940   3.598   4.072   5.320
 5040SOL    HW215941   3.502   4.000   5.431
 5041SOL     OW15942   3.632   4.645   5.232
 5041SOL    HW115943   3.618   4.741   5.258
 5041SOL    HW215944   3.595   4.630   5.141
 5042SOL     OW15945   2.762   5.100   3.806
 5042SOL    HW115946   2.715   5.118   3.893
 5042SOL    HW215947   2.772   5.186   3.756
 5043SOL     OW15948   2.535   5.479   4.669
 5043SOL    HW115949   2.510   5.575   4.658
 5043SOL    HW215950   2.634   5.470   4.661
 5044SOL     OW15951   2.726   4.737   4.599
 5044SOL    HW115952   2.782   4.665   4.639
 5044SOL    HW215953   2.672   4.781   4.671
 5045SOL     OW15954   3.673   5.288   4.575
 5045SOL    HW115955   3.598   5.282   4.510
 5045SOL    HW215956   3.653   5.232   4.656
 5046SOL     OW15957   2.070   5.010   5.564
 5046SOL    HW115958   2.045   4.926   5.516
 5046SOL    HW215959   2.008   5.024   5.641
 5047SOL     OW15960   2.004   4.952   4.385
 5047SOL    HW115961   2.038   4.906   4.467
 5047SOL    HW215962   2.045   4.909   4.304
 5048SOL     OW15963   2.548   5.162   5.365
 5048SOL    HW115964   2.469   5.115   5.405
 5048SOL    HW215965   2.555   5.254   5.403
 5049SOL     OW15966   3.702   3.859   5.022
 5049SOL    HW115967   3.697   3.760   5.008
 5049SOL    HW215968   3.683   3.906   4.936
 5050SOL     OW15969   3.552   5.185   4.808
 5050SOL    HW115970   3.475   5.164   4.748
 5050SOL    HW215971   3.552   5.122   4.886
 5051SOL     OW15972   2.211   4.289   5.026
 5051SOL    HW115973   2.267   4.221   5.074
 5051SOL    HW215974   2.214   4.272   4.928
 5052SOL     OW15975   2.692   5.322   4.397
 5052SOL    HW115976   2.663   5.394   4.335
 5052SOL    HW215977   2.619   5.256   4.409
 5053SOL     OW15978   3.286   3.943   4.926
 5053SOL    HW115979   3.341   3.905   5.001
 5053SOL    HW215980   3.207   3.992   4.964
 5054SOL     OW15981   2.853   3.793   4.882
 5054SOL    HW115982   2.798   3.763   4.805
 5054SOL    HW215983   2.930   3.731   4.895
 5055SOL     OW15984   2.661   5.072   4.069
 5055SOL    HW115985   2.648   4.975   4.088
 5055SOL    HW215986   2.740   5.107   4.120
 5056SOL     OW15987   2.478   5.319   5.019
 5056SOL    HW115988   2.467   5.412   5.055
 5056SOL    HW215989   2.567   5.310   4.974
 5057SOL     OW15990   3.200   3.744   3.860
 5057SOL    HW115991   3.243   3.664   3.818
 5057SOL    HW215992   3.103   3.725   3.874
 5058SOL     OW15993   1.912   4.741   4.090
 5058SOL    HW115994   2.003   4.774   4.112
 5058SOL    HW215995   1.909   4.642   4.097
 5059SOL     OW15996   2.753   5.417   4.046
 5059SOL    HW115997   2.674   5.393   3.991
 5059SOL    HW215998   2.728   5.487   4.113
 5060SOL     OW15999   2.065   4.341   5.738
 5060SOL    HW116000   1.972   4.323   5.773
 5060SOL    HW216001   2.065   4.333   5.638
 5061SOL     OW16002   2.077   4.020   6.584
 5061SOL    HW116003   2.120   3.988   6.668
 5061SOL    HW216004   1.986   3.979   6.575
 5062SOL     OW16005   1.845   4.138   6.229
 5062SOL    HW116006   1.760   4.161   6.276
 5062SOL    HW216007   1.828   4.062   6.166
 5063SOL     OW16008   2.400   5.020   6.781
 5063SOL    HW116009   2.318   5.037   6.726
 5063SOL    HW216010   2.436   5.108   6.812
 5064SOL     OW16011   3.448   5.238   6.297
 5064SOL    HW116012   3.390   5.208   6.373
 5064SOL    HW216013   3.390   5.254   6.216
 5065SOL     OW16014   2.996   4.434   6.259
 5065SOL    HW116015   3.045   4.521   6.255
 5065SOL    HW216016   2.936   4.434   6.339
 5066SOL     OW16017   3.660   4.293   5.798
 5066SOL    HW116018   3.617   4.299   5.708
 5066SOL    HW216019   3.613   4.224   5.853
 5067SOL     OW16020   2.573   4.856   6.633
 5067SOL    HW116021   2.511   4.888   6.704
 5067SOL    HW216022   2.607   4.934   6.580
 5068SOL     OW16023   2.547   4.711   6.238
 5068SOL    HW116024   2.617   4.708   6.310
 5068SOL    HW216025   2.474   4.773   6.267
 5069SOL     OW16026   2.181   5.118   6.629
 5069SOL    HW116027   2.093   5.090   6.592
 5069SOL    HW216028   2.229   5.174   6.562
 5070SOL     OW16029   3.444   4.172   6.335
 5070SOL    HW116030   3.372   4.179   6.266
 5070SOL    HW216031   3.426   4.237   6.409
 5071SOL     OW16032   2.088   5.456   6.055
 5071SOL    HW116033   2.112   5.530   6.118
 5071SOL    HW216034   2.163   5.442   5.990
 5072SOL     OW16035   2.102   5.185   6.123
 5072SOL    HW116036   2.082   5.283   6.126
 5072SOL    HW216037   2.057   5.140   6.200
 5073SOL     OW16038   2.145   4.812   6.488
 5073SOL    HW116039   2.164   4.715   6.502
 5073SOL    HW216040   2.113   4.852   6.574
 5074SOL     OW16041   2.476   5.535   6.979
 5074SOL    HW116042   2.393   5.508   0.027
 5074SOL    HW216043   2.509   5.622   0.017
 5075SOL     OW16044   2.428   4.716   5.747
 5075SOL    HW116045   2.476   4.761   5.672
 5075SOL    HW216046   2.471   4.740   5.834
 5076SOL     OW16047   1.966   4.394   6.164
 5076SOL    HW116048   1.932   4.302   6.184
 5076SOL    HW216049   1.973   4.446   6.249
 5077SOL     OW16050   3.716   5.473   5.908
 5077SOL    HW116051   3.793   5.459   5.970
 5077SOL    HW216052   3.718   5.567   5.873
 5078SOL     OW16053   1.903   5.298   5.703
 5078SOL    HW116054   1.883   5.202   5.721
 5078SOL    HW216055   1.882   5.353   5.784
 5079SOL     OW16056   3.574   4.652   6.240
 5079SOL    HW116057   3.658   4.601   6.223
 5079SOL    HW216058   3.552   4.708   6.160
 5080SOL     OW16059   3.533   4.835   6.025
 5080SOL    HW116060   3.618   4.816   5.976
 5080SOL    HW216061   3.551   4.903   6.096
 5081SOL     OW16062   2.468   5.121   6.295
 5081SOL    HW116063   2.424   5.031   6.303
 5081SOL    HW216064   2.457   5.154   6.201
 5082SOL     OW16065   2.690   3.744   6.093
 5082SOL    HW116066   2.737   3.828   6.068
 5082SOL    HW216067   2.592   3.760   6.098
 5083SOL     OW16068   2.033   4.690   6.831
 5083SOL    HW116069   2.119   4.642   6.819
 5083SOL    HW216070   1.957   4.631   6.805
 5084SOL     OW16071   3.407   4.752   5.791
 5084SOL    HW116072   3.333   4.689   5.815
 5084SOL    HW216073   3.452   4.784   5.875
 5085SOL     OW16074   3.286   5.146   6.503
 5085SOL    HW116075   3.240   5.155   6.592
 5085SOL    HW216076   3.286   5.050   6.475
 5086SOL     OW16077   3.491   5.560   6.131
 5086SOL    HW116078   3.482   5.498   6.054
 5086SOL    HW216079   3.505   5.508   6.215
 5087SOL     OW16080   2.441   4.428   5.862
 5087SOL    HW116081   2.447   4.518   5.819
 5087SOL    HW216082   2.371   4.430   5.934
 5088SOL     OW16083   3.146   4.126   6.519
 5088SOL    HW116084   3.053   4.088   6.517
 5088SOL    HW216085   3.205   4.068   6.574
 5089SOL     OW16086   3.452   5.396   5.908
 5089SOL    HW116087   3.551   5.412   5.902
 5089SOL    HW216088   3.415   5.386   5.816
 5090SOL     OW16089   2.633   4.377   0.020
 5090SOL    HW116090   2.575   4.400   0.098
 5090SOL    HW216091   2.591   4.303   6.967
 5091SOL     OW16092   2.893   4.176   6.782
 5091SOL    HW116093   2.883   4.209   6.876
 5091SOL    HW216094   2.810   4.126   6.756
 5092SOL     OW16095   2.912   4.420   5.996
 5092SOL    HW116096   2.940   4.422   6.092
 5092SOL    HW216097   2.824   4.374   5.987
 5093SOL     OW16098   1.970   4.556   6.385
 5093SOL    HW116099   2.060   4.548   6.428
 5093SOL    HW216100   1.920   4.632   6.427
 5094SOL     OW16101   2.013   5.543   0.091
 5094SOL    HW116102   1.955   5.467   0.118
 5094SOL    HW216103   2.020   5.545   6.991
 5095SOL     OW16104   2.728   4.074   5.794
 5095SOL    HW116105   2.789   4.126   5.734
 5095SOL    HW216106   2.681   4.003   5.741
 5096SOL     OW16107   3.265   4.887   6.132
 5096SOL    HW116108   3.351   4.872   6.082
 5096SOL    HW216109   3.207   4.950   6.081
 5097SOL     OW16110   2.417   3.868   6.515
 5097SOL    HW116111   2.426   3.897   6.610
 5097SOL    HW216112   2.421   3.948   6.455
 5098SOL     OW16113   2.853   5.190   6.052
 5098SOL    HW116114   2.832   5.265   5.989
 5098SOL    HW216115   2.819   5.212   6.143
 5099SOL     OW16116   2.216   5.535   6.472
 5099SOL    HW116117   2.258   5.444   6.473
 5099SOL    HW216118   2.285   5.604   6.496
 5100SOL     OW16119   3.668   4.764   6.478
 5100SOL    HW116120   3.629   4.746   6.388
 5100SOL    HW216121   3.594   4.766   6.546
 5101SOL     OW16122   2.166   4.672   5.860
 5101SOL    HW116123   2.251   4.698   5.815
 5101SOL    HW216124   2.141   4.578   5.834
 5102SOL     OW16125   3.353   4.498   6.297
 5102SOL    HW116126   3.350   4.449   6.384
 5102SOL    HW216127   3.437   4.552   6.291
 5103SOL     OW16128   3.004   5.496   5.814
 5103SOL    HW116129   2.915   5.472   5.851
 5103SOL    HW216130   3.032   5.427   5.746
 5104SOL     OW16131   3.501   5.112   5.685
 5104SOL    HW116132   3.468   5.206   5.671
 5104SOL    HW216133   3.428   5.048   5.660
 5105SOL     OW16134   2.327   5.463   5.900
 5105SOL    HW116135   2.372   5.519   5.970
 5105SOL    HW216136   2.396   5.425   5.838
 5106SOL     OW16137   3.259   3.820   6.046
 5106SOL    HW116138   3.258   3.798   5.948
 5106SOL    HW216139   3.348   3.795   6.084
 5107SOL     OW16140   2.089   5.533   6.811
 5107SOL    HW116141   2.146   5.452   6.824
 5107SOL    HW216142   2.044   5.529   6.722
 5108SOL     OW16143   2.822   5.413   6.465
 5108SOL    HW116144   2.913   5.371   6.465
 5108SOL    HW216145   2.766   5.369   6.395
 5109SOL     OW16146   2.244   4.402   6.060
 5109SOL    HW116147   2.259   4.304   6.071
 5109SOL    HW216148   2.148   4.423   6.081
 5110SOL     OW16149   2.518   3.823   5.698
 5110SOL    HW116150   2.578   3.747   5.722
 5110SOL    HW216151   2.453   3.793   5.628
 5111SOL     OW16152   2.726   5.199   6.753
 5111SOL    HW116153   2.685   5.179   6.664
 5111SOL    HW216154   2.801   5.136   6.771
 5112SOL     OW16155   2.651   5.089   6.506
 5112SOL    HW116156   2.746   5.091   6.472
 5112SOL    HW216157   2.588   5.103   6.429
 5113SOL     OW16158   2.795   4.242   6.472
 5113SOL    HW116159   2.768   4.231   6.377
 5113SOL    HW216160   2.836   4.157   6.505
 5114SOL     OW16161   2.420   3.788   6.080
 5114SOL    HW116162   2.341   3.787   6.141
 5114SOL    HW216163   2.411   3.865   6.017
 5115SOL     OW16164   3.291   4.940   5.625
 5115SOL    HW116165   3.330   4.865   5.679
 5115SOL    HW216166   3.203   4.967   5.663
 5116SOL     OW16167   2.149   3.768   5.771
 5116SOL    HW116168   2.196   3.844   5.727
 5116SOL    HW216169   2.216   3.710   5.816
 5117SOL     OW16170   2.824   3.976   6.034
 5117SOL    HW116171   2.790   4.012   5.947
 5117SOL    HW216172   2.922   3.992   6.041
 5118SOL     OW16173   3.072   5.304   6.389
 5118SOL    HW116174   3.093   5.375   6.322
 5118SOL    HW216175   3.158   5.266   6.425
 5119SOL     OW16176   2.333   4.881   6.296
 5119SOL    HW116177   2.272   4.859   6.372
 5119SOL    HW216178   2.283   4.874   6.210
 5120SOL     OW16179   3.109   5.513   6.205
 5120SOL    HW116180   3.161   5.577   6.148
 5120SOL    HW216181   3.029   5.560   6.242
 5121SOL     OW16182   2.890   4.232   5.640
 5121SOL    HW116183   2.845   4.319   5.620
 5121SOL    HW216184   2.961   4.246   5.709
 5122SOL     OW16185   2.430   3.925   6.785
 5122SOL    HW116186   2.466   3.844   6.830
 5122SOL    HW216187   2.332   3.934   6.807
 5123SOL     OW16188   2.738   4.185   6.209
 5123SOL    HW116189   2.692   4.242   6.141
 5123SOL    HW216190   2.770   4.101   6.167
 5124SOL     OW16191   2.880   3.768   6.305
 5124SOL    HW116192   2.814   3.766   6.230
 5124SOL    HW216193   2.856   3.697   6.372
 5125SOL     OW16194   3.283   4.876   6.429
 5125SOL    HW116195   3.214   4.805   6.445
 5125SOL    HW216196   3.299   4.886   6.331
 5126SOL     OW16197   3.326   4.351   6.535
 5126SOL    HW116198   3.258   4.278   6.544
 5126SOL    HW216199   3.390   4.346   6.612
 5127SOL     OW16200   3.677   4.506   5.967
 5127SOL    HW116201   3.739   4.469   6.037
 5127SOL    HW216202   3.668   4.440   5.893
 5128SOL     OW16203   2.359   5.153   5.733
 5128SOL    HW116204   2.280   5.121   5.787
 5128SOL    HW216205   2.358   5.108   5.644
 5129SOL     OW16206   3.592   5.003   6.222
 5129SOL    HW116207   3.688   4.995   6.248
 5129SOL    HW216208   3.556   5.092   6.252
 5130SOL     OW16209   3.250   4.304   5.645
 5130SOL    HW116210   3.200   4.275   5.726
 5130SOL    HW216211   3.348   4.291   5.658
 5131SOL     OW16212   2.389   3.980   5.890
 5131SOL    HW116213   2.441   3.928   5.821
 5131SOL    HW216214   2.357   4.065   5.849
 5132SOL     OW16215   3.623   4.872   0.182
 5132SOL    HW116216   3.717   4.864   0.150
 5132SOL    HW216217   3.587   4.962   0.157
 5133SOL     OW16218   2.938   5.015   6.706
 5133SOL    HW116219   2.926   4.917   6.718
 5133SOL    HW216220   2.928   5.038   6.609
 5134SOL     OW16221   3.455   4.795   6.647
 5134SOL    HW116222   3.457   4.872   6.711
 5134SOL    HW216223   3.392   4.816   6.572
 5135SOL     OW16224   2.586   4.778   5.969
 5135SOL    HW116225   2.571   4.752   6.064
 5135SOL    HW216226   2.658   4.721   5.929
 5136SOL     OW16227   2.290   4.566   6.859
 5136SOL    HW116228   2.338   4.602   6.939
 5136SOL    HW216229   2.259   4.473   6.877
 5137SOL     OW16230   3.148   4.112   6.852
 5137SOL    HW116231   3.178   4.178   6.920
 5137SOL    HW216232   3.061   4.141   6.812
 5138SOL     OW16233   1.944   5.281   6.933
 5138SOL    HW116234   1.890   5.347   6.880
 5138SOL    HW216235   2.040   5.285   6.904
 5139SOL     OW16236   2.176   4.862   6.068
 5139SOL    HW116237   2.177   4.941   6.005
 5139SOL    HW216238   2.174   4.778   6.015
 5140SOL     OW16239   2.404   4.253   6.446
 5140SOL    HW116240   2.414   4.314   6.368
 5140SOL    HW216241   2.477   4.271   6.512
 5141SOL     OW16242   3.108   5.089   5.996
 5141SOL    HW116243   3.171   5.160   6.026
 5141SOL    HW216244   3.014   5.113   6.022
 5142SOL     OW16245   3.168   5.160   6.750
 5142SOL    HW116246   3.222   5.117   6.822
 5142SOL    HW216247   3.080   5.113   6.743
 5143SOL     OW16248   3.447   4.355   6.068
 5143SOL    HW116249   3.394   4.397   6.142
 5143SOL    HW216250   3.512   4.421   6.031
 5144SOL     OW16251   2.204   5.287   6.839
 5144SOL    HW116252   2.188   5.222   6.766
 5144SOL    HW216253   2.302   5.289   6.862
 5145SOL     OW16254   2.464   4.593   6.643
 5145SOL    HW116255   2.504   4.685   6.638
 5145SOL    HW216256   2.404   4.588   6.723
 5146SOL     OW16257   3.149   4.584   6.577
 5146SOL    HW116258   3.054   4.552   6.571
 5146SOL    HW216259   3.211   4.508   6.560
 5147SOL     OW16260   3.069   4.245   5.851
 5147SOL    HW116261   3.086   4.166   5.909
 5147SOL    HW216262   3.021   4.315   5.904
 5148SOL     OW16263   2.162   3.933   6.834
 5148SOL    HW116264   2.102   3.979   6.899
 5148SOL    HW216265   2.139   3.835   6.832
 5149SOL     OW16266   1.876   5.022   6.868
 5149SOL    HW116267   1.924   4.959   6.928
 5149SOL    HW216268   1.896   5.116   6.896
 5150SOL     OW16269   2.584   4.332   6.638
 5150SOL    HW116270   2.664   4.315   6.580
 5150SOL    HW216271   2.560   4.429   6.634
 5151SOL     OW16272   2.184   3.787   6.226
 5151SOL    HW116273   2.146   3.878   6.242
 5151SOL    HW216274   2.193   3.739   6.313
 5152SOL     OW16275   3.485   4.121   5.927
 5152SOL    HW116276   3.529   4.053   5.986
 5152SOL    HW216277   3.457   4.199   5.982
 5153SOL     OW16278   2.877   4.489   6.576
 5153SOL    HW116279   2.851   4.502   6.672
 5153SOL    HW216280   2.859   4.395   6.549
 5154SOL     OW16281   3.380   3.983   5.704
 5154SOL    HW116282   3.330   3.905   5.742
 5154SOL    HW216283   3.418   4.037   5.778
 5155SOL     OW16284   3.139   4.549   5.594
 5155SOL    HW116285   3.175   4.457   5.607
 5155SOL    HW216286   3.177   4.588   5.510
 5156SOL     OW16287   2.915   5.082   6.440
 5156SOL    HW116288   2.936   4.997   6.391
 5156SOL    HW216289   2.974   5.155   6.407
 5157SOL     OW16290   2.208   4.540   6.529
 5157SOL    HW116291   2.305   4.561   6.540
 5157SOL    HW216292   2.191   4.446   6.556
 5158SOL     OW16293   2.187   4.266   6.602
 5158SOL    HW116294   2.139   4.179   6.594
 5158SOL    HW216295   2.268   4.264   6.543
 5159SOL     OW16296   3.040   3.932   0.030
 5159SOL    HW116297   3.114   3.891   0.083
 5159SOL    HW216298   3.078   3.994   6.962
 5160SOL     OW16299   1.882   5.016   5.769
 5160SOL    HW116300   1.790   5.042   5.740
 5160SOL    HW216301   1.881   4.923   5.806
 5161SOL     OW16302   1.959   5.488   6.556
 5161SOL    HW116303   1.920   5.408   6.511
 5161SOL    HW216304   2.049   5.508   6.517
 5162SOL     OW16305   2.345   5.289   6.478
 5162SOL    HW116306   2.419   5.348   6.510
 5162SOL    HW216307   2.380   5.227   6.408
 5163SOL     OW16308   2.787   4.538   6.842
 5163SOL    HW116309   2.848   4.588   6.904
 5163SOL    HW216310   2.735   4.470   6.894
 5164SOL     OW16311   1.933   4.345   6.720
 5164SOL    HW116312   1.984   4.332   6.635
 5164SOL    HW216313   1.994   4.331   6.798
 5165SOL     OW16314   2.671   4.296   5.955
 5165SOL    HW116315   2.681   4.214   5.899
 5165SOL    HW216316   2.590   4.348   5.925
 5166SOL     OW16317   3.521   4.332   6.737
 5166SOL    HW116318   3.506   4.261   6.805
 5166SOL    HW216319   3.619   4.338   6.715
 5167SOL     OW16320   2.535   4.174   6.857
 5167SOL    HW116321   2.498   4.086   6.828
 5167SOL    HW216322   2.551   4.232   6.777
 5168SOL     OW16323   2.835   5.372   6.943
 5168SOL    HW116324   2.796   5.320   6.867
 5168SOL    HW216325   2.819   5.470   6.928
 5169SOL     OW16326   2.302   4.206   5.757
 5169SOL    HW116327   2.372   4.274   5.781
 5169SOL    HW216328   2.212   4.248   5.761
 5170SOL     OW16329   2.006   4.848   0.049
 5170SOL    HW116330   2.067   4.816   0.121
 5170SOL    HW216331   2.016   4.790   6.968
 5171SOL     OW16332   3.162   4.687   6.834
 5171SOL    HW116333   3.166   4.661   6.737
 5171SOL    HW216334   3.212   4.773   6.848
 5172SOL     OW16335   3.193   4.597   5.862
 5172SOL    HW116336   3.127   4.558   5.926
 5172SOL    HW216337   3.164   4.580   5.768
 5173SOL     OW16338   3.604   5.475   6.732
 5173SOL    HW116339   3.684   5.489   6.673
 5173SOL    HW216340   3.576   5.379   6.726
 5174SOL     OW16341   3.135   5.444   6.726
 5174SOL    HW116342   3.217   5.481   6.683
 5174SOL    HW216343   3.145   5.345   6.737
 5175SOL     OW16344   1.916   5.022   6.585
 5175SOL    HW116345   1.898   5.016   6.684
 5175SOL    HW216346   1.883   4.939   6.541
 5176SOL     OW16347   3.631   3.930   6.064
 5176SOL    HW116348   3.686   3.908   5.983
 5176SOL    HW216349   3.586   3.847   6.097
 5177SOL     OW16350   3.267   5.300   6.091
 5177SOL    HW116351   3.327   5.333   6.018
 5177SOL    HW216352   3.205   5.374   6.118
 5178SOL     OW16353   3.146   4.664   6.238
 5178SOL    HW116354   3.220   4.600   6.258
 5178SOL    HW216355   3.182   4.742   6.186
 5179SOL     OW16356   2.533   5.362   5.736
 5179SOL    HW116357   2.551   5.384   5.641
 5179SOL    HW216358   2.478   5.279   5.742
 5180SOL     OW16359   3.704   3.895   6.562
 5180SOL    HW116360   3.739   3.803   6.545
 5180SOL    HW216361   3.616   3.906   6.517
 5181SOL     OW16362   2.094   4.034   6.300
 5181SOL    HW116363   2.007   4.076   6.273
 5181SOL    HW216364   2.102   4.035   6.400
 5182SOL     OW16365   3.083   5.306   5.632
 5182SOL    HW116366   3.075   5.213   5.669
 5182SOL    HW216367   3.007   5.324   5.570
 5183SOL     OW16368   2.597   4.717   6.962
 5183SOL    HW116369   2.647   4.655   6.902
 5183SOL    HW216370   2.654   4.795   6.984
 5184SOL     OW16371   2.778   4.622   5.853
 5184SOL    HW116372   2.840   4.670   5.791
 5184SOL    HW216373   2.830   4.555   5.907
 5185SOL     OW16374   3.352   5.377   5.646
 5185SOL    HW116375   3.256   5.351   5.633
 5185SOL    HW216376   3.397   5.383   5.557
 5186SOL     OW16377   3.462   5.000   6.829
 5186SOL    HW116378   3.557   4.997   6.862
 5186SOL    HW216379   3.400   4.972   6.902
 5187SOL     OW16380   2.950   4.834   6.340
 5187SOL    HW116381   2.869   4.784   6.371
 5187SOL    HW216382   3.014   4.770   6.297
 5188SOL     OW16383   2.908   3.974   6.510
 5188SOL    HW116384   2.901   3.926   6.422
 5188SOL    HW216385   2.909   3.907   6.584
 5189SOL     OW16386   2.461   5.214   6.043
 5189SOL    HW116387   2.521   5.157   5.986
 5189SOL    HW216388   2.382   5.243   5.989
 5190SOL     OW16389   3.522   4.122   6.922
 5190SOL    HW116390   3.473   4.101   0.006
 5190SOL    HW216391   3.554   4.037   6.880
 5191SOL     OW16392   2.138   5.073   5.884
 5191SOL    HW116393   2.048   5.058   5.843
 5191SOL    HW216394   2.127   5.123   5.970
 5192SOL     OW16395   2.556   3.908   0.078
 5192SOL    HW116396   2.648   3.873   0.096
 5192SOL    HW216397   2.562   4.001   0.042
 5193SOL     OW16398   1.947   4.045   5.583
 5193SOL    HW116399   1.863   4.029   5.532
 5193SOL    HW216400   1.984   4.135   5.558
 5194SOL     OW16401   1.906   3.875   5.830
 5194SOL    HW116402   1.890   3.944   5.759
 5194SOL    HW216403   1.998   3.838   5.820
 5195SOL     OW16404   3.047   5.047   5.722
 5195SOL    HW116405   2.952   5.017   5.711
 5195SOL    HW216406   3.071   5.050   5.819
 5196SOL     OW16407   3.364   5.557   6.625
 5196SOL    HW116408   3.383   5.621   6.550
 5196SOL    HW216409   3.451   5.526   6.665
 5197SOL     OW16410   3.339   5.034   0.281
 5197SOL    HW116411   3.257   5.061   0.333
 5197SOL    HW216412   3.335   4.937   0.260
 5198SOL     OW16413   2.269   5.445   0.124
 5198SOL    HW116414   2.175   5.479   0.121
 5198SOL    HW216415   2.269   5.345   0.120
 5199SOL     OW16416   3.577   4.596   6.829
 5199SOL    HW116417   3.552   4.504   6.799
 5199SOL    HW216418   3.534   4.664   6.769
 5200SOL     OW16419   3.094   4.043   6.045
 5200SOL    HW116420   3.154   3.963   6.044
 5200SOL    HW216421   3.119   4.102   6.122
 5201SOL     OW16422   2.433   4.453   6.259
 5201SOL    HW116423   2.478   4.541   6.247
 5201SOL    HW216424   2.366   4.440   6.186
 5202SOL     OW16425   3.622   4.590   0.109
 5202SOL    HW116426   3.614   4.686   0.138
 5202SOL    HW216427   3.609   4.585   0.009
 5203SOL     OW16428   2.744   5.075   5.663
 5203SOL    HW116429   2.703   5.086   5.754
 5203SOL    HW216430   2.757   5.165   5.621
 5204SOL     OW16431   2.538   5.475   6.527
 5204SOL    HW116432   2.512   5.571   6.518
 5204SOL    HW216433   2.638   5.467   6.525
 5205SOL     OW16434   2.733   4.702   6.454
 5205SOL    HW116435   2.780   4.623   6.495
 5205SOL    HW216436   2.678   4.748   6.524
 5206SOL     OW16437   2.942   4.726   5.668
 5206SOL    HW116438   2.908   4.779   5.590
 5206SOL    HW216439   3.013   4.663   5.637
 5207SOL     OW16440   3.688   5.286   6.431
 5207SOL    HW116441   3.606   5.278   6.374
 5207SOL    HW216442   3.683   5.221   6.507
 5208SOL     OW16443   2.003   4.956   6.271
 5208SOL    HW116444   2.030   4.906   6.354
 5208SOL    HW216445   2.054   4.920   6.193
 5209SOL     OW16446   3.640   3.883   6.828
 5209SOL    HW116447   3.617   3.786   6.834
 5209SOL    HW216448   3.665   3.906   6.734
 5210SOL     OW16449   2.268   4.138   6.101
 5210SOL    HW116450   2.310   4.067   6.044
 5210SOL    HW216451   2.215   4.096   6.174
 5211SOL     OW16452   3.502   5.225   6.676
 5211SOL    HW116453   3.432   5.218   6.605
 5211SOL    HW216454   3.496   5.146   6.737
 5212SOL     OW16455   2.182   4.309   6.883
 5212SOL    HW116456   2.231   4.243   6.940
 5212SOL    HW216457   2.197   4.287   6.786
 5213SOL     OW16458   2.685   5.314   6.252
 5213SOL    HW116459   2.661   5.388   6.189
 5213SOL    HW216460   2.607   5.251   6.260
 5214SOL     OW16461   3.293   3.963   6.681
 5214SOL    HW116462   3.290   3.865   6.702
 5214SOL    HW216463   3.248   4.014   6.755
 5215SOL     OW16464   2.907   3.733   6.665
 5215SOL    HW116465   2.862   3.669   6.602
 5215SOL    HW216466   2.991   3.692   6.700
 5216SOL     OW16467   2.646   5.049   5.921
 5216SOL    HW116468   2.624   4.953   5.937
 5216SOL    HW216469   2.726   5.074   5.976
 5217SOL     OW16470   2.483   5.283   6.856
 5217SOL    HW116471   2.488   5.378   6.888
 5217SOL    HW216472   2.572   5.255   6.822
 5218SOL     OW16473   3.246   3.753   5.779
 5218SOL    HW116474   3.294   3.680   5.730
 5218SOL    HW216475   3.151   3.727   5.792
 5219SOL     OW16476   3.160   4.206   6.255
 5219SOL    HW116477   3.106   4.289   6.248
 5219SOL    HW216478   3.156   4.172   6.350
 5220SOL     OW16479   3.452   3.925   6.466
 5220SOL    HW116480   3.396   3.948   6.545
 5220SOL    HW216481   3.452   4.002   6.402
 5221SOL     OW16482   1.898   4.757   5.890
 5221SOL    HW116483   1.997   4.747   5.874
 5221SOL    HW216484   1.858   4.668   5.906
 5222SOL     OW16485   2.754   5.408   5.908
 5222SOL    HW116486   2.676   5.387   5.850
 5222SOL    HW216487   2.730   5.479   5.973
 5223SOL     OW16488   2.050   6.207   0.138
 5223SOL    HW116489   1.956   6.175   0.145
 5223SOL    HW216490   2.073   6.224   0.042
 5224SOL     OW16491   2.076   5.872   0.990
 5224SOL    HW116492   2.114   5.838   1.076
 5224SOL    HW216493   1.987   5.829   0.973
 5225SOL     OW16494   1.839   5.999   0.637
 5225SOL    HW116495   1.757   6.029   0.686
 5225SOL    HW216496   1.817   5.918   0.582
 5226SOL     OW16497   2.419   6.886   1.223
 5226SOL    HW116498   2.357   6.919   1.151
 5226SOL    HW216499   2.371   6.887   1.311
 5227SOL     OW16500   3.483   0.065   0.672
 5227SOL    HW116501   3.503   0.119   0.753
 5227SOL    HW216502   3.385   0.068   0.653
 5228SOL     OW16503   2.995   6.304   0.687
 5228SOL    HW116504   3.043   6.391   0.676
 5228SOL    HW216505   2.942   6.305   0.772
 5229SOL     OW16506   3.652   6.114   0.145
 5229SOL    HW116507   3.617   6.205   0.122
 5229SOL    HW216508   3.601   6.078   0.223
 5230SOL     OW16509   2.524   6.707   1.013
 5230SOL    HW116510   2.500   6.765   1.090
 5230SOL    HW216511   2.488   6.747   0.929
 5231SOL     OW16512   2.757   6.326   1.853
 5231SOL    HW116513   2.760   6.388   1.931
 5231SOL    HW216514   2.771   6.378   1.769
 5232SOL     OW16515   2.560   6.552   0.646
 5232SOL    HW116516   2.636   6.555   0.711
 5232SOL    HW216517   2.485   6.609   0.680
 5233SOL     OW16518   2.552   6.768   1.836
 5233SOL    HW116519   2.572   6.826   1.915
 5233SOL    HW216520   2.542   6.826   1.755
 5234SOL     OW16521   2.224   6.983   1.055
 5234SOL    HW116522   2.137   6.949   1.018
 5234SOL    HW216523   2.264   0.049   0.991
 5235SOL     OW16524   2.332   5.949   1.450
 5235SOL    HW116525   2.412   5.891   1.467
 5235SOL    HW216526   2.250   5.900   1.479
 5236SOL     OW16527   3.445   6.033   0.757
 5236SOL    HW116528   3.380   6.044   0.682
 5236SOL    HW216529   3.421   6.097   0.831
 5237SOL     OW16530   2.134   6.684   0.891
 5237SOL    HW116531   2.137   6.588   0.920
 5237SOL    HW216532   2.080   6.737   0.957
 5238SOL     OW16533   2.455   6.523   0.154
 5238SOL    HW116534   2.510   6.535   0.072
 5238SOL    HW216535   2.496   6.572   0.230
 5239SOL     OW16536   3.451   5.719   1.466
 5239SOL    HW116537   3.495   5.798   1.424
 5239SOL    HW216538   3.410   5.746   1.553
 5240SOL     OW16539   1.972   6.261   0.558
 5240SOL    HW116540   1.934   6.171   0.580
 5240SOL    HW216541   1.964   6.321   0.637
 5241SOL     OW16542   3.563   6.460   0.649
 5241SOL    HW116543   3.655   6.450   0.688
 5241SOL    HW216544   3.566   6.522   0.571
 5242SOL     OW16545   3.533   6.678   0.474
 5242SOL    HW116546   3.561   6.728   0.392
 5242SOL    HW216547   3.570   6.724   0.555
 5243SOL     OW16548   1.991   6.339   1.571
 5243SOL    HW116549   2.082   6.380   1.573
 5243SOL    HW216550   1.923   6.409   1.550
 5244SOL     OW16551   3.138   6.791   1.427
 5244SOL    HW116552   3.168   6.724   1.359
 5244SOL    HW216553   3.201   6.791   1.504
 5245SOL     OW16554   2.689   5.619   0.520
 5245SOL    HW116555   2.735   5.703   0.494
 5245SOL    HW216556   2.590   5.633   0.519
 5246SOL     OW16557   2.060   6.528   1.307
 5246SOL    HW116558   2.149   6.487   1.287
 5246SOL    HW216559   1.993   6.495   1.241
 5247SOL     OW16560   3.330   6.618   0.273
 5247SOL    HW116561   3.261   6.549   0.293
 5247SOL    HW216562   3.402   6.615   0.343
 5248SOL     OW16563   2.217   5.843   1.880
 5248SOL    HW116564   2.256   5.924   1.923
 5248SOL    HW216565   2.118   5.856   1.868
 5249SOL     OW16566   3.273   6.946   0.964
 5249SOL    HW116567   3.188   6.922   1.012
 5249SOL    HW216568   3.306   6.865   0.915
 5250SOL     OW16569   2.447   6.271   0.266
 5250SOL    HW116570   2.457   6.363   0.228
 5250SOL    HW216571   2.383   6.274   0.343
 5251SOL     OW16572   3.140   5.973   0.937
 5251SOL    HW116573   3.047   5.937   0.937
 5251SOL    HW216574   3.198   5.918   0.997
 5252SOL     OW16575   2.663   6.172   1.442
 5252SOL    HW116576   2.638   6.147   1.536
 5252SOL    HW216577   2.635   6.099   1.380
 5253SOL     OW16578   3.251   6.052   1.674
 5253SOL    HW116579   3.255   6.100   1.761
 5253SOL    HW216580   3.296   5.963   1.683
 5254SOL     OW16581   2.805   6.464   1.611
 5254SOL    HW116582   2.865   6.398   1.567
 5254SOL    HW216583   2.754   6.515   1.542
 5255SOL     OW16584   2.872   5.968   1.192
 5255SOL    HW116585   2.777   5.981   1.221
 5255SOL    HW216586   2.874   5.916   1.107
 5256SOL     OW16587   2.915   6.296   0.423
 5256SOL    HW116588   2.940   6.298   0.519
 5256SOL    HW216589   2.826   6.252   0.412
 5257SOL     OW16590   1.946   6.443   0.777
 5257SOL    HW116591   2.033   6.423   0.821
 5257SOL    HW216592   1.900   6.517   0.825
 5258SOL     OW16593   2.787   5.945   0.215
 5258SOL    HW116594   2.866   5.998   0.184
 5258SOL    HW216595   2.792   5.852   0.178
 5259SOL     OW16596   3.531   6.149   1.833
 5259SOL    HW116597   3.521   6.233   1.780
 5259SOL    HW216598   3.558   6.074   1.773
 5260SOL     OW16599   3.295   6.745   0.604
 5260SOL    HW116600   3.377   6.711   0.558
 5260SOL    HW216601   3.266   6.830   0.560
 5261SOL     OW16602   2.415   5.728   0.928
 5261SOL    HW116603   2.423   5.752   1.024
 5261SOL    HW216604   2.414   5.811   0.872
 5262SOL     OW16605   3.671   6.654   0.903
 5262SOL    HW116606   3.636   6.704   0.824
 5262SOL    HW216607   3.598   6.645   0.972
 5263SOL     OW16608   2.206   6.528   0.288
 5263SOL    HW116609   2.285   6.536   0.228
 5263SOL    HW216610   2.193   6.432   0.313
 5264SOL     OW16611   3.330   6.345   0.715
 5264SOL    HW116612   3.332   6.295   0.801
 5264SOL    HW216613   3.419   6.389   0.700
 5265SOL     OW16614   2.076   5.846   1.494
 5265SOL    HW116615   2.006   5.917   1.495
 5265SOL    HW216616   2.039   5.763   1.536
 5266SOL     OW16617   3.536   0.032   0.079
 5266SOL    HW116618   3.561   0.127   0.096
 5266SOL    HW216619   3.437   0.024   0.069
 5267SOL     OW16620   2.241   6.261   0.459
 5267SOL    HW116621   2.260   6.164   0.472
 5267SOL    HW216622   2.147   6.281   0.488
 5268SOL     OW16623   3.351   5.793   1.720
 5268SOL    HW116624   3.369   5.813   1.817
 5268SOL    HW216625   3.280   5.723   1.713
 5269SOL     OW16626   2.627   5.852   1.762
 5269SOL    HW116627   2.715   5.805   1.756
 5269SOL    HW216628   2.570   5.807   1.830
 5270SOL     OW16629   3.179   6.173   1.439
 5270SOL    HW116630   3.214   6.138   1.525
 5270SOL    HW216631   3.218   6.263   1.421
 5271SOL     OW16632   2.787   6.101   0.888
 5271SOL    HW116633   2.763   6.091   0.792
 5271SOL    HW216634   2.815   6.013   0.925
 5272SOL     OW16635   2.414   5.660   0.488
 5272SOL    HW116636   2.333   5.659   0.547
 5272SOL    HW216637   2.402   5.727   0.415
 5273SOL     OW16638   3.266   6.743   0.034
 5273SOL    HW116639   3.284   6.690   0.117
 5273SOL    HW216640   3.232   6.682   6.962
 5274SOL     OW16641   2.834   5.844   0.464
 5274SOL    HW116642   2.801   5.882   0.377
 5274SOL    HW216643   2.933   5.855   0.470
 5275SOL     OW16644   2.922   6.281   1.442
 5275SOL    HW116645   2.845   6.218   1.448
 5275SOL    HW216646   3.007   6.230   1.442
 5276SOL     OW16647   3.215   0.137   0.706
 5276SOL    HW116648   3.171   0.227   0.698
 5276SOL    HW216649   3.202   0.102   0.799
 5277SOL     OW16650   2.354   6.704   0.733
 5277SOL    HW116651   2.279   6.699   0.799
 5277SOL    HW216652   2.317   6.718   0.642
 5278SOL     OW16653   2.901   6.203   0.025
 5278SOL    HW116654   2.803   6.199   0.045
 5278SOL    HW216655   2.952   6.175   0.106
 5279SOL     OW16656   1.971   6.129   1.397
 5279SOL    HW116657   2.065   6.125   1.362
 5279SOL    HW216658   1.964   6.205   1.462
 5280SOL     OW16659   2.427   5.780   1.196
 5280SOL    HW116660   2.461   5.705   1.252
 5280SOL    HW216661   2.329   5.792   1.213
 5281SOL     OW16662   2.736   6.045   0.629
 5281SOL    HW116663   2.694   6.103   0.559
 5281SOL    HW216664   2.771   5.962   0.587
 5282SOL     OW16665   2.885   5.635   0.729
 5282SOL    HW116666   2.819   5.635   0.654
 5282SOL    HW216667   2.862   5.563   0.794
 5283SOL     OW16668   3.316   6.682   0.879
 5283SOL    HW116669   3.254   6.605   0.897
 5283SOL    HW216670   3.316   6.703   0.781
 5284SOL     OW16671   3.317   6.196   0.953
 5284SOL    HW116672   3.248   6.124   0.960
 5284SOL    HW216673   3.379   6.190   1.031
 5285SOL     OW16674   3.688   6.401   0.367
 5285SOL    HW116675   3.748   6.345   0.424
 5285SOL    HW216676   3.688   6.366   0.273
 5286SOL     OW16677   3.623   6.822   0.686
 5286SOL    HW116678   3.721   6.838   0.673
 5286SOL    HW216679   3.575   6.910   0.682
 5287SOL     OW16680   3.223   6.135   0.066
 5287SOL    HW116681   3.153   6.135   0.138
 5287SOL    HW216682   3.285   6.059   0.080
 5288SOL     OW16683   2.379   5.842   0.285
 5288SOL    HW116684   2.444   5.803   0.219
 5288SOL    HW216685   2.333   5.920   0.243
 5289SOL     OW16686   3.617   6.795   1.582
 5289SOL    HW116687   3.664   6.746   1.656
 5289SOL    HW216688   3.659   6.885   1.570
 5290SOL     OW16689   2.905   6.876   1.289
 5290SOL    HW116690   2.819   6.868   1.340
 5290SOL    HW216691   2.982   6.856   1.350
 5291SOL     OW16692   3.052   6.818   1.066
 5291SOL    HW116693   2.987   6.839   1.138
 5291SOL    HW216694   3.003   6.794   0.982
 5292SOL     OW16695   3.479   6.662   1.104
 5292SOL    HW116696   3.462   6.724   1.180
 5292SOL    HW216697   3.409   6.674   1.034
 5293SOL     OW16698   2.789   5.661   1.385
 5293SOL    HW116699   2.808   5.642   1.289
 5293SOL    HW216700   2.869   5.706   1.426
 5294SOL     OW16701   2.809   6.677   1.783
 5294SOL    HW116702   2.714   6.702   1.800
 5294SOL    HW216703   2.813   6.603   1.716
 5295SOL     OW16704   2.580   6.630   0.377
 5295SOL    HW116705   2.567   6.606   0.473
 5295SOL    HW216706   2.664   6.587   0.343
 5296SOL     OW16707   2.296   6.393   1.263
 5296SOL    HW116708   2.369   6.406   1.330
 5296SOL    HW216709   2.261   6.299   1.269
 5297SOL     OW16710   3.123   5.951   1.292
 5297SOL    HW116711   3.149   6.034   1.342
 5297SOL    HW216712   3.031   5.963   1.254
 5298SOL     OW16713   2.236   6.729   0.480
 5298SOL    HW116714   2.289   6.801   0.434
 5298SOL    HW216715   2.223   6.652   0.419
 5299SOL     OW16716   2.391   6.120   0.867
 5299SOL    HW116717   2.406   6.176   0.786
 5299SOL    HW216718   2.464   6.138   0.934
 5300SOL     OW16719   3.462   6.227   0.484
 5300SOL    HW116720   3.394   6.261   0.548
 5300SOL    HW216721   3.528   6.299   0.464
 5301SOL     OW16722   2.296   6.343   1.622
 5301SOL    HW116723   2.363   6.375   1.555
 5301SOL    HW216724   2.330   6.260   1.666
 5302SOL     OW16725   3.500   6.381   1.694
 5302SOL    HW116726   3.406   6.416   1.684
 5302SOL    HW216727   3.557   6.419   1.622
 5303SOL     OW16728   2.862   5.718   1.756
 5303SOL    HW116729   2.919   5.799   1.745
 5303SOL    HW216730   2.915   5.636   1.733
 5304SOL     OW16731   2.350   5.627   1.766
 5304SOL    HW116732   2.297   5.573   1.701
 5304SOL    HW216733   2.299   5.709   1.792
 5305SOL     OW16734   2.442   6.444   1.036
 5305SOL    HW116735   2.471   6.540   1.028
 5305SOL    HW216736   2.387   6.433   1.118
 5306SOL     OW16737   3.166   6.434   0.993
 5306SOL    HW116738   3.071   6.411   0.971
 5306SOL    HW216739   3.223   6.353   0.980
 5307SOL     OW16740   3.025   6.108   0.258
 5307SOL    HW116741   3.057   6.032   0.313
 5307SOL    HW216742   2.991   6.181   0.318
 5308SOL     OW16743   2.155   5.775   1.236
 5308SOL    HW116744   2.123   5.807   1.325
 5308SOL    HW216745   2.136   5.677   1.227
 5309SOL     OW16746   1.923   6.896   1.288
 5309SOL    HW116747   1.969   6.849   1.363
 5309SOL    HW216748   1.892   6.986   1.320
 5310SOL     OW16749   2.581   6.205   1.050
 5310SOL    HW116750   2.656   6.189   0.986
 5310SOL    HW216751   2.543   6.296   1.035
 5311SOL     OW16752   3.601   6.575   1.867
 5311SOL    HW116753   3.566   6.495   1.817
 5311SOL    HW216754   3.547   6.588   1.950
 5312SOL     OW16755   2.178   5.650   0.635
 5312SOL    HW116756   2.141   5.741   0.653
 5312SOL    HW216757   2.191   5.602   0.721
 5313SOL     OW16758   3.514   5.994   0.358
 5313SOL    HW116759   3.542   5.924   0.423
 5313SOL    HW216760   3.490   6.078   0.407
 5314SOL     OW16761   2.891   6.344   0.960
 5314SOL    HW116762   2.869   6.365   1.055
 5314SOL    HW216763   2.860   6.251   0.938
 5315SOL     OW16764   3.783   0.025   1.586
 5315SOL    HW116765   3.823   0.114   1.560
 5315SOL    HW216766   3.832   6.989   1.665
 5316SOL     OW16767   2.201   6.532   1.799
 5316SOL    HW116768   2.270   6.547   1.870
 5316SOL    HW216769   2.235   6.464   1.733
 5317SOL     OW16770   3.337   5.902   0.169
 5317SOL    HW116771   3.307   5.808   0.185
 5317SOL    HW216772   3.403   5.928   0.239
 5318SOL     OW16773   3.160   6.409   0.038
 5318SOL    HW116774   3.191   6.314   0.028
 5318SOL    HW216775   3.177   6.458   6.952
 5319SOL     OW16776   2.175   6.404   0.932
 5319SOL    HW116777   2.274   6.421   0.938
 5319SOL    HW216778   2.156   6.310   0.961
 5320SOL     OW16779   2.159   6.127   1.001
 5320SOL    HW116780   2.119   6.035   0.994
 5320SOL    HW216781   2.244   6.129   0.947
 5321SOL     OW16782   2.997   5.950   1.699
 5321SOL    HW116783   2.949   6.001   1.770
 5321SOL    HW216784   3.087   5.992   1.683
 5322SOL     OW16785   3.020   5.777   1.482
 5322SOL    HW116786   3.003   5.839   1.559
 5322SOL    HW216787   3.066   5.827   1.409
 5323SOL     OW16788   2.798   6.379   1.215
 5323SOL    HW116789   2.857   6.357   1.293
 5323SOL    HW216790   2.717   6.322   1.216
 5324SOL     OW16791   1.909   6.178   1.130
 5324SOL    HW116792   1.991   6.170   1.073
 5324SOL    HW216793   1.933   6.164   1.226
 5325SOL     OW16794   2.056   6.130   1.739
 5325SOL    HW116795   2.127   6.084   1.684
 5325SOL    HW216796   2.021   6.209   1.688
 5326SOL     OW16797   3.257   6.502   1.645
 5326SOL    HW116798   3.278   6.600   1.647
 5326SOL    HW216799   3.249   6.471   1.550
 5327SOL     OW16800   2.683   6.157   0.373
 5327SOL    HW116801   2.706   6.083   0.310
 5327SOL    HW216802   2.600   6.202   0.342
 5328SOL     OW16803   3.500   6.175   1.157
 5328SOL    HW116804   3.484   6.109   1.231
 5328SOL    HW216805   3.597   6.174   1.132
 5329SOL     OW16806   2.600   6.001   1.235
 5329SOL    HW116807   2.535   5.926   1.224
 5329SOL    HW216808   2.580   6.072   1.167
 5330SOL     OW16809   2.287   6.072   0.159
 5330SOL    HW116810   2.354   6.137   0.197
 5330SOL    HW216811   2.195   6.110   0.167
 5331SOL     OW16812   2.056   6.739   1.479
 5331SOL    HW116813   2.026   6.710   1.570
 5331SOL    HW216814   2.058   6.660   1.418
 5332SOL     OW16815   3.172   6.610   1.202
 5332SOL    HW116816   3.175   6.538   1.133
 5332SOL    HW216817   3.135   6.694   1.161
 5333SOL     OW16818   3.142   6.429   0.312
 5333SOL    HW116819   3.063   6.385   0.354
 5333SOL    HW216820   3.141   6.413   0.213
 5334SOL     OW16821   1.956   6.856   1.022
 5334SOL    HW116822   1.942   6.867   1.121
 5334SOL    HW216823   1.894   6.785   0.988
 5335SOL     OW16824   2.816   5.684   0.119
 5335SOL    HW116825   2.892   5.730   0.074
 5335SOL    HW216826   2.851   5.607   0.173
 5336SOL     OW16827   3.604   5.784   0.517
 5336SOL    HW116828   3.661   5.752   0.441
 5336SOL    HW216829   3.550   5.708   0.553
 5337SOL     OW16830   3.138   6.535   0.680
 5337SOL    HW116831   3.207   6.464   0.692
 5337SOL    HW216832   3.179   6.614   0.635
 5338SOL     OW16833   2.643   6.853   1.391
 5338SOL    HW116834   2.613   6.889   1.479
 5338SOL    HW216835   2.573   6.870   1.322
 5339SOL     OW16836   3.709   5.737   0.959
 5339SOL    HW116837   3.738   5.644   0.939
 5339SOL    HW216838   3.617   5.752   0.921
 5340SOL     OW16839   2.092   5.899   0.708
 5340SOL    HW116840   2.004   5.941   0.683
 5340SOL    HW216841   2.100   5.896   0.807
 5341SOL     OW16842   2.689   6.585   1.394
 5341SOL    HW116843   2.737   6.553   1.313
 5341SOL    HW216844   2.676   6.684   1.389
 5342SOL     OW16845   2.798   6.512   0.280
 5342SOL    HW116846   2.845   6.536   0.195
 5342SOL    HW216847   2.850   6.442   0.329
 5343SOL     OW16848   2.269   6.913   1.452
 5343SOL    HW116849   2.280   6.961   1.538
 5343SOL    HW216850   2.192   6.849   1.459
 5344SOL     OW16851   3.456   6.841   1.334
 5344SOL    HW116852   3.531   6.816   1.396
 5344SOL    HW216853   3.399   6.911   1.377
 5345SOL     OW16854   2.942   6.741   0.820
 5345SOL    HW116855   2.860   6.685   0.829
 5345SOL    HW216856   3.011   6.692   0.766
 5346SOL     OW16857   2.895   5.824   0.951
 5346SOL    HW116858   2.891   5.786   0.859
 5346SOL    HW216859   2.890   5.750   1.018
 5347SOL     OW16860   3.623   5.951   1.398
 5347SOL    HW116861   3.691   6.024   1.393
 5347SOL    HW216862   3.645   5.880   1.331
 5348SOL     OW16863   1.967   6.663   1.744
 5348SOL    HW116864   1.890   6.627   1.798
 5348SOL    HW216865   2.050   6.612   1.767
 5349SOL     OW16866   2.556   5.775   1.502
 5349SOL    HW116867   2.640   5.746   1.457
 5349SOL    HW216868   2.577   5.809   1.594
 5350SOL     OW16869   1.962   5.904   6.986
 5350SOL    HW116870   1.896   5.843   6.941
 5350SOL    HW216871   1.913   5.982   0.024
 5351SOL     OW16872   3.277   6.428   1.383
 5351SOL    HW116873   3.223   6.491   1.327
 5351SOL    HW216874   3.371   6.427   1.350
 5352SOL     OW16875   1.905   5.730   0.266
 5352SOL    HW116876   1.914   5.826   0.242
 5352SOL    HW216877   1.959   5.674   0.203
 5353SOL     OW16878   2.499   6.396   1.442
 5353SOL    HW116879   2.559   6.476   1.432
 5353SOL    HW216880   2.556   6.313   1.446
 5354SOL     OW16881   2.601   6.127   1.703
 5354SOL    HW116882   2.647   6.187   1.768
 5354SOL    HW216883   2.610   6.032   1.733
 5355SOL     OW16884   3.334   6.766   1.645
 5355SOL    HW116885   3.315   6.786   1.741
 5355SOL    HW216886   3.430   6.784   1.625
 5356SOL     OW16887   3.524   6.439   1.261
 5356SOL    HW116888   3.521   6.351   1.212
 5356SOL    HW216889   3.513   6.514   1.196
 5357SOL     OW16890   3.101   5.916   0.446
 5357SOL    HW116891   3.182   5.865   0.417
 5357SOL    HW216892   3.123   5.969   0.528
 5358SOL     OW16893   2.432   6.303   0.666
 5358SOL    HW116894   2.483   6.389   0.656
 5358SOL    HW216895   2.364   6.297   0.593
 5359SOL     OW16896   3.593   5.928   1.674
 5359SOL    HW116897   3.603   5.941   1.575
 5359SOL    HW216898   3.513   5.871   1.692
 5360SOL     OW16899   3.642   6.512   1.499
 5360SOL    HW116900   3.638   6.611   1.508
 5360SOL    HW216901   3.606   6.486   1.409
 5361SOL     OW16902   2.734   6.568   0.866
 5361SOL    HW116903   2.781   6.489   0.904
 5361SOL    HW216904   2.670   6.604   0.934
 5362SOL     OW16905   2.927   6.561   0.042
 5362SOL    HW116906   2.879   6.533   6.959
 5362SOL    HW216907   3.014   6.511   0.048
 5363SOL     OW16908   2.061   6.918   1.803
 5363SOL    HW116909   2.026   6.825   1.792
 5363SOL    HW216910   2.064   6.942   1.900
 5364SOL     OW16911   2.041   6.818   0.660
 5364SOL    HW116912   2.065   6.772   0.746
 5364SOL    HW216913   2.094   6.779   0.585
 5365SOL     OW16914   2.536   6.976   1.626
 5365SOL    HW116915   2.448   6.987   1.671
 5365SOL    HW216916   2.561   0.062   1.580
 5366SOL     OW16917   3.672   5.746   1.231
 5366SOL    HW116918   3.670   5.648   1.251
 5366SOL    HW216919   3.688   5.759   1.133
 5367SOL     OW16920   2.270   5.999   0.506
 5367SOL    HW116921   2.309   5.927   0.449
 5367SOL    HW216922   2.216   5.958   0.580
 5368SOL     OW16923   3.464   0.031   1.137
 5368SOL    HW116924   3.400   0.003   1.066
 5368SOL    HW216925   3.469   6.959   1.207
 5369SOL     OW16926   2.217   6.132   1.282
 5369SOL    HW116927   2.272   6.067   1.335
 5369SOL    HW216928   2.220   6.107   1.186
 5370SOL     OW16929   3.284   5.822   1.114
 5370SOL    HW116930   3.294   5.724   1.133
 5370SOL    HW216931   3.234   5.866   1.189
 5371SOL     OW16932   2.876   5.601   1.119
 5371SOL    HW116933   2.817   5.537   1.069
 5371SOL    HW216934   2.968   5.562   1.124
 5372SOL     OW16935   2.686   6.882   0.312
 5372SOL    HW116936   2.648   6.793   0.336
 5372SOL    HW216937   2.696   6.937   0.395
 5373SOL     OW16938   3.216   5.649   0.198
 5373SOL    HW116939   3.277   5.576   0.166
 5373SOL    HW216940   3.131   5.609   0.231
 5374SOL     OW16941   3.153   6.062   0.672
 5374SOL    HW116942   3.105   6.150   0.668
 5374SOL    HW216943   3.150   6.027   0.766
 5375SOL     OW16944   3.449   5.789   0.894
 5375SOL    HW116945   3.394   5.814   0.974
 5375SOL    HW216946   3.451   5.866   0.831
 5376SOL     OW16947   1.951   6.637   0.264
 5376SOL    HW116948   2.046   6.609   0.275
 5376SOL    HW216949   1.891   6.569   0.306
 5377SOL     OW16950   2.064   6.186   2.009
 5377SOL    HW116951   1.971   6.175   2.045
 5377SOL    HW216952   2.061   6.184   1.909
 5378SOL     OW16953   2.078   5.874   2.850
 5378SOL    HW116954   2.113   5.841   2.937
 5378SOL    HW216955   1.987   5.834   2.833
 5379SOL     OW16956   1.847   6.002   2.501
 5379SOL    HW116957   1.764   6.025   2.551
 5379SOL    HW216958   1.829   5.925   2.439
 5380SOL     OW16959   2.419   6.886   3.086
 5380SOL    HW116960   2.357   6.917   3.014
 5380SOL    HW216961   2.372   6.886   3.174
 5381SOL     OW16962   3.459   0.060   2.541
 5381SOL    HW116963   3.486   0.112   2.622
 5381SOL    HW216964   3.363   0.077   2.520
 5382SOL     OW16965   2.990   6.312   2.534
 5382SOL    HW116966   3.038   6.399   2.526
 5382SOL    HW216967   2.936   6.311   2.618
 5383SOL     OW16968   3.658   6.152   2.070
 5383SOL    HW116969   3.616   6.159   1.979
 5383SOL    HW216970   3.608   6.084   2.125
 5384SOL     OW16971   2.526   6.708   2.874
 5384SOL    HW116972   2.502   6.764   2.953
 5384SOL    HW216973   2.492   6.751   2.791
 5385SOL     OW16974   2.757   6.327   3.714
 5385SOL    HW116975   2.759   6.389   3.792
 5385SOL    HW216976   2.771   6.379   3.629
 5386SOL     OW16977   2.566   6.559   2.489
 5386SOL    HW116978   2.638   6.562   2.559
 5386SOL    HW216979   2.487   6.611   2.521
 5387SOL     OW16980   2.551   6.766   3.695
 5387SOL    HW116981   2.570   6.825   3.774
 5387SOL    HW216982   2.540   6.823   3.613
 5388SOL     OW16983   2.221   6.980   2.921
 5388SOL    HW116984   2.134   6.947   2.884
 5388SOL    HW216985   2.262   0.045   2.856
 5389SOL     OW16986   2.331   5.951   3.312
 5389SOL    HW116987   2.413   5.896   3.330
 5389SOL    HW216988   2.250   5.901   3.343
 5390SOL     OW16989   3.446   6.025   2.613
 5390SOL    HW116990   3.387   6.037   2.533
 5390SOL    HW216991   3.420   6.091   2.683
 5391SOL     OW16992   2.138   6.683   2.758
 5391SOL    HW116993   2.142   6.587   2.785
 5391SOL    HW216994   2.087   6.735   2.826
 5392SOL     OW16995   2.414   6.578   2.001
 5392SOL    HW116996   2.453   6.631   1.926
 5392SOL    HW216997   2.470   6.591   2.083
 5393SOL     OW16998   3.453   5.722   3.328
 5393SOL    HW116999   3.495   5.804   3.289
 5393SOL    HW217000   3.409   5.746   3.415
 5394SOL     OW17001   1.970   6.260   2.438
 5394SOL    HW117002   1.934   6.169   2.459
 5394SOL    HW217003   1.960   6.319   2.518
 5395SOL     OW17004   3.558   6.465   2.507
 5395SOL    HW117005   3.649   6.455   2.549
 5395SOL    HW217006   3.563   6.529   2.431
 5396SOL     OW17007   3.549   6.686   2.323
 5396SOL    HW117008   3.630   6.677   2.266
 5396SOL    HW217009   3.572   6.739   2.405
 5397SOL     OW17010   1.991   6.339   3.433
 5397SOL    HW117011   2.082   6.380   3.434
 5397SOL    HW217012   1.923   6.409   3.412
 5398SOL     OW17013   3.136   6.789   3.288
 5398SOL    HW117014   3.167   6.722   3.220
 5398SOL    HW217015   3.201   6.791   3.364
 5399SOL     OW17016   2.692   5.604   2.376
 5399SOL    HW117017   2.739   5.687   2.347
 5399SOL    HW217018   2.594   5.621   2.379
 5400SOL     OW17019   2.061   6.528   3.169
 5400SOL    HW117020   2.150   6.487   3.148
 5400SOL    HW217021   1.993   6.495   3.103
 5401SOL     OW17022   3.419   6.606   2.085
 5401SOL    HW117023   3.347   6.541   2.108
 5401SOL    HW217024   3.465   6.635   2.169
 5402SOL     OW17025   2.214   5.843   3.746
 5402SOL    HW117026   2.254   5.924   3.789
 5402SOL    HW217027   2.116   5.857   3.733
 5403SOL     OW17028   3.277   6.942   2.830
 5403SOL    HW117029   3.191   6.917   2.875
 5403SOL    HW217030   3.310   6.864   2.775
 5404SOL     OW17031   2.438   6.285   2.138
 5404SOL    HW117032   2.439   6.373   2.089
 5404SOL    HW217033   2.368   6.288   2.210
 5405SOL     OW17034   3.140   5.977   2.799
 5405SOL    HW117035   3.047   5.940   2.797
 5405SOL    HW217036   3.197   5.921   2.858
 5406SOL     OW17037   2.663   6.171   3.305
 5406SOL    HW117038   2.637   6.147   3.398
 5406SOL    HW217039   2.635   6.098   3.243
 5407SOL     OW17040   3.250   6.052   3.535
 5407SOL    HW117041   3.255   6.100   3.622
 5407SOL    HW217042   3.295   5.963   3.544
 5408SOL     OW17043   2.805   6.465   3.471
 5408SOL    HW117044   2.865   6.399   3.427
 5408SOL    HW217045   2.754   6.515   3.402
 5409SOL     OW17046   2.873   5.972   3.051
 5409SOL    HW117047   2.778   5.983   3.081
 5409SOL    HW217048   2.875   5.922   2.965
 5410SOL     OW17049   2.913   6.292   2.266
 5410SOL    HW117050   2.937   6.297   2.363
 5410SOL    HW217051   2.825   6.247   2.256
 5411SOL     OW17052   1.938   6.445   2.648
 5411SOL    HW117053   2.027   6.427   2.690
 5411SOL    HW217054   1.893   6.521   2.695
 5412SOL     OW17055   2.728   5.935   2.067
 5412SOL    HW117056   2.788   5.984   2.004
 5412SOL    HW217057   2.678   5.864   2.017
 5413SOL     OW17058   3.529   6.150   3.696
 5413SOL    HW117059   3.520   6.234   3.642
 5413SOL    HW217060   3.556   6.074   3.636
 5414SOL     OW17061   3.299   6.747   2.450
 5414SOL    HW117062   3.378   6.721   2.394
 5414SOL    HW217063   3.279   6.844   2.435
 5415SOL     OW17064   2.417   5.734   2.790
 5415SOL    HW117065   2.424   5.756   2.887
 5415SOL    HW217066   2.415   5.818   2.736
 5416SOL     OW17067   3.665   6.659   2.766
 5416SOL    HW117068   3.628   6.707   2.687
 5416SOL    HW217069   3.594   6.650   2.836
 5417SOL     OW17070   2.174   6.556   2.146
 5417SOL    HW117071   2.254   6.571   2.088
 5417SOL    HW217072   2.153   6.458   2.148
 5418SOL     OW17073   3.326   6.349   2.574
 5418SOL    HW117074   3.330   6.296   2.658
 5418SOL    HW217075   3.415   6.393   2.558
 5419SOL     OW17076   2.075   5.847   3.358
 5419SOL    HW117077   2.006   5.920   3.359
 5419SOL    HW217078   2.037   5.766   3.402
 5420SOL     OW17079   3.489   6.966   1.982
 5420SOL    HW117080   3.461   0.062   1.985
 5420SOL    HW217081   3.412   6.909   1.954
 5421SOL     OW17082   3.258   5.684   2.322
 5421SOL    HW117083   3.257   5.662   2.224
 5421SOL    HW217084   3.346   5.658   2.360
 5422SOL     OW17085   2.239   6.264   2.334
 5422SOL    HW117086   2.258   6.166   2.344
 5422SOL    HW217087   2.144   6.282   2.362
 5423SOL     OW17088   3.348   5.792   3.582
 5423SOL    HW117089   3.366   5.813   3.678
 5423SOL    HW217090   3.277   5.722   3.575
 5424SOL     OW17091   2.526   5.690   1.969
 5424SOL    HW117092   2.586   5.614   1.992
 5424SOL    HW217093   2.458   5.659   1.901
 5425SOL     OW17094   2.630   5.855   3.626
 5425SOL    HW117095   2.718   5.808   3.621
 5425SOL    HW217096   2.572   5.809   3.694
 5426SOL     OW17097   3.178   6.174   3.300
 5426SOL    HW117098   3.213   6.138   3.387
 5426SOL    HW217099   3.217   6.264   3.283
 5427SOL     OW17100   2.787   6.100   2.739
 5427SOL    HW117101   2.763   6.090   2.642
 5427SOL    HW217102   2.815   6.011   2.776
 5428SOL     OW17103   2.423   5.649   2.354
 5428SOL    HW117104   2.344   5.649   2.416
 5428SOL    HW217105   2.415   5.726   2.290
 5429SOL     OW17106   3.269   6.772   1.927
 5429SOL    HW117107   3.332   6.713   1.979
 5429SOL    HW217108   3.178   6.729   1.925
 5430SOL     OW17109   2.148   5.632   2.047
 5430SOL    HW117110   2.195   5.708   2.002
 5430SOL    HW217111   2.216   5.573   2.091
 5431SOL     OW17112   2.823   5.836   2.307
 5431SOL    HW117113   2.789   5.871   2.219
 5431SOL    HW217114   2.921   5.853   2.314
 5432SOL     OW17115   2.921   6.282   3.300
 5432SOL    HW117116   2.843   6.219   3.307
 5432SOL    HW217117   3.006   6.230   3.301
 5433SOL     OW17118   3.198   0.153   2.579
 5433SOL    HW117119   3.160   0.244   2.563
 5433SOL    HW217120   3.186   0.128   2.675
 5434SOL     OW17121   2.347   6.693   2.580
 5434SOL    HW117122   2.277   6.691   2.652
 5434SOL    HW217123   2.303   6.716   2.493
 5435SOL     OW17124   2.891   6.091   1.909
 5435SOL    HW117125   2.849   6.180   1.889
 5435SOL    HW217126   2.961   6.103   1.980
 5436SOL     OW17127   1.971   6.128   3.261
 5436SOL    HW117128   2.065   6.125   3.224
 5436SOL    HW217129   1.964   6.204   3.325
 5437SOL     OW17130   2.423   5.783   3.058
 5437SOL    HW117131   2.454   5.706   3.115
 5437SOL    HW217132   2.326   5.799   3.074
 5438SOL     OW17133   2.736   6.044   2.478
 5438SOL    HW117134   2.693   6.104   2.410
 5438SOL    HW217135   2.767   5.960   2.433
 5439SOL     OW17136   2.877   5.641   2.594
 5439SOL    HW117137   2.814   5.637   2.517
 5439SOL    HW217138   2.855   5.569   2.659
 5440SOL     OW17139   3.321   6.683   2.732
 5440SOL    HW117140   3.257   6.609   2.749
 5440SOL    HW217141   3.327   6.701   2.633
 5441SOL     OW17142   3.320   6.195   2.808
 5441SOL    HW117143   3.251   6.123   2.816
 5441SOL    HW217144   3.382   6.191   2.886
 5442SOL     OW17145   3.688   6.371   2.231
 5442SOL    HW117146   3.744   6.336   2.306
 5442SOL    HW217147   3.675   6.300   2.162
 5443SOL     OW17148   3.609   6.826   2.547
 5443SOL    HW117149   3.707   6.844   2.544
 5443SOL    HW217150   3.559   6.913   2.548
 5444SOL     OW17151   3.252   6.161   1.924
 5444SOL    HW117152   3.202   6.131   2.005
 5444SOL    HW217153   3.350   6.147   1.938
 5445SOL     OW17154   2.393   5.839   2.163
 5445SOL    HW117155   2.445   5.789   2.095
 5445SOL    HW217156   2.358   5.924   2.122
 5446SOL     OW17157   3.618   6.794   3.445
 5446SOL    HW117158   3.665   6.746   3.518
 5446SOL    HW217159   3.659   6.884   3.432
 5447SOL     OW17160   2.906   6.875   3.149
 5447SOL    HW117161   2.820   6.867   3.200
 5447SOL    HW217162   2.983   6.854   3.209
 5448SOL     OW17163   3.053   6.816   2.924
 5448SOL    HW117164   2.987   6.838   2.996
 5448SOL    HW217165   3.004   6.793   2.840
 5449SOL     OW17166   3.475   6.664   2.967
 5449SOL    HW117167   3.457   6.726   3.043
 5449SOL    HW217168   3.405   6.676   2.896
 5450SOL     OW17169   2.787   5.666   3.248
 5450SOL    HW117170   2.805   5.646   3.151
 5450SOL    HW217171   2.867   5.711   3.288
 5451SOL     OW17172   2.809   6.676   3.646
 5451SOL    HW117173   2.713   6.700   3.662
 5451SOL    HW217174   2.813   6.603   3.577
 5452SOL     OW17175   2.590   6.616   2.209
 5452SOL    HW117176   2.583   6.597   2.307
 5452SOL    HW217177   2.672   6.572   2.172
 5453SOL     OW17178   2.296   6.393   3.124
 5453SOL    HW117179   2.370   6.406   3.191
 5453SOL    HW217180   2.261   6.300   3.130
 5454SOL     OW17181   3.123   5.952   3.152
 5454SOL    HW117182   3.149   6.035   3.202
 5454SOL    HW217183   3.031   5.965   3.114
 5455SOL     OW17184   2.204   6.747   2.346
 5455SOL    HW117185   2.240   6.829   2.301
 5455SOL    HW217186   2.193   6.675   2.278
 5456SOL     OW17187   2.392   6.124   2.730
 5456SOL    HW117188   2.406   6.182   2.649
 5456SOL    HW217189   2.465   6.140   2.795
 5457SOL     OW17190   3.443   6.210   2.350
 5457SOL    HW117191   3.380   6.251   2.416
 5457SOL    HW217192   3.511   6.278   2.322
 5458SOL     OW17193   2.297   6.342   3.484
 5458SOL    HW117194   2.363   6.375   3.416
 5458SOL    HW217195   2.333   6.259   3.527
 5459SOL     OW17196   3.499   6.382   3.556
 5459SOL    HW117197   3.406   6.416   3.545
 5459SOL    HW217198   3.557   6.419   3.483
 5460SOL     OW17199   2.864   5.720   3.621
 5460SOL    HW117200   2.920   5.802   3.608
 5460SOL    HW217201   2.917   5.639   3.597
 5461SOL     OW17202   2.349   5.631   3.629
 5461SOL    HW117203   2.298   5.581   3.559
 5461SOL    HW217204   2.297   5.712   3.657
 5462SOL     OW17205   2.448   6.443   2.899
 5462SOL    HW117206   2.475   6.539   2.890
 5462SOL    HW217207   2.389   6.432   2.979
 5463SOL     OW17208   3.164   6.430   2.852
 5463SOL    HW117209   3.069   6.407   2.830
 5463SOL    HW217210   3.222   6.351   2.838
 5464SOL     OW17211   3.065   6.107   2.127
 5464SOL    HW117212   3.081   6.028   2.186
 5464SOL    HW217213   3.016   6.178   2.178
 5465SOL     OW17214   2.151   5.782   3.098
 5465SOL    HW117215   2.121   5.813   3.188
 5465SOL    HW217216   2.131   5.685   3.088
 5466SOL     OW17217   1.916   6.893   3.153
 5466SOL    HW117218   1.965   6.847   3.227
 5466SOL    HW217219   1.889   6.984   3.183
 5467SOL     OW17220   2.586   6.204   2.910
 5467SOL    HW117221   2.658   6.187   2.843
 5467SOL    HW217222   2.547   6.295   2.896
 5468SOL     OW17223   3.601   6.574   3.729
 5468SOL    HW117224   3.566   6.495   3.678
 5468SOL    HW217225   3.547   6.588   3.812
 5469SOL     OW17226   2.187   5.651   2.497
 5469SOL    HW117227   2.149   5.743   2.513
 5469SOL    HW217228   2.197   5.604   2.585
 5470SOL     OW17229   3.486   5.982   2.205
 5470SOL    HW117230   3.530   5.914   2.263
 5470SOL    HW217231   3.458   6.060   2.260
 5471SOL     OW17232   2.889   6.344   2.813
 5471SOL    HW117233   2.867   6.364   2.909
 5471SOL    HW217234   2.860   6.251   2.791
 5472SOL     OW17235   3.783   0.025   3.448
 5472SOL    HW117236   3.823   0.114   3.422
 5472SOL    HW217237   3.832   6.989   3.528
 5473SOL     OW17238   2.202   6.531   3.660
 5473SOL    HW117239   2.270   6.546   3.732
 5473SOL    HW217240   2.236   6.463   3.595
 5474SOL     OW17241   3.384   5.844   1.983
 5474SOL    HW117242   3.331   5.768   2.019
 5474SOL    HW217243   3.421   5.898   2.058
 5475SOL     OW17244   3.142   6.405   1.873
 5475SOL    HW117245   3.175   6.311   1.887
 5475SOL    HW217246   3.177   6.440   1.787
 5476SOL     OW17247   2.175   6.405   2.794
 5476SOL    HW117248   2.274   6.419   2.790
 5476SOL    HW217249   2.155   6.312   2.824
 5477SOL     OW17250   2.160   6.129   2.863
 5477SOL    HW117251   2.119   6.037   2.855
 5477SOL    HW217252   2.244   6.132   2.810
 5478SOL     OW17253   2.996   5.954   3.561
 5478SOL    HW117254   2.948   6.004   3.632
 5478SOL    HW217255   3.086   5.994   3.545
 5479SOL     OW17256   3.017   5.783   3.343
 5479SOL    HW117257   3.002   5.845   3.420
 5479SOL    HW217258   3.064   5.832   3.270
 5480SOL     OW17259   1.880   6.895   2.062
 5480SOL    HW117260   1.788   6.911   2.026
 5480SOL    HW217261   1.888   6.800   2.092
 5481SOL     OW17262   2.799   6.378   3.071
 5481SOL    HW117263   2.856   6.356   3.150
 5481SOL    HW217264   2.718   6.319   3.071
 5482SOL     OW17265   1.908   6.177   2.993
 5482SOL    HW117266   1.991   6.170   2.936
 5482SOL    HW217267   1.932   6.163   3.089
 5483SOL     OW17268   2.056   6.131   3.602
 5483SOL    HW117269   2.127   6.086   3.548
 5483SOL    HW217270   2.021   6.209   3.551
 5484SOL     OW17271   3.257   6.502   3.506
 5484SOL    HW117272   3.277   6.600   3.508
 5484SOL    HW217273   3.249   6.471   3.412
 5485SOL     OW17274   2.674   6.162   2.224
 5485SOL    HW117275   2.684   6.079   2.169
 5485SOL    HW217276   2.590   6.210   2.197
 5486SOL     OW17277   3.500   6.177   3.016
 5486SOL    HW117278   3.482   6.111   3.089
 5486SOL    HW217279   3.598   6.175   2.993
 5487SOL     OW17280   2.601   6.001   3.097
 5487SOL    HW117281   2.535   5.926   3.086
 5487SOL    HW217282   2.582   6.071   3.028
 5488SOL     OW17283   2.304   6.063   2.031
 5488SOL    HW117284   2.371   6.132   2.057
 5488SOL    HW217285   2.212   6.103   2.033
 5489SOL     OW17286   2.056   6.739   3.341
 5489SOL    HW117287   2.027   6.709   3.432
 5489SOL    HW217288   2.059   6.660   3.280
 5490SOL     OW17289   3.170   6.608   3.061
 5490SOL    HW117290   3.173   6.536   2.992
 5490SOL    HW217291   3.134   6.692   3.020
 5491SOL     OW17292   3.205   6.446   2.142
 5491SOL    HW117293   3.142   6.401   2.205
 5491SOL    HW217294   3.176   6.428   2.048
 5492SOL     OW17295   1.956   6.856   2.887
 5492SOL    HW117296   1.940   6.865   2.985
 5492SOL    HW217297   1.895   6.786   2.849
 5493SOL     OW17298   3.630   5.790   2.342
 5493SOL    HW117299   3.685   5.769   2.261
 5493SOL    HW217300   3.586   5.707   2.374
 5494SOL     OW17301   3.138   6.542   2.532
 5494SOL    HW117302   3.205   6.470   2.548
 5494SOL    HW217303   3.182   6.619   2.486
 5495SOL     OW17304   2.644   6.853   3.251
 5495SOL    HW117305   2.615   6.889   3.340
 5495SOL    HW217306   2.573   6.870   3.183
 5496SOL     OW17307   3.707   5.740   2.820
 5496SOL    HW117308   3.738   5.647   2.798
 5496SOL    HW217309   3.615   5.753   2.783
 5497SOL     OW17310   2.097   5.898   2.569
 5497SOL    HW117311   2.010   5.941   2.543
 5497SOL    HW217312   2.104   5.895   2.669
 5498SOL     OW17313   3.125   0.178   1.869
 5498SOL    HW117314   3.129   0.109   1.941
 5498SOL    HW217315   3.032   0.181   1.831
 5499SOL     OW17316   2.689   6.584   3.253
 5499SOL    HW117317   2.738   6.552   3.171
 5499SOL    HW217318   2.677   6.683   3.248
 5500SOL     OW17319   2.816   6.493   2.092
 5500SOL    HW117320   2.887   6.555   2.058
 5500SOL    HW217321   2.856   6.427   2.155
 5501SOL     OW17322   2.268   6.913   3.314
 5501SOL    HW117323   2.280   6.961   3.401
 5501SOL    HW217324   2.192   6.849   3.321
 5502SOL     OW17325   3.456   6.844   3.199
 5502SOL    HW117326   3.531   6.814   3.258
 5502SOL    HW217327   3.406   6.918   3.243
 5503SOL     OW17328   2.945   6.739   2.677
 5503SOL    HW117329   2.861   6.684   2.685
 5503SOL    HW217330   3.013   6.688   2.624
 5504SOL     OW17331   2.893   5.827   2.812
 5504SOL    HW117332   2.891   5.788   2.720
 5504SOL    HW217333   2.888   5.754   2.880
 5505SOL     OW17334   3.621   5.953   3.263
 5505SOL    HW117335   3.689   6.026   3.258
 5505SOL    HW217336   3.643   5.883   3.194
 5506SOL     OW17337   1.968   6.662   3.607
 5506SOL    HW117338   1.891   6.626   3.661
 5506SOL    HW217339   2.051   6.611   3.630
 5507SOL     OW17340   2.558   5.785   3.367
 5507SOL    HW117341   2.641   5.755   3.320
 5507SOL    HW217342   2.580   5.816   3.459
 5508SOL     OW17343   1.944   5.903   1.857
 5508SOL    HW117344   1.863   5.885   1.802
 5508SOL    HW217345   1.979   5.995   1.836
 5509SOL     OW17346   3.276   6.428   3.244
 5509SOL    HW117347   3.222   6.490   3.187
 5509SOL    HW217348   3.370   6.427   3.212
 5510SOL     OW17349   1.904   5.738   2.107
 5510SOL    HW117350   1.888   5.805   2.034
 5510SOL    HW217351   1.997   5.701   2.098
 5511SOL     OW17352   2.500   6.395   3.303
 5511SOL    HW117353   2.559   6.475   3.291
 5511SOL    HW217354   2.556   6.313   3.307
 5512SOL     OW17355   2.600   6.128   3.566
 5512SOL    HW117356   2.646   6.190   3.630
 5512SOL    HW217357   2.611   6.034   3.597
 5513SOL     OW17358   3.334   6.766   3.507
 5513SOL    HW117359   3.316   6.787   3.603
 5513SOL    HW217360   3.430   6.784   3.487
 5514SOL     OW17361   3.523   6.440   3.122
 5514SOL    HW117362   3.520   6.353   3.072
 5514SOL    HW217363   3.511   6.515   3.057
 5515SOL     OW17364   3.092   5.907   2.321
 5515SOL    HW117365   3.153   5.828   2.320
 5515SOL    HW217366   3.113   5.966   2.398
 5516SOL     OW17367   2.432   6.312   2.532
 5516SOL    HW117368   2.485   6.395   2.515
 5516SOL    HW217369   2.363   6.301   2.461
 5517SOL     OW17370   3.591   5.928   3.538
 5517SOL    HW117371   3.601   5.941   3.439
 5517SOL    HW217372   3.511   5.870   3.556
 5518SOL     OW17373   3.642   6.511   3.360
 5518SOL    HW117374   3.638   6.611   3.370
 5518SOL    HW217375   3.605   6.486   3.270
 5519SOL     OW17376   2.732   6.570   2.720
 5519SOL    HW117377   2.779   6.490   2.757
 5519SOL    HW217378   2.668   6.606   2.788
 5520SOL     OW17379   3.024   6.642   1.941
 5520SOL    HW117380   2.947   6.666   1.882
 5520SOL    HW217381   3.060   6.552   1.915
 5521SOL     OW17382   2.061   6.918   3.665
 5521SOL    HW117383   2.026   6.824   3.655
 5521SOL    HW217384   2.064   6.941   3.762
 5522SOL     OW17385   2.024   6.824   2.541
 5522SOL    HW117386   2.055   6.776   2.623
 5522SOL    HW217387   2.076   6.791   2.461
 5523SOL     OW17388   2.536   6.976   3.486
 5523SOL    HW117389   2.448   6.987   3.533
 5523SOL    HW217390   2.560   0.062   3.440
 5524SOL     OW17391   3.671   5.752   3.091
 5524SOL    HW117392   3.660   5.654   3.110
 5524SOL    HW217393   3.688   5.765   2.993
 5525SOL     OW17394   2.274   6.001   2.374
 5525SOL    HW117395   2.314   5.929   2.318
 5525SOL    HW217396   2.218   5.960   2.446
 5526SOL     OW17397   3.465   0.032   3.002
 5526SOL    HW117398   3.402   0.004   2.930
 5526SOL    HW217399   3.470   6.961   3.072
 5527SOL     OW17400   2.216   6.133   3.144
 5527SOL    HW117401   2.271   6.068   3.197
 5527SOL    HW217402   2.219   6.108   3.047
 5528SOL     OW17403   3.281   5.820   2.973
 5528SOL    HW117404   3.286   5.721   2.991
 5528SOL    HW217405   3.232   5.865   3.048
 5529SOL     OW17406   2.873   5.604   2.982
 5529SOL    HW117407   2.811   5.538   2.939
 5529SOL    HW217408   2.965   5.566   2.986
 5530SOL     OW17409   2.598   6.892   2.134
 5530SOL    HW117410   2.591   6.796   2.160
 5530SOL    HW217411   2.631   6.945   2.213
 5531SOL     OW17412   3.247   5.615   2.055
 5531SOL    HW117413   3.296   5.544   2.004
 5531SOL    HW217414   3.152   5.588   2.068
 5532SOL     OW17415   3.146   6.069   2.534
 5532SOL    HW117416   3.098   6.156   2.529
 5532SOL    HW217417   3.145   6.035   2.628
 5533SOL     OW17418   3.447   5.784   2.755
 5533SOL    HW117419   3.391   5.809   2.834
 5533SOL    HW217420   3.448   5.860   2.690
 5534SOL     OW17421   1.904   6.628   2.165
 5534SOL    HW117422   2.002   6.622   2.152
 5534SOL    HW217423   1.866   6.536   2.177
 5535SOL     OW17424   2.063   6.187   3.872
 5535SOL    HW117425   1.971   6.175   3.908
 5535SOL    HW217426   2.061   6.185   3.772
 5536SOL     OW17427   2.078   5.871   4.713
 5536SOL    HW117428   2.115   5.838   4.800
 5536SOL    HW217429   1.988   5.831   4.698
 5537SOL     OW17430   1.848   6.001   4.364
 5537SOL    HW117431   1.765   6.024   4.414
 5537SOL    HW217432   1.829   5.925   4.301
 5538SOL     OW17433   2.419   6.886   4.948
 5538SOL    HW117434   2.357   6.918   4.877
 5538SOL    HW217435   2.372   6.887   5.036
 5539SOL     OW17436   3.457   0.058   4.404
 5539SOL    HW117437   3.483   0.111   4.484
 5539SOL    HW217438   3.360   0.075   4.384
 5540SOL     OW17439   2.989   6.312   4.397
 5540SOL    HW117440   3.038   6.399   4.388
 5540SOL    HW217441   2.935   6.312   4.481
 5541SOL     OW17442   3.658   6.152   3.933
 5541SOL    HW117443   3.616   6.159   3.842
 5541SOL    HW217444   3.608   6.084   3.987
 5542SOL     OW17445   2.527   6.708   4.737
 5542SOL    HW117446   2.502   6.765   4.815
 5542SOL    HW217447   2.493   6.751   4.653
 5543SOL     OW17448   2.757   6.326   5.576
 5543SOL    HW117449   2.760   6.389   5.654
 5543SOL    HW217450   2.771   6.378   5.491
 5544SOL     OW17451   2.566   6.559   4.351
 5544SOL    HW117452   2.638   6.562   4.421
 5544SOL    HW217453   2.487   6.611   4.383
 5545SOL     OW17454   2.552   6.768   5.561
 5545SOL    HW117455   2.573   6.825   5.641
 5545SOL    HW217456   2.543   6.826   5.480
 5546SOL     OW17457   2.220   6.981   4.783
 5546SOL    HW117458   2.133   6.947   4.746
 5546SOL    HW217459   2.261   0.045   4.718
 5547SOL     OW17460   2.332   5.949   5.173
 5547SOL    HW117461   2.413   5.893   5.191
 5547SOL    HW217462   2.250   5.901   5.204
 5548SOL     OW17463   3.448   6.026   4.474
 5548SOL    HW117464   3.392   6.040   4.392
 5548SOL    HW217465   3.420   6.092   4.545
 5549SOL     OW17466   2.138   6.683   4.620
 5549SOL    HW117467   2.142   6.587   4.647
 5549SOL    HW217468   2.086   6.735   4.688
 5550SOL     OW17469   2.414   6.578   3.864
 5550SOL    HW117470   2.453   6.630   3.788
 5550SOL    HW217471   2.471   6.591   3.945
 5551SOL     OW17472   3.453   5.720   5.191
 5551SOL    HW117473   3.496   5.800   5.150
 5551SOL    HW217474   3.411   5.746   5.278
 5552SOL     OW17475   1.970   6.260   4.300
 5552SOL    HW117476   1.934   6.169   4.321
 5552SOL    HW217477   1.960   6.319   4.380
 5553SOL     OW17478   3.558   6.464   4.369
 5553SOL    HW117479   3.648   6.455   4.411
 5553SOL    HW217480   3.563   6.528   4.292
 5554SOL     OW17481   3.549   6.686   4.185
 5554SOL    HW117482   3.630   6.677   4.128
 5554SOL    HW217483   3.572   6.739   4.267
 5555SOL     OW17484   1.991   6.340   5.296
 5555SOL    HW117485   2.082   6.381   5.297
 5555SOL    HW217486   1.923   6.410   5.274
 5556SOL     OW17487   3.136   6.789   5.149
 5556SOL    HW117488   3.167   6.722   5.081
 5556SOL    HW217489   3.201   6.791   5.225
 5557SOL     OW17490   2.692   5.608   4.239
 5557SOL    HW117491   2.738   5.692   4.210
 5557SOL    HW217492   2.593   5.624   4.242
 5558SOL     OW17493   2.061   6.528   5.031
 5558SOL    HW117494   2.150   6.487   5.010
 5558SOL    HW217495   1.993   6.495   4.965
 5559SOL     OW17496   3.419   6.606   3.947
 5559SOL    HW117497   3.347   6.541   3.969
 5559SOL    HW217498   3.465   6.635   4.031
 5560SOL     OW17499   2.217   5.842   5.605
 5560SOL    HW117500   2.256   5.923   5.648
 5560SOL    HW217501   2.118   5.855   5.592
 5561SOL     OW17502   3.284   6.938   4.695
 5561SOL    HW117503   3.195   6.917   4.737
 5561SOL    HW217504   3.314   6.860   4.639
 5562SOL     OW17505   2.438   6.286   4.000
 5562SOL    HW117506   2.439   6.373   3.951
 5562SOL    HW217507   2.368   6.289   4.072
 5563SOL     OW17508   3.140   5.978   4.662
 5563SOL    HW117509   3.048   5.940   4.659
 5563SOL    HW217510   3.198   5.922   4.721
 5564SOL     OW17511   2.663   6.171   5.167
 5564SOL    HW117512   2.637   6.147   5.261
 5564SOL    HW217513   2.635   6.099   5.104
 5565SOL     OW17514   3.250   6.052   5.398
 5565SOL    HW117515   3.255   6.101   5.485
 5565SOL    HW217516   3.296   5.963   5.407
 5566SOL     OW17517   2.804   6.465   5.333
 5566SOL    HW117518   2.865   6.399   5.289
 5566SOL    HW217519   2.753   6.515   5.263
 5567SOL     OW17520   2.872   5.970   4.915
 5567SOL    HW117521   2.777   5.982   4.944
 5567SOL    HW217522   2.874   5.923   4.827
 5568SOL     OW17523   2.913   6.292   4.129
 5568SOL    HW117524   2.936   6.298   4.226
 5568SOL    HW217525   2.825   6.247   4.118
 5569SOL     OW17526   1.938   6.444   4.510
 5569SOL    HW117527   2.027   6.427   4.552
 5569SOL    HW217528   1.893   6.521   4.557
 5570SOL     OW17529   2.728   5.936   3.929
 5570SOL    HW117530   2.788   5.986   3.866
 5570SOL    HW217531   2.678   5.866   3.879
 5571SOL     OW17532   3.530   6.150   5.557
 5571SOL    HW117533   3.520   6.233   5.503
 5571SOL    HW217534   3.557   6.074   5.497
 5572SOL     OW17535   3.299   6.747   4.313
 5572SOL    HW117536   3.378   6.720   4.257
 5572SOL    HW217537   3.280   6.844   4.300
 5573SOL     OW17538   2.415   5.731   4.652
 5573SOL    HW117539   2.422   5.755   4.749
 5573SOL    HW217540   2.412   5.815   4.597
 5574SOL     OW17541   3.665   6.659   4.629
 5574SOL    HW117542   3.627   6.706   4.549
 5574SOL    HW217543   3.594   6.649   4.698
 5575SOL     OW17544   2.174   6.556   4.007
 5575SOL    HW117545   2.254   6.571   3.949
 5575SOL    HW217546   2.152   6.458   4.008
 5576SOL     OW17547   3.326   6.349   4.436
 5576SOL    HW117548   3.330   6.297   4.521
 5576SOL    HW217549   3.414   6.393   4.419
 5577SOL     OW17550   2.076   5.846   5.219
 5577SOL    HW117551   2.006   5.918   5.220
 5577SOL    HW217552   2.039   5.764   5.261
 5578SOL     OW17553   3.489   6.966   3.844
 5578SOL    HW117554   3.461   0.062   3.847
 5578SOL    HW217555   3.412   6.909   3.816
 5579SOL     OW17556   3.259   5.685   4.185
 5579SOL    HW117557   3.258   5.664   4.087
 5579SOL    HW217558   3.346   5.656   4.224
 5580SOL     OW17559   2.239   6.264   4.197
 5580SOL    HW117560   2.258   6.166   4.207
 5580SOL    HW217561   2.145   6.282   4.224
 5581SOL     OW17562   3.351   5.793   5.445
 5581SOL    HW117563   3.368   5.813   5.541
 5581SOL    HW217564   3.280   5.723   5.438
 5582SOL     OW17565   2.527   5.692   3.831
 5582SOL    HW117566   2.591   5.618   3.848
 5582SOL    HW217567   2.458   5.662   3.764
 5583SOL     OW17568   2.627   5.852   5.486
 5583SOL    HW117569   2.716   5.805   5.481
 5583SOL    HW217570   2.570   5.807   5.555
 5584SOL     OW17571   3.177   6.173   5.163
 5584SOL    HW117572   3.213   6.138   5.250
 5584SOL    HW217573   3.217   6.263   5.145
 5585SOL     OW17574   2.787   6.100   4.601
 5585SOL    HW117575   2.763   6.091   4.505
 5585SOL    HW217576   2.816   6.011   4.637
 5586SOL     OW17577   2.422   5.651   4.219
 5586SOL    HW117578   2.342   5.649   4.279
 5586SOL    HW217579   2.414   5.726   4.155
 5587SOL     OW17580   3.269   6.773   3.790
 5587SOL    HW117581   3.332   6.714   3.841
 5587SOL    HW217582   3.178   6.731   3.787
 5588SOL     OW17583   2.147   5.629   3.909
 5588SOL    HW117584   2.193   5.705   3.864
 5588SOL    HW217585   2.215   5.571   3.954
 5589SOL     OW17586   2.824   5.838   4.169
 5589SOL    HW117587   2.790   5.873   4.081
 5589SOL    HW217588   2.922   5.855   4.175
 5590SOL     OW17589   2.921   6.282   5.162
 5590SOL    HW117590   2.843   6.220   5.170
 5590SOL    HW217591   3.006   6.230   5.163
 5591SOL     OW17592   3.196   0.155   4.439
 5591SOL    HW117593   3.154   0.240   4.407
 5591SOL    HW217594   3.192   0.151   4.538
 5592SOL     OW17595   2.347   6.693   4.442
 5592SOL    HW117596   2.277   6.691   4.514
 5592SOL    HW217597   2.303   6.715   4.355
 5593SOL     OW17598   2.891   6.093   3.772
 5593SOL    HW117599   2.849   6.182   3.752
 5593SOL    HW217600   2.961   6.105   3.842
 5594SOL     OW17601   1.972   6.130   5.122
 5594SOL    HW117602   2.065   6.126   5.086
 5594SOL    HW217603   1.965   6.206   5.187
 5595SOL     OW17604   2.426   5.782   4.921
 5595SOL    HW117605   2.460   5.707   4.978
 5595SOL    HW217606   2.328   5.794   4.937
 5596SOL     OW17607   2.735   6.045   4.340
 5596SOL    HW117608   2.692   6.105   4.272
 5596SOL    HW217609   2.768   5.961   4.295
 5597SOL     OW17610   2.875   5.641   4.456
 5597SOL    HW117611   2.812   5.638   4.379
 5597SOL    HW217612   2.852   5.569   4.521
 5598SOL     OW17613   3.321   6.681   4.594
 5598SOL    HW117614   3.256   6.606   4.611
 5598SOL    HW217615   3.326   6.699   4.496
 5599SOL     OW17616   3.320   6.195   4.670
 5599SOL    HW117617   3.251   6.123   4.678
 5599SOL    HW217618   3.383   6.190   4.748
 5600SOL     OW17619   3.688   6.372   4.093
 5600SOL    HW117620   3.744   6.337   4.167
 5600SOL    HW217621   3.675   6.300   4.024
 5601SOL     OW17622   3.608   6.825   4.410
 5601SOL    HW117623   3.707   6.844   4.406
 5601SOL    HW217624   3.558   6.912   4.411
 5602SOL     OW17625   3.251   6.161   3.785
 5602SOL    HW117626   3.202   6.131   3.867
 5602SOL    HW217627   3.350   6.147   3.798
 5603SOL     OW17628   2.392   5.839   4.026
 5603SOL    HW117629   2.445   5.789   3.958
 5603SOL    HW217630   2.358   5.924   3.986
 5604SOL     OW17631   3.617   6.794   5.307
 5604SOL    HW117632   3.665   6.746   5.380
 5604SOL    HW217633   3.659   6.884   5.294
 5605SOL     OW17634   2.906   6.875   5.009
 5605SOL    HW117635   2.820   6.867   5.061
 5605SOL    HW217636   2.983   6.854   5.069
 5606SOL     OW17637   3.054   6.817   4.785
 5606SOL    HW117638   2.988   6.838   4.856
 5606SOL    HW217639   3.006   6.794   4.700
 5607SOL     OW17640   3.475   6.663   4.830
 5607SOL    HW117641   3.457   6.726   4.905
 5607SOL    HW217642   3.405   6.676   4.759
 5608SOL     OW17643   2.790   5.661   5.109
 5608SOL    HW117644   2.809   5.642   5.012
 5608SOL    HW217645   2.869   5.706   5.150
 5609SOL     OW17646   2.809   6.676   5.507
 5609SOL    HW117647   2.713   6.700   5.524
 5609SOL    HW217648   2.813   6.603   5.439
 5610SOL     OW17649   2.590   6.617   4.071
 5610SOL    HW117650   2.583   6.597   4.169
 5610SOL    HW217651   2.672   6.572   4.035
 5611SOL     OW17652   2.296   6.393   4.986
 5611SOL    HW117653   2.370   6.406   5.053
 5611SOL    HW217654   2.261   6.300   4.992
 5612SOL     OW17655   3.122   5.950   5.017
 5612SOL    HW117656   3.149   6.033   5.066
 5612SOL    HW217657   3.031   5.963   4.978
 5613SOL     OW17658   2.204   6.747   4.207
 5613SOL    HW117659   2.240   6.829   4.163
 5613SOL    HW217660   2.192   6.674   4.140
 5614SOL     OW17661   2.391   6.125   4.592
 5614SOL    HW117662   2.405   6.182   4.512
 5614SOL    HW217663   2.465   6.141   4.658
 5615SOL     OW17664   3.442   6.209   4.213
 5615SOL    HW117665   3.379   6.251   4.279
 5615SOL    HW217666   3.510   6.276   4.184
 5616SOL     OW17667   2.297   6.343   5.346
 5616SOL    HW117668   2.363   6.376   5.278
 5616SOL    HW217669   2.333   6.260   5.390
 5617SOL     OW17670   3.499   6.381   5.417
 5617SOL    HW117671   3.406   6.416   5.407
 5617SOL    HW217672   3.557   6.419   5.344
 5618SOL     OW17673   2.862   5.718   5.481
 5618SOL    HW117674   2.919   5.799   5.470
 5618SOL    HW217675   2.914   5.636   5.458
 5619SOL     OW17676   2.350   5.627   5.491
 5619SOL    HW117677   2.297   5.573   5.426
 5619SOL    HW217678   2.299   5.709   5.518
 5620SOL     OW17679   2.448   6.444   4.761
 5620SOL    HW117680   2.475   6.540   4.752
 5620SOL    HW217681   2.389   6.433   4.841
 5621SOL     OW17682   3.164   6.430   4.714
 5621SOL    HW117683   3.069   6.406   4.692
 5621SOL    HW217684   3.223   6.350   4.700
 5622SOL     OW17685   3.065   6.108   3.989
 5622SOL    HW117686   3.082   6.029   4.048
 5622SOL    HW217687   3.017   6.178   4.041
 5623SOL     OW17688   2.155   5.777   4.960
 5623SOL    HW117689   2.124   5.810   5.049
 5623SOL    HW217690   2.133   5.679   4.952
 5624SOL     OW17691   1.915   6.892   5.015
 5624SOL    HW117692   1.965   6.846   5.089
 5624SOL    HW217693   1.889   6.984   5.045
 5625SOL     OW17694   2.587   6.205   4.772
 5625SOL    HW117695   2.658   6.188   4.704
 5625SOL    HW217696   2.547   6.295   4.758
 5626SOL     OW17697   3.600   6.574   5.590
 5626SOL    HW117698   3.566   6.495   5.539
 5626SOL    HW217699   3.546   6.587   5.672
 5627SOL     OW17700   2.185   5.648   4.361
 5627SOL    HW117701   2.147   5.739   4.376
 5627SOL    HW217702   2.195   5.600   4.448
 5628SOL     OW17703   3.487   5.981   4.067
 5628SOL    HW117704   3.530   5.913   4.126
 5628SOL    HW217705   3.458   6.060   4.122
 5629SOL     OW17706   2.889   6.344   4.675
 5629SOL    HW117707   2.868   6.364   4.771
 5629SOL    HW217708   2.860   6.251   4.653
 5630SOL     OW17709   3.783   0.025   5.309
 5630SOL    HW117710   3.822   0.113   5.283
 5630SOL    HW217711   3.831   6.989   5.389
 5631SOL     OW17712   2.202   6.531   5.524
 5631SOL    HW117713   2.271   6.546   5.595
 5631SOL    HW217714   2.236   6.463   5.458
 5632SOL     OW17715   3.384   5.846   3.844
 5632SOL    HW117716   3.331   5.770   3.880
 5632SOL    HW217717   3.422   5.900   3.920
 5633SOL     OW17718   3.143   6.406   3.735
 5633SOL    HW117719   3.175   6.312   3.748
 5633SOL    HW217720   3.178   6.441   3.648
 5634SOL     OW17721   2.174   6.404   4.656
 5634SOL    HW117722   2.273   6.419   4.652
 5634SOL    HW217723   2.155   6.311   4.686
 5635SOL     OW17724   2.159   6.127   4.726
 5635SOL    HW117725   2.119   6.035   4.718
 5635SOL    HW217726   2.243   6.131   4.672
 5636SOL     OW17727   2.997   5.950   5.423
 5636SOL    HW117728   2.949   6.002   5.494
 5636SOL    HW217729   3.087   5.992   5.408
 5637SOL     OW17730   3.020   5.777   5.207
 5637SOL    HW117731   3.003   5.839   5.284
 5637SOL    HW217732   3.065   5.828   5.133
 5638SOL     OW17733   1.880   6.895   3.924
 5638SOL    HW117734   1.788   6.911   3.888
 5638SOL    HW217735   1.888   6.800   3.954
 5639SOL     OW17736   2.800   6.378   4.932
 5639SOL    HW117737   2.857   6.356   5.011
 5639SOL    HW217738   2.718   6.320   4.933
 5640SOL     OW17739   1.908   6.177   4.854
 5640SOL    HW117740   1.990   6.170   4.798
 5640SOL    HW217741   1.932   6.164   4.951
 5641SOL     OW17742   2.057   6.131   5.463
 5641SOL    HW117743   2.128   6.086   5.409
 5641SOL    HW217744   2.021   6.210   5.413
 5642SOL     OW17745   3.257   6.502   5.369
 5642SOL    HW117746   3.277   6.600   5.370
 5642SOL    HW217747   3.248   6.471   5.274
 5643SOL     OW17748   2.674   6.163   4.087
 5643SOL    HW117749   2.684   6.080   4.032
 5643SOL    HW217750   2.590   6.211   4.060
 5644SOL     OW17751   3.500   6.177   4.878
 5644SOL    HW117752   3.483   6.111   4.952
 5644SOL    HW217753   3.597   6.175   4.855
 5645SOL     OW17754   2.601   6.002   4.958
 5645SOL    HW117755   2.535   5.928   4.948
 5645SOL    HW217756   2.582   6.073   4.890
 5646SOL     OW17757   2.303   6.064   3.895
 5646SOL    HW117758   2.371   6.133   3.921
 5646SOL    HW217759   2.212   6.104   3.897
 5647SOL     OW17760   2.056   6.739   5.203
 5647SOL    HW117761   2.027   6.709   5.294
 5647SOL    HW217762   2.058   6.660   5.142
 5648SOL     OW17763   3.170   6.608   4.923
 5648SOL    HW117764   3.173   6.536   4.854
 5648SOL    HW217765   3.134   6.692   4.881
 5649SOL     OW17766   3.205   6.446   4.004
 5649SOL    HW117767   3.142   6.401   4.067
 5649SOL    HW217768   3.176   6.429   3.909
 5650SOL     OW17769   1.956   6.856   4.749
 5650SOL    HW117770   1.939   6.865   4.847
 5650SOL    HW217771   1.895   6.786   4.711
 5651SOL     OW17772   3.629   5.789   4.206
 5651SOL    HW117773   3.683   5.768   4.125
 5651SOL    HW217774   3.585   5.705   4.238
 5652SOL     OW17775   3.138   6.541   4.393
 5652SOL    HW117776   3.205   6.469   4.410
 5652SOL    HW217777   3.182   6.619   4.348
 5653SOL     OW17778   2.644   6.853   5.114
 5653SOL    HW117779   2.615   6.888   5.202
 5653SOL    HW217780   2.573   6.870   5.045
 5654SOL     OW17781   3.707   5.738   4.686
 5654SOL    HW117782   3.738   5.645   4.665
 5654SOL    HW217783   3.616   5.753   4.647
 5655SOL     OW17784   2.097   5.895   4.433
 5655SOL    HW117785   2.011   5.939   4.406
 5655SOL    HW217786   2.104   5.893   4.532
 5656SOL     OW17787   3.124   0.178   3.733
 5656SOL    HW117788   3.128   0.109   3.806
 5656SOL    HW217789   3.032   0.181   3.695
 5657SOL     OW17790   2.689   6.584   5.115
 5657SOL    HW117791   2.738   6.553   5.033
 5657SOL    HW217792   2.677   6.683   5.110
 5658SOL     OW17793   2.816   6.494   3.954
 5658SOL    HW117794   2.887   6.555   3.920
 5658SOL    HW217795   2.857   6.427   4.017
 5659SOL     OW17796   2.268   6.913   5.176
 5659SOL    HW117797   2.280   6.961   5.263
 5659SOL    HW217798   2.192   6.849   5.183
 5660SOL     OW17799   3.456   6.843   5.063
 5660SOL    HW117800   3.530   6.814   5.123
 5660SOL    HW217801   3.405   6.917   5.106
 5661SOL     OW17802   2.945   6.739   4.538
 5661SOL    HW117803   2.861   6.685   4.546
 5661SOL    HW217804   3.012   6.688   4.484
 5662SOL     OW17805   2.894   5.828   4.674
 5662SOL    HW117806   2.891   5.789   4.582
 5662SOL    HW217807   2.891   5.754   4.741
 5663SOL     OW17808   3.621   5.954   5.125
 5663SOL    HW117809   3.689   6.028   5.120
 5663SOL    HW217810   3.644   5.884   5.057
 5664SOL     OW17811   1.968   6.662   5.469
 5664SOL    HW117812   1.891   6.626   5.523
 5664SOL    HW217813   2.051   6.611   5.492
 5665SOL     OW17814   2.557   5.777   5.227
 5665SOL    HW117815   2.641   5.749   5.182
 5665SOL    HW217816   2.578   5.811   5.319
 5666SOL     OW17817   1.943   5.904   3.720
 5666SOL    HW117818   1.862   5.886   3.665
 5666SOL    HW217819   1.978   5.995   3.698
 5667SOL     OW17820   3.275   6.428   5.106
 5667SOL    HW117821   3.222   6.490   5.049
 5667SOL    HW217822   3.370   6.427   5.074
 5668SOL     OW17823   1.903   5.735   3.969
 5668SOL    HW117824   1.886   5.802   3.898
 5668SOL    HW217825   1.996   5.698   3.959
 5669SOL     OW17826   2.500   6.396   5.165
 5669SOL    HW117827   2.559   6.475   5.153
 5669SOL    HW217828   2.556   6.313   5.169
 5670SOL     OW17829   2.599   6.127   5.428
 5670SOL    HW117830   2.646   6.188   5.492
 5670SOL    HW217831   2.609   6.032   5.458
 5671SOL     OW17832   3.333   6.766   5.369
 5671SOL    HW117833   3.315   6.787   5.465
 5671SOL    HW217834   3.429   6.784   5.349
 5672SOL     OW17835   3.523   6.439   4.984
 5672SOL    HW117836   3.520   6.353   4.934
 5672SOL    HW217837   3.511   6.515   4.920
 5673SOL     OW17838   3.092   5.907   4.183
 5673SOL    HW117839   3.154   5.829   4.182
 5673SOL    HW217840   3.114   5.966   4.261
 5674SOL     OW17841   2.432   6.312   4.395
 5674SOL    HW117842   2.485   6.395   4.377
 5674SOL    HW217843   2.362   6.301   4.324
 5675SOL     OW17844   3.593   5.928   5.399
 5675SOL    HW117845   3.602   5.942   5.301
 5675SOL    HW217846   3.513   5.871   5.418
 5676SOL     OW17847   3.642   6.512   5.222
 5676SOL    HW117848   3.638   6.611   5.232
 5676SOL    HW217849   3.605   6.486   5.132
 5677SOL     OW17850   2.732   6.570   4.582
 5677SOL    HW117851   2.779   6.490   4.619
 5677SOL    HW217852   2.668   6.606   4.650
 5678SOL     OW17853   3.024   6.642   3.803
 5678SOL    HW117854   2.946   6.666   3.744
 5678SOL    HW217855   3.060   6.553   3.777
 5679SOL     OW17856   2.060   6.918   5.526
 5679SOL    HW117857   2.026   6.824   5.516
 5679SOL    HW217858   2.066   6.942   5.623
 5680SOL     OW17859   2.024   6.824   4.402
 5680SOL    HW117860   2.055   6.776   4.484
 5680SOL    HW217861   2.076   6.791   4.323
 5681SOL     OW17862   2.537   6.976   5.350
 5681SOL    HW117863   2.448   6.986   5.395
 5681SOL    HW217864   2.561   0.061   5.304
 5682SOL     OW17865   3.674   5.751   4.957
 5682SOL    HW117866   3.684   5.655   4.982
 5682SOL    HW217867   3.687   5.762   4.859
 5683SOL     OW17868   2.274   6.000   4.238
 5683SOL    HW117869   2.314   5.929   4.181
 5683SOL    HW217870   2.218   5.958   4.310
 5684SOL     OW17871   3.467   0.033   4.867
 5684SOL    HW117872   3.406   0.003   4.793
 5684SOL    HW217873   3.472   6.962   4.937
 5685SOL     OW17874   2.217   6.133   5.006
 5685SOL    HW117875   2.272   6.068   5.058
 5685SOL    HW217876   2.219   6.108   4.909
 5686SOL     OW17877   3.284   5.824   4.837
 5686SOL    HW117878   3.298   5.727   4.858
 5686SOL    HW217879   3.233   5.867   4.912
 5687SOL     OW17880   2.881   5.601   4.840
 5687SOL    HW117881   2.818   5.539   4.793
 5687SOL    HW217882   2.973   5.562   4.839
 5688SOL     OW17883   2.598   6.893   3.998
 5688SOL    HW117884   2.591   6.796   4.023
 5688SOL    HW217885   2.631   6.945   4.077
 5689SOL     OW17886   3.247   5.619   3.918
 5689SOL    HW117887   3.296   5.549   3.866
 5689SOL    HW217888   3.152   5.591   3.931
 5690SOL     OW17889   3.145   6.070   4.396
 5690SOL    HW117890   3.096   6.157   4.392
 5690SOL    HW217891   3.145   6.036   4.490
 5691SOL     OW17892   3.448   5.786   4.617
 5691SOL    HW117893   3.392   5.813   4.696
 5691SOL    HW217894   3.450   5.861   4.550
 5692SOL     OW17895   1.904   6.628   4.028
 5692SOL    HW117896   2.002   6.622   4.014
 5692SOL    HW217897   1.866   6.536   4.039
 5693SOL     OW17898   2.064   6.186   5.734
 5693SOL    HW117899   1.971   6.175   5.770
 5693SOL    HW217900   2.061   6.185   5.634
 5694SOL     OW17901   2.078   5.880   6.581
 5694SOL    HW117902   2.121   5.848   6.665
 5694SOL    HW217903   1.987   5.841   6.574
 5695SOL     OW17904   1.845   6.001   6.229
 5695SOL    HW117905   1.761   6.023   6.278
 5695SOL    HW217906   1.828   5.926   6.165
 5696SOL     OW17907   2.403   6.909   6.787
 5696SOL    HW117908   2.330   6.937   6.725
 5696SOL    HW217909   2.365   6.897   6.879
 5697SOL     OW17910   3.442   0.046   6.249
 5697SOL    HW117911   3.432   0.050   6.348
 5697SOL    HW217912   3.359   0.082   6.206
 5698SOL     OW17913   2.989   6.304   6.254
 5698SOL    HW117914   3.034   6.393   6.252
 5698SOL    HW217915   2.932   6.297   6.336
 5699SOL     OW17916   3.658   6.152   5.794
 5699SOL    HW117917   3.616   6.159   5.703
 5699SOL    HW217918   3.608   6.085   5.848
 5700SOL     OW17919   2.526   6.714   6.614
 5700SOL    HW117920   2.493   6.780   6.682
 5700SOL    HW217921   2.497   6.743   6.523
 5701SOL     OW17922   2.568   6.559   6.220
 5701SOL    HW117923   2.641   6.559   6.288
 5701SOL    HW217924   2.490   6.611   6.255
 5702SOL     OW17925   2.194   0.007   6.644
 5702SOL    HW117926   2.109   6.968   6.608
 5702SOL    HW217927   2.233   0.069   6.576
 5703SOL     OW17928   3.444   6.031   6.335
 5703SOL    HW117929   3.377   6.039   6.261
 5703SOL    HW217930   3.423   6.096   6.407
 5704SOL     OW17931   2.139   6.683   6.497
 5704SOL    HW117932   2.142   6.587   6.522
 5704SOL    HW217933   2.086   6.733   6.566
 5705SOL     OW17934   2.414   6.578   5.727
 5705SOL    HW117935   2.453   6.631   5.652
 5705SOL    HW217936   2.471   6.591   5.809
 5706SOL     OW17937   1.970   6.258   6.160
 5706SOL    HW117938   1.932   6.168   6.182
 5706SOL    HW217939   1.963   6.317   6.241
 5707SOL     OW17940   3.563   6.467   6.232
 5707SOL    HW117941   3.654   6.456   6.271
 5707SOL    HW217942   3.568   6.530   6.154
 5708SOL     OW17943   3.548   6.684   6.043
 5708SOL    HW117944   3.628   6.673   5.984
 5708SOL    HW217945   3.571   6.740   6.122
 5709SOL     OW17946   2.691   5.605   6.095
 5709SOL    HW117947   2.738   5.688   6.067
 5709SOL    HW217948   2.592   5.621   6.099
 5710SOL     OW17949   2.016   6.541   6.836
 5710SOL    HW117950   2.095   6.486   6.808
 5710SOL    HW217951   1.932   6.491   6.816
 5711SOL     OW17952   3.418   6.606   5.806
 5711SOL    HW117953   3.345   6.541   5.829
 5711SOL    HW217954   3.463   6.635   5.890
 5712SOL     OW17955   3.324   6.970   6.501
 5712SOL    HW117956   3.252   0.023   6.456
 5712SOL    HW217957   3.303   6.872   6.496
 5713SOL     OW17958   2.437   6.285   5.861
 5713SOL    HW117959   2.438   6.372   5.812
 5713SOL    HW217960   2.367   6.288   5.933
 5714SOL     OW17961   3.137   5.983   6.517
 5714SOL    HW117962   3.044   5.946   6.519
 5714SOL    HW217963   3.196   5.929   6.577
 5715SOL     OW17964   2.633   6.193   0.057
 5715SOL    HW117965   2.558   6.215   0.119
 5715SOL    HW217966   2.600   6.132   6.985
 5716SOL     OW17967   2.860   5.995   6.764
 5716SOL    HW117968   2.770   6.010   6.806
 5716SOL    HW217969   2.853   5.928   6.691
 5717SOL     OW17970   2.912   6.291   5.988
 5717SOL    HW117971   2.937   6.295   6.084
 5717SOL    HW217972   2.823   6.246   5.978
 5718SOL     OW17973   1.948   6.440   6.371
 5718SOL    HW117974   2.036   6.422   6.416
 5718SOL    HW217975   1.905   6.520   6.413
 5719SOL     OW17976   2.728   5.936   5.791
 5719SOL    HW117977   2.788   5.985   5.728
 5719SOL    HW217978   2.679   5.864   5.741
 5720SOL     OW17979   3.297   6.745   6.176
 5720SOL    HW117980   3.374   6.714   6.121
 5720SOL    HW217981   3.290   6.844   6.171
 5721SOL     OW17982   2.417   5.730   6.514
 5721SOL    HW117983   2.427   5.759   6.609
 5721SOL    HW217984   2.419   5.811   6.455
 5722SOL     OW17985   3.679   6.663   6.473
 5722SOL    HW117986   3.640   6.711   6.394
 5722SOL    HW217987   3.605   6.640   6.537
 5723SOL     OW17988   2.175   6.555   5.874
 5723SOL    HW117989   2.254   6.571   5.815
 5723SOL    HW217990   2.153   6.457   5.874
 5724SOL     OW17991   3.330   6.350   6.295
 5724SOL    HW117992   3.332   6.300   6.381
 5724SOL    HW217993   3.418   6.396   6.280
 5725SOL     OW17994   3.490   6.966   5.706
 5725SOL    HW117995   3.460   0.061   5.710
 5725SOL    HW217996   3.413   6.908   5.678
 5726SOL     OW17997   3.258   5.682   6.045
 5726SOL    HW117998   3.257   5.660   5.947
 5726SOL    HW217999   3.346   5.657   6.084
 5727SOL     OW18000   2.238   6.264   6.057
 5727SOL    HW118001   2.258   6.166   6.068
 5727SOL    HW218002   2.144   6.282   6.084
 5728SOL     OW18003   2.526   5.690   5.694
 5728SOL    HW118004   2.588   5.615   5.716
 5728SOL    HW218005   2.459   5.659   5.626
 5729SOL     OW18006   2.797   6.112   6.463
 5729SOL    HW118007   2.770   6.098   6.368
 5729SOL    HW218008   2.829   6.026   6.502
 5730SOL     OW18009   2.420   5.649   6.080
 5730SOL    HW118010   2.341   5.648   6.142
 5730SOL    HW218011   2.412   5.725   6.016
 5731SOL     OW18012   3.268   6.776   5.653
 5731SOL    HW118013   3.330   6.716   5.703
 5731SOL    HW218014   3.177   6.734   5.649
 5732SOL     OW18015   2.148   5.630   5.772
 5732SOL    HW118016   2.196   5.705   5.726
 5732SOL    HW218017   2.216   5.570   5.816
 5733SOL     OW18018   2.822   5.837   6.031
 5733SOL    HW118019   2.789   5.873   5.943
 5733SOL    HW218020   2.921   5.853   6.038
 5734SOL     OW18021   3.152   0.123   6.330
 5734SOL    HW118022   3.151   0.222   6.314
 5734SOL    HW218023   3.060   0.087   6.320
 5735SOL     OW18024   2.348   6.690   6.318
 5735SOL    HW118025   2.278   6.691   6.389
 5735SOL    HW218026   2.306   6.710   6.230
 5736SOL     OW18027   2.890   6.092   5.633
 5736SOL    HW118028   2.849   6.181   5.613
 5736SOL    HW218029   2.961   6.103   5.703
 5737SOL     OW18030   2.434   5.788   6.784
 5737SOL    HW118031   2.469   5.707   6.831
 5737SOL    HW218032   2.337   5.798   6.805
 5738SOL     OW18033   2.737   6.045   6.204
 5738SOL    HW118034   2.694   6.104   6.135
 5738SOL    HW218035   2.768   5.961   6.160
 5739SOL     OW18036   2.876   5.634   6.310
 5739SOL    HW118037   2.812   5.631   6.233
 5739SOL    HW218038   2.855   5.561   6.374
 5740SOL     OW18039   3.286   6.692   6.465
 5740SOL    HW118040   3.231   6.612   6.490
 5740SOL    HW218041   3.292   6.697   6.365
 5741SOL     OW18042   3.325   6.202   6.533
 5741SOL    HW118043   3.256   6.131   6.546
 5741SOL    HW218044   3.392   6.198   6.607
 5742SOL     OW18045   3.688   6.371   5.954
 5742SOL    HW118046   3.744   6.336   6.029
 5742SOL    HW218047   3.675   6.300   5.885
 5743SOL     OW18048   3.616   6.829   6.258
 5743SOL    HW118049   3.714   6.851   6.261
 5743SOL    HW218050   3.563   6.913   6.259
 5744SOL     OW18051   3.252   6.161   5.648
 5744SOL    HW118052   3.202   6.131   5.729
 5744SOL    HW218053   3.350   6.148   5.662
 5745SOL     OW18054   2.392   5.839   5.888
 5745SOL    HW118055   2.445   5.788   5.820
 5745SOL    HW218056   2.357   5.923   5.848
 5746SOL     OW18057   3.604   6.834   0.261
 5746SOL    HW118058   3.690   6.784   0.248
 5746SOL    HW218059   3.596   6.905   0.192
 5747SOL     OW18060   2.877   6.875   6.918
 5747SOL    HW118061   2.786   6.867   6.959
 5747SOL    HW218062   2.942   6.823   6.973
 5748SOL     OW18063   3.000   6.749   6.702
 5748SOL    HW118064   2.949   6.808   6.764
 5748SOL    HW218065   2.985   6.779   6.607
 5749SOL     OW18066   3.478   6.628   6.653
 5749SOL    HW118067   3.473   6.690   6.731
 5749SOL    HW218068   3.403   6.647   6.590
 5750SOL     OW18069   2.590   6.616   5.936
 5750SOL    HW118070   2.584   6.597   6.034
 5750SOL    HW218071   2.672   6.572   5.899
 5751SOL     OW18072   2.289   6.421   6.856
 5751SOL    HW118073   2.322   6.462   6.942
 5751SOL    HW218074   2.253   6.329   6.875
 5752SOL     OW18075   3.121   5.988   6.853
 5752SOL    HW118076   3.152   6.060   6.916
 5752SOL    HW218077   3.028   6.009   6.823
 5753SOL     OW18078   2.210   6.741   6.079
 5753SOL    HW118079   2.250   6.821   6.033
 5753SOL    HW218080   2.195   6.669   6.012
 5754SOL     OW18081   2.405   6.112   6.445
 5754SOL    HW118082   2.414   6.174   6.367
 5754SOL    HW218083   2.478   6.132   6.511
 5755SOL     OW18084   3.443   6.215   6.068
 5755SOL    HW118085   3.384   6.254   6.139
 5755SOL    HW218086   3.511   6.283   6.041
 5756SOL     OW18087   2.468   6.446   6.648
 5756SOL    HW118088   2.484   6.543   6.630
 5756SOL    HW218089   2.401   6.437   6.721
 5757SOL     OW18090   3.174   6.442   6.570
 5757SOL    HW118091   3.077   6.419   6.564
 5757SOL    HW218092   3.229   6.360   6.557
 5758SOL     OW18093   3.065   6.106   5.850
 5758SOL    HW118094   3.081   6.027   5.910
 5758SOL    HW218095   3.016   6.177   5.901
 5759SOL     OW18096   2.165   5.795   6.831
 5759SOL    HW118097   2.105   5.842   6.896
 5759SOL    HW218098   2.142   5.697   6.830
 5760SOL     OW18099   1.878   6.903   6.880
 5760SOL    HW118100   1.943   6.850   6.934
 5760SOL    HW218101   1.849   6.983   6.932
 5761SOL     OW18102   2.586   6.194   6.634
 5761SOL    HW118103   2.667   6.184   6.576
 5761SOL    HW218104   2.556   6.289   6.635
 5762SOL     OW18105   2.185   5.649   6.225
 5762SOL    HW118106   2.147   5.741   6.241
 5762SOL    HW218107   2.193   5.602   6.313
 5763SOL     OW18108   3.484   5.984   5.928
 5763SOL    HW118109   3.529   5.916   5.987
 5763SOL    HW218110   3.457   6.063   5.982
 5764SOL     OW18111   2.894   6.354   6.562
 5764SOL    HW118112   2.876   6.366   6.660
 5764SOL    HW218113   2.868   6.261   6.535
 5765SOL     OW18114   3.384   5.844   5.707
 5765SOL    HW118115   3.331   5.767   5.743
 5765SOL    HW218116   3.420   5.899   5.782
 5766SOL     OW18117   3.141   6.405   5.597
 5766SOL    HW118118   3.175   6.312   5.610
 5766SOL    HW218119   3.176   6.441   5.510
 5767SOL     OW18120   2.184   6.401   6.520
 5767SOL    HW118121   2.280   6.418   6.498
 5767SOL    HW218122   2.174   6.308   6.556
 5768SOL     OW18123   2.188   6.126   6.600
 5768SOL    HW118124   2.141   6.038   6.592
 5768SOL    HW218125   2.269   6.126   6.542
 5769SOL     OW18126   3.038   5.810   0.044
 5769SOL    HW118127   3.116   5.770   0.091
 5769SOL    HW218128   3.070   5.872   6.972
 5770SOL     OW18129   1.880   6.895   5.788
 5770SOL    HW118130   1.789   6.912   5.751
 5770SOL    HW218131   1.888   6.800   5.816
 5771SOL     OW18132   2.822   6.379   6.830
 5771SOL    HW118133   2.866   6.311   6.888
 5771SOL    HW218134   2.733   6.402   6.868
 5772SOL     OW18135   1.931   6.178   6.722
 5772SOL    HW118136   1.984   6.172   6.637
 5772SOL    HW218137   1.992   6.176   6.801
 5773SOL     OW18138   2.672   6.162   5.949
 5773SOL    HW118139   2.683   6.079   5.894
 5773SOL    HW218140   2.589   6.209   5.922
 5774SOL     OW18141   3.523   6.183   6.725
 5774SOL    HW118142   3.502   6.115   6.795
 5774SOL    HW218143   3.621   6.182   6.706
 5775SOL     OW18144   2.574   6.021   6.846
 5775SOL    HW118145   2.523   5.939   6.819
 5775SOL    HW218146   2.573   6.087   6.771
 5776SOL     OW18147   2.304   6.062   5.755
 5776SOL    HW118148   2.371   6.132   5.781
 5776SOL    HW218149   2.212   6.103   5.757
 5777SOL     OW18150   2.040   6.736   0.021
 5777SOL    HW118151   2.006   6.701   0.108
 5777SOL    HW218152   2.035   6.664   6.952
 5778SOL     OW18153   3.179   6.578   6.817
 5778SOL    HW118154   3.207   6.522   6.740
 5778SOL    HW218155   3.111   6.646   6.787
 5779SOL     OW18156   3.204   6.447   5.865
 5779SOL    HW118157   3.144   6.400   5.930
 5779SOL    HW218158   3.173   6.428   5.772
 5780SOL     OW18159   1.942   6.871   6.611
 5780SOL    HW118160   1.915   6.876   6.707
 5780SOL    HW218161   1.891   6.797   6.566
 5781SOL     OW18162   3.631   5.793   6.064
 5781SOL    HW118163   3.686   5.771   5.983
 5781SOL    HW218164   3.586   5.710   6.097
 5782SOL     OW18165   3.134   6.536   6.248
 5782SOL    HW118166   3.203   6.466   6.268
 5782SOL    HW218167   3.178   6.613   6.203
 5783SOL     OW18168   2.630   6.835   0.042
 5783SOL    HW118169   2.652   6.847   0.138
 5783SOL    HW218170   2.546   6.885   0.020
 5784SOL     OW18171   3.703   5.759   6.565
 5784SOL    HW118172   3.736   5.667   6.547
 5784SOL    HW218173   3.612   5.771   6.524
 5785SOL     OW18174   2.095   5.897   6.298
 5785SOL    HW118175   2.009   5.940   6.271
 5785SOL    HW218176   2.103   5.897   6.397
 5786SOL     OW18177   3.124   0.177   5.597
 5786SOL    HW118178   3.127   0.109   5.670
 5786SOL    HW218179   3.033   0.180   5.558
 5787SOL     OW18180   2.609   6.582   6.927
 5787SOL    HW118181   2.603   6.594   6.828
 5787SOL    HW218182   2.629   6.670   6.970
 5788SOL     OW18183   2.815   6.494   5.816
 5788SOL    HW118184   2.887   6.556   5.783
 5788SOL    HW218185   2.856   6.427   5.878
 5789SOL     OW18186   2.268   6.893   0.030
 5789SOL    HW118187   2.258   6.949   0.112
 5789SOL    HW218188   2.190   6.833   0.021
 5790SOL     OW18189   3.480   6.794   6.865
 5790SOL    HW118190   3.569   6.823   6.899
 5790SOL    HW218191   3.416   6.784   6.941
 5791SOL     OW18192   2.939   6.747   6.380
 5791SOL    HW118193   2.861   6.689   6.401
 5791SOL    HW218194   3.011   6.692   6.337
 5792SOL     OW18195   2.892   5.831   6.529
 5792SOL    HW118196   2.885   5.797   6.435
 5792SOL    HW218197   2.902   5.755   6.592
 5793SOL     OW18198   3.519   5.989   6.914
 5793SOL    HW118199   3.540   6.009   0.010
 5793SOL    HW218200   3.543   5.894   6.894
 5794SOL     OW18201   2.562   5.772   0.080
 5794SOL    HW118202   2.653   5.735   0.097
 5794SOL    HW218203   2.571   5.864   0.042
 5795SOL     OW18204   1.945   5.904   5.581
 5795SOL    HW118205   1.863   5.886   5.526
 5795SOL    HW218206   1.980   5.995   5.560
 5796SOL     OW18207   1.905   5.737   5.830
 5796SOL    HW118208   1.889   5.804   5.757
 5796SOL    HW218209   1.997   5.700   5.821
 5797SOL     OW18210   3.345   6.894   0.353
 5797SOL    HW118211   3.294   6.817   0.316
 5797SOL    HW218212   3.440   6.889   0.324
 5798SOL     OW18213   3.609   6.437   6.814
 5798SOL    HW118214   3.576   6.348   6.784
 5798SOL    HW218215   3.565   6.509   6.759
 5799SOL     OW18216   3.092   5.905   6.044
 5799SOL    HW118217   3.153   5.826   6.043
 5799SOL    HW218218   3.116   5.965   6.121
 5800SOL     OW18219   2.426   6.316   6.260
 5800SOL    HW118220   2.483   6.396   6.241
 5800SOL    HW218221   2.359   6.304   6.186
 5801SOL     OW18222   3.602   6.383   0.090
 5801SOL    HW118223   3.539   6.449   0.130
 5801SOL    HW218224   3.615   6.404   6.993
 5802SOL     OW18225   2.740   6.568   6.453
 5802SOL    HW118226   2.794   6.492   6.490
 5802SOL    HW218227   2.680   6.604   6.524
 5803SOL     OW18228   3.024   6.643   5.664
 5803SOL    HW118229   2.946   6.666   5.605
 5803SOL    HW218230   3.060   6.554   5.638
 5804SOL     OW18231   2.032   6.829   6.272
 5804SOL    HW118232   2.056   6.779   6.356
 5804SOL    HW218233   2.084   6.791   6.195
 5805SOL     OW18234   3.642   5.743   6.835
 5805SOL    HW118235   3.620   5.645   6.836
 5805SOL    HW218236   3.664   5.770   6.741
 5806SOL     OW18237   2.272   6.000   6.100
 5806SOL    HW118238   2.313   5.928   6.044
 5806SOL    HW218239   2.218   5.959   6.173
 5807SOL     OW18240   3.449   0.032   6.736
 5807SOL    HW118241   3.411   0.013   6.646
 5807SOL    HW218242   3.456   6.948   6.788
 5808SOL     OW18243   2.178   6.168   6.880
 5808SOL    HW118244   2.221   6.100   6.939
 5808SOL    HW218245   2.196   6.146   6.784
 5809SOL     OW18246   3.280   5.834   6.693
 5809SOL    HW118247   3.281   5.738   6.720
 5809SOL    HW218248   3.234   5.888   6.764
 5810SOL     OW18249   2.908   5.590   6.666
 5810SOL    HW118250   2.863   5.525   6.604
 5810SOL    HW218251   2.992   5.549   6.702
 5811SOL     OW18252   2.599   6.891   5.856
 5811SOL    HW118253   2.591   6.795   5.883
 5811SOL    HW218254   2.635   6.945   5.933
 5812SOL     OW18255   3.247   5.615   5.778
 5812SOL    HW118256   3.295   5.543   5.728
 5812SOL    HW218257   3.152   5.588   5.791
 5813SOL     OW18258   3.152   6.069   6.254
 5813SOL    HW118259   3.102   6.156   6.247
 5813SOL    HW218260   3.149   6.036   6.349
 5814SOL     OW18261   3.446   5.792   6.480
 5814SOL    HW118262   3.390   5.818   6.558
 5814SOL    HW218263   3.447   5.866   6.413
 5815SOL     OW18264   1.904   6.627   5.888
 5815SOL    HW118265   2.003   6.622   5.876
 5815SOL    HW218266   1.867   6.535   5.899
 5816SOL     OW18267   3.929   0.686   0.131
 5816SOL    HW118268   3.836   0.651   0.139
 5816SOL    HW218269   3.963   0.669   0.039
 5817SOL     OW18270   3.940   0.301   0.998
 5817SOL    HW118271   3.982   0.267   1.082
 5817SOL    HW218272   3.865   0.240   0.972
 5818SOL     OW18273   3.738   0.412   0.629
 5818SOL    HW118274   3.665   0.440   0.691
 5818SOL    HW218275   3.702   0.345   0.563
 5819SOL     OW18276   4.299   1.319   1.221
 5819SOL    HW118277   4.214   1.315   1.168
 5819SOL    HW218278   4.318   1.415   1.245
 5820SOL     OW18279   5.320   1.526   0.707
 5820SOL    HW118280   5.271   1.494   0.787
 5820SOL    HW218281   5.257   1.535   0.630
 5821SOL     OW18282   4.862   0.706   0.678
 5821SOL    HW118283   4.913   0.791   0.671
 5821SOL    HW218284   4.803   0.709   0.759
 5822SOL     OW18285   5.529   0.579   0.144
 5822SOL    HW118286   5.489   0.669   0.127
 5822SOL    HW218287   5.478   0.532   0.216
 5823SOL     OW18288   4.443   1.131   1.063
 5823SOL    HW118289   4.384   1.166   1.137
 5823SOL    HW218290   4.486   1.207   1.016
 5824SOL     OW18291   4.605   0.747   1.834
 5824SOL    HW118292   4.596   0.813   1.908
 5824SOL    HW218293   4.629   0.795   1.749
 5825SOL     OW18294   4.420   0.977   0.653
 5825SOL    HW118295   4.491   0.975   0.723
 5825SOL    HW218296   4.348   1.040   0.680
 5826SOL     OW18297   4.432   1.156   1.838
 5826SOL    HW118298   4.491   1.225   1.879
 5826SOL    HW218299   4.353   1.201   1.796
 5827SOL     OW18300   4.067   1.391   1.069
 5827SOL    HW118301   3.985   1.350   1.028
 5827SOL    HW218302   4.111   1.450   1.001
 5828SOL     OW18303   5.167   1.510   1.380
 5828SOL    HW118304   5.227   1.590   1.391
 5828SOL    HW218305   5.089   1.518   1.442
 5829SOL     OW18306   4.177   0.380   1.440
 5829SOL    HW118307   4.261   0.338   1.475
 5829SOL    HW218308   4.098   0.331   1.476
 5830SOL     OW18309   5.356   0.481   0.753
 5830SOL    HW118310   5.342   0.525   0.664
 5830SOL    HW218311   5.303   0.529   0.823
 5831SOL     OW18312   3.958   1.709   0.495
 5831SOL    HW118313   3.975   1.791   0.550
 5831SOL    HW218314   4.041   1.684   0.445
 5832SOL     OW18315   4.856   1.339   1.703
 5832SOL    HW118316   4.907   1.329   1.789
 5832SOL    HW218317   4.797   1.259   1.691
 5833SOL     OW18318   3.893   1.430   0.482
 5833SOL    HW118319   3.908   1.522   0.518
 5833SOL    HW218320   3.878   1.366   0.557
 5834SOL     OW18321   3.997   1.096   0.859
 5834SOL    HW118322   4.007   1.003   0.893
 5834SOL    HW218323   3.940   1.149   0.922
 5835SOL     OW18324   4.282   1.829   1.408
 5835SOL    HW118325   4.205   1.799   1.465
 5835SOL    HW218326   4.327   1.907   1.452
 5836SOL     OW18327   4.287   0.963   0.181
 5836SOL    HW118328   4.338   0.978   0.097
 5836SOL    HW218329   4.333   1.010   0.257
 5837SOL     OW18330   5.290   0.133   1.450
 5837SOL    HW118331   5.347   0.209   1.419
 5837SOL    HW218332   5.259   0.151   1.543
 5838SOL     OW18333   3.847   0.668   0.551
 5838SOL    HW118334   3.820   0.575   0.575
 5838SOL    HW218335   3.839   0.727   0.632
 5839SOL     OW18336   5.575   1.745   0.372
 5839SOL    HW118337   5.654   1.715   0.425
 5839SOL    HW218338   5.585   1.841   0.346
 5840SOL     OW18339   3.725   1.600   0.137
 5840SOL    HW118340   3.653   1.531   0.130
 5840SOL    HW218341   3.729   1.636   0.230
 5841SOL     OW18342   5.427   0.932   0.668
 5841SOL    HW118343   5.517   0.888   0.661
 5841SOL    HW218344   5.408   0.981   0.583
 5842SOL     OW18345   5.378   1.100   0.448
 5842SOL    HW118346   5.428   1.118   0.364
 5842SOL    HW218347   5.401   1.169   0.517
 5843SOL     OW18348   3.829   0.764   1.571
 5843SOL    HW118349   3.912   0.819   1.580
 5843SOL    HW218350   3.752   0.824   1.548
 5844SOL     OW18351   4.353   1.387   0.741
 5844SOL    HW118352   4.310   1.297   0.746
 5844SOL    HW218353   4.345   1.422   0.648
 5845SOL     OW18354   4.983   1.218   1.422
 5845SOL    HW118355   5.005   1.147   1.355
 5845SOL    HW218356   5.050   1.215   1.496
 5846SOL     OW18357   4.558   0.044   0.545
 5846SOL    HW118358   4.607   0.128   0.521
 5846SOL    HW218359   4.460   0.059   0.535
 5847SOL     OW18360   3.919   0.949   1.304
 5847SOL    HW118361   4.012   0.915   1.288
 5847SOL    HW218362   3.857   0.911   1.235
 5848SOL     OW18363   5.183   1.043   0.211
 5848SOL    HW118364   5.114   0.980   0.245
 5848SOL    HW218365   5.274   1.013   0.241
 5849SOL     OW18366   4.910   1.815   1.633
 5849SOL    HW118367   4.908   1.885   1.561
 5849SOL    HW218368   4.920   1.725   1.591
 5850SOL     OW18369   4.066   0.289   1.806
 5850SOL    HW118370   4.118   0.356   1.859
 5850SOL    HW218371   3.973   0.283   1.842
 5851SOL     OW18372   5.180   1.425   0.919
 5851SOL    HW118373   5.127   1.445   1.002
 5851SOL    HW218374   5.173   1.328   0.898
 5852SOL     OW18375   5.314   1.828   0.584
 5852SOL    HW118376   5.304   1.790   0.492
 5852SOL    HW218377   5.343   1.755   0.647
 5853SOL     OW18378   4.311   0.706   0.269
 5853SOL    HW118379   4.308   0.800   0.236
 5853SOL    HW218380   4.247   0.695   0.345
 5854SOL     OW18381   5.015   0.389   0.945
 5854SOL    HW118382   4.922   0.352   0.956
 5854SOL    HW218383   5.077   0.341   1.007
 5855SOL     OW18384   5.302   1.698   0.337
 5855SOL    HW118385   5.401   1.703   0.343
 5855SOL    HW218386   5.275   1.684   0.242
 5856SOL     OW18387   4.521   0.595   1.464
 5856SOL    HW118388   4.490   0.561   1.552
 5856SOL    HW218389   4.495   0.529   1.392
 5857SOL     OW18390   5.120   0.486   1.678
 5857SOL    HW118391   5.126   0.529   1.768
 5857SOL    HW218392   5.164   0.397   1.679
 5858SOL     OW18393   4.673   0.876   1.595
 5858SOL    HW118394   4.731   0.809   1.549
 5858SOL    HW218395   4.619   0.926   1.527
 5859SOL     OW18396   4.739   0.407   1.196
 5859SOL    HW118397   4.645   0.421   1.227
 5859SOL    HW218398   4.738   0.366   1.105
 5860SOL     OW18399   4.785   0.711   0.414
 5860SOL    HW118400   4.810   0.707   0.511
 5860SOL    HW218401   4.695   0.669   0.401
 5861SOL     OW18402   3.819   0.840   0.772
 5861SOL    HW118403   3.909   0.827   0.813
 5861SOL    HW218404   3.768   0.907   0.825
 5862SOL     OW18405   3.830   1.889   1.597
 5862SOL    HW118406   3.842   1.857   1.691
 5862SOL    HW218407   3.739   1.864   1.564
 5863SOL     OW18408   4.600   0.362   0.224
 5863SOL    HW118409   4.646   0.414   0.152
 5863SOL    HW218410   4.592   0.266   0.196
 5864SOL     OW18411   5.412   0.568   1.827
 5864SOL    HW118412   5.387   0.650   1.776
 5864SOL    HW218413   5.432   0.494   1.763
 5865SOL     OW18414   5.124   1.156   0.560
 5865SOL    HW118415   5.207   1.138   0.507
 5865SOL    HW218416   5.068   1.224   0.512
 5866SOL     OW18417   4.225   0.187   0.928
 5866SOL    HW118418   4.265   0.211   1.016
 5866SOL    HW218419   4.242   0.260   0.862
 5867SOL     OW18420   4.713   1.440   0.472
 5867SOL    HW118421   4.686   1.523   0.425
 5867SOL    HW218422   4.688   1.447   0.569
 5868SOL     OW18423   4.083   1.807   0.881
 5868SOL    HW118424   4.124   1.716   0.886
 5868SOL    HW218425   4.150   1.876   0.908
 5869SOL     OW18426   5.524   1.049   0.904
 5869SOL    HW118427   5.477   1.034   0.817
 5869SOL    HW218428   5.457   1.058   0.977
 5870SOL     OW18429   4.926   1.537   1.518
 5870SOL    HW118430   4.919   1.467   1.589
 5870SOL    HW218431   4.865   1.513   1.442
 5871SOL     OW18432   4.015   0.936   0.239
 5871SOL    HW118433   4.111   0.950   0.215
 5871SOL    HW218434   3.985   0.846   0.207
 5872SOL     OW18435   5.210   0.778   0.727
 5872SOL    HW118436   5.209   0.727   0.813
 5872SOL    HW218437   5.292   0.835   0.723
 5873SOL     OW18438   4.196   1.291   1.746
 5873SOL    HW118439   4.173   1.296   1.648
 5873SOL    HW218440   4.112   1.276   1.798
 5874SOL     OW18441   4.846   1.773   0.249
 5874SOL    HW118442   4.774   1.732   0.304
 5874SOL    HW218443   4.882   1.705   0.185
 5875SOL     OW18444   3.941   0.270   1.547
 5875SOL    HW118445   3.881   0.349   1.532
 5875SOL    HW218446   3.981   0.276   1.638
 5876SOL     OW18447   5.368   1.438   0.122
 5876SOL    HW118448   5.315   1.512   0.079
 5876SOL    HW218449   5.311   1.389   0.187
 5877SOL     OW18450   4.214   1.696   0.382
 5877SOL    HW118451   4.239   1.784   0.423
 5877SOL    HW218452   4.273   1.679   0.303
 5878SOL     OW18453   5.182   0.166   0.381
 5878SOL    HW118454   5.176   0.067   0.368
 5878SOL    HW218455   5.271   0.188   0.421
 5879SOL     OW18456   3.963   1.787   1.205
 5879SOL    HW118457   4.013   1.707   1.238
 5879SOL    HW218458   3.927   1.768   1.113
 5880SOL     OW18459   4.680   1.702   0.890
 5880SOL    HW118460   4.768   1.661   0.915
 5880SOL    HW218461   4.638   1.647   0.818
 5881SOL     OW18462   4.120   0.668   0.466
 5881SOL    HW118463   4.134   0.570   0.480
 5881SOL    HW218464   4.025   0.692   0.484
 5882SOL     OW18465   5.219   0.220   1.713
 5882SOL    HW118466   5.260   0.219   1.804
 5882SOL    HW218467   5.123   0.194   1.719
 5883SOL     OW18468   4.367   0.142   0.082
 5883SOL    HW118469   4.464   0.125   0.098
 5883SOL    HW218470   4.353   0.171   6.987
 5884SOL     OW18471   4.503   0.263   1.799
 5884SOL    HW118472   4.593   0.224   1.781
 5884SOL    HW218473   4.447   0.197   1.849
 5885SOL     OW18474   4.583   1.521   1.191
 5885SOL    HW118475   4.562   1.473   1.106
 5885SOL    HW218476   4.653   1.471   1.242
 5886SOL     OW18477   5.053   0.591   1.432
 5886SOL    HW118478   5.087   0.563   1.522
 5886SOL    HW218479   5.084   0.684   1.413
 5887SOL     OW18480   4.534   1.369   0.958
 5887SOL    HW118481   4.626   1.367   0.919
 5887SOL    HW218482   4.467   1.379   0.884
 5888SOL     OW18483   4.654   0.529   0.882
 5888SOL    HW118484   4.627   0.521   0.786
 5888SOL    HW218485   4.686   0.440   0.915
 5889SOL     OW18486   4.294   0.091   0.487
 5889SOL    HW118487   4.207   0.071   0.531
 5889SOL    HW218488   4.278   0.148   0.406
 5890SOL     OW18489   5.116   1.200   6.991
 5890SOL    HW118490   5.148   1.132   0.056
 5890SOL    HW218491   5.041   1.252   0.033
 5891SOL     OW18492   4.041   0.037   0.289
 5891SOL    HW118493   4.096   0.117   0.268
 5891SOL    HW218494   4.031   0.027   0.388
 5892SOL     OW18495   4.692   0.273   0.467
 5892SOL    HW118496   4.651   0.306   0.381
 5892SOL    HW218497   4.791   0.277   0.461
 5893SOL     OW18498   4.789   0.688   1.433
 5893SOL    HW118499   4.715   0.625   1.454
 5893SOL    HW218500   4.877   0.640   1.436
 5894SOL     OW18501   4.944   1.567   0.809
 5894SOL    HW118502   4.960   1.646   0.750
 5894SOL    HW218503   5.032   1.536   0.846
 5895SOL     OW18504   4.219   1.152   0.714
 5895SOL    HW118505   4.142   1.133   0.774
 5895SOL    HW218506   4.189   1.148   0.619
 5896SOL     OW18507   4.996   1.789   0.648
 5896SOL    HW118508   5.076   1.849   0.650
 5896SOL    HW218509   4.913   1.842   0.666
 5897SOL     OW18510   4.736   0.519   0.047
 5897SOL    HW118511   4.667   0.591   0.046
 5897SOL    HW218512   4.808   0.542   0.112
 5898SOL     OW18513   3.840   0.549   1.402
 5898SOL    HW118514   3.933   0.553   1.364
 5898SOL    HW218515   3.827   0.625   1.465
 5899SOL     OW18516   4.301   0.233   1.192
 5899SOL    HW118517   4.348   0.158   1.238
 5899SOL    HW218518   4.206   0.237   1.224
 5900SOL     OW18519   4.600   0.483   0.624
 5900SOL    HW118520   4.555   0.539   0.554
 5900SOL    HW218521   4.632   0.398   0.582
 5901SOL     OW18522   4.688   0.006   0.801
 5901SOL    HW118523   4.638   0.018   0.716
 5901SOL    HW218524   4.737   6.919   0.800
 5902SOL     OW18525   5.167   1.154   0.859
 5902SOL    HW118526   5.093   1.088   0.870
 5902SOL    HW218527   5.191   1.161   0.762
 5903SOL     OW18528   5.188   0.614   0.949
 5903SOL    HW118529   5.121   0.540   0.955
 5903SOL    HW218530   5.249   0.610   1.029
 5904SOL     OW18531   5.523   0.801   0.391
 5904SOL    HW118532   5.598   0.745   0.425
 5904SOL    HW218533   5.525   0.803   0.291
 5905SOL     OW18534   4.177   1.473   0.146
 5905SOL    HW118535   4.131   1.408   0.205
 5905SOL    HW218536   4.149   1.458   0.051
 5906SOL     OW18537   5.434   1.271   0.648
 5906SOL    HW118538   5.532   1.259   0.657
 5906SOL    HW218539   5.410   1.367   0.662
 5907SOL     OW18540   5.094   0.519   0.049
 5907SOL    HW118541   5.039   0.523   0.132
 5907SOL    HW218542   5.169   0.454   0.060
 5908SOL     OW18543   4.208   0.255   0.268
 5908SOL    HW118544   4.271   0.213   0.203
 5908SOL    HW218545   4.179   0.344   0.235
 5909SOL     OW18546   5.462   1.240   1.532
 5909SOL    HW118547   5.552   1.202   1.512
 5909SOL    HW218548   5.473   1.331   1.572
 5910SOL     OW18549   4.757   1.358   1.346
 5910SOL    HW118550   4.671   1.325   1.385
 5910SOL    HW218551   4.833   1.307   1.386
 5911SOL     OW18552   5.341   1.644   1.674
 5911SOL    HW118553   5.322   1.682   1.583
 5911SOL    HW218554   5.420   1.583   1.668
 5912SOL     OW18555   4.872   1.257   1.114
 5912SOL    HW118556   4.812   1.288   1.187
 5912SOL    HW218557   4.834   1.284   1.025
 5913SOL     OW18558   5.327   1.094   1.090
 5913SOL    HW118559   5.319   1.162   1.163
 5913SOL    HW218560   5.261   1.115   1.018
 5914SOL     OW18561   4.600   0.175   1.370
 5914SOL    HW118562   4.617   0.147   1.275
 5914SOL    HW218563   4.686   0.198   1.414
 5915SOL     OW18564   4.691   1.118   1.717
 5915SOL    HW118565   4.598   1.135   1.749
 5915SOL    HW218566   4.694   1.032   1.667
 5916SOL     OW18567   4.450   1.056   0.384
 5916SOL    HW118568   4.435   1.029   0.479
 5916SOL    HW218569   4.528   1.006   0.347
 5917SOL     OW18570   4.164   0.828   1.266
 5917SOL    HW118571   4.235   0.836   1.336
 5917SOL    HW218572   4.128   0.735   1.266
 5918SOL     OW18573   4.989   0.365   1.294
 5918SOL    HW118574   5.020   0.446   1.343
 5918SOL    HW218575   4.898   0.381   1.256
 5919SOL     OW18576   3.795   1.561   1.355
 5919SOL    HW118577   3.755   1.633   1.297
 5919SOL    HW218578   3.894   1.564   1.348
 5920SOL     OW18579   4.132   1.123   0.461
 5920SOL    HW118580   4.101   1.195   0.398
 5920SOL    HW218581   4.102   1.034   0.426
 5921SOL     OW18582   4.263   0.534   0.864
 5921SOL    HW118583   4.278   0.591   0.783
 5921SOL    HW218584   4.333   0.555   0.932
 5922SOL     OW18585   4.975   1.366   0.421
 5922SOL    HW118586   5.025   1.443   0.460
 5922SOL    HW218587   4.878   1.376   0.442
 5923SOL     OW18588   5.038   1.475   1.143
 5923SOL    HW118589   5.085   1.485   1.231
 5923SOL    HW218590   4.982   1.393   1.145
 5924SOL     OW18591   5.331   0.640   0.520
 5924SOL    HW118592   5.265   0.691   0.575
 5924SOL    HW218593   5.393   0.705   0.475
 5925SOL     OW18594   4.066   1.538   1.296
 5925SOL    HW118595   4.057   1.479   1.216
 5925SOL    HW218596   4.162   1.561   1.310
 5926SOL     OW18597   4.201   0.706   1.652
 5926SOL    HW118598   4.241   0.756   1.576
 5926SOL    HW218599   4.265   0.636   1.685
 5927SOL     OW18600   5.347   0.797   1.697
 5927SOL    HW118601   5.254   0.832   1.689
 5927SOL    HW218602   5.403   0.832   1.621
 5928SOL     OW18603   4.738   0.126   1.732
 5928SOL    HW118604   4.774   0.160   1.645
 5928SOL    HW218605   4.727   0.027   1.727
 5929SOL     OW18606   4.162   0.035   1.745
 5929SOL    HW118607   4.082   6.980   1.768
 5929SOL    HW218608   4.141   0.132   1.759
 5930SOL     OW18609   4.310   0.882   1.037
 5930SOL    HW118610   4.353   0.972   1.039
 5930SOL    HW218611   4.256   0.870   1.120
 5931SOL     OW18612   5.023   0.846   1.005
 5931SOL    HW118613   4.928   0.822   0.982
 5931SOL    HW218614   5.083   0.768   0.989
 5932SOL     OW18615   4.919   0.526   0.260
 5932SOL    HW118616   4.939   0.448   0.320
 5932SOL    HW218617   4.878   0.600   0.313
 5933SOL     OW18618   4.025   0.188   1.238
 5933SOL    HW118619   3.985   0.180   1.329
 5933SOL    HW218620   4.039   0.097   1.199
 5934SOL     OW18621   3.786   1.301   1.262
 5934SOL    HW118622   3.815   1.242   1.336
 5934SOL    HW218623   3.779   1.395   1.295
 5935SOL     OW18624   4.449   0.639   1.043
 5935SOL    HW118625   4.521   0.621   0.977
 5935SOL    HW218626   4.409   0.729   1.025
 5936SOL     OW18627   5.473   0.975   1.869
 5936SOL    HW118628   5.431   0.902   1.814
 5936SOL    HW218629   5.413   1.000   1.944
 5937SOL     OW18630   4.027   0.053   0.567
 5937SOL    HW118631   4.008   0.136   0.619
 5937SOL    HW218632   3.979   6.976   0.609
 5938SOL     OW18633   5.383   0.444   0.337
 5938SOL    HW118634   5.416   0.363   0.386
 5938SOL    HW218635   5.351   0.512   0.402
 5939SOL     OW18636   4.756   0.767   0.963
 5939SOL    HW118637   4.732   0.785   1.058
 5939SOL    HW218638   4.726   0.674   0.939
 5940SOL     OW18639   4.705   1.562   1.760
 5940SOL    HW118640   4.673   1.619   1.684
 5940SOL    HW218641   4.746   1.478   1.724
 5941SOL     OW18642   5.564   1.493   1.602
 5941SOL    HW118643   5.585   1.519   1.508
 5941SOL    HW218644   5.645   1.502   1.659
 5942SOL     OW18645   4.082   0.904   1.805
 5942SOL    HW118646   4.149   0.936   1.873
 5942SOL    HW218647   4.122   0.830   1.751
 5943SOL     OW18648   5.256   0.307   0.134
 5943SOL    HW118649   5.207   0.227   0.167
 5943SOL    HW218650   5.296   0.355   0.212
 5944SOL     OW18651   4.999   0.778   0.031
 5944SOL    HW118652   5.041   0.688   0.021
 5944SOL    HW218653   5.023   0.835   6.953
 5945SOL     OW18654   4.787   1.352   0.869
 5945SOL    HW118655   4.800   1.272   0.811
 5945SOL    HW218656   4.843   1.428   0.836
 5946SOL     OW18657   4.051   0.826   0.928
 5946SOL    HW118658   4.147   0.847   0.942
 5946SOL    HW218659   4.033   0.732   0.956
 5947SOL     OW18660   4.029   0.551   0.995
 5947SOL    HW118661   3.986   0.461   0.991
 5947SOL    HW218662   4.114   0.550   0.942
 5948SOL     OW18663   4.846   0.448   1.665
 5948SOL    HW118664   4.803   0.472   1.753
 5948SOL    HW218665   4.943   0.470   1.668
 5949SOL     OW18666   4.834   0.240   1.498
 5949SOL    HW118667   4.832   0.321   1.557
 5949SOL    HW218668   4.901   0.253   1.425
 5950SOL     OW18669   3.824   1.758   0.956
 5950SOL    HW118670   3.784   1.681   0.908
 5950SOL    HW218671   3.914   1.779   0.918
 5951SOL     OW18672   4.213   1.562   0.905
 5951SOL    HW118673   4.285   1.626   0.934
 5951SOL    HW218674   4.252   1.496   0.841
 5952SOL     OW18675   4.660   0.799   1.216
 5952SOL    HW118676   4.718   0.769   1.292
 5952SOL    HW218677   4.576   0.744   1.214
 5953SOL     OW18678   3.772   0.599   1.132
 5953SOL    HW118679   3.852   0.590   1.072
 5953SOL    HW218680   3.800   0.580   1.227
 5954SOL     OW18681   3.914   0.570   1.751
 5954SOL    HW118682   4.009   0.569   1.720
 5954SOL    HW218683   3.862   0.635   1.696
 5955SOL     OW18684   5.110   0.924   1.640
 5955SOL    HW118685   5.131   1.021   1.640
 5955SOL    HW218686   5.102   0.891   1.545
 5956SOL     OW18687   4.544   0.591   0.368
 5956SOL    HW118688   4.552   0.505   0.318
 5956SOL    HW218689   4.460   0.638   0.340
 5957SOL     OW18690   5.364   0.604   1.159
 5957SOL    HW118691   5.343   0.536   1.229
 5957SOL    HW218692   5.462   0.600   1.136
 5958SOL     OW18693   3.955   1.535   1.717
 5958SOL    HW118694   3.935   1.604   1.787
 5958SOL    HW218695   3.961   1.445   1.760
 5959SOL     OW18696   4.467   0.449   1.238
 5959SOL    HW118697   4.405   0.372   1.225
 5959SOL    HW218698   4.451   0.518   1.167
 5960SOL     OW18699   4.593   1.702   1.532
 5960SOL    HW118700   4.564   1.635   1.464
 5960SOL    HW218701   4.618   1.788   1.487
 5961SOL     OW18702   4.144   0.506   0.169
 5961SOL    HW118703   4.221   0.563   0.197
 5961SOL    HW218704   4.059   0.556   0.182
 5962SOL     OW18705   3.860   1.142   1.482
 5962SOL    HW118706   3.862   1.106   1.575
 5962SOL    HW218707   3.883   1.069   1.418
 5963SOL     OW18708   5.007   1.034   1.203
 5963SOL    HW118709   5.017   0.966   1.132
 5963SOL    HW218710   4.958   1.114   1.167
 5964SOL     OW18711   5.002   0.859   0.292
 5964SOL    HW118712   4.933   0.814   0.349
 5964SOL    HW218713   5.002   0.818   0.201
 5965SOL     OW18714   5.500   1.719   1.168
 5965SOL    HW118715   5.568   1.743   1.099
 5965SOL    HW218716   5.460   1.630   1.147
 5966SOL     OW18717   4.976   1.744   1.094
 5966SOL    HW118718   5.064   1.779   1.061
 5966SOL    HW218719   4.985   1.646   1.114
 5967SOL     OW18720   3.820   1.261   0.996
 5967SOL    HW118721   3.801   1.275   1.093
 5967SOL    HW218722   3.757   1.194   0.959
 5968SOL     OW18723   4.412   1.701   1.741
 5968SOL    HW118724   4.342   1.772   1.736
 5968SOL    HW218725   4.481   1.716   1.670
 5969SOL     OW18726   4.629   0.101   0.149
 5969SOL    HW118727   4.724   0.109   0.119
 5969SOL    HW218728   4.619   0.020   0.207
 5970SOL     OW18729   5.465   0.216   0.466
 5970SOL    HW118730   5.530   0.178   0.400
 5970SOL    HW218731   5.442   0.146   0.534
 5971SOL     OW18732   5.122   1.579   0.511
 5971SOL    HW118733   5.182   1.616   0.440
 5971SOL    HW218734   5.068   1.653   0.551
 5972SOL     OW18735   3.870   1.783   1.843
 5972SOL    HW118736   3.816   1.710   1.886
 5972SOL    HW218737   3.923   1.831   1.913
 5973SOL     OW18738   5.004   0.940   0.668
 5973SOL    HW118739   5.078   0.877   0.692
 5973SOL    HW218740   5.040   1.017   0.617
 5974SOL     OW18741   4.498   1.286   1.419
 5974SOL    HW118742   4.473   1.336   1.501
 5974SOL    HW218743   4.424   1.291   1.352
 5975SOL     OW18744   4.404   1.630   0.187
 5975SOL    HW118745   4.409   1.687   0.105
 5975SOL    HW218746   4.343   1.553   0.171
 5976SOL     OW18747   5.333   1.733   1.402
 5976SOL    HW118748   5.391   1.726   1.321
 5976SOL    HW218749   5.318   1.829   1.424
 5977SOL     OW18750   5.609   0.125   0.956
 5977SOL    HW118751   5.614   0.026   0.963
 5977SOL    HW218752   5.517   0.152   0.930
 5978SOL     OW18753   3.975   0.287   0.706
 5978SOL    HW118754   3.892   0.336   0.681
 5978SOL    HW218755   3.986   0.288   0.806
 5979SOL     OW18756   4.939   1.591   0.063
 5979SOL    HW118757   4.938   1.494   0.085
 5979SOL    HW218758   4.860   1.613   0.007
 5980SOL     OW18759   4.546   1.014   1.397
 5980SOL    HW118760   4.591   0.993   1.310
 5980SOL    HW218761   4.533   1.113   1.404
 5981SOL     OW18762   4.655   0.920   0.277
 5981SOL    HW118763   4.698   0.936   0.189
 5981SOL    HW218764   4.708   0.853   0.329
 5982SOL     OW18765   5.201   1.677   0.071
 5982SOL    HW118766   5.106   1.645   0.068
 5982SOL    HW218767   5.228   1.711   6.982
 5983SOL     OW18768   4.089   1.313   1.496
 5983SOL    HW118769   4.081   1.391   1.434
 5983SOL    HW218770   4.009   1.254   1.485
 5984SOL     OW18771   5.316   1.291   1.294
 5984SOL    HW118772   5.375   1.263   1.369
 5984SOL    HW218773   5.251   1.359   1.327
 5985SOL     OW18774   4.803   1.116   0.740
 5985SOL    HW118775   4.723   1.068   0.776
 5985SOL    HW218776   4.871   1.050   0.709
 5986SOL     OW18777   4.755   0.268   0.950
 5986SOL    HW118778   4.743   0.227   0.860
 5986SOL    HW218779   4.732   0.201   1.021
 5987SOL     OW18780   4.349   1.481   0.492
 5987SOL    HW118781   4.388   1.425   0.419
 5987SOL    HW218782   4.287   1.549   0.452
 5988SOL     OW18783   5.491   0.374   1.395
 5988SOL    HW118784   5.561   0.445   1.391
 5988SOL    HW218785   5.514   0.301   1.331
 5989SOL     OW18786   4.013   1.300   0.280
 5989SOL    HW118787   3.947   1.259   0.217
 5989SOL    HW218788   3.965   1.350   0.352
 5990SOL     OW18789   3.853   1.041   1.738
 5990SOL    HW118790   3.770   1.017   1.788
 5990SOL    HW218791   3.929   0.986   1.771
 5991SOL     OW18792   4.401   0.250   1.535
 5991SOL    HW118793   4.475   0.234   1.470
 5991SOL    HW218794   4.439   0.274   1.625
 5992SOL     OW18795   3.829   0.281   0.023
 5992SOL    HW118796   3.761   0.255   6.954
 5992SOL    HW218797   3.828   0.381   0.033
 5993SOL     OW18798   5.126   0.853   1.376
 5993SOL    HW118799   5.068   0.913   1.322
 5993SOL    HW218800   5.220   0.856   1.341
 5994SOL     OW18801   3.785   0.151   0.266
 5994SOL    HW118802   3.796   0.204   0.183
 5994SOL    HW218803   3.866   0.094   0.280
 5995SOL     OW18804   4.913   1.325   0.133
 5995SOL    HW118805   4.815   1.338   0.117
 5995SOL    HW218806   4.930   1.320   0.232
 5996SOL     OW18807   4.362   0.819   1.451
 5996SOL    HW118808   4.419   0.901   1.439
 5996SOL    HW218809   4.421   0.738   1.456
 5997SOL     OW18810   5.229   1.827   1.019
 5997SOL    HW118811   5.260   1.895   0.953
 5997SOL    HW218812   5.307   1.776   1.054
 5998SOL     OW18813   4.441   0.541   1.724
 5998SOL    HW118814   4.495   0.611   1.771
 5998SOL    HW218815   4.462   0.451   1.763
 5999SOL     OW18816   5.190   1.187   1.624
 5999SOL    HW118817   5.178   1.207   1.721
 5999SOL    HW218818   5.283   1.209   1.597
 6000SOL     OW18819   4.073   1.751   1.576
 6000SOL    HW118820   3.988   1.803   1.563
 6000SOL    HW218821   4.051   1.660   1.612
 6001SOL     OW18822   5.372   0.871   1.253
 6001SOL    HW118823   5.373   0.783   1.207
 6001SOL    HW218824   5.359   0.944   1.186
 6002SOL     OW18825   4.963   0.320   0.433
 6002SOL    HW118826   5.040   0.259   0.416
 6002SOL    HW218827   4.973   0.364   0.522
 6003SOL     OW18828   4.306   0.721   0.667
 6003SOL    HW118829   4.350   0.810   0.658
 6003SOL    HW218830   4.240   0.709   0.593
 6004SOL     OW18831   5.459   0.348   1.664
 6004SOL    HW118832   5.474   0.363   1.567
 6004SOL    HW218833   5.377   0.292   1.677
 6005SOL     OW18834   5.481   0.926   1.498
 6005SOL    HW118835   5.466   1.023   1.518
 6005SOL    HW218836   5.448   0.905   1.406
 6006SOL     OW18837   4.655   1.396   0.100
 6006SOL    HW118838   4.585   1.373   0.167
 6006SOL    HW218839   4.636   1.487   0.061
 6007SOL     OW18840   4.402   1.753   0.943
 6007SOL    HW118841   4.375   1.849   0.932
 6007SOL    HW218842   4.501   1.745   0.931
 6008SOL     OW18843   4.599   0.980   0.868
 6008SOL    HW118844   4.654   0.904   0.902
 6008SOL    HW218845   4.548   1.021   0.944
 6009SOL     OW18846   4.791   0.957   0.039
 6009SOL    HW118847   4.830   1.049   0.031
 6009SOL    HW218848   4.866   0.890   0.039
 6010SOL     OW18849   5.570   1.542   0.843
 6010SOL    HW118850   5.486   1.538   0.789
 6010SOL    HW218851   5.588   1.453   0.883
 6011SOL     OW18852   3.936   1.282   1.839
 6011SOL    HW118853   3.909   1.198   1.791
 6011SOL    HW218854   3.875   1.297   1.916
 6012SOL     OW18855   3.843   1.206   0.644
 6012SOL    HW118856   3.900   1.166   0.716
 6012SOL    HW218857   3.842   1.144   0.565
 6013SOL     OW18858   4.413   1.433   1.637
 6013SOL    HW118859   4.334   1.386   1.677
 6013SOL    HW218860   4.419   1.526   1.675
 6014SOL     OW18861   5.545   0.170   1.228
 6014SOL    HW118862   5.461   0.120   1.207
 6014SOL    HW218863   5.601   0.176   1.145
 6015SOL     OW18864   4.137   0.404   0.507
 6015SOL    HW118865   4.166   0.336   0.440
 6015SOL    HW218866   4.090   0.358   0.583
 6016SOL     OW18867   5.388   1.484   1.105
 6016SOL    HW118868   5.325   1.465   1.030
 6016SOL    HW218869   5.382   1.410   1.172
 6017SOL     OW18870   4.079   0.570   1.273
 6017SOL    HW118871   4.128   0.501   1.326
 6017SOL    HW218872   4.080   0.545   1.176
 6018SOL     OW18873   4.563   1.567   0.687
 6018SOL    HW118874   4.533   1.615   0.604
 6018SOL    HW218875   4.493   1.502   0.714
 6019SOL     OW18876   5.183   0.268   1.122
 6019SOL    HW118877   5.231   0.184   1.149
 6019SOL    HW218878   5.120   0.295   1.195
 6020SOL     OW18879   4.672   0.068   1.116
 6020SOL    HW118880   4.644   0.024   1.030
 6020SOL    HW218881   4.712   7.000   1.177
 6021SOL     OW18882   4.504   1.321   0.324
 6021SOL    HW118883   4.477   1.226   0.340
 6021SOL    HW218884   4.585   1.342   0.380
 6022SOL     OW18885   4.338   1.587   1.290
 6022SOL    HW118886   4.328   1.679   1.328
 6022SOL    HW218887   4.429   1.578   1.249
 6023SOL     OW18888   5.125   0.021   0.069
 6023SOL    HW118889   5.112   6.922   0.055
 6023SOL    HW218890   5.037   0.066   0.073
 6024SOL     OW18891   4.971   0.440   0.679
 6024SOL    HW118892   4.931   0.531   0.667
 6024SOL    HW218893   4.996   0.427   0.775
 6025SOL     OW18894   5.365   0.236   0.888
 6025SOL    HW118895   5.303   0.242   0.966
 6025SOL    HW218896   5.363   0.322   0.837
 6026SOL     OW18897   3.828   1.027   0.430
 6026SOL    HW118898   3.898   0.999   0.364
 6026SOL    HW218899   3.752   0.962   0.427
 6027SOL     OW18900   4.613   1.676   0.368
 6027SOL    HW118901   4.539   1.655   0.305
 6027SOL    HW218902   4.590   1.757   0.422
 6028SOL     OW18903   3.925   0.638   2.019
 6028SOL    HW118904   3.836   0.615   2.057
 6028SOL    HW218905   3.922   0.631   1.920
 6029SOL     OW18906   3.938   0.299   2.863
 6029SOL    HW118907   3.981   0.265   2.948
 6029SOL    HW218908   3.864   0.238   2.837
 6030SOL     OW18909   3.738   0.419   2.491
 6030SOL    HW118910   3.659   0.439   2.548
 6030SOL    HW218911   3.710   0.360   2.415
 6031SOL     OW18912   4.300   1.309   3.079
 6031SOL    HW118913   4.214   1.307   3.028
 6031SOL    HW218914   4.322   1.404   3.103
 6032SOL     OW18915   5.312   1.524   2.563
 6032SOL    HW118916   5.266   1.487   2.643
 6032SOL    HW218917   5.247   1.533   2.487
 6033SOL     OW18918   4.856   0.715   2.541
 6033SOL    HW118919   4.909   0.797   2.523
 6033SOL    HW218920   4.806   0.726   2.627
 6034SOL     OW18921   5.520   0.577   2.072
 6034SOL    HW118922   5.489   0.583   1.977
 6034SOL    HW218923   5.465   0.509   2.121
 6035SOL     OW18924   4.444   1.131   2.917
 6035SOL    HW118925   4.387   1.168   2.991
 6035SOL    HW218926   4.485   1.207   2.866
 6036SOL     OW18927   4.606   0.746   3.694
 6036SOL    HW118928   4.597   0.813   3.767
 6036SOL    HW218929   4.629   0.793   3.609
 6037SOL     OW18930   4.414   0.983   2.510
 6037SOL    HW118931   4.483   0.983   2.582
 6037SOL    HW218932   4.340   1.046   2.534
 6038SOL     OW18933   4.433   1.156   3.702
 6038SOL    HW118934   4.492   1.225   3.744
 6038SOL    HW218935   4.353   1.200   3.661
 6039SOL     OW18936   4.069   1.391   2.933
 6039SOL    HW118937   3.989   1.345   2.895
 6039SOL    HW218938   4.111   1.447   2.862
 6040SOL     OW18939   5.172   1.501   3.238
 6040SOL    HW118940   5.229   1.582   3.251
 6040SOL    HW218941   5.094   1.504   3.299
 6041SOL     OW18942   4.178   0.380   3.302
 6041SOL    HW118943   4.261   0.338   3.337
 6041SOL    HW218944   4.098   0.331   3.338
 6042SOL     OW18945   5.351   0.475   2.608
 6042SOL    HW118946   5.333   0.513   2.517
 6042SOL    HW218947   5.300   0.527   2.676
 6043SOL     OW18948   3.951   1.725   2.324
 6043SOL    HW118949   3.976   1.794   2.392
 6043SOL    HW218950   4.025   1.713   2.258
 6044SOL     OW18951   4.858   1.330   3.570
 6044SOL    HW118952   4.904   1.323   3.658
 6044SOL    HW218953   4.797   1.252   3.557
 6045SOL     OW18954   3.968   1.457   2.398
 6045SOL    HW118955   3.946   1.555   2.399
 6045SOL    HW218956   3.919   1.412   2.473
 6046SOL     OW18957   4.019   1.092   2.742
 6046SOL    HW118958   4.026   0.997   2.769
 6046SOL    HW218959   3.960   1.142   2.806
 6047SOL     OW18960   4.282   1.811   3.255
 6047SOL    HW118961   4.205   1.783   3.313
 6047SOL    HW218962   4.334   1.882   3.302
 6048SOL     OW18963   4.286   0.989   2.021
 6048SOL    HW118964   4.335   1.033   1.945
 6048SOL    HW218965   4.328   1.015   2.108
 6049SOL     OW18966   5.292   0.132   3.314
 6049SOL    HW118967   5.348   0.208   3.282
 6049SOL    HW218968   5.260   0.151   3.407
 6050SOL     OW18969   3.845   0.679   2.434
 6050SOL    HW118970   3.820   0.585   2.455
 6050SOL    HW218971   3.840   0.735   2.516
 6051SOL     OW18972   5.577   1.749   2.179
 6051SOL    HW118973   5.653   1.736   2.243
 6051SOL    HW218974   5.579   1.843   2.145
 6052SOL     OW18975   3.766   1.570   1.972
 6052SOL    HW118976   3.745   1.474   1.988
 6052SOL    HW218977   3.745   1.623   2.053
 6053SOL     OW18978   5.428   0.932   2.527
 6053SOL    HW118979   5.520   0.892   2.527
 6053SOL    HW218980   5.415   0.983   2.442
 6054SOL     OW18981   5.395   1.111   2.304
 6054SOL    HW118982   5.480   1.092   2.254
 6054SOL    HW218983   5.412   1.180   2.374
 6055SOL     OW18984   3.827   0.765   3.432
 6055SOL    HW118985   3.910   0.820   3.440
 6055SOL    HW218986   3.750   0.824   3.409
 6056SOL     OW18987   4.340   1.391   2.575
 6056SOL    HW118988   4.298   1.301   2.581
 6056SOL    HW218989   4.324   1.430   2.484
 6057SOL     OW18990   4.981   1.209   3.282
 6057SOL    HW118991   5.005   1.139   3.215
 6057SOL    HW218992   5.049   1.208   3.356
 6058SOL     OW18993   4.550   0.042   2.390
 6058SOL    HW118994   4.597   0.126   2.362
 6058SOL    HW218995   4.452   0.058   2.391
 6059SOL     OW18996   3.920   0.948   3.169
 6059SOL    HW118997   4.013   0.915   3.152
 6059SOL    HW218998   3.859   0.912   3.099
 6060SOL     OW18999   5.269   1.028   2.068
 6060SOL    HW119000   5.196   0.964   2.092
 6060SOL    HW219001   5.313   1.060   2.152
 6061SOL     OW19002   4.921   1.770   3.498
 6061SOL    HW119003   4.916   1.841   3.428
 6061SOL    HW219004   4.928   1.680   3.455
 6062SOL     OW19005   4.066   0.288   3.668
 6062SOL    HW119006   4.118   0.355   3.721
 6062SOL    HW219007   3.973   0.283   3.704
 6063SOL     OW19008   5.206   1.404   2.786
 6063SOL    HW119009   5.139   1.434   2.854
 6063SOL    HW219010   5.185   1.310   2.758
 6064SOL     OW19011   5.353   1.823   2.408
 6064SOL    HW119012   5.345   1.766   2.326
 6064SOL    HW219013   5.357   1.765   2.489
 6065SOL     OW19014   4.296   0.706   2.125
 6065SOL    HW119015   4.299   0.798   2.086
 6065SOL    HW219016   4.229   0.704   2.199
 6066SOL     OW19017   5.013   0.392   2.808
 6066SOL    HW119018   4.921   0.354   2.817
 6066SOL    HW219019   5.075   0.344   2.870
 6067SOL     OW19020   5.313   1.673   2.178
 6067SOL    HW119021   5.412   1.689   2.171
 6067SOL    HW219022   5.275   1.662   2.086
 6068SOL     OW19023   4.524   0.592   3.327
 6068SOL    HW119024   4.491   0.559   3.415
 6068SOL    HW219025   4.497   0.528   3.255
 6069SOL     OW19026   5.120   0.487   3.540
 6069SOL    HW119027   5.126   0.529   3.631
 6069SOL    HW219028   5.165   0.398   3.542
 6070SOL     OW19029   4.673   0.875   3.454
 6070SOL    HW119030   4.730   0.808   3.409
 6070SOL    HW219031   4.619   0.925   3.386
 6071SOL     OW19032   4.739   0.406   3.054
 6071SOL    HW119033   4.646   0.420   3.087
 6071SOL    HW219034   4.737   0.365   2.963
 6072SOL     OW19035   4.770   0.706   2.277
 6072SOL    HW119036   4.794   0.705   2.374
 6072SOL    HW219037   4.681   0.662   2.264
 6073SOL     OW19038   3.818   0.849   2.650
 6073SOL    HW119039   3.907   0.836   2.693
 6073SOL    HW219040   3.767   0.918   2.701
 6074SOL     OW19041   3.836   1.862   3.472
 6074SOL    HW119042   3.854   1.826   3.564
 6074SOL    HW219043   3.738   1.870   3.458
 6075SOL     OW19044   4.585   0.370   2.060
 6075SOL    HW119045   4.652   0.423   2.007
 6075SOL    HW219046   4.529   0.316   1.998
 6076SOL     OW19047   5.413   0.568   3.689
 6076SOL    HW119048   5.388   0.650   3.638
 6076SOL    HW219049   5.433   0.494   3.625
 6077SOL     OW19050   5.127   1.162   2.406
 6077SOL    HW119051   5.214   1.149   2.358
 6077SOL    HW219052   5.070   1.226   2.356
 6078SOL     OW19053   4.224   0.179   2.791
 6078SOL    HW119054   4.264   0.210   2.877
 6078SOL    HW219055   4.239   0.247   2.719
 6079SOL     OW19056   4.717   1.462   2.321
 6079SOL    HW119057   4.696   1.539   2.260
 6079SOL    HW219058   4.682   1.482   2.412
 6080SOL     OW19059   4.081   1.805   2.759
 6080SOL    HW119060   4.127   1.716   2.758
 6080SOL    HW219061   4.150   1.877   2.769
 6081SOL     OW19062   5.521   1.055   2.764
 6081SOL    HW119063   5.475   1.040   2.676
 6081SOL    HW219064   5.453   1.064   2.836
 6082SOL     OW19065   4.931   1.514   3.376
 6082SOL    HW119066   4.922   1.445   3.447
 6082SOL    HW219067   4.869   1.493   3.300
 6083SOL     OW19068   4.023   0.940   2.128
 6083SOL    HW119069   4.111   0.964   2.086
 6083SOL    HW219070   4.000   0.846   2.102
 6084SOL     OW19071   5.208   0.778   2.576
 6084SOL    HW119072   5.205   0.728   2.662
 6084SOL    HW219073   5.291   0.835   2.573
 6085SOL     OW19074   4.195   1.287   3.609
 6085SOL    HW119075   4.174   1.292   3.511
 6085SOL    HW219076   4.111   1.273   3.661
 6086SOL     OW19077   4.868   1.773   2.085
 6086SOL    HW119078   4.780   1.750   2.125
 6086SOL    HW219079   4.895   1.704   2.019
 6087SOL     OW19080   3.941   0.270   3.409
 6087SOL    HW119081   3.882   0.349   3.394
 6087SOL    HW219082   3.981   0.276   3.500
 6088SOL     OW19083   5.361   1.388   1.959
 6088SOL    HW119084   5.328   1.482   1.945
 6088SOL    HW219085   5.289   1.324   1.935
 6089SOL     OW19086   4.190   1.738   2.172
 6089SOL    HW119087   4.234   1.795   2.242
 6089SOL    HW219088   4.260   1.699   2.112
 6090SOL     OW19089   5.142   0.142   2.262
 6090SOL    HW119090   5.117   0.084   2.184
 6090SOL    HW219091   5.241   0.154   2.265
 6091SOL     OW19092   3.977   1.788   3.074
 6091SOL    HW119093   4.023   1.709   3.114
 6091SOL    HW219094   3.986   1.785   2.974
 6092SOL     OW19095   4.664   1.680   2.739
 6092SOL    HW119096   4.756   1.642   2.746
 6092SOL    HW219097   4.614   1.633   2.665
 6093SOL     OW19098   4.115   0.672   2.332
 6093SOL    HW119099   4.126   0.573   2.342
 6093SOL    HW219100   4.021   0.696   2.356
 6094SOL     OW19101   5.219   0.220   3.576
 6094SOL    HW119102   5.259   0.219   3.667
 6094SOL    HW219103   5.123   0.194   3.582
 6095SOL     OW19104   4.360   0.087   1.962
 6095SOL    HW119105   4.395   0.019   2.026
 6095SOL    HW219106   4.283   0.048   1.911
 6096SOL     OW19107   4.503   0.264   3.661
 6096SOL    HW119108   4.593   0.225   3.644
 6096SOL    HW219109   4.447   0.197   3.711
 6097SOL     OW19110   4.589   1.511   3.037
 6097SOL    HW119111   4.569   1.463   2.952
 6097SOL    HW219112   4.657   1.460   3.089
 6098SOL     OW19113   5.052   0.590   3.295
 6098SOL    HW119114   5.087   0.562   3.384
 6098SOL    HW219115   5.083   0.683   3.275
 6099SOL     OW19116   4.535   1.363   2.799
 6099SOL    HW119117   4.629   1.365   2.764
 6099SOL    HW219118   4.471   1.379   2.724
 6100SOL     OW19119   4.650   0.525   2.737
 6100SOL    HW119120   4.624   0.518   2.640
 6100SOL    HW219121   4.683   0.436   2.769
 6101SOL     OW19122   4.282   0.086   2.354
 6101SOL    HW119123   4.200   0.066   2.407
 6101SOL    HW219124   4.259   0.144   2.276
 6102SOL     OW19125   5.153   1.214   1.899
 6102SOL    HW119126   5.191   1.141   1.955
 6102SOL    HW219127   5.064   1.241   1.936
 6103SOL     OW19128   4.030   0.028   2.061
 6103SOL    HW119129   4.083   0.107   2.093
 6103SOL    HW219130   3.947   0.019   2.115
 6104SOL     OW19131   4.679   0.272   2.302
 6104SOL    HW119132   4.641   0.303   2.215
 6104SOL    HW219133   4.778   0.285   2.303
 6105SOL     OW19134   4.788   0.688   3.291
 6105SOL    HW119135   4.712   0.627   3.312
 6105SOL    HW219136   4.874   0.638   3.296
 6106SOL     OW19137   4.925   1.599   2.676
 6106SOL    HW119138   4.951   1.651   2.594
 6106SOL    HW219139   4.962   1.644   2.757
 6107SOL     OW19140   4.205   1.155   2.556
 6107SOL    HW119141   4.143   1.133   2.632
 6107SOL    HW219142   4.154   1.150   2.470
 6108SOL     OW19143   4.972   1.780   2.468
 6108SOL    HW119144   5.022   1.847   2.413
 6108SOL    HW219145   4.889   1.823   2.503
 6109SOL     OW19146   4.751   0.526   1.911
 6109SOL    HW119147   4.707   0.613   1.888
 6109SOL    HW219148   4.822   0.541   1.980
 6110SOL     OW19149   3.840   0.550   3.264
 6110SOL    HW119150   3.933   0.554   3.226
 6110SOL    HW219151   3.826   0.626   3.327
 6111SOL     OW19152   4.301   0.235   3.054
 6111SOL    HW119153   4.349   0.160   3.099
 6111SOL    HW219154   4.206   0.238   3.085
 6112SOL     OW19155   4.595   0.477   2.476
 6112SOL    HW119156   4.544   0.535   2.412
 6112SOL    HW219157   4.625   0.393   2.430
 6113SOL     OW19158   4.688   0.010   2.648
 6113SOL    HW119159   4.637   0.019   2.563
 6113SOL    HW219160   4.738   6.924   2.649
 6114SOL     OW19161   5.155   1.141   2.713
 6114SOL    HW119162   5.084   1.074   2.732
 6114SOL    HW219163   5.166   1.153   2.615
 6115SOL     OW19164   5.187   0.616   2.802
 6115SOL    HW119165   5.120   0.542   2.810
 6115SOL    HW219166   5.249   0.614   2.881
 6116SOL     OW19167   5.532   0.781   2.251
 6116SOL    HW119168   5.603   0.750   2.314
 6116SOL    HW219169   5.526   0.717   2.174
 6117SOL     OW19170   4.221   1.429   2.007
 6117SOL    HW119171   4.142   1.399   2.061
 6117SOL    HW219172   4.220   1.384   1.918
 6118SOL     OW19173   5.454   1.282   2.498
 6118SOL    HW119174   5.551   1.277   2.523
 6118SOL    HW219175   5.418   1.372   2.524
 6119SOL     OW19176   5.123   0.583   1.932
 6119SOL    HW119177   5.062   0.563   2.009
 6119SOL    HW219178   5.218   0.575   1.962
 6120SOL     OW19179   4.208   0.243   2.135
 6120SOL    HW119180   4.272   0.197   2.074
 6120SOL    HW219181   4.185   0.333   2.097
 6121SOL     OW19182   5.463   1.238   3.396
 6121SOL    HW119183   5.553   1.199   3.378
 6121SOL    HW219184   5.473   1.329   3.436
 6122SOL     OW19185   4.756   1.348   3.202
 6122SOL    HW119186   4.669   1.319   3.242
 6122SOL    HW219187   4.831   1.295   3.243
 6123SOL     OW19188   5.344   1.650   3.536
 6123SOL    HW119189   5.323   1.681   3.443
 6123SOL    HW219190   5.421   1.587   3.533
 6124SOL     OW19191   4.875   1.252   2.970
 6124SOL    HW119192   4.814   1.283   3.044
 6124SOL    HW219193   4.839   1.283   2.882
 6125SOL     OW19194   5.323   1.092   2.948
 6125SOL    HW119195   5.317   1.160   3.021
 6125SOL    HW219196   5.254   1.111   2.879
 6126SOL     OW19197   4.600   0.176   3.232
 6126SOL    HW119198   4.618   0.149   3.138
 6126SOL    HW219199   4.687   0.199   3.277
 6127SOL     OW19200   4.689   1.115   3.581
 6127SOL    HW119201   4.595   1.131   3.613
 6127SOL    HW219202   4.691   1.029   3.530
 6128SOL     OW19203   4.442   1.056   2.242
 6128SOL    HW119204   4.429   1.030   2.338
 6128SOL    HW219205   4.517   1.003   2.203
 6129SOL     OW19206   4.166   0.828   3.129
 6129SOL    HW119207   4.236   0.836   3.200
 6129SOL    HW219208   4.129   0.735   3.128
 6130SOL     OW19209   4.988   0.364   3.156
 6130SOL    HW119210   5.018   0.446   3.205
 6130SOL    HW219211   4.897   0.381   3.117
 6131SOL     OW19212   3.801   1.562   3.214
 6131SOL    HW119213   3.766   1.635   3.155
 6131SOL    HW219214   3.901   1.561   3.212
 6132SOL     OW19215   4.042   1.135   2.332
 6132SOL    HW119216   4.041   1.213   2.269
 6132SOL    HW219217   4.036   1.050   2.279
 6133SOL     OW19218   4.261   0.541   2.727
 6133SOL    HW119219   4.276   0.596   2.646
 6133SOL    HW219220   4.334   0.558   2.794
 6134SOL     OW19221   4.970   1.360   2.267
 6134SOL    HW119222   5.033   1.432   2.297
 6134SOL    HW219223   4.877   1.385   2.293
 6135SOL     OW19224   5.046   1.466   2.999
 6135SOL    HW119225   5.091   1.474   3.088
 6135SOL    HW219226   4.988   1.384   2.999
 6136SOL     OW19227   5.318   0.628   2.369
 6136SOL    HW119228   5.255   0.681   2.426
 6136SOL    HW219229   5.385   0.689   2.326
 6137SOL     OW19230   4.073   1.531   3.163
 6137SOL    HW119231   4.061   1.476   3.080
 6137SOL    HW219232   4.170   1.551   3.176
 6138SOL     OW19233   4.203   0.703   3.516
 6138SOL    HW119234   4.242   0.754   3.440
 6138SOL    HW219235   4.268   0.635   3.549
 6139SOL     OW19236   5.348   0.797   3.558
 6139SOL    HW119237   5.254   0.831   3.550
 6139SOL    HW219238   5.403   0.832   3.482
 6140SOL     OW19239   4.739   0.127   3.595
 6140SOL    HW119240   4.774   0.161   3.508
 6140SOL    HW219241   4.725   0.028   3.589
 6141SOL     OW19242   4.162   0.034   3.609
 6141SOL    HW119243   4.081   6.979   3.632
 6141SOL    HW219244   4.140   0.131   3.623
 6142SOL     OW19245   4.313   0.881   2.900
 6142SOL    HW119246   4.355   0.972   2.900
 6142SOL    HW219247   4.259   0.870   2.984
 6143SOL     OW19248   5.021   0.848   2.855
 6143SOL    HW119249   4.927   0.822   2.835
 6143SOL    HW219250   5.082   0.771   2.840
 6144SOL     OW19251   4.928   0.541   2.124
 6144SOL    HW119252   4.941   0.458   2.178
 6144SOL    HW219253   4.878   0.609   2.178
 6145SOL     OW19254   4.026   0.186   3.101
 6145SOL    HW119255   3.987   0.178   3.193
 6145SOL    HW219256   4.040   0.095   3.062
 6146SOL     OW19257   3.782   1.300   3.133
 6146SOL    HW119258   3.813   1.242   3.208
 6146SOL    HW219259   3.780   1.396   3.163
 6147SOL     OW19260   4.453   0.639   2.905
 6147SOL    HW119261   4.522   0.619   2.835
 6147SOL    HW219262   4.412   0.729   2.887
 6148SOL     OW19263   5.473   0.975   3.731
 6148SOL    HW119264   5.431   0.902   3.676
 6148SOL    HW219265   5.412   0.999   3.806
 6149SOL     OW19266   4.036   0.054   2.469
 6149SOL    HW119267   4.012   0.141   2.512
 6149SOL    HW219268   3.976   6.982   2.504
 6150SOL     OW19269   5.327   0.417   2.187
 6150SOL    HW119270   5.360   0.339   2.240
 6150SOL    HW219271   5.302   0.491   2.249
 6151SOL     OW19272   4.754   0.763   2.815
 6151SOL    HW119273   4.732   0.783   2.910
 6151SOL    HW219274   4.724   0.671   2.791
 6152SOL     OW19275   4.709   1.557   3.620
 6152SOL    HW119276   4.674   1.609   3.542
 6152SOL    HW219277   4.750   1.472   3.587
 6153SOL     OW19278   5.563   1.492   3.465
 6153SOL    HW119279   5.584   1.520   3.372
 6153SOL    HW219280   5.645   1.500   3.522
 6154SOL     OW19281   4.083   0.901   3.669
 6154SOL    HW119282   4.150   0.934   3.736
 6154SOL    HW219283   4.124   0.827   3.615
 6155SOL     OW19284   5.255   0.232   1.985
 6155SOL    HW119285   5.156   0.238   1.972
 6155SOL    HW219286   5.284   0.302   2.050
 6156SOL     OW19287   5.003   0.822   1.869
 6156SOL    HW119288   5.044   0.732   1.883
 6156SOL    HW219289   5.036   0.861   1.783
 6157SOL     OW19290   4.796   1.358   2.727
 6157SOL    HW119291   4.812   1.278   2.670
 6157SOL    HW219292   4.853   1.434   2.694
 6158SOL     OW19293   4.053   0.822   2.798
 6158SOL    HW119294   4.151   0.840   2.809
 6158SOL    HW219295   4.034   0.727   2.823
 6159SOL     OW19296   4.029   0.549   2.860
 6159SOL    HW119297   3.986   0.458   2.857
 6159SOL    HW219298   4.113   0.548   2.806
 6160SOL     OW19299   4.846   0.448   3.528
 6160SOL    HW119300   4.804   0.472   3.615
 6160SOL    HW219301   4.944   0.470   3.531
 6161SOL     OW19302   4.835   0.240   3.361
 6161SOL    HW119303   4.833   0.321   3.419
 6161SOL    HW219304   4.901   0.254   3.287
 6162SOL     OW19305   3.744   1.289   2.042
 6162SOL    HW119306   3.652   1.315   2.014
 6162SOL    HW219307   3.743   1.197   2.081
 6163SOL     OW19308   3.813   1.763   2.800
 6163SOL    HW119309   3.777   1.683   2.751
 6163SOL    HW219310   3.909   1.777   2.774
 6164SOL     OW19311   4.212   1.557   2.759
 6164SOL    HW119312   4.284   1.623   2.781
 6164SOL    HW219313   4.244   1.494   2.689
 6165SOL     OW19314   4.663   0.797   3.070
 6165SOL    HW119315   4.719   0.768   3.147
 6165SOL    HW219316   4.580   0.742   3.066
 6166SOL     OW19317   3.771   0.596   2.994
 6166SOL    HW119318   3.852   0.588   2.935
 6166SOL    HW219319   3.798   0.579   3.089
 6167SOL     OW19320   3.916   0.571   3.612
 6167SOL    HW119321   4.012   0.573   3.582
 6167SOL    HW219322   3.863   0.636   3.557
 6168SOL     OW19323   5.110   0.921   3.501
 6168SOL    HW119324   5.130   1.019   3.501
 6168SOL    HW219325   5.102   0.889   3.406
 6169SOL     OW19326   4.528   0.589   2.223
 6169SOL    HW119327   4.540   0.506   2.168
 6169SOL    HW219328   4.446   0.638   2.192
 6170SOL     OW19329   5.362   0.607   3.013
 6170SOL    HW119330   5.338   0.539   3.083
 6170SOL    HW219331   5.460   0.602   2.993
 6171SOL     OW19332   3.955   1.526   3.575
 6171SOL    HW119333   3.942   1.601   3.640
 6171SOL    HW219334   3.959   1.439   3.624
 6172SOL     OW19335   4.468   0.450   3.100
 6172SOL    HW119336   4.405   0.373   3.087
 6172SOL    HW219337   4.452   0.519   3.029
 6173SOL     OW19338   4.594   1.686   3.392
 6173SOL    HW119339   4.560   1.618   3.328
 6173SOL    HW219340   4.620   1.769   3.341
 6174SOL     OW19341   4.157   0.484   2.010
 6174SOL    HW119342   4.230   0.548   2.035
 6174SOL    HW219343   4.068   0.529   2.023
 6175SOL     OW19344   3.861   1.140   3.348
 6175SOL    HW119345   3.863   1.104   3.441
 6175SOL    HW219346   3.884   1.068   3.284
 6176SOL     OW19347   5.008   1.030   3.061
 6176SOL    HW119348   5.018   0.962   2.988
 6176SOL    HW219349   4.959   1.110   3.025
 6177SOL     OW19350   5.057   0.870   2.137
 6177SOL    HW119351   4.984   0.846   2.201
 6177SOL    HW219352   5.026   0.854   2.043
 6178SOL     OW19353   5.488   1.709   3.020
 6178SOL    HW119354   5.561   1.739   2.958
 6178SOL    HW219355   5.462   1.615   2.998
 6179SOL     OW19356   4.994   1.720   2.914
 6179SOL    HW119357   5.084   1.762   2.905
 6179SOL    HW219358   5.003   1.629   2.955
 6180SOL     OW19359   3.837   1.240   2.876
 6180SOL    HW119360   3.810   1.262   2.970
 6180SOL    HW219361   3.765   1.186   2.833
 6181SOL     OW19362   4.418   1.693   3.605
 6181SOL    HW119363   4.347   1.764   3.602
 6181SOL    HW219364   4.484   1.709   3.532
 6182SOL     OW19365   5.424   0.205   2.321
 6182SOL    HW119366   5.499   0.173   2.265
 6182SOL    HW219367   5.410   0.141   2.397
 6183SOL     OW19368   5.128   1.571   2.358
 6183SOL    HW119369   5.188   1.606   2.286
 6183SOL    HW219370   5.066   1.644   2.388
 6184SOL     OW19371   3.890   1.761   3.717
 6184SOL    HW119372   3.832   1.692   3.761
 6184SOL    HW219373   3.938   1.813   3.788
 6185SOL     OW19374   5.005   0.941   2.506
 6185SOL    HW119375   5.079   0.880   2.531
 6185SOL    HW219376   5.042   1.021   2.458
 6186SOL     OW19377   4.498   1.282   3.280
 6186SOL    HW119378   4.473   1.332   3.363
 6186SOL    HW219379   4.423   1.286   3.215
 6187SOL     OW19380   4.398   1.637   2.010
 6187SOL    HW119381   4.415   1.658   1.913
 6187SOL    HW219382   4.342   1.554   2.016
 6188SOL     OW19383   5.333   1.726   3.261
 6188SOL    HW119384   5.386   1.719   3.177
 6188SOL    HW219385   5.315   1.822   3.281
 6189SOL     OW19386   5.608   0.126   2.819
 6189SOL    HW119387   5.614   0.026   2.825
 6189SOL    HW219388   5.515   0.152   2.792
 6190SOL     OW19389   3.974   0.299   2.579
 6190SOL    HW119390   3.891   0.346   2.550
 6190SOL    HW219391   3.980   0.300   2.679
 6191SOL     OW19392   4.945   1.581   1.906
 6191SOL    HW119393   4.937   1.488   1.943
 6191SOL    HW219394   4.868   1.598   1.844
 6192SOL     OW19395   4.546   1.012   3.255
 6192SOL    HW119396   4.591   0.992   3.168
 6192SOL    HW219397   4.533   1.111   3.264
 6193SOL     OW19398   4.642   0.910   2.135
 6193SOL    HW119399   4.703   0.950   2.067
 6193SOL    HW219400   4.691   0.842   2.188
 6194SOL     OW19401   5.213   1.652   1.918
 6194SOL    HW119402   5.117   1.626   1.905
 6194SOL    HW219403   5.259   1.657   1.829
 6195SOL     OW19404   4.093   1.308   3.358
 6195SOL    HW119405   4.085   1.386   3.295
 6195SOL    HW219406   4.012   1.250   3.349
 6196SOL     OW19407   5.323   1.284   3.153
 6196SOL    HW119408   5.381   1.258   3.230
 6196SOL    HW219409   5.260   1.356   3.182
 6197SOL     OW19410   4.811   1.117   2.606
 6197SOL    HW119411   4.730   1.069   2.638
 6197SOL    HW219412   4.874   1.051   2.564
 6198SOL     OW19413   4.755   0.264   2.808
 6198SOL    HW119414   4.742   0.221   2.719
 6198SOL    HW219415   4.732   0.199   2.881
 6199SOL     OW19416   4.323   1.492   2.324
 6199SOL    HW119417   4.380   1.435   2.264
 6199SOL    HW219418   4.241   1.521   2.274
 6200SOL     OW19419   5.493   0.373   3.259
 6200SOL    HW119420   5.561   0.445   3.253
 6200SOL    HW219421   5.515   0.300   3.194
 6201SOL     OW19422   3.999   1.350   2.157
 6201SOL    HW119423   3.908   1.336   2.117
 6201SOL    HW219424   3.991   1.397   2.244
 6202SOL     OW19425   3.853   1.038   3.603
 6202SOL    HW119426   3.770   1.013   3.653
 6202SOL    HW219427   3.930   0.982   3.635
 6203SOL     OW19428   4.401   0.249   3.398
 6203SOL    HW119429   4.475   0.235   3.333
 6203SOL    HW219430   4.439   0.274   3.487
 6204SOL     OW19431   3.799   0.326   1.868
 6204SOL    HW119432   3.721   0.306   1.809
 6204SOL    HW219433   3.828   0.421   1.853
 6205SOL     OW19434   5.127   0.851   3.237
 6205SOL    HW119435   5.068   0.910   3.181
 6205SOL    HW219436   5.220   0.855   3.201
 6206SOL     OW19437   3.754   0.159   2.130
 6206SOL    HW119438   3.773   0.219   2.052
 6206SOL    HW219439   3.748   0.065   2.099
 6207SOL     OW19440   4.907   1.321   1.994
 6207SOL    HW119441   4.810   1.298   1.984
 6207SOL    HW219442   4.931   1.324   2.091
 6208SOL     OW19443   4.364   0.817   3.314
 6208SOL    HW119444   4.420   0.899   3.300
 6208SOL    HW219445   4.423   0.736   3.319
 6209SOL     OW19446   5.250   1.818   2.887
 6209SOL    HW119447   5.278   1.875   2.810
 6209SOL    HW219448   5.331   1.777   2.930
 6210SOL     OW19449   4.439   0.541   3.587
 6210SOL    HW119450   4.494   0.611   3.633
 6210SOL    HW219451   4.461   0.451   3.626
 6211SOL     OW19452   5.189   1.185   3.486
 6211SOL    HW119453   5.176   1.206   3.583
 6211SOL    HW219454   5.283   1.207   3.459
 6212SOL     OW19455   4.076   1.732   3.425
 6212SOL    HW119456   3.991   1.784   3.416
 6212SOL    HW219457   4.056   1.640   3.460
 6213SOL     OW19458   5.372   0.872   3.112
 6213SOL    HW119459   5.373   0.783   3.065
 6213SOL    HW219460   5.358   0.945   3.046
 6214SOL     OW19461   4.949   0.331   2.301
 6214SOL    HW119462   5.019   0.260   2.291
 6214SOL    HW219463   4.960   0.378   2.389
 6215SOL     OW19464   4.306   0.724   2.528
 6215SOL    HW119465   4.349   0.814   2.517
 6215SOL    HW219466   4.239   0.710   2.455
 6216SOL     OW19467   5.460   0.347   3.527
 6216SOL    HW119468   5.475   0.362   3.430
 6216SOL    HW219469   5.377   0.292   3.541
 6217SOL     OW19470   5.480   0.926   3.359
 6217SOL    HW119471   5.463   1.023   3.379
 6217SOL    HW219472   5.448   0.906   3.266
 6218SOL     OW19473   4.610   1.348   1.939
 6218SOL    HW119474   4.566   1.359   2.029
 6218SOL    HW219475   4.620   1.438   1.896
 6219SOL     OW19476   4.396   1.753   2.779
 6219SOL    HW119477   4.375   1.850   2.765
 6219SOL    HW219478   4.495   1.740   2.780
 6220SOL     OW19479   4.597   0.982   2.724
 6220SOL    HW119480   4.650   0.904   2.757
 6220SOL    HW219481   4.547   1.024   2.800
 6221SOL     OW19482   4.802   0.995   1.937
 6221SOL    HW119483   4.771   1.050   1.859
 6221SOL    HW219484   4.875   0.933   1.907
 6222SOL     OW19485   5.540   1.564   2.715
 6222SOL    HW119486   5.466   1.557   2.648
 6222SOL    HW219487   5.520   1.504   2.793
 6223SOL     OW19488   3.937   1.278   3.704
 6223SOL    HW119489   3.910   1.195   3.656
 6223SOL    HW219490   3.876   1.293   3.782
 6224SOL     OW19491   3.862   1.224   2.533
 6224SOL    HW119492   3.898   1.183   2.617
 6224SOL    HW219493   3.914   1.191   2.454
 6225SOL     OW19494   4.414   1.428   3.500
 6225SOL    HW119495   4.334   1.383   3.540
 6225SOL    HW219496   4.423   1.520   3.539
 6226SOL     OW19497   5.547   0.170   3.091
 6226SOL    HW119498   5.462   0.121   3.072
 6226SOL    HW219499   5.602   0.176   3.008
 6227SOL     OW19500   4.128   0.405   2.367
 6227SOL    HW119501   4.158   0.333   2.304
 6227SOL    HW219502   4.084   0.363   2.447
 6228SOL     OW19503   5.421   1.456   2.947
 6228SOL    HW119504   5.343   1.438   2.886
 6228SOL    HW219505   5.421   1.390   3.021
 6229SOL     OW19506   4.079   0.571   3.136
 6229SOL    HW119507   4.129   0.501   3.189
 6229SOL    HW219508   4.079   0.545   3.040
 6230SOL     OW19509   4.547   1.570   2.522
 6230SOL    HW119510   4.512   1.635   2.455
 6230SOL    HW219511   4.477   1.502   2.543
 6231SOL     OW19512   5.182   0.267   2.983
 6231SOL    HW119513   5.230   0.184   3.011
 6231SOL    HW219514   5.119   0.294   3.056
 6232SOL     OW19515   4.671   0.068   2.979
 6232SOL    HW119516   4.635   0.023   2.898
 6232SOL    HW219517   4.713   0.001   3.040
 6233SOL     OW19518   4.505   1.326   2.195
 6233SOL    HW119519   4.481   1.231   2.211
 6233SOL    HW219520   4.586   1.350   2.248
 6234SOL     OW19521   4.348   1.571   3.148
 6234SOL    HW119522   4.336   1.664   3.183
 6234SOL    HW219523   4.437   1.564   3.103
 6235SOL     OW19524   5.020   6.984   2.064
 6235SOL    HW119525   5.060   6.907   2.015
 6235SOL    HW219526   4.942   6.952   2.118
 6236SOL     OW19527   4.967   0.452   2.544
 6236SOL    HW119528   4.926   0.542   2.533
 6236SOL    HW219529   4.992   0.438   2.640
 6237SOL     OW19530   5.362   0.234   2.751
 6237SOL    HW119531   5.300   0.242   2.830
 6237SOL    HW219532   5.359   0.318   2.697
 6238SOL     OW19533   3.760   1.032   2.165
 6238SOL    HW119534   3.857   1.018   2.146
 6238SOL    HW219535   3.717   0.944   2.185
 6239SOL     OW19536   4.619   1.683   2.182
 6239SOL    HW119537   4.541   1.662   2.124
 6239SOL    HW219538   4.596   1.756   2.246
 6240SOL     OW19539   3.925   0.636   3.881
 6240SOL    HW119540   3.835   0.614   3.918
 6240SOL    HW219541   3.922   0.631   3.781
 6241SOL     OW19542   3.938   0.299   4.726
 6241SOL    HW119543   3.981   0.265   4.810
 6241SOL    HW219544   3.864   0.238   4.699
 6242SOL     OW19545   3.739   0.418   4.353
 6242SOL    HW119546   3.659   0.438   4.410
 6242SOL    HW219547   3.711   0.360   4.276
 6243SOL     OW19548   4.302   1.320   4.945
 6243SOL    HW119549   4.218   1.317   4.891
 6243SOL    HW219550   4.322   1.414   4.970
 6244SOL     OW19551   5.312   1.523   4.424
 6244SOL    HW119552   5.265   1.488   4.505
 6244SOL    HW219553   5.247   1.534   4.349
 6245SOL     OW19554   4.852   0.725   4.407
 6245SOL    HW119555   4.906   0.806   4.387
 6245SOL    HW219556   4.803   0.737   4.493
 6246SOL     OW19557   5.519   0.577   3.935
 6246SOL    HW119558   5.489   0.583   3.840
 6246SOL    HW219559   5.464   0.509   3.983
 6247SOL     OW19560   4.442   1.139   4.777
 6247SOL    HW119561   4.388   1.175   4.853
 6247SOL    HW219562   4.480   1.215   4.724
 6248SOL     OW19563   4.607   0.747   5.555
 6248SOL    HW119564   4.599   0.814   5.628
 6248SOL    HW219565   4.630   0.794   5.469
 6249SOL     OW19566   4.413   0.984   4.373
 6249SOL    HW119567   4.483   0.986   4.445
 6249SOL    HW219568   4.339   1.047   4.397
 6250SOL     OW19569   4.432   1.157   5.563
 6250SOL    HW119570   4.492   1.226   5.604
 6250SOL    HW219571   4.353   1.202   5.521
 6251SOL     OW19572   4.072   1.392   4.795
 6251SOL    HW119573   3.992   1.345   4.758
 6251SOL    HW219574   4.113   1.450   4.725
 6252SOL     OW19575   5.169   1.509   5.099
 6252SOL    HW119576   5.228   1.589   5.112
 6252SOL    HW219577   5.090   1.515   5.161
 6253SOL     OW19578   4.178   0.381   5.165
 6253SOL    HW119579   4.261   0.338   5.200
 6253SOL    HW219580   4.098   0.330   5.200
 6254SOL     OW19581   5.351   0.475   4.469
 6254SOL    HW119582   5.333   0.512   4.379
 6254SOL    HW219583   5.300   0.526   4.538
 6255SOL     OW19584   3.952   1.725   4.201
 6255SOL    HW119585   3.970   1.804   4.259
 6255SOL    HW219586   4.029   1.710   4.139
 6256SOL     OW19587   4.857   1.338   5.426
 6256SOL    HW119588   4.909   1.328   5.510
 6256SOL    HW219589   4.797   1.259   5.413
 6257SOL     OW19590   3.963   1.456   4.261
 6257SOL    HW119591   3.946   1.554   4.266
 6257SOL    HW219592   3.917   1.411   4.338
 6258SOL     OW19593   4.017   1.092   4.603
 6258SOL    HW119594   4.025   0.996   4.631
 6258SOL    HW219595   3.960   1.141   4.668
 6259SOL     OW19596   4.286   1.826   5.139
 6259SOL    HW119597   4.207   1.799   5.193
 6259SOL    HW219598   4.330   1.906   5.181
 6260SOL     OW19599   4.286   0.989   3.884
 6260SOL    HW119600   4.335   1.033   3.809
 6260SOL    HW219601   4.327   1.015   3.971
 6261SOL     OW19602   5.291   0.132   5.178
 6261SOL    HW119603   5.347   0.209   5.145
 6261SOL    HW219604   5.260   0.152   5.271
 6262SOL     OW19605   3.845   0.679   4.297
 6262SOL    HW119606   3.820   0.585   4.319
 6262SOL    HW219607   3.840   0.735   4.379
 6263SOL     OW19608   5.577   1.749   4.039
 6263SOL    HW119609   5.653   1.736   4.104
 6263SOL    HW219610   5.580   1.841   4.002
 6264SOL     OW19611   3.761   1.561   3.838
 6264SOL    HW119612   3.741   1.464   3.851
 6264SOL    HW219613   3.739   1.611   3.922
 6265SOL     OW19614   5.428   0.932   4.389
 6265SOL    HW119615   5.520   0.892   4.390
 6265SOL    HW219616   5.414   0.982   4.304
 6266SOL     OW19617   5.395   1.111   4.165
 6266SOL    HW119618   5.480   1.092   4.116
 6266SOL    HW219619   5.412   1.179   4.236
 6267SOL     OW19620   3.828   0.765   5.294
 6267SOL    HW119621   3.912   0.819   5.300
 6267SOL    HW219622   3.751   0.824   5.271
 6268SOL     OW19623   4.334   1.393   4.450
 6268SOL    HW119624   4.292   1.302   4.451
 6268SOL    HW219625   4.328   1.432   4.359
 6269SOL     OW19626   4.982   1.218   5.143
 6269SOL    HW119627   5.004   1.146   5.077
 6269SOL    HW219628   5.049   1.215   5.218
 6270SOL     OW19629   4.550   0.043   4.251
 6270SOL    HW119630   4.596   0.127   4.223
 6270SOL    HW219631   4.451   0.058   4.253
 6271SOL     OW19632   3.920   0.949   5.031
 6271SOL    HW119633   4.013   0.916   5.014
 6271SOL    HW219634   3.859   0.915   4.960
 6272SOL     OW19635   5.270   1.028   3.930
 6272SOL    HW119636   5.196   0.964   3.953
 6272SOL    HW219637   5.314   1.060   4.014
 6273SOL     OW19638   4.912   1.814   5.359
 6273SOL    HW119639   4.908   1.885   5.288
 6273SOL    HW219640   4.921   1.725   5.316
 6274SOL     OW19641   4.065   0.289   5.529
 6274SOL    HW119642   4.118   0.355   5.583
 6274SOL    HW219643   3.972   0.284   5.565
 6275SOL     OW19644   5.201   1.411   4.649
 6275SOL    HW119645   5.136   1.439   4.719
 6275SOL    HW219646   5.182   1.317   4.622
 6276SOL     OW19647   5.361   1.821   4.271
 6276SOL    HW119648   5.351   1.762   4.191
 6276SOL    HW219649   5.363   1.764   4.353
 6277SOL     OW19650   4.296   0.707   3.987
 6277SOL    HW119651   4.299   0.799   3.948
 6277SOL    HW219652   4.229   0.704   4.061
 6278SOL     OW19653   5.017   0.370   4.653
 6278SOL    HW119654   4.923   0.339   4.667
 6278SOL    HW219655   5.077   0.330   4.723
 6279SOL     OW19656   5.314   1.674   4.040
 6279SOL    HW119657   5.412   1.689   4.033
 6279SOL    HW219658   5.275   1.664   3.948
 6280SOL     OW19659   4.523   0.594   5.189
 6280SOL    HW119660   4.491   0.560   5.277
 6280SOL    HW219661   4.497   0.529   5.117
 6281SOL     OW19662   5.120   0.487   5.402
 6281SOL    HW119663   5.126   0.530   5.492
 6281SOL    HW219664   5.165   0.398   5.403
 6282SOL     OW19665   4.674   0.878   5.316
 6282SOL    HW119666   4.731   0.810   5.270
 6282SOL    HW219667   4.620   0.927   5.248
 6283SOL     OW19668   4.740   0.406   4.915
 6283SOL    HW119669   4.646   0.421   4.948
 6283SOL    HW219670   4.737   0.366   4.824
 6284SOL     OW19671   4.770   0.705   4.141
 6284SOL    HW119672   4.793   0.707   4.238
 6284SOL    HW219673   4.681   0.662   4.128
 6285SOL     OW19674   3.818   0.848   4.513
 6285SOL    HW119675   3.907   0.835   4.556
 6285SOL    HW219676   3.766   0.918   4.565
 6286SOL     OW19677   3.829   1.894   5.325
 6286SOL    HW119678   3.841   1.860   5.419
 6286SOL    HW219679   3.739   1.868   5.291
 6287SOL     OW19680   4.585   0.370   3.922
 6287SOL    HW119681   4.652   0.423   3.870
 6287SOL    HW219682   4.529   0.316   3.860
 6288SOL     OW19683   5.412   0.568   5.550
 6288SOL    HW119684   5.387   0.650   5.499
 6288SOL    HW219685   5.433   0.494   5.486
 6289SOL     OW19686   5.127   1.164   4.265
 6289SOL    HW119687   5.213   1.151   4.215
 6289SOL    HW219688   5.069   1.229   4.215
 6290SOL     OW19689   4.223   0.178   4.653
 6290SOL    HW119690   4.264   0.211   4.738
 6290SOL    HW219691   4.239   0.246   4.581
 6291SOL     OW19692   4.716   1.466   4.185
 6291SOL    HW119693   4.694   1.538   4.119
 6291SOL    HW219694   4.685   1.494   4.276
 6292SOL     OW19695   4.081   1.812   4.602
 6292SOL    HW119696   4.126   1.723   4.608
 6292SOL    HW219697   4.146   1.883   4.630
 6293SOL     OW19698   5.521   1.054   4.627
 6293SOL    HW119699   5.474   1.040   4.539
 6293SOL    HW219700   5.453   1.064   4.699
 6294SOL     OW19701   4.927   1.535   5.238
 6294SOL    HW119702   4.920   1.466   5.309
 6294SOL    HW219703   4.864   1.514   5.164
 6295SOL     OW19704   4.023   0.940   3.991
 6295SOL    HW119705   4.111   0.965   3.949
 6295SOL    HW219706   4.000   0.846   3.965
 6296SOL     OW19707   5.207   0.778   4.438
 6296SOL    HW119708   5.204   0.727   4.524
 6296SOL    HW219709   5.290   0.834   4.436
 6297SOL     OW19710   4.194   1.293   5.472
 6297SOL    HW119711   4.173   1.297   5.375
 6297SOL    HW219712   4.110   1.278   5.524
 6298SOL     OW19713   4.863   1.777   3.940
 6298SOL    HW119714   4.774   1.752   3.979
 6298SOL    HW219715   4.893   1.705   3.878
 6299SOL     OW19716   3.940   0.270   5.269
 6299SOL    HW119717   3.882   0.349   5.253
 6299SOL    HW219718   3.980   0.276   5.361
 6300SOL     OW19719   5.360   1.388   3.822
 6300SOL    HW119720   5.328   1.482   3.808
 6300SOL    HW219721   5.288   1.324   3.797
 6301SOL     OW19722   4.194   1.719   4.050
 6301SOL    HW119723   4.235   1.786   4.113
 6301SOL    HW219724   4.263   1.689   3.985
 6302SOL     OW19725   5.138   0.144   4.130
 6302SOL    HW119726   5.115   0.085   4.052
 6302SOL    HW219727   5.238   0.154   4.135
 6303SOL     OW19728   3.957   1.783   4.933
 6303SOL    HW119729   4.011   1.704   4.962
 6303SOL    HW219730   3.923   1.769   4.840
 6304SOL     OW19731   4.665   1.710   4.601
 6304SOL    HW119732   4.755   1.669   4.617
 6304SOL    HW219733   4.620   1.662   4.525
 6305SOL     OW19734   4.115   0.672   4.195
 6305SOL    HW119735   4.127   0.573   4.204
 6305SOL    HW219736   4.021   0.696   4.219
 6306SOL     OW19737   5.219   0.221   5.440
 6306SOL    HW119738   5.260   0.218   5.531
 6306SOL    HW219739   5.123   0.195   5.446
 6307SOL     OW19740   4.360   0.087   3.824
 6307SOL    HW119741   4.395   0.019   3.889
 6307SOL    HW219742   4.283   0.048   3.774
 6308SOL     OW19743   4.503   0.264   5.524
 6308SOL    HW119744   4.593   0.225   5.506
 6308SOL    HW219745   4.447   0.198   5.574
 6309SOL     OW19746   4.580   1.518   4.903
 6309SOL    HW119747   4.560   1.473   4.817
 6309SOL    HW219748   4.650   1.467   4.953
 6310SOL     OW19749   5.052   0.591   5.156
 6310SOL    HW119750   5.087   0.563   5.246
 6310SOL    HW219751   5.082   0.684   5.136
 6311SOL     OW19752   4.530   1.374   4.660
 6311SOL    HW119753   4.624   1.374   4.627
 6311SOL    HW219754   4.467   1.391   4.584
 6312SOL     OW19755   4.650   0.525   4.600
 6312SOL    HW119756   4.624   0.519   4.503
 6312SOL    HW219757   4.681   0.435   4.631
 6313SOL     OW19758   4.282   0.086   4.217
 6313SOL    HW119759   4.199   0.066   4.269
 6313SOL    HW219760   4.259   0.144   4.138
 6314SOL     OW19761   5.152   1.215   3.762
 6314SOL    HW119762   5.191   1.141   3.817
 6314SOL    HW219763   5.063   1.241   3.799
 6315SOL     OW19764   4.032   0.029   3.926
 6315SOL    HW119765   4.084   0.108   3.958
 6315SOL    HW219766   3.948   0.021   3.979
 6316SOL     OW19767   4.678   0.273   4.165
 6316SOL    HW119768   4.640   0.303   4.077
 6316SOL    HW219769   4.776   0.288   4.166
 6317SOL     OW19770   4.788   0.689   5.154
 6317SOL    HW119771   4.712   0.627   5.175
 6317SOL    HW219772   4.874   0.639   5.158
 6318SOL     OW19773   4.926   1.597   4.538
 6318SOL    HW119774   4.944   1.656   4.458
 6318SOL    HW219775   4.985   1.626   4.614
 6319SOL     OW19776   4.203   1.155   4.418
 6319SOL    HW119777   4.141   1.133   4.494
 6319SOL    HW219778   4.153   1.152   4.332
 6320SOL     OW19779   4.971   1.792   4.344
 6320SOL    HW119780   5.024   1.849   4.282
 6320SOL    HW219781   4.900   1.847   4.389
 6321SOL     OW19782   4.752   0.526   3.774
 6321SOL    HW119783   4.708   0.613   3.750
 6321SOL    HW219784   4.822   0.542   3.843
 6322SOL     OW19785   3.841   0.549   5.126
 6322SOL    HW119786   3.934   0.553   5.088
 6322SOL    HW219787   3.827   0.625   5.189
 6323SOL     OW19788   4.301   0.235   4.916
 6323SOL    HW119789   4.349   0.160   4.961
 6323SOL    HW219790   4.206   0.238   4.947
 6324SOL     OW19791   4.594   0.477   4.339
 6324SOL    HW119792   4.544   0.536   4.275
 6324SOL    HW219793   4.623   0.394   4.292
 6325SOL     OW19794   4.688   0.013   4.508
 6325SOL    HW119795   4.635   0.020   4.423
 6325SOL    HW219796   4.737   6.926   4.509
 6326SOL     OW19797   5.157   1.148   4.576
 6326SOL    HW119798   5.081   1.086   4.592
 6326SOL    HW219799   5.173   1.158   4.478
 6327SOL     OW19800   5.186   0.612   4.663
 6327SOL    HW119801   5.122   0.535   4.670
 6327SOL    HW219802   5.247   0.611   4.742
 6328SOL     OW19803   5.532   0.782   4.113
 6328SOL    HW119804   5.603   0.750   4.177
 6328SOL    HW219805   5.525   0.717   4.036
 6329SOL     OW19806   4.220   1.426   3.867
 6329SOL    HW119807   4.141   1.398   3.923
 6329SOL    HW219808   4.216   1.378   3.779
 6330SOL     OW19809   5.452   1.280   4.363
 6330SOL    HW119810   5.549   1.275   4.386
 6330SOL    HW219811   5.417   1.370   4.386
 6331SOL     OW19812   5.123   0.582   3.796
 6331SOL    HW119813   5.062   0.562   3.873
 6331SOL    HW219814   5.218   0.575   3.826
 6332SOL     OW19815   4.209   0.243   3.997
 6332SOL    HW119816   4.273   0.197   3.936
 6332SOL    HW219817   4.186   0.333   3.960
 6333SOL     OW19818   5.461   1.240   5.257
 6333SOL    HW119819   5.551   1.200   5.239
 6333SOL    HW219820   5.472   1.331   5.298
 6334SOL     OW19821   4.756   1.356   5.065
 6334SOL    HW119822   4.670   1.326   5.106
 6334SOL    HW219823   4.832   1.306   5.106
 6335SOL     OW19824   5.341   1.645   5.399
 6335SOL    HW119825   5.321   1.682   5.308
 6335SOL    HW219826   5.420   1.584   5.394
 6336SOL     OW19827   4.874   1.257   4.834
 6336SOL    HW119828   4.814   1.288   4.908
 6336SOL    HW219829   4.836   1.287   4.746
 6337SOL     OW19830   5.323   1.095   4.811
 6337SOL    HW119831   5.316   1.164   4.884
 6337SOL    HW219832   5.254   1.114   4.741
 6338SOL     OW19833   4.600   0.176   5.095
 6338SOL    HW119834   4.616   0.148   5.000
 6338SOL    HW219835   4.686   0.199   5.139
 6339SOL     OW19836   4.691   1.118   5.441
 6339SOL    HW119837   4.598   1.135   5.473
 6339SOL    HW219838   4.694   1.032   5.390
 6340SOL     OW19839   4.441   1.057   4.106
 6340SOL    HW119840   4.427   1.031   4.202
 6340SOL    HW219841   4.516   1.005   4.067
 6341SOL     OW19842   4.166   0.830   4.991
 6341SOL    HW119843   4.237   0.837   5.061
 6341SOL    HW219844   4.129   0.736   4.990
 6342SOL     OW19845   4.988   0.365   5.017
 6342SOL    HW119846   5.018   0.447   5.066
 6342SOL    HW219847   4.897   0.381   4.978
 6343SOL     OW19848   3.797   1.563   5.083
 6343SOL    HW119849   3.758   1.633   5.024
 6343SOL    HW219850   3.897   1.566   5.076
 6344SOL     OW19851   4.040   1.136   4.194
 6344SOL    HW119852   4.039   1.214   4.132
 6344SOL    HW219853   4.036   1.051   4.141
 6345SOL     OW19854   4.261   0.541   4.590
 6345SOL    HW119855   4.276   0.597   4.508
 6345SOL    HW219856   4.334   0.559   4.656
 6346SOL     OW19857   4.970   1.365   4.130
 6346SOL    HW119858   5.032   1.437   4.161
 6346SOL    HW219859   4.876   1.388   4.156
 6347SOL     OW19860   5.041   1.475   4.861
 6347SOL    HW119861   5.088   1.482   4.949
 6347SOL    HW219862   4.984   1.392   4.860
 6348SOL     OW19863   5.317   0.627   4.231
 6348SOL    HW119864   5.254   0.680   4.287
 6348SOL    HW219865   5.384   0.689   4.189
 6349SOL     OW19866   4.069   1.537   5.023
 6349SOL    HW119867   4.061   1.479   4.942
 6349SOL    HW219868   4.165   1.561   5.037
 6350SOL     OW19869   4.201   0.706   5.376
 6350SOL    HW119870   4.242   0.757   5.300
 6350SOL    HW219871   4.265   0.636   5.408
 6351SOL     OW19872   5.347   0.797   5.420
 6351SOL    HW119873   5.254   0.831   5.412
 6351SOL    HW219874   5.402   0.832   5.344
 6352SOL     OW19875   4.739   0.126   5.457
 6352SOL    HW119876   4.774   0.161   5.370
 6352SOL    HW219877   4.726   0.027   5.450
 6353SOL     OW19878   4.162   0.035   5.469
 6353SOL    HW119879   4.081   6.980   5.491
 6353SOL    HW219880   4.140   0.132   5.483
 6354SOL     OW19881   4.314   0.884   4.763
 6354SOL    HW119882   4.354   0.976   4.761
 6354SOL    HW219883   4.260   0.873   4.846
 6355SOL     OW19884   5.020   0.847   4.723
 6355SOL    HW119885   4.926   0.821   4.700
 6355SOL    HW219886   5.081   0.769   4.705
 6356SOL     OW19887   4.928   0.540   3.988
 6356SOL    HW119888   4.939   0.457   4.042
 6356SOL    HW219889   4.878   0.609   4.042
 6357SOL     OW19890   4.027   0.186   4.964
 6357SOL    HW119891   3.986   0.178   5.055
 6357SOL    HW219892   4.040   0.095   4.924
 6358SOL     OW19893   3.780   1.303   4.996
 6358SOL    HW119894   3.812   1.244   5.070
 6358SOL    HW219895   3.779   1.398   5.028
 6359SOL     OW19896   4.453   0.641   4.767
 6359SOL    HW119897   4.521   0.620   4.697
 6359SOL    HW219898   4.413   0.731   4.750
 6360SOL     OW19899   5.473   0.975   5.593
 6360SOL    HW119900   5.431   0.902   5.538
 6360SOL    HW219901   5.412   1.000   5.668
 6361SOL     OW19902   4.036   0.053   4.331
 6361SOL    HW119903   4.012   0.141   4.374
 6361SOL    HW219904   3.975   6.982   4.366
 6362SOL     OW19905   5.326   0.417   4.050
 6362SOL    HW119906   5.358   0.338   4.103
 6362SOL    HW219907   5.302   0.491   4.112
 6363SOL     OW19908   4.753   0.764   4.677
 6363SOL    HW119909   4.730   0.783   4.773
 6363SOL    HW219910   4.722   0.672   4.653
 6364SOL     OW19911   4.706   1.561   5.483
 6364SOL    HW119912   4.672   1.617   5.407
 6364SOL    HW219913   4.747   1.477   5.447
 6365SOL     OW19914   5.563   1.492   5.328
 6365SOL    HW119915   5.585   1.521   5.235
 6365SOL    HW219916   5.644   1.500   5.385
 6366SOL     OW19917   4.083   0.903   5.531
 6366SOL    HW119918   4.151   0.935   5.598
 6366SOL    HW219919   4.123   0.830   5.476
 6367SOL     OW19920   5.254   0.231   3.848
 6367SOL    HW119921   5.155   0.237   3.834
 6367SOL    HW219922   5.283   0.301   3.913
 6368SOL     OW19923   5.003   0.820   3.730
 6368SOL    HW119924   5.045   0.731   3.745
 6368SOL    HW219925   5.037   0.859   3.644
 6369SOL     OW19926   4.792   1.361   4.592
 6369SOL    HW119927   4.809   1.281   4.534
 6369SOL    HW219928   4.846   1.438   4.558
 6370SOL     OW19929   4.054   0.822   4.660
 6370SOL    HW119930   4.152   0.841   4.671
 6370SOL    HW219931   4.035   0.727   4.686
 6371SOL     OW19932   4.029   0.549   4.723
 6371SOL    HW119933   3.986   0.459   4.719
 6371SOL    HW219934   4.113   0.548   4.668
 6372SOL     OW19935   4.846   0.448   5.389
 6372SOL    HW119936   4.804   0.472   5.477
 6372SOL    HW219937   4.944   0.470   5.393
 6373SOL     OW19938   4.834   0.240   5.223
 6373SOL    HW119939   4.832   0.321   5.281
 6373SOL    HW219940   4.901   0.254   5.149
 6374SOL     OW19941   3.743   1.283   3.905
 6374SOL    HW119942   3.650   1.307   3.878
 6374SOL    HW219943   3.744   1.191   3.944
 6375SOL     OW19944   3.825   1.760   4.685
 6375SOL    HW119945   3.782   1.686   4.634
 6375SOL    HW219946   3.914   1.782   4.643
 6376SOL     OW19947   4.212   1.566   4.627
 6376SOL    HW119948   4.284   1.630   4.655
 6376SOL    HW219949   4.249   1.501   4.560
 6377SOL     OW19950   4.663   0.797   4.932
 6377SOL    HW119951   4.718   0.768   5.010
 6377SOL    HW219952   4.579   0.743   4.929
 6378SOL     OW19953   3.771   0.596   4.857
 6378SOL    HW119954   3.851   0.588   4.797
 6378SOL    HW219955   3.798   0.579   4.952
 6379SOL     OW19956   3.914   0.571   5.475
 6379SOL    HW119957   4.009   0.569   5.444
 6379SOL    HW219958   3.862   0.636   5.420
 6380SOL     OW19959   5.110   0.923   5.363
 6380SOL    HW119960   5.130   1.021   5.363
 6380SOL    HW219961   5.101   0.891   5.268
 6381SOL     OW19962   4.528   0.589   4.086
 6381SOL    HW119963   4.540   0.507   4.030
 6381SOL    HW219964   4.447   0.639   4.055
 6382SOL     OW19965   5.361   0.607   4.875
 6382SOL    HW119966   5.338   0.540   4.945
 6382SOL    HW219967   5.459   0.602   4.855
 6383SOL     OW19968   3.954   1.538   5.442
 6383SOL    HW119969   3.935   1.608   5.510
 6383SOL    HW219970   3.960   1.449   5.487
 6384SOL     OW19971   4.468   0.451   4.962
 6384SOL    HW119972   4.405   0.374   4.949
 6384SOL    HW219973   4.452   0.519   4.891
 6385SOL     OW19974   4.593   1.700   5.258
 6385SOL    HW119975   4.559   1.634   5.191
 6385SOL    HW219976   4.617   1.785   5.212
 6386SOL     OW19977   4.157   0.485   3.872
 6386SOL    HW119978   4.230   0.549   3.897
 6386SOL    HW219979   4.068   0.528   3.885
 6387SOL     OW19980   3.860   1.142   5.209
 6387SOL    HW119981   3.863   1.106   5.303
 6387SOL    HW219982   3.883   1.069   5.145
 6388SOL     OW19983   5.006   1.034   4.924
 6388SOL    HW119984   5.016   0.965   4.852
 6388SOL    HW219985   4.958   1.113   4.888
 6389SOL     OW19986   5.058   0.870   3.998
 6389SOL    HW119987   4.985   0.846   4.062
 6389SOL    HW219988   5.027   0.853   3.905
 6390SOL     OW19989   5.497   1.711   4.889
 6390SOL    HW119990   5.566   1.741   4.823
 6390SOL    HW219991   5.465   1.619   4.865
 6391SOL     OW19992   4.977   1.736   4.806
 6391SOL    HW119993   5.066   1.775   4.784
 6391SOL    HW219994   4.988   1.642   4.836
 6392SOL     OW19995   3.838   1.240   4.740
 6392SOL    HW119996   3.811   1.263   4.834
 6392SOL    HW219997   3.766   1.185   4.697
 6393SOL     OW19998   4.412   1.703   5.468
 6393SOL    HW119999   4.343   1.774   5.462
 6393SOL    HW220000   4.481   1.717   5.397
 6394SOL     OW20001   5.419   0.202   4.184
 6394SOL    HW120002   5.496   0.171   4.128
 6394SOL    HW220003   5.407   0.140   4.262
 6395SOL     OW20004   5.126   1.578   4.223
 6395SOL    HW120005   5.185   1.613   4.150
 6395SOL    HW220006   5.064   1.650   4.254
 6396SOL     OW20007   3.869   1.782   5.570
 6396SOL    HW120008   3.815   1.710   5.614
 6396SOL    HW220009   3.922   1.831   5.640
 6397SOL     OW20010   5.006   0.946   4.370
 6397SOL    HW120011   5.080   0.883   4.394
 6397SOL    HW220012   5.044   1.024   4.321
 6398SOL     OW20013   4.499   1.286   5.145
 6398SOL    HW120014   4.473   1.336   5.227
 6398SOL    HW220015   4.425   1.291   5.078
 6399SOL     OW20016   4.394   1.633   3.872
 6399SOL    HW120017   4.414   1.655   3.777
 6399SOL    HW220018   4.337   1.550   3.876
 6400SOL     OW20019   5.334   1.731   5.124
 6400SOL    HW120020   5.390   1.724   5.042
 6400SOL    HW220021   5.318   1.828   5.145
 6401SOL     OW20022   5.610   0.125   4.681
 6401SOL    HW120023   5.614   0.025   4.688
 6401SOL    HW220024   5.517   0.152   4.655
 6402SOL     OW20025   3.975   0.299   4.441
 6402SOL    HW120026   3.891   0.345   4.413
 6402SOL    HW220027   3.981   0.300   4.541
 6403SOL     OW20028   4.949   1.580   3.769
 6403SOL    HW120029   4.938   1.488   3.806
 6403SOL    HW220030   4.878   1.598   3.701
 6404SOL     OW20031   4.547   1.015   5.118
 6404SOL    HW120032   4.591   0.996   5.031
 6404SOL    HW220033   4.533   1.114   5.128
 6405SOL     OW20034   4.643   0.912   4.002
 6405SOL    HW120035   4.703   0.950   3.932
 6405SOL    HW220036   4.692   0.842   4.055
 6406SOL     OW20037   5.214   1.656   3.780
 6406SOL    HW120038   5.119   1.627   3.768
 6406SOL    HW220039   5.260   1.659   3.691
 6407SOL     OW20040   4.090   1.313   5.222
 6407SOL    HW120041   4.083   1.390   5.158
 6407SOL    HW220042   4.010   1.254   5.211
 6408SOL     OW20043   5.321   1.291   5.014
 6408SOL    HW120044   5.378   1.263   5.092
 6408SOL    HW220045   5.256   1.361   5.044
 6409SOL     OW20046   4.814   1.120   4.472
 6409SOL    HW120047   4.731   1.072   4.502
 6409SOL    HW220048   4.876   1.054   4.428
 6410SOL     OW20049   4.753   0.263   4.670
 6410SOL    HW120050   4.740   0.217   4.582
 6410SOL    HW220051   4.730   0.199   4.744
 6411SOL     OW20052   4.337   1.499   4.201
 6411SOL    HW120053   4.386   1.439   4.138
 6411SOL    HW220054   4.260   1.541   4.154
 6412SOL     OW20055   5.492   0.374   5.121
 6412SOL    HW120056   5.560   0.447   5.115
 6412SOL    HW220057   5.516   0.301   5.056
 6413SOL     OW20058   3.997   1.350   4.019
 6413SOL    HW120059   3.906   1.335   3.981
 6413SOL    HW220060   3.989   1.398   4.106
 6414SOL     OW20061   3.854   1.041   5.465
 6414SOL    HW120062   3.771   1.016   5.514
 6414SOL    HW220063   3.930   0.986   5.497
 6415SOL     OW20064   4.400   0.249   5.261
 6415SOL    HW120065   4.474   0.234   5.195
 6415SOL    HW220066   4.439   0.274   5.350
 6416SOL     OW20067   3.800   0.328   3.729
 6416SOL    HW120068   3.721   0.307   3.670
 6416SOL    HW220069   3.830   0.422   3.713
 6417SOL     OW20070   5.126   0.853   5.099
 6417SOL    HW120071   5.067   0.912   5.044
 6417SOL    HW220072   5.219   0.856   5.063
 6418SOL     OW20073   3.754   0.160   3.992
 6418SOL    HW120074   3.772   0.220   3.914
 6418SOL    HW220075   3.748   0.065   3.961
 6419SOL     OW20076   4.904   1.321   3.857
 6419SOL    HW120077   4.807   1.302   3.848
 6419SOL    HW220078   4.929   1.325   3.954
 6420SOL     OW20079   4.365   0.819   5.175
 6420SOL    HW120080   4.421   0.900   5.161
 6420SOL    HW220081   4.424   0.738   5.180
 6421SOL     OW20082   5.231   1.819   4.747
 6421SOL    HW120083   5.255   1.895   4.686
 6421SOL    HW220084   5.314   1.773   4.777
 6422SOL     OW20085   4.441   0.541   5.449
 6422SOL    HW120086   4.496   0.611   5.494
 6422SOL    HW220087   4.463   0.451   5.488
 6423SOL     OW20088   5.189   1.186   5.347
 6423SOL    HW120089   5.177   1.207   5.444
 6423SOL    HW220090   5.282   1.209   5.320
 6424SOL     OW20091   4.073   1.755   5.304
 6424SOL    HW120092   3.989   1.808   5.289
 6424SOL    HW220093   4.050   1.664   5.337
 6425SOL     OW20094   5.371   0.873   4.974
 6425SOL    HW120095   5.372   0.785   4.926
 6425SOL    HW220096   5.357   0.946   4.908
 6426SOL     OW20097   4.947   0.331   4.168
 6426SOL    HW120098   5.021   0.265   4.155
 6426SOL    HW220099   4.964   0.385   4.250
 6427SOL     OW20100   4.306   0.725   4.391
 6427SOL    HW120101   4.348   0.815   4.381
 6427SOL    HW220102   4.239   0.711   4.318
 6428SOL     OW20103   5.460   0.347   5.389
 6428SOL    HW120104   5.475   0.362   5.291
 6428SOL    HW220105   5.378   0.292   5.402
 6429SOL     OW20106   5.479   0.926   5.220
 6429SOL    HW120107   5.463   1.023   5.240
 6429SOL    HW220108   5.447   0.906   5.128
 6430SOL     OW20109   4.613   1.348   3.806
 6430SOL    HW120110   4.567   1.359   3.893
 6430SOL    HW220111   4.621   1.437   3.760
 6431SOL     OW20112   4.395   1.762   4.666
 6431SOL    HW120113   4.370   1.859   4.655
 6431SOL    HW220114   4.493   1.752   4.650
 6432SOL     OW20115   4.597   0.986   4.586
 6432SOL    HW120116   4.648   0.907   4.621
 6432SOL    HW220117   4.548   1.030   4.662
 6433SOL     OW20118   4.800   0.989   3.799
 6433SOL    HW120119   4.768   1.045   3.723
 6433SOL    HW220120   4.874   0.929   3.769
 6434SOL     OW20121   5.541   1.562   4.576
 6434SOL    HW120122   5.467   1.555   4.509
 6434SOL    HW220123   5.519   1.505   4.655
 6435SOL     OW20124   3.934   1.284   5.564
 6435SOL    HW120125   3.909   1.200   5.517
 6435SOL    HW220126   3.871   1.300   5.641
 6436SOL     OW20127   3.859   1.220   4.396
 6436SOL    HW120128   3.898   1.180   4.478
 6436SOL    HW220129   3.911   1.191   4.316
 6437SOL     OW20130   4.413   1.433   5.364
 6437SOL    HW120131   4.333   1.388   5.403
 6437SOL    HW220132   4.419   1.526   5.401
 6438SOL     OW20133   5.551   0.171   4.954
 6438SOL    HW120134   5.466   0.122   4.935
 6438SOL    HW220135   5.606   0.178   4.871
 6439SOL     OW20136   4.129   0.405   4.230
 6439SOL    HW120137   4.158   0.333   4.167
 6439SOL    HW220138   4.085   0.363   4.309
 6440SOL     OW20139   5.416   1.463   4.810
 6440SOL    HW120140   5.339   1.447   4.749
 6440SOL    HW220141   5.415   1.397   4.884
 6441SOL     OW20142   4.080   0.571   4.999
 6441SOL    HW120143   4.130   0.502   5.051
 6441SOL    HW220144   4.080   0.546   4.902
 6442SOL     OW20145   4.555   1.611   4.374
 6442SOL    HW120146   4.550   1.698   4.325
 6442SOL    HW220147   4.474   1.556   4.353
 6443SOL     OW20148   5.181   0.266   4.845
 6443SOL    HW120149   5.230   0.183   4.873
 6443SOL    HW220150   5.118   0.294   4.917
 6444SOL     OW20151   4.669   0.068   4.842
 6444SOL    HW120152   4.634   0.023   4.761
 6444SOL    HW220153   4.713   0.001   4.902
 6445SOL     OW20154   4.504   1.327   4.060
 6445SOL    HW120155   4.479   1.232   4.076
 6445SOL    HW220156   4.585   1.350   4.114
 6446SOL     OW20157   4.342   1.586   5.018
 6446SOL    HW120158   4.332   1.678   5.056
 6446SOL    HW220159   4.429   1.579   4.971
 6447SOL     OW20160   5.019   6.984   3.929
 6447SOL    HW120161   5.061   6.908   3.880
 6447SOL    HW220162   4.940   6.951   3.980
 6448SOL     OW20163   4.973   0.472   4.397
 6448SOL    HW120164   4.928   0.561   4.397
 6448SOL    HW220165   4.994   0.444   4.490
 6449SOL     OW20166   5.365   0.235   4.615
 6449SOL    HW120167   5.302   0.242   4.692
 6449SOL    HW220168   5.361   0.319   4.561
 6450SOL     OW20169   3.760   1.029   4.030
 6450SOL    HW120170   3.857   1.015   4.011
 6450SOL    HW220171   3.717   0.941   4.050
 6451SOL     OW20172   4.617   1.679   4.034
 6451SOL    HW120173   4.540   1.656   3.975
 6451SOL    HW220174   4.587   1.741   4.106
 6452SOL     OW20175   3.925   0.636   5.744
 6452SOL    HW120176   3.835   0.614   5.781
 6452SOL    HW220177   3.922   0.631   5.644
 6453SOL     OW20178   3.919   0.338   6.603
 6453SOL    HW120179   3.974   0.301   6.678
 6453SOL    HW220180   3.849   0.271   6.577
 6454SOL     OW20181   3.731   0.417   6.212
 6454SOL    HW120182   3.653   0.441   6.270
 6454SOL    HW220183   3.701   0.356   6.139
 6455SOL     OW20184   4.287   1.276   6.780
 6455SOL    HW120185   4.203   1.293   6.727
 6455SOL    HW220186   4.318   1.361   6.822
 6456SOL     OW20187   5.308   1.514   6.293
 6456SOL    HW120188   5.252   1.484   6.369
 6456SOL    HW220189   5.250   1.529   6.213
 6457SOL     OW20190   4.854   0.708   6.261
 6457SOL    HW120191   4.901   0.795   6.256
 6457SOL    HW220192   4.792   0.708   6.340
 6458SOL     OW20193   5.519   0.576   5.795
 6458SOL    HW120194   5.488   0.582   5.700
 6458SOL    HW220195   5.464   0.508   5.844
 6459SOL     OW20196   4.451   1.127   6.623
 6459SOL    HW120197   4.386   1.160   6.692
 6459SOL    HW220198   4.485   1.205   6.570
 6460SOL     OW20199   4.408   0.984   6.237
 6460SOL    HW120200   4.479   0.979   6.307
 6460SOL    HW220201   4.337   1.047   6.266
 6461SOL     OW20202   4.062   1.380   6.641
 6461SOL    HW120203   3.973   1.346   6.610
 6461SOL    HW220204   4.099   1.444   6.574
 6462SOL     OW20205   5.346   0.482   6.327
 6462SOL    HW120206   5.328   0.520   6.236
 6462SOL    HW220207   5.293   0.532   6.395
 6463SOL     OW20208   3.950   1.733   6.054
 6463SOL    HW120209   3.974   1.806   6.119
 6463SOL    HW220210   4.026   1.720   5.990
 6464SOL     OW20211   3.962   1.463   6.122
 6464SOL    HW120212   3.943   1.561   6.124
 6464SOL    HW220213   3.916   1.418   6.199
 6465SOL     OW20214   4.007   1.093   6.475
 6465SOL    HW120215   4.022   0.998   6.502
 6465SOL    HW220216   3.952   1.140   6.545
 6466SOL     OW20217   4.338   1.814   6.969
 6466SOL    HW120218   4.248   1.789   0.005
 6466SOL    HW220219   4.369   1.899   0.012
 6467SOL     OW20220   4.287   0.990   5.746
 6467SOL    HW120221   4.336   1.034   5.671
 6467SOL    HW220222   4.328   1.016   5.833
 6468SOL     OW20223   3.842   0.677   6.156
 6468SOL    HW120224   3.815   0.583   6.177
 6468SOL    HW220225   3.844   0.731   6.240
 6469SOL     OW20226   5.577   1.748   5.908
 6469SOL    HW120227   5.653   1.735   5.971
 6469SOL    HW220228   5.578   1.842   5.873
 6470SOL     OW20229   3.764   1.574   5.704
 6470SOL    HW120230   3.744   1.477   5.722
 6470SOL    HW220231   3.743   1.628   5.785
 6471SOL     OW20232   5.435   0.930   6.244
 6471SOL    HW120233   5.523   0.884   6.235
 6471SOL    HW220234   5.416   0.983   6.161
 6472SOL     OW20235   5.394   1.112   6.026
 6472SOL    HW120236   5.479   1.093   5.976
 6472SOL    HW220237   5.412   1.179   6.098
 6473SOL     OW20238   4.331   1.400   6.294
 6473SOL    HW120239   4.287   1.310   6.302
 6473SOL    HW220240   4.318   1.435   6.201
 6474SOL     OW20241   4.553   0.044   6.097
 6474SOL    HW120242   4.598   0.131   6.075
 6474SOL    HW220243   4.455   0.059   6.107
 6475SOL     OW20244   3.890   0.983   6.849
 6475SOL    HW120245   3.978   0.939   6.829
 6475SOL    HW220246   3.816   0.927   6.812
 6476SOL     OW20247   5.268   1.029   5.791
 6476SOL    HW120248   5.195   0.965   5.815
 6476SOL    HW220249   5.312   1.061   5.875
 6477SOL     OW20250   5.149   1.423   6.503
 6477SOL    HW120251   5.103   1.432   6.591
 6477SOL    HW220252   5.148   1.327   6.475
 6478SOL     OW20253   5.352   1.834   6.131
 6478SOL    HW120254   5.343   1.772   6.054
 6478SOL    HW220255   5.365   1.782   6.215
 6479SOL     OW20256   4.297   0.706   5.849
 6479SOL    HW120257   4.301   0.798   5.810
 6479SOL    HW220258   4.228   0.704   5.923
 6480SOL     OW20259   5.008   0.400   6.531
 6480SOL    HW120260   4.917   0.359   6.535
 6480SOL    HW220261   5.071   0.347   6.589
 6481SOL     OW20262   5.314   1.671   5.907
 6481SOL    HW120263   5.412   1.687   5.901
 6481SOL    HW220264   5.276   1.661   5.815
 6482SOL     OW20265   4.503   0.663   0.021
 6482SOL    HW120266   4.447   0.687   0.100
 6482SOL    HW220267   4.457   0.591   6.968
 6483SOL     OW20268   4.736   0.426   6.790
 6483SOL    HW120269   4.729   0.465   6.882
 6483SOL    HW220270   4.656   0.368   6.772
 6484SOL     OW20271   4.771   0.704   5.998
 6484SOL    HW120272   4.798   0.702   6.094
 6484SOL    HW220273   4.681   0.661   5.987
 6485SOL     OW20274   3.832   0.839   6.376
 6485SOL    HW120275   3.920   0.827   6.422
 6485SOL    HW220276   3.778   0.909   6.424
 6486SOL     OW20277   3.842   1.846   0.091
 6486SOL    HW120278   3.792   1.760   0.099
 6486SOL    HW220279   3.871   1.861   6.997
 6487SOL     OW20280   4.586   0.372   5.785
 6487SOL    HW120281   4.652   0.424   5.732
 6487SOL    HW220282   4.529   0.317   5.724
 6488SOL     OW20283   5.125   1.164   6.131
 6488SOL    HW120284   5.211   1.150   6.083
 6488SOL    HW220285   5.068   1.228   6.079
 6489SOL     OW20286   4.190   0.197   6.493
 6489SOL    HW120287   4.246   0.273   6.525
 6489SOL    HW220288   4.183   0.200   6.393
 6490SOL     OW20289   4.714   1.466   6.051
 6490SOL    HW120290   4.693   1.541   5.988
 6490SOL    HW220291   4.679   1.488   6.142
 6491SOL     OW20292   4.075   1.810   6.474
 6491SOL    HW120293   4.114   1.718   6.478
 6491SOL    HW220294   4.144   1.877   6.499
 6492SOL     OW20295   5.526   1.043   6.481
 6492SOL    HW120296   5.487   1.027   6.391
 6492SOL    HW220297   5.453   1.045   6.550
 6493SOL     OW20298   4.024   0.943   5.854
 6493SOL    HW120299   4.111   0.968   5.812
 6493SOL    HW220300   4.000   0.849   5.829
 6494SOL     OW20301   5.209   0.782   6.294
 6494SOL    HW120302   5.203   0.732   6.380
 6494SOL    HW220303   5.293   0.836   6.293
 6495SOL     OW20304   4.868   1.770   5.813
 6495SOL    HW120305   4.778   1.747   5.851
 6495SOL    HW220306   4.894   1.702   5.745
 6496SOL     OW20307   5.359   1.388   5.683
 6496SOL    HW120308   5.327   1.482   5.670
 6496SOL    HW220309   5.287   1.324   5.658
 6497SOL     OW20310   4.189   1.741   5.900
 6497SOL    HW120311   4.234   1.796   5.970
 6497SOL    HW220312   4.259   1.703   5.838
 6498SOL     OW20313   5.146   0.130   6.003
 6498SOL    HW120314   5.112   0.079   5.924
 6498SOL    HW220315   5.242   0.154   5.989
 6499SOL     OW20316   3.967   1.805   6.844
 6499SOL    HW120317   4.031   1.759   6.906
 6499SOL    HW220318   3.917   1.736   6.791
 6500SOL     OW20319   4.685   1.690   6.464
 6500SOL    HW120320   4.775   1.648   6.465
 6500SOL    HW220321   4.628   1.646   6.395
 6501SOL     OW20322   4.111   0.672   6.053
 6501SOL    HW120323   4.122   0.573   6.063
 6501SOL    HW220324   4.017   0.697   6.077
 6502SOL     OW20325   4.358   0.088   5.686
 6502SOL    HW120326   4.393   0.019   5.749
 6502SOL    HW220327   4.282   0.049   5.633
 6503SOL     OW20328   4.598   1.475   6.746
 6503SOL    HW120329   4.554   1.456   6.658
 6503SOL    HW220330   4.674   1.412   6.760
 6504SOL     OW20331   4.517   1.365   6.501
 6504SOL    HW120332   4.611   1.369   6.465
 6504SOL    HW220333   4.453   1.381   6.427
 6505SOL     OW20334   4.665   0.525   6.474
 6505SOL    HW120335   4.637   0.513   6.379
 6505SOL    HW220336   4.702   0.438   6.509
 6506SOL     OW20337   4.281   0.088   6.083
 6506SOL    HW120338   4.199   0.070   6.137
 6506SOL    HW220339   4.258   0.144   6.003
 6507SOL     OW20340   5.151   1.215   5.622
 6507SOL    HW120341   5.190   1.141   5.678
 6507SOL    HW220342   5.063   1.242   5.660
 6508SOL     OW20343   4.029   0.026   5.782
 6508SOL    HW120344   4.080   0.105   5.816
 6508SOL    HW220345   3.945   0.015   5.835
 6509SOL     OW20346   4.681   0.278   6.028
 6509SOL    HW120347   4.644   0.309   5.940
 6509SOL    HW220348   4.780   0.290   6.029
 6510SOL     OW20349   4.936   1.582   6.389
 6510SOL    HW120350   4.957   1.652   6.320
 6510SOL    HW220351   5.022   1.545   6.425
 6511SOL     OW20352   4.199   1.159   6.290
 6511SOL    HW120353   4.136   1.137   6.365
 6511SOL    HW220354   4.149   1.152   6.203
 6512SOL     OW20355   4.974   1.788   6.202
 6512SOL    HW120356   5.025   1.852   6.145
 6512SOL    HW220357   4.892   1.834   6.238
 6513SOL     OW20358   4.752   0.527   5.635
 6513SOL    HW120359   4.709   0.614   5.612
 6513SOL    HW220360   4.823   0.542   5.704
 6514SOL     OW20361   4.308   0.205   6.818
 6514SOL    HW120362   4.323   0.112   6.785
 6514SOL    HW220363   4.210   0.224   6.820
 6515SOL     OW20364   4.600   0.479   6.212
 6515SOL    HW120365   4.546   0.536   6.149
 6515SOL    HW220366   4.630   0.397   6.164
 6516SOL     OW20367   4.753   0.022   6.317
 6516SOL    HW120368   4.683   0.027   6.246
 6516SOL    HW220369   4.769   6.926   6.342
 6517SOL     OW20370   5.143   1.152   6.430
 6517SOL    HW120371   5.074   1.081   6.446
 6517SOL    HW220372   5.158   1.161   6.331
 6518SOL     OW20373   5.182   0.626   6.520
 6518SOL    HW120374   5.117   0.551   6.536
 6518SOL    HW220375   5.250   0.628   6.594
 6519SOL     OW20376   5.534   0.782   5.972
 6519SOL    HW120377   5.603   0.749   6.036
 6519SOL    HW220378   5.526   0.718   5.895
 6520SOL     OW20379   4.221   1.429   5.733
 6520SOL    HW120380   4.142   1.399   5.787
 6520SOL    HW220381   4.220   1.384   5.644
 6521SOL     OW20382   5.454   1.277   6.225
 6521SOL    HW120383   5.551   1.270   6.251
 6521SOL    HW220384   5.419   1.366   6.254
 6522SOL     OW20385   5.123   0.583   5.657
 6522SOL    HW120386   5.063   0.562   5.734
 6522SOL    HW220387   5.219   0.576   5.686
 6523SOL     OW20388   4.205   0.241   5.861
 6523SOL    HW120389   4.270   0.195   5.800
 6523SOL    HW220390   4.183   0.331   5.824
 6524SOL     OW20391   5.482   1.139   0.184
 6524SOL    HW120392   5.578   1.137   0.155
 6524SOL    HW220393   5.443   1.229   0.161
 6525SOL     OW20394   4.805   1.290   6.702
 6525SOL    HW120395   4.787   1.192   6.716
 6525SOL    HW220396   4.795   1.312   6.606
 6526SOL     OW20397   5.314   1.075   6.650
 6526SOL    HW120398   5.317   1.154   6.713
 6526SOL    HW220399   5.251   1.094   6.575
 6527SOL     OW20400   4.440   1.058   5.969
 6527SOL    HW120401   4.425   1.031   6.065
 6527SOL    HW220402   4.516   1.006   5.932
 6528SOL     OW20403   4.152   0.862   6.853
 6528SOL    HW120404   4.216   0.899   6.921
 6528SOL    HW220405   4.128   0.768   6.878
 6529SOL     OW20406   4.979   0.340   6.876
 6529SOL    HW120407   5.020   0.416   6.927
 6529SOL    HW220408   4.896   0.371   6.831
 6530SOL     OW20409   3.831   1.537   6.893
 6530SOL    HW120410   3.795   1.566   6.982
 6530SOL    HW220411   3.930   1.526   6.900
 6531SOL     OW20412   4.041   1.137   6.061
 6531SOL    HW120413   4.041   1.215   5.998
 6531SOL    HW220414   4.037   1.052   6.008
 6532SOL     OW20415   4.273   0.523   6.442
 6532SOL    HW120416   4.280   0.583   6.362
 6532SOL    HW220417   4.346   0.544   6.506
 6533SOL     OW20418   4.968   1.364   5.994
 6533SOL    HW120419   5.031   1.436   6.023
 6533SOL    HW220420   4.874   1.389   6.020
 6534SOL     OW20421   5.032   1.436   6.751
 6534SOL    HW120422   5.088   1.391   6.821
 6534SOL    HW220423   4.945   1.388   6.741
 6535SOL     OW20424   5.314   0.632   6.086
 6535SOL    HW120425   5.253   0.685   6.143
 6535SOL    HW220426   5.383   0.692   6.045
 6536SOL     OW20427   4.099   1.498   6.880
 6536SOL    HW120428   4.075   1.449   6.796
 6536SOL    HW220429   4.193   1.530   6.875
 6537SOL     OW20430   4.328   0.870   6.637
 6537SOL    HW120431   4.373   0.959   6.630
 6537SOL    HW220432   4.266   0.869   6.715
 6538SOL     OW20433   5.011   0.862   6.575
 6538SOL    HW120434   4.916   0.832   6.573
 6538SOL    HW220435   5.071   0.784   6.556
 6539SOL     OW20436   4.930   0.538   5.849
 6539SOL    HW120437   4.944   0.456   5.905
 6539SOL    HW220438   4.880   0.606   5.902
 6540SOL     OW20439   4.033   0.219   6.826
 6540SOL    HW120440   3.976   0.223   6.908
 6540SOL    HW220441   4.027   0.128   6.786
 6541SOL     OW20442   3.732   1.285   6.874
 6541SOL    HW120443   3.788   1.232   6.937
 6541SOL    HW220444   3.762   1.380   6.874
 6542SOL     OW20445   4.448   0.609   6.632
 6542SOL    HW120446   4.531   0.593   6.579
 6542SOL    HW220447   4.423   0.706   6.627
 6543SOL     OW20448   4.042   0.061   6.212
 6543SOL    HW120449   4.004   0.147   6.246
 6543SOL    HW220450   3.983   6.985   6.239
 6544SOL     OW20451   5.325   0.416   5.912
 6544SOL    HW120452   5.364   0.342   5.968
 6544SOL    HW220453   5.300   0.492   5.971
 6545SOL     OW20454   4.742   0.770   6.581
 6545SOL    HW120455   4.712   0.785   6.676
 6545SOL    HW220456   4.725   0.675   6.555
 6546SOL     OW20457   5.252   0.230   5.714
 6546SOL    HW120458   5.154   0.237   5.697
 6546SOL    HW220459   5.281   0.302   5.776
 6547SOL     OW20460   5.003   0.822   5.593
 6547SOL    HW120461   5.045   0.732   5.607
 6547SOL    HW220462   5.036   0.861   5.507
 6548SOL     OW20463   4.781   1.358   6.438
 6548SOL    HW120464   4.801   1.274   6.388
 6548SOL    HW220465   4.840   1.432   6.404
 6549SOL     OW20466   4.065   0.823   6.530
 6549SOL    HW120467   4.163   0.845   6.535
 6549SOL    HW220468   4.050   0.730   6.566
 6550SOL     OW20469   4.079   0.556   6.625
 6550SOL    HW120470   4.016   0.480   6.610
 6550SOL    HW220471   4.155   0.550   6.559
 6551SOL     OW20472   4.894   0.182   0.089
 6551SOL    HW120473   4.906   0.244   0.167
 6551SOL    HW220474   4.919   0.230   0.005
 6552SOL     OW20475   3.744   1.291   5.768
 6552SOL    HW120476   3.652   1.317   5.740
 6552SOL    HW220477   3.743   1.199   5.807
 6553SOL     OW20478   3.807   1.778   6.542
 6553SOL    HW120479   3.771   1.699   6.492
 6553SOL    HW220480   3.903   1.792   6.520
 6554SOL     OW20481   4.206   1.565   6.483
 6554SOL    HW120482   4.280   1.624   6.515
 6554SOL    HW220483   4.240   1.504   6.411
 6555SOL     OW20484   4.643   0.827   6.844
 6555SOL    HW120485   4.705   0.876   6.906
 6555SOL    HW220486   4.594   0.757   6.895
 6556SOL     OW20487   3.784   0.576   6.677
 6556SOL    HW120488   3.812   0.487   6.639
 6556SOL    HW220489   3.860   0.615   6.728
 6557SOL     OW20490   4.528   0.587   5.952
 6557SOL    HW120491   4.540   0.505   5.897
 6557SOL    HW220492   4.446   0.637   5.921
 6558SOL     OW20493   5.383   0.630   6.706
 6558SOL    HW120494   5.369   0.569   6.784
 6558SOL    HW220495   5.477   0.620   6.673
 6559SOL     OW20496   4.389   0.472   6.862
 6559SOL    HW120497   4.365   0.377   6.845
 6559SOL    HW220498   4.407   0.518   6.775
 6560SOL     OW20499   4.691   1.646   6.944
 6560SOL    HW120500   4.660   1.593   6.866
 6560SOL    HW220501   4.682   1.744   6.924
 6561SOL     OW20502   4.156   0.483   5.736
 6561SOL    HW120503   4.230   0.547   5.760
 6561SOL    HW220504   4.068   0.528   5.748
 6562SOL     OW20505   3.875   1.119   0.080
 6562SOL    HW120506   3.928   1.065   0.146
 6562SOL    HW220507   3.880   1.075   6.991
 6563SOL     OW20508   5.032   0.960   6.833
 6563SOL    HW120509   5.033   0.935   6.736
 6563SOL    HW220510   5.077   1.049   6.846
 6564SOL     OW20511   5.056   0.871   5.861
 6564SOL    HW120512   4.984   0.844   5.925
 6564SOL    HW220513   5.025   0.854   5.768
 6565SOL     OW20514   5.465   1.751   6.729
 6565SOL    HW120515   5.546   1.769   6.673
 6565SOL    HW220516   5.442   1.654   6.724
 6566SOL     OW20517   4.996   1.719   6.725
 6566SOL    HW120518   5.077   1.756   6.681
 6566SOL    HW220519   5.006   1.620   6.737
 6567SOL     OW20520   3.811   1.250   6.604
 6567SOL    HW120521   3.779   1.256   6.699
 6567SOL    HW220522   3.755   1.184   6.554
 6568SOL     OW20523   5.432   0.211   6.053
 6568SOL    HW120524   5.503   0.177   5.992
 6568SOL    HW220525   5.414   0.145   6.125
 6569SOL     OW20526   5.127   1.575   6.088
 6569SOL    HW120527   5.188   1.608   6.015
 6569SOL    HW220528   5.066   1.648   6.116
 6570SOL     OW20529   5.000   0.941   6.230
 6570SOL    HW120530   5.075   0.879   6.253
 6570SOL    HW220531   5.037   1.020   6.181
 6571SOL     OW20532   4.395   1.639   5.736
 6571SOL    HW120533   4.413   1.660   5.640
 6571SOL    HW220534   4.340   1.556   5.742
 6572SOL     OW20535   5.597   0.146   6.572
 6572SOL    HW120536   5.605   0.047   6.571
 6572SOL    HW220537   5.509   0.173   6.534
 6573SOL     OW20538   3.965   0.306   6.308
 6573SOL    HW120539   3.882   0.350   6.275
 6573SOL    HW220540   3.974   0.321   6.407
 6574SOL     OW20541   4.945   1.581   5.630
 6574SOL    HW120542   4.937   1.489   5.666
 6574SOL    HW220543   4.869   1.599   5.567
 6575SOL     OW20544   4.428   0.992   6.949
 6575SOL    HW120545   4.497   0.935   6.905
 6575SOL    HW220546   4.448   1.089   6.931
 6576SOL     OW20547   4.644   0.915   5.867
 6576SOL    HW120548   4.703   0.952   5.795
 6576SOL    HW220549   4.693   0.844   5.917
 6577SOL     OW20550   5.214   1.652   5.645
 6577SOL    HW120551   5.118   1.627   5.632
 6577SOL    HW220552   5.259   1.658   5.556
 6578SOL     OW20553   5.325   1.282   6.829
 6578SOL    HW120554   5.419   1.278   6.863
 6578SOL    HW220555   5.262   1.254   6.902
 6579SOL     OW20556   4.810   1.110   6.336
 6579SOL    HW120557   4.729   1.060   6.367
 6579SOL    HW220558   4.874   1.048   6.292
 6580SOL     OW20559   4.767   0.252   6.517
 6580SOL    HW120560   4.755   0.189   6.440
 6580SOL    HW220561   4.752   0.203   6.603
 6581SOL     OW20562   4.323   1.494   6.042
 6581SOL    HW120563   4.381   1.436   5.985
 6581SOL    HW220564   4.243   1.524   5.990
 6582SOL     OW20565   5.409   0.461   6.913
 6582SOL    HW120566   5.445   0.485   0.004
 6582SOL    HW220567   5.424   0.364   6.896
 6583SOL     OW20568   3.999   1.351   5.884
 6583SOL    HW120569   3.909   1.336   5.843
 6583SOL    HW220570   3.989   1.400   5.970
 6584SOL     OW20571   3.799   0.328   5.592
 6584SOL    HW120572   3.721   0.307   5.533
 6584SOL    HW220573   3.828   0.422   5.577
 6585SOL     OW20574   3.753   0.160   5.856
 6585SOL    HW120575   3.772   0.219   5.778
 6585SOL    HW220576   3.747   0.065   5.825
 6586SOL     OW20577   4.906   1.322   5.718
 6586SOL    HW120578   4.809   1.301   5.707
 6586SOL    HW220579   4.928   1.325   5.816
 6587SOL     OW20580   5.226   1.828   6.619
 6587SOL    HW120581   5.244   1.886   6.540
 6587SOL    HW220582   5.312   1.800   6.661
 6588SOL     OW20583   5.202   1.305   0.281
 6588SOL    HW120584   5.121   1.332   0.332
 6588SOL    HW220585   5.197   1.208   0.259
 6589SOL     OW20586   4.106   1.736   0.081
 6589SOL    HW120587   4.027   1.779   0.125
 6589SOL    HW220588   4.121   1.646   0.121
 6590SOL     OW20589   5.448   0.876   6.822
 6590SOL    HW120590   5.423   0.786   6.786
 6590SOL    HW220591   5.401   0.947   6.771
 6591SOL     OW20592   4.954   0.327   6.028
 6591SOL    HW120593   5.022   0.255   6.022
 6591SOL    HW220594   4.964   0.375   6.115
 6592SOL     OW20595   4.300   0.722   6.251
 6592SOL    HW120596   4.343   0.812   6.242
 6592SOL    HW220597   4.233   0.710   6.178
 6593SOL     OW20598   5.481   0.861   0.107
 6593SOL    HW120599   5.478   0.955   0.138
 6593SOL    HW220600   5.470   0.858   0.007
 6594SOL     OW20601   4.613   1.348   5.664
 6594SOL    HW120602   4.568   1.359   5.753
 6594SOL    HW220603   4.621   1.437   5.620
 6595SOL     OW20604   4.402   1.749   6.532
 6595SOL    HW120605   4.373   1.844   6.520
 6595SOL    HW220606   4.501   1.743   6.526
 6596SOL     OW20607   4.599   0.971   6.448
 6596SOL    HW120608   4.647   0.895   6.491
 6596SOL    HW220609   4.545   1.020   6.516
 6597SOL     OW20610   4.797   0.989   5.660
 6597SOL    HW120611   4.768   1.047   5.584
 6597SOL    HW220612   4.872   0.930   5.631
 6598SOL     OW20613   5.540   1.566   6.437
 6598SOL    HW120614   5.466   1.556   6.371
 6598SOL    HW220615   5.516   1.521   6.523
 6599SOL     OW20616   3.863   1.227   6.263
 6599SOL    HW120617   3.897   1.181   6.345
 6599SOL    HW220618   3.914   1.195   6.184
 6600SOL     OW20619   5.509   0.202   6.834
 6600SOL    HW120620   5.428   0.144   6.827
 6600SOL    HW220621   5.558   0.201   6.746
 6601SOL     OW20622   4.122   0.406   6.091
 6601SOL    HW120623   4.152   0.332   6.030
 6601SOL    HW220624   4.077   0.366   6.171
 6602SOL     OW20625   5.375   1.496   6.663
 6602SOL    HW120626   5.300   1.489   6.598
 6602SOL    HW220627   5.368   1.421   6.729
 6603SOL     OW20628   4.067   0.602   6.899
 6603SOL    HW120629   4.118   0.538   6.957
 6603SOL    HW220630   4.082   0.578   6.803
 6604SOL     OW20631   4.547   1.589   6.252
 6604SOL    HW120632   4.522   1.662   6.189
 6604SOL    HW220633   4.469   1.526   6.263
 6605SOL     OW20634   5.172   0.262   6.698
 6605SOL    HW120635   5.219   0.178   6.723
 6605SOL    HW220636   5.107   0.287   6.770
 6606SOL     OW20637   4.696   0.083   6.729
 6606SOL    HW120638   4.615   0.036   6.695
 6606SOL    HW220639   4.734   0.033   6.807
 6607SOL     OW20640   4.506   1.327   5.919
 6607SOL    HW120641   4.481   1.232   5.936
 6607SOL    HW220642   4.586   1.351   5.975
 6608SOL     OW20643   4.362   1.557   6.860
 6608SOL    HW120644   4.364   1.655   6.881
 6608SOL    HW220645   4.449   1.530   6.819
 6609SOL     OW20646   5.019   6.986   5.795
 6609SOL    HW120647   5.061   6.911   5.744
 6609SOL    HW220648   4.939   6.952   5.845
 6610SOL     OW20649   4.974   0.454   6.266
 6610SOL    HW120650   4.930   0.543   6.255
 6610SOL    HW220651   4.993   0.438   6.363
 6611SOL     OW20652   5.361   0.250   6.486
 6611SOL    HW120653   5.292   0.259   6.557
 6611SOL    HW220654   5.355   0.328   6.422
 6612SOL     OW20655   3.759   1.033   5.890
 6612SOL    HW120656   3.857   1.020   5.872
 6612SOL    HW220657   3.717   0.945   5.909
 6613SOL     OW20658   4.617   1.684   5.908
 6613SOL    HW120659   4.538   1.664   5.849
 6613SOL    HW220660   4.592   1.757   5.972
 6614SOL     OW20661   3.931   2.536   0.134
 6614SOL    HW120662   3.840   2.498   0.155
 6614SOL    HW220663   3.951   2.522   0.037
 6615SOL     OW20664   3.939   2.149   0.993
 6615SOL    HW120665   3.976   2.114   1.080
 6615SOL    HW220666   3.851   2.106   0.975
 6616SOL     OW20667   3.710   2.278   0.646
 6616SOL    HW120668   3.632   2.314   0.697
 6616SOL    HW220669   3.683   2.195   0.598
 6617SOL     OW20670   4.298   3.177   1.215
 6617SOL    HW120671   4.213   3.173   1.163
 6617SOL    HW220672   4.317   3.271   1.242
 6618SOL     OW20673   5.317   3.388   0.704
 6618SOL    HW120674   5.268   3.357   0.786
 6618SOL    HW220675   5.253   3.397   0.628
 6619SOL     OW20676   4.866   2.579   0.692
 6619SOL    HW120677   4.920   2.662   0.680
 6619SOL    HW220678   4.814   2.585   0.777
 6620SOL     OW20679   5.543   2.421   0.169
 6620SOL    HW120680   5.485   2.491   0.129
 6620SOL    HW220681   5.489   2.366   0.233
 6621SOL     OW20682   4.443   2.988   1.060
 6621SOL    HW120683   4.383   3.024   1.131
 6621SOL    HW220684   4.489   3.064   1.014
 6622SOL     OW20685   4.619   2.594   1.824
 6622SOL    HW120686   4.608   2.660   1.899
 6622SOL    HW220687   4.639   2.643   1.739
 6623SOL     OW20688   4.419   2.837   0.653
 6623SOL    HW120689   4.492   2.835   0.722
 6623SOL    HW220690   4.348   2.901   0.680
 6624SOL     OW20691   4.448   3.024   1.783
 6624SOL    HW120692   4.500   3.101   1.822
 6624SOL    HW220693   4.361   3.058   1.748
 6625SOL     OW20694   4.067   3.249   1.066
 6625SOL    HW120695   3.987   3.203   1.026
 6625SOL    HW220696   4.109   3.308   0.997
 6626SOL     OW20697   5.174   3.373   1.376
 6626SOL    HW120698   5.234   3.452   1.386
 6626SOL    HW220699   5.094   3.384   1.434
 6627SOL     OW20700   4.192   2.229   1.450
 6627SOL    HW120701   4.272   2.171   1.465
 6627SOL    HW220702   4.110   2.180   1.479
 6628SOL     OW20703   5.309   2.311   0.758
 6628SOL    HW120704   5.250   2.324   0.678
 6628SOL    HW220705   5.282   2.375   0.830
 6629SOL     OW20706   3.958   3.572   0.496
 6629SOL    HW120707   3.975   3.654   0.550
 6629SOL    HW220708   4.040   3.546   0.445
 6630SOL     OW20709   4.860   3.201   1.674
 6630SOL    HW120710   4.939   3.186   1.734
 6630SOL    HW220711   4.802   3.120   1.676
 6631SOL     OW20712   3.894   3.292   0.486
 6631SOL    HW120713   3.908   3.384   0.523
 6631SOL    HW220714   3.877   3.228   0.561
 6632SOL     OW20715   4.002   2.949   0.857
 6632SOL    HW120716   4.010   2.855   0.891
 6632SOL    HW220717   3.945   3.002   0.920
 6633SOL     OW20718   4.284   3.679   1.410
 6633SOL    HW120719   4.206   3.656   1.467
 6633SOL    HW220720   4.329   3.761   1.447
 6634SOL     OW20721   4.292   2.817   0.178
 6634SOL    HW120722   4.346   2.831   0.095
 6634SOL    HW220723   4.334   2.866   0.254
 6635SOL     OW20724   5.313   1.995   1.469
 6635SOL    HW120725   5.361   2.074   1.429
 6635SOL    HW220726   5.271   2.022   1.555
 6636SOL     OW20727   3.839   2.526   0.549
 6636SOL    HW120728   3.802   2.437   0.575
 6636SOL    HW220729   3.835   2.587   0.629
 6637SOL     OW20730   5.574   3.607   0.372
 6637SOL    HW120731   5.654   3.578   0.425
 6637SOL    HW220732   5.585   3.703   0.346
 6638SOL     OW20733   3.726   3.463   0.137
 6638SOL    HW120734   3.655   3.393   0.130
 6638SOL    HW220735   3.729   3.499   0.230
 6639SOL     OW20736   5.428   2.793   0.664
 6639SOL    HW120737   5.518   2.749   0.657
 6639SOL    HW220738   5.408   2.841   0.579
 6640SOL     OW20739   5.378   2.965   0.446
 6640SOL    HW120740   5.431   2.985   0.363
 6640SOL    HW220741   5.401   3.032   0.516
 6641SOL     OW20742   3.849   2.614   1.569
 6641SOL    HW120743   3.940   2.655   1.563
 6641SOL    HW220744   3.780   2.682   1.546
 6642SOL     OW20745   4.354   3.248   0.741
 6642SOL    HW120746   4.311   3.158   0.747
 6642SOL    HW220747   4.346   3.283   0.648
 6643SOL     OW20748   4.991   3.081   1.415
 6643SOL    HW120749   5.009   3.008   1.349
 6643SOL    HW220750   5.058   3.076   1.489
 6644SOL     OW20751   4.553   1.899   0.518
 6644SOL    HW120752   4.600   1.984   0.493
 6644SOL    HW220753   4.454   1.915   0.517
 6645SOL     OW20754   3.918   2.803   1.297
 6645SOL    HW120755   4.010   2.766   1.282
 6645SOL    HW220756   3.858   2.772   1.223
 6646SOL     OW20757   5.184   2.907   0.215
 6646SOL    HW120758   5.113   2.846   0.251
 6646SOL    HW220759   5.273   2.877   0.249
 6647SOL     OW20760   4.914   3.685   1.630
 6647SOL    HW120761   4.910   3.754   1.559
 6647SOL    HW220762   4.923   3.594   1.589
 6648SOL     OW20763   4.080   2.117   1.873
 6648SOL    HW120764   4.119   2.199   1.915
 6648SOL    HW220765   3.981   2.129   1.863
 6649SOL     OW20766   5.180   3.288   0.919
 6649SOL    HW120767   5.127   3.307   1.002
 6649SOL    HW220768   5.176   3.190   0.898
 6650SOL     OW20769   5.313   3.690   0.583
 6650SOL    HW120770   5.303   3.652   0.491
 6650SOL    HW220771   5.341   3.618   0.646
 6651SOL     OW20772   4.315   2.560   0.269
 6651SOL    HW120773   4.315   2.654   0.235
 6651SOL    HW220774   4.250   2.551   0.344
 6652SOL     OW20775   5.005   2.253   0.939
 6652SOL    HW120776   4.912   2.218   0.939
 6652SOL    HW220777   5.062   2.197   0.998
 6653SOL     OW20778   5.301   3.560   0.337
 6653SOL    HW120779   5.401   3.565   0.343
 6653SOL    HW220780   5.275   3.545   0.241
 6654SOL     OW20781   4.520   2.451   1.436
 6654SOL    HW120782   4.495   2.425   1.528
 6654SOL    HW220783   4.494   2.379   1.372
 6655SOL     OW20784   5.115   2.330   1.665
 6655SOL    HW120785   5.116   2.379   1.752
 6655SOL    HW220786   5.158   2.240   1.677
 6656SOL     OW20787   4.678   2.732   1.589
 6656SOL    HW120788   4.732   2.665   1.538
 6656SOL    HW220789   4.623   2.785   1.525
 6657SOL     OW20790   4.734   2.245   1.192
 6657SOL    HW120791   4.638   2.258   1.219
 6657SOL    HW220792   4.737   2.194   1.106
 6658SOL     OW20793   4.779   2.581   0.429
 6658SOL    HW120794   4.804   2.578   0.526
 6658SOL    HW220795   4.692   2.535   0.416
 6659SOL     OW20796   3.819   2.698   0.769
 6659SOL    HW120797   3.908   2.684   0.812
 6659SOL    HW220798   3.768   2.767   0.822
 6660SOL     OW20799   3.828   3.750   1.600
 6660SOL    HW120800   3.843   3.716   1.693
 6660SOL    HW220801   3.734   3.730   1.573
 6661SOL     OW20802   4.630   2.220   0.215
 6661SOL    HW120803   4.675   2.279   0.148
 6661SOL    HW220804   4.643   2.124   0.189
 6662SOL     OW20805   5.390   2.426   1.837
 6662SOL    HW120806   5.376   2.509   1.784
 6662SOL    HW220807   5.416   2.351   1.777
 6663SOL     OW20808   5.122   3.018   0.552
 6663SOL    HW120809   5.206   3.002   0.499
 6663SOL    HW220810   5.066   3.085   0.505
 6664SOL     OW20811   4.279   2.006   0.928
 6664SOL    HW120812   4.286   2.030   1.025
 6664SOL    HW220813   4.276   2.089   0.873
 6665SOL     OW20814   4.711   3.302   0.473
 6665SOL    HW120815   4.685   3.385   0.424
 6665SOL    HW220816   4.686   3.309   0.569
 6666SOL     OW20817   4.084   3.669   0.880
 6666SOL    HW120818   4.125   3.578   0.884
 6666SOL    HW220819   4.151   3.737   0.908
 6667SOL     OW20820   5.524   2.906   0.903
 6667SOL    HW120821   5.477   2.891   0.816
 6667SOL    HW220822   5.457   2.916   0.976
 6668SOL     OW20823   4.930   3.408   1.501
 6668SOL    HW120824   4.918   3.333   1.566
 6668SOL    HW220825   4.868   3.396   1.424
 6669SOL     OW20826   4.019   2.796   0.237
 6669SOL    HW120827   4.115   2.806   0.212
 6669SOL    HW220828   3.987   2.705   0.210
 6670SOL     OW20829   5.218   2.628   0.718
 6670SOL    HW120830   5.214   2.582   0.807
 6670SOL    HW220831   5.299   2.687   0.714
 6671SOL     OW20832   4.186   3.139   1.725
 6671SOL    HW120833   4.163   3.146   1.628
 6671SOL    HW220834   4.102   3.130   1.779
 6672SOL     OW20835   4.847   3.635   0.249
 6672SOL    HW120836   4.774   3.594   0.304
 6672SOL    HW220837   4.883   3.567   0.185
 6673SOL     OW20838   3.937   2.122   1.495
 6673SOL    HW120839   3.865   2.191   1.493
 6673SOL    HW220840   3.902   2.039   1.537
 6674SOL     OW20841   5.370   3.299   0.121
 6674SOL    HW120842   5.318   3.372   0.077
 6674SOL    HW220843   5.312   3.252   0.187
 6675SOL     OW20844   4.214   3.558   0.382
 6675SOL    HW120845   4.239   3.646   0.423
 6675SOL    HW220846   4.272   3.541   0.303
 6676SOL     OW20847   3.957   3.649   1.202
 6676SOL    HW120848   4.012   3.571   1.234
 6676SOL    HW220849   3.926   3.632   1.109
 6677SOL     OW20850   4.682   3.563   0.890
 6677SOL    HW120851   4.770   3.521   0.911
 6677SOL    HW220852   4.636   3.510   0.818
 6678SOL     OW20853   4.118   2.534   0.464
 6678SOL    HW120854   4.132   2.436   0.482
 6678SOL    HW220855   4.022   2.557   0.479
 6679SOL     OW20856   5.210   2.071   1.721
 6679SOL    HW120857   5.227   2.093   1.817
 6679SOL    HW220858   5.140   2.000   1.715
 6680SOL     OW20859   4.487   2.124   1.756
 6680SOL    HW120860   4.576   2.078   1.751
 6680SOL    HW220861   4.431   2.078   1.825
 6681SOL     OW20862   4.587   3.382   1.193
 6681SOL    HW120863   4.564   3.336   1.107
 6681SOL    HW220864   4.655   3.328   1.242
 6682SOL     OW20865   5.047   2.450   1.429
 6682SOL    HW120866   5.081   2.416   1.516
 6682SOL    HW220867   5.081   2.544   1.415
 6683SOL     OW20868   4.535   3.230   0.959
 6683SOL    HW120869   4.627   3.228   0.920
 6683SOL    HW220870   4.467   3.241   0.886
 6684SOL     OW20871   4.646   2.373   0.889
 6684SOL    HW120872   4.624   2.365   0.792
 6684SOL    HW220873   4.675   2.283   0.923
 6685SOL     OW20874   4.278   1.941   0.486
 6685SOL    HW120875   4.199   1.941   0.548
 6685SOL    HW220876   4.264   2.009   0.414
 6686SOL     OW20877   5.118   3.061   6.992
 6686SOL    HW120878   5.151   2.993   0.058
 6686SOL    HW220879   5.043   3.113   0.033
 6687SOL     OW20880   4.695   2.126   0.462
 6687SOL    HW120881   4.662   2.164   0.376
 6687SOL    HW220882   4.794   2.138   0.468
 6688SOL     OW20883   4.787   2.548   1.421
 6688SOL    HW120884   4.712   2.483   1.431
 6688SOL    HW220885   4.874   2.499   1.423
 6689SOL     OW20886   4.943   3.431   0.811
 6689SOL    HW120887   4.959   3.509   0.750
 6689SOL    HW220888   5.030   3.400   0.849
 6690SOL     OW20889   4.221   3.014   0.713
 6690SOL    HW120890   4.144   2.991   0.773
 6690SOL    HW220891   4.191   3.010   0.618
 6691SOL     OW20892   4.996   3.651   0.648
 6691SOL    HW120893   5.075   3.711   0.649
 6691SOL    HW220894   4.913   3.704   0.665
 6692SOL     OW20895   4.741   2.396   0.039
 6692SOL    HW120896   4.663   2.458   0.044
 6692SOL    HW220897   4.806   2.419   0.112
 6693SOL     OW20898   3.835   2.406   1.394
 6693SOL    HW120899   3.929   2.403   1.359
 6693SOL    HW220900   3.826   2.480   1.460
 6694SOL     OW20901   4.289   2.059   1.196
 6694SOL    HW120902   4.325   1.986   1.254
 6694SOL    HW220903   4.191   2.069   1.213
 6695SOL     OW20904   4.598   2.327   0.628
 6695SOL    HW120905   4.556   2.387   0.559
 6695SOL    HW220906   4.633   2.245   0.583
 6696SOL     OW20907   4.750   1.913   0.728
 6696SOL    HW120908   4.683   1.914   0.654
 6696SOL    HW220909   4.726   1.841   0.793
 6697SOL     OW20910   5.179   3.017   0.857
 6697SOL    HW120911   5.100   2.955   0.854
 6697SOL    HW220912   5.218   3.027   0.766
 6698SOL     OW20913   5.182   2.477   0.952
 6698SOL    HW120914   5.114   2.405   0.959
 6698SOL    HW220915   5.243   2.473   1.031
 6699SOL     OW20916   5.523   2.671   0.384
 6699SOL    HW120917   5.594   2.608   0.417
 6699SOL    HW220918   5.522   2.670   0.284
 6700SOL     OW20919   4.177   3.335   0.146
 6700SOL    HW120920   4.130   3.270   0.206
 6700SOL    HW220921   4.150   3.319   0.051
 6701SOL     OW20922   5.429   3.129   0.655
 6701SOL    HW120923   5.528   3.117   0.663
 6701SOL    HW220924   5.407   3.226   0.664
 6702SOL     OW20925   5.088   2.395   0.072
 6702SOL    HW120926   5.021   2.401   0.146
 6702SOL    HW220927   5.153   2.322   0.092
 6703SOL     OW20928   4.237   2.124   0.285
 6703SOL    HW120929   4.301   2.085   0.218
 6703SOL    HW220930   4.193   2.205   0.245
 6704SOL     OW20931   5.464   3.102   1.531
 6704SOL    HW120932   5.553   3.062   1.510
 6704SOL    HW220933   5.476   3.193   1.571
 6705SOL     OW20934   4.757   3.214   1.342
 6705SOL    HW120935   4.672   3.181   1.381
 6705SOL    HW220936   4.834   3.167   1.384
 6706SOL     OW20937   5.341   3.499   1.669
 6706SOL    HW120938   5.323   3.541   1.580
 6706SOL    HW220939   5.422   3.441   1.664
 6707SOL     OW20940   4.874   3.115   1.111
 6707SOL    HW120941   4.814   3.146   1.185
 6707SOL    HW220942   4.836   3.144   1.023
 6708SOL     OW20943   5.329   2.953   1.091
 6708SOL    HW120944   5.321   3.022   1.163
 6708SOL    HW220945   5.263   2.974   1.018
 6709SOL     OW20946   4.650   1.937   1.384
 6709SOL    HW120947   4.668   1.918   1.287
 6709SOL    HW220948   4.730   1.981   1.425
 6710SOL     OW20949   4.715   2.967   1.720
 6710SOL    HW120950   4.619   2.991   1.737
 6710SOL    HW220951   4.718   2.881   1.669
 6711SOL     OW20952   4.446   2.918   0.384
 6711SOL    HW120953   4.431   2.891   0.479
 6711SOL    HW220954   4.525   2.869   0.348
 6712SOL     OW20955   4.161   2.676   1.261
 6712SOL    HW120956   4.234   2.689   1.328
 6712SOL    HW220957   4.126   2.583   1.266
 6713SOL     OW20958   4.985   2.225   1.290
 6713SOL    HW120959   5.014   2.308   1.337
 6713SOL    HW220960   4.893   2.238   1.254
 6714SOL     OW20961   3.795   3.424   1.346
 6714SOL    HW120962   3.754   3.496   1.290
 6714SOL    HW220963   3.895   3.428   1.339
 6715SOL     OW20964   4.134   2.986   0.460
 6715SOL    HW120965   4.101   3.058   0.399
 6715SOL    HW220966   4.109   2.897   0.422
 6716SOL     OW20967   4.254   2.396   0.865
 6716SOL    HW120968   4.268   2.453   0.784
 6716SOL    HW220969   4.325   2.415   0.932
 6717SOL     OW20970   4.973   3.229   0.419
 6717SOL    HW120971   5.023   3.305   0.458
 6717SOL    HW220972   4.876   3.238   0.440
 6718SOL     OW20973   5.038   3.335   1.143
 6718SOL    HW120974   5.088   3.345   1.229
 6718SOL    HW220975   4.983   3.252   1.145
 6719SOL     OW20976   5.326   2.502   0.492
 6719SOL    HW120977   5.271   2.543   0.564
 6719SOL    HW220978   5.387   2.571   0.454
 6720SOL     OW20979   4.066   3.400   1.289
 6720SOL    HW120980   4.057   3.341   1.209
 6720SOL    HW220981   4.162   3.422   1.304
 6721SOL     OW20982   4.158   2.610   1.609
 6721SOL    HW120983   4.226   2.649   1.546
 6721SOL    HW220984   4.191   2.523   1.644
 6722SOL     OW20985   5.348   2.656   1.701
 6722SOL    HW120986   5.255   2.694   1.691
 6722SOL    HW220987   5.404   2.688   1.625
 6723SOL     OW20988   4.725   1.996   1.755
 6723SOL    HW120989   4.783   2.077   1.742
 6723SOL    HW220990   4.777   1.913   1.734
 6724SOL     OW20991   4.213   1.901   1.762
 6724SOL    HW120992   4.158   1.846   1.699
 6724SOL    HW220993   4.162   1.983   1.788
 6725SOL     OW20994   4.314   2.733   1.037
 6725SOL    HW120995   4.355   2.825   1.039
 6725SOL    HW220996   4.256   2.722   1.118
 6726SOL     OW20997   5.017   2.702   1.008
 6726SOL    HW120998   4.924   2.675   0.982
 6726SOL    HW220999   5.080   2.627   0.987
 6727SOL     OW21000   4.901   2.399   0.268
 6727SOL    HW121001   4.921   2.318   0.323
 6727SOL    HW221002   4.863   2.471   0.327
 6728SOL     OW21003   4.018   2.050   1.238
 6728SOL    HW121004   3.986   2.082   1.327
 6728SOL    HW221005   3.998   1.952   1.228
 6729SOL     OW21006   3.782   3.163   1.258
 6729SOL    HW121007   3.813   3.104   1.333
 6729SOL    HW221008   3.778   3.258   1.291
 6730SOL     OW21009   4.441   2.484   1.047
 6730SOL    HW121010   4.517   2.465   0.984
 6730SOL    HW221011   4.407   2.577   1.031
 6731SOL     OW21012   5.473   2.841   1.866
 6731SOL    HW121013   5.432   2.766   1.815
 6731SOL    HW221014   5.414   2.867   1.942
 6732SOL     OW21015   4.048   1.929   0.639
 6732SOL    HW121016   4.009   2.019   0.657
 6732SOL    HW221017   4.059   1.880   0.726
 6733SOL     OW21018   5.381   2.273   0.356
 6733SOL    HW121019   5.408   2.201   0.420
 6733SOL    HW221020   5.356   2.356   0.407
 6734SOL     OW21021   4.751   2.615   0.955
 6734SOL    HW121022   4.726   2.637   1.050
 6734SOL    HW221023   4.720   2.522   0.934
 6735SOL     OW21024   4.717   3.431   1.733
 6735SOL    HW121025   4.681   3.487   1.659
 6735SOL    HW221026   4.753   3.346   1.696
 6736SOL     OW21027   5.566   3.353   1.600
 6736SOL    HW121028   5.587   3.380   1.506
 6736SOL    HW221029   5.649   3.363   1.656
 6737SOL     OW21030   4.097   2.787   1.809
 6737SOL    HW121031   4.183   2.811   1.855
 6737SOL    HW221032   4.117   2.722   1.735
 6738SOL     OW21033   5.233   2.173   0.149
 6738SOL    HW121034   5.186   2.088   0.172
 6738SOL    HW221035   5.287   2.204   0.227
 6739SOL     OW21036   4.997   2.652   0.039
 6739SOL    HW121037   5.042   2.563   0.034
 6739SOL    HW221038   5.020   2.706   6.958
 6740SOL     OW21039   4.787   3.213   0.868
 6740SOL    HW121040   4.802   3.133   0.810
 6740SOL    HW221041   4.843   3.289   0.835
 6741SOL     OW21042   4.049   2.679   0.928
 6741SOL    HW121043   4.147   2.697   0.937
 6741SOL    HW221044   4.030   2.586   0.960
 6742SOL     OW21045   4.024   2.403   1.002
 6742SOL    HW121046   3.983   2.312   0.997
 6742SOL    HW221047   4.107   2.404   0.947
 6743SOL     OW21048   4.862   2.226   1.692
 6743SOL    HW121049   4.814   2.277   1.763
 6743SOL    HW221050   4.951   2.268   1.675
 6744SOL     OW21051   4.883   2.051   1.479
 6744SOL    HW121052   4.867   2.113   1.556
 6744SOL    HW221053   4.929   2.100   1.405
 6745SOL     OW21054   3.825   3.623   0.951
 6745SOL    HW121055   3.783   3.547   0.901
 6745SOL    HW221056   3.915   3.642   0.914
 6746SOL     OW21057   4.213   3.424   0.904
 6746SOL    HW121058   4.284   3.487   0.933
 6746SOL    HW221059   4.251   3.357   0.839
 6747SOL     OW21060   4.654   2.657   1.206
 6747SOL    HW121061   4.715   2.631   1.281
 6747SOL    HW221062   4.570   2.604   1.212
 6748SOL     OW21063   3.770   2.459   1.128
 6748SOL    HW121064   3.851   2.450   1.071
 6748SOL    HW221065   3.794   2.442   1.224
 6749SOL     OW21066   3.920   2.410   1.743
 6749SOL    HW121067   3.989   2.362   1.689
 6749SOL    HW221068   3.883   2.486   1.689
 6750SOL     OW21069   5.110   2.786   1.647
 6750SOL    HW121070   5.131   2.884   1.645
 6750SOL    HW221071   5.099   2.752   1.554
 6751SOL     OW21072   4.549   2.442   0.370
 6751SOL    HW121073   4.565   2.360   0.315
 6751SOL    HW221074   4.465   2.487   0.340
 6752SOL     OW21075   5.362   2.466   1.159
 6752SOL    HW121076   5.343   2.401   1.233
 6752SOL    HW221077   5.459   2.463   1.135
 6753SOL     OW21078   3.960   3.400   1.712
 6753SOL    HW121079   3.942   3.475   1.777
 6753SOL    HW221080   3.963   3.313   1.762
 6754SOL     OW21081   4.461   2.279   1.230
 6754SOL    HW121082   4.396   2.204   1.221
 6754SOL    HW221083   4.441   2.350   1.162
 6755SOL     OW21084   4.599   3.561   1.506
 6755SOL    HW121085   4.574   3.496   1.434
 6755SOL    HW221086   4.621   3.650   1.465
 6756SOL     OW21087   4.149   2.361   0.166
 6756SOL    HW121088   4.221   2.422   0.197
 6756SOL    HW221089   4.061   2.407   0.173
 6757SOL     OW21090   3.860   3.001   1.470
 6757SOL    HW121091   3.866   2.968   1.564
 6757SOL    HW221092   3.882   2.926   1.407
 6758SOL     OW21093   5.007   2.893   1.203
 6758SOL    HW121094   5.016   2.822   1.133
 6758SOL    HW221095   4.959   2.972   1.165
 6759SOL     OW21096   4.997   2.730   0.302
 6759SOL    HW121097   4.931   2.683   0.359
 6759SOL    HW221098   4.996   2.689   0.210
 6760SOL     OW21099   5.499   3.579   1.164
 6760SOL    HW121100   5.568   3.604   1.096
 6760SOL    HW221101   5.462   3.489   1.142
 6761SOL     OW21102   4.981   3.605   1.096
 6761SOL    HW121103   5.069   3.639   1.062
 6761SOL    HW221104   4.988   3.507   1.115
 6762SOL     OW21105   3.831   3.105   1.000
 6762SOL    HW121106   3.806   3.126   1.094
 6762SOL    HW221107   3.762   3.045   0.959
 6763SOL     OW21108   4.407   3.554   1.707
 6763SOL    HW121109   4.348   3.634   1.715
 6763SOL    HW221110   4.477   3.570   1.637
 6764SOL     OW21111   4.676   1.964   0.124
 6764SOL    HW121112   4.751   2.007   0.073
 6764SOL    HW221113   4.712   1.888   0.178
 6765SOL     OW21114   5.463   2.060   0.514
 6765SOL    HW121115   5.521   2.028   0.439
 6765SOL    HW221116   5.411   1.983   0.551
 6766SOL     OW21117   5.120   3.442   0.509
 6766SOL    HW121118   5.180   3.479   0.438
 6766SOL    HW221119   5.066   3.516   0.549
 6767SOL     OW21120   3.880   3.637   1.844
 6767SOL    HW121121   3.829   3.566   1.892
 6767SOL    HW221122   3.928   3.695   1.910
 6768SOL     OW21123   5.017   2.804   0.674
 6768SOL    HW121124   5.091   2.738   0.689
 6768SOL    HW221125   5.050   2.881   0.619
 6769SOL     OW21126   4.498   3.142   1.411
 6769SOL    HW121127   4.470   3.193   1.493
 6769SOL    HW221128   4.425   3.147   1.342
 6770SOL     OW21129   4.404   3.492   0.187
 6770SOL    HW121130   4.409   3.548   0.104
 6770SOL    HW221131   4.342   3.415   0.171
 6771SOL     OW21132   5.337   3.596   1.399
 6771SOL    HW121133   5.394   3.589   1.317
 6771SOL    HW221134   5.320   3.692   1.420
 6772SOL     OW21135   5.572   2.014   0.959
 6772SOL    HW121136   5.601   1.920   0.940
 6772SOL    HW221137   5.481   2.029   0.921
 6773SOL     OW21138   3.960   2.176   0.713
 6773SOL    HW121139   3.874   2.220   0.688
 6773SOL    HW221140   3.968   2.172   0.813
 6774SOL     OW21141   4.939   3.453   0.063
 6774SOL    HW121142   4.938   3.356   0.085
 6774SOL    HW221143   4.860   3.476   0.007
 6775SOL     OW21144   4.549   2.873   1.394
 6775SOL    HW121145   4.590   2.854   1.305
 6775SOL    HW221146   4.533   2.972   1.402
 6776SOL     OW21147   4.653   2.784   0.281
 6776SOL    HW121148   4.697   2.799   0.193
 6776SOL    HW221149   4.707   2.719   0.335
 6777SOL     OW21150   5.201   3.540   0.071
 6777SOL    HW121151   5.106   3.507   0.068
 6777SOL    HW221152   5.228   3.575   6.981
 6778SOL     OW21153   4.084   3.173   1.478
 6778SOL    HW121154   4.077   3.253   1.418
 6778SOL    HW221155   4.004   3.114   1.465
 6779SOL     OW21156   5.318   3.151   1.292
 6779SOL    HW121157   5.378   3.123   1.367
 6779SOL    HW221158   5.255   3.221   1.324
 6780SOL     OW21159   4.809   2.976   0.743
 6780SOL    HW121160   4.730   2.927   0.777
 6780SOL    HW221161   4.879   2.911   0.712
 6781SOL     OW21162   4.758   2.102   0.951
 6781SOL    HW121163   4.756   2.064   0.858
 6781SOL    HW221164   4.752   2.028   1.018
 6782SOL     OW21165   4.349   3.343   0.492
 6782SOL    HW121166   4.388   3.287   0.418
 6782SOL    HW221167   4.286   3.410   0.452
 6783SOL     OW21168   5.492   2.221   1.405
 6783SOL    HW121169   5.557   2.296   1.395
 6783SOL    HW221170   5.512   2.151   1.336
 6784SOL     OW21171   4.012   3.163   0.282
 6784SOL    HW121172   3.945   3.122   0.220
 6784SOL    HW221173   3.965   3.213   0.355
 6785SOL     OW21174   3.861   2.908   1.728
 6785SOL    HW121175   3.778   2.873   1.771
 6785SOL    HW221176   3.940   2.857   1.761
 6786SOL     OW21177   4.416   2.052   1.497
 6786SOL    HW121178   4.501   2.022   1.453
 6786SOL    HW221179   4.436   2.084   1.590
 6787SOL     OW21180   3.823   2.180   6.968
 6787SOL    HW121181   3.757   2.118   6.926
 6787SOL    HW221182   3.775   2.259   0.006
 6788SOL     OW21183   5.125   2.714   1.382
 6788SOL    HW121184   5.067   2.772   1.326
 6788SOL    HW221185   5.219   2.717   1.347
 6789SOL     OW21186   3.758   2.009   0.291
 6789SOL    HW121187   3.777   2.106   0.277
 6789SOL    HW221188   3.793   1.957   0.214
 6790SOL     OW21189   4.913   3.187   0.132
 6790SOL    HW121190   4.815   3.200   0.116
 6790SOL    HW221191   4.930   3.182   0.230
 6791SOL     OW21192   4.364   2.679   1.439
 6791SOL    HW121193   4.423   2.759   1.431
 6791SOL    HW221194   4.420   2.597   1.442
 6792SOL     OW21195   5.233   3.687   1.018
 6792SOL    HW121196   5.262   3.756   0.952
 6792SOL    HW221197   5.313   3.639   1.054
 6793SOL     OW21198   4.456   2.397   1.693
 6793SOL    HW121199   4.506   2.459   1.754
 6793SOL    HW221200   4.466   2.303   1.725
 6794SOL     OW21201   5.192   3.050   1.624
 6794SOL    HW121202   5.184   3.068   1.722
 6794SOL    HW221203   5.285   3.070   1.594
 6795SOL     OW21204   4.074   3.618   1.576
 6795SOL    HW121205   3.989   3.669   1.564
 6795SOL    HW221206   4.052   3.526   1.610
 6796SOL     OW21207   5.371   2.732   1.257
 6796SOL    HW121208   5.372   2.644   1.209
 6796SOL    HW221209   5.359   2.806   1.191
 6797SOL     OW21210   4.963   2.194   0.447
 6797SOL    HW121211   5.040   2.135   0.424
 6797SOL    HW221212   4.985   2.246   0.530
 6798SOL     OW21213   4.299   2.585   0.670
 6798SOL    HW121214   4.346   2.672   0.661
 6798SOL    HW221215   4.234   2.574   0.595
 6799SOL     OW21216   5.453   2.206   1.678
 6799SOL    HW121217   5.466   2.215   1.580
 6799SOL    HW221218   5.373   2.148   1.695
 6800SOL     OW21219   5.489   2.778   1.501
 6800SOL    HW121220   5.478   2.875   1.522
 6800SOL    HW221221   5.454   2.760   1.409
 6801SOL     OW21222   4.655   3.257   0.099
 6801SOL    HW121223   4.585   3.235   0.167
 6801SOL    HW221224   4.636   3.347   0.061
 6802SOL     OW21225   4.401   3.614   0.942
 6802SOL    HW121226   4.375   3.710   0.933
 6802SOL    HW221227   4.501   3.606   0.932
 6803SOL     OW21228   4.601   2.839   0.865
 6803SOL    HW121229   4.652   2.759   0.898
 6803SOL    HW221230   4.550   2.879   0.941
 6804SOL     OW21231   4.785   2.822   0.041
 6804SOL    HW121232   4.819   2.915   0.029
 6804SOL    HW221233   4.863   2.759   0.044
 6805SOL     OW21234   5.565   3.410   0.839
 6805SOL    HW121235   5.481   3.406   0.784
 6805SOL    HW221236   5.578   3.323   0.885
 6806SOL     OW21237   3.929   3.150   1.834
 6806SOL    HW121238   3.902   3.066   1.786
 6806SOL    HW221239   3.866   3.167   1.910
 6807SOL     OW21240   3.844   3.065   0.644
 6807SOL    HW121241   3.900   3.024   0.716
 6807SOL    HW221242   3.843   3.005   0.564
 6808SOL     OW21243   4.400   3.290   1.620
 6808SOL    HW121244   4.317   3.247   1.657
 6808SOL    HW221245   4.403   3.386   1.649
 6809SOL     OW21246   5.535   2.019   1.231
 6809SOL    HW121247   5.531   1.921   1.249
 6809SOL    HW221248   5.551   2.034   1.134
 6810SOL     OW21249   4.139   2.273   0.515
 6810SOL    HW121250   4.171   2.202   0.452
 6810SOL    HW221251   4.084   2.232   0.588
 6811SOL     OW21252   5.394   3.340   1.100
 6811SOL    HW121253   5.327   3.324   1.027
 6811SOL    HW221254   5.387   3.267   1.168
 6812SOL     OW21255   4.082   2.415   1.282
 6812SOL    HW121256   4.135   2.349   1.335
 6812SOL    HW221257   4.083   2.389   1.185
 6813SOL     OW21258   4.562   3.430   0.687
 6813SOL    HW121259   4.531   3.477   0.604
 6813SOL    HW221260   4.492   3.364   0.715
 6814SOL     OW21261   5.147   2.097   1.112
 6814SOL    HW121262   5.157   1.999   1.130
 6814SOL    HW221263   5.097   2.139   1.187
 6815SOL     OW21264   4.738   1.878   1.118
 6815SOL    HW121265   4.679   1.815   1.068
 6815SOL    HW221266   4.830   1.840   1.123
 6816SOL     OW21267   4.504   3.182   0.323
 6816SOL    HW121268   4.475   3.088   0.340
 6816SOL    HW221269   4.584   3.203   0.380
 6817SOL     OW21270   4.338   3.443   1.287
 6817SOL    HW121271   4.328   3.533   1.328
 6817SOL    HW221272   4.429   3.435   1.247
 6818SOL     OW21273   5.080   1.930   0.196
 6818SOL    HW121274   5.142   1.857   0.168
 6818SOL    HW221275   4.995   1.891   0.231
 6819SOL     OW21276   5.014   2.338   0.673
 6819SOL    HW121277   4.966   2.425   0.671
 6819SOL    HW221278   5.015   2.303   0.767
 6820SOL     OW21279   5.312   2.066   0.893
 6820SOL    HW121280   5.257   2.090   0.973
 6820SOL    HW221281   5.315   2.144   0.830
 6821SOL     OW21282   3.830   2.891   0.426
 6821SOL    HW121283   3.903   2.864   0.363
 6821SOL    HW221284   3.755   2.826   0.421
 6822SOL     OW21285   4.613   3.538   0.367
 6822SOL    HW121286   4.539   3.517   0.304
 6822SOL    HW221287   4.590   3.619   0.421
 6823SOL     OW21288   3.927   2.483   2.008
 6823SOL    HW121289   3.837   2.461   2.046
 6823SOL    HW221290   3.926   2.468   1.910
 6824SOL     OW21291   3.935   2.180   2.849
 6824SOL    HW121292   3.971   2.144   2.935
 6824SOL    HW221293   3.854   2.128   2.822
 6825SOL     OW21294   3.705   2.257   2.466
 6825SOL    HW121295   3.617   2.284   2.505
 6825SOL    HW221296   3.693   2.173   2.412
 6826SOL     OW21297   4.323   3.171   3.066
 6826SOL    HW121298   4.237   3.163   3.016
 6826SOL    HW221299   4.335   3.266   3.095
 6827SOL     OW21300   5.350   3.389   2.609
 6827SOL    HW121301   5.295   3.343   2.679
 6827SOL    HW221302   5.298   3.464   2.568
 6828SOL     OW21303   4.862   2.503   2.507
 6828SOL    HW121304   4.909   2.587   2.481
 6828SOL    HW221305   4.800   2.522   2.583
 6829SOL     OW21306   5.525   2.425   2.070
 6829SOL    HW121307   5.482   2.433   1.980
 6829SOL    HW221308   5.475   2.358   2.125
 6830SOL     OW21309   4.566   3.082   2.972
 6830SOL    HW121310   4.473   3.086   3.008
 6830SOL    HW221311   4.587   3.168   2.924
 6831SOL     OW21312   4.568   2.786   3.683
 6831SOL    HW121313   4.651   2.805   3.737
 6831SOL    HW221314   4.592   2.781   3.586
 6832SOL     OW21315   4.463   3.093   3.703
 6832SOL    HW121316   4.523   3.167   3.733
 6832SOL    HW221317   4.393   3.130   3.641
 6833SOL     OW21318   4.082   3.217   2.935
 6833SOL    HW121319   3.991   3.181   2.915
 6833SOL    HW221320   4.101   3.294   2.875
 6834SOL     OW21321   5.168   3.370   3.217
 6834SOL    HW121322   5.231   3.448   3.223
 6834SOL    HW221323   5.096   3.380   3.285
 6835SOL     OW21324   4.186   2.127   3.287
 6835SOL    HW121325   4.273   2.093   3.323
 6835SOL    HW221326   4.116   2.121   3.358
 6836SOL     OW21327   5.315   2.318   2.602
 6836SOL    HW121328   5.225   2.300   2.562
 6836SOL    HW221329   5.319   2.412   2.636
 6837SOL     OW21330   4.886   3.232   3.569
 6837SOL    HW121331   4.929   3.215   3.657
 6837SOL    HW221332   4.818   3.160   3.551
 6838SOL     OW21333   4.283   3.651   3.297
 6838SOL    HW121334   4.195   3.627   3.338
 6838SOL    HW221335   4.320   3.732   3.343
 6839SOL     OW21336   4.332   2.836   1.948
 6839SOL    HW121337   4.381   2.885   1.876
 6839SOL    HW221338   4.349   2.879   2.036
 6840SOL     OW21339   5.305   1.989   3.320
 6840SOL    HW121340   5.322   2.067   3.260
 6840SOL    HW221341   5.260   2.020   3.404
 6841SOL     OW21342   3.879   2.478   2.471
 6841SOL    HW121343   3.816   2.401   2.464
 6841SOL    HW221344   3.945   2.460   2.544
 6842SOL     OW21345   5.585   3.614   2.180
 6842SOL    HW121346   5.663   3.600   2.241
 6842SOL    HW221347   5.586   3.708   2.146
 6843SOL     OW21348   3.768   3.434   1.983
 6843SOL    HW121349   3.736   3.343   2.011
 6843SOL    HW221350   3.724   3.504   2.040
 6844SOL     OW21351   5.428   2.812   2.533
 6844SOL    HW121352   5.520   2.772   2.535
 6844SOL    HW221353   5.414   2.860   2.447
 6845SOL     OW21354   5.410   2.965   2.299
 6845SOL    HW121355   5.496   2.948   2.252
 6845SOL    HW221356   5.419   3.045   2.358
 6846SOL     OW21357   4.998   3.100   3.309
 6846SOL    HW121358   5.029   3.031   3.243
 6846SOL    HW221359   5.065   3.107   3.383
 6847SOL     OW21360   4.559   1.886   2.359
 6847SOL    HW121361   4.604   1.971   2.332
 6847SOL    HW221362   4.460   1.902   2.365
 6848SOL     OW21363   3.956   2.915   3.164
 6848SOL    HW121364   4.051   2.938   3.145
 6848SOL    HW221365   3.905   2.909   3.078
 6849SOL     OW21366   5.272   2.893   2.068
 6849SOL    HW121367   5.218   2.811   2.089
 6849SOL    HW221368   5.316   2.926   2.152
 6850SOL     OW21369   4.994   3.677   3.492
 6850SOL    HW121370   4.968   3.742   3.421
 6850SOL    HW221371   4.986   3.584   3.456
 6851SOL     OW21372   4.036   2.077   3.694
 6851SOL    HW121373   4.027   2.105   3.598
 6851SOL    HW221374   3.947   2.087   3.740
 6852SOL     OW21375   5.204   3.258   2.797
 6852SOL    HW121376   5.134   3.289   2.861
 6852SOL    HW221377   5.184   3.165   2.768
 6853SOL     OW21378   5.372   3.679   2.403
 6853SOL    HW121379   5.351   3.621   2.324
 6853SOL    HW221380   5.445   3.635   2.457
 6854SOL     OW21381   4.304   2.570   2.093
 6854SOL    HW121382   4.308   2.658   2.044
 6854SOL    HW221383   4.241   2.579   2.170
 6855SOL     OW21384   4.998   2.193   2.769
 6855SOL    HW121385   4.907   2.152   2.777
 6855SOL    HW221386   5.058   2.156   2.840
 6856SOL     OW21387   5.319   3.539   2.176
 6856SOL    HW121388   5.417   3.554   2.162
 6856SOL    HW221389   5.275   3.518   2.089
 6857SOL     OW21390   4.693   2.808   3.431
 6857SOL    HW121391   4.755   2.730   3.420
 6857SOL    HW221392   4.663   2.840   3.341
 6858SOL     OW21393   4.733   2.177   3.050
 6858SOL    HW121394   4.638   2.179   3.080
 6858SOL    HW221395   4.737   2.168   2.951
 6859SOL     OW21396   4.749   2.531   2.258
 6859SOL    HW121397   4.780   2.508   2.350
 6859SOL    HW221398   4.660   2.488   2.241
 6860SOL     OW21399   3.792   3.706   3.426
 6860SOL    HW121400   3.806   3.713   3.524
 6860SOL    HW221401   3.710   3.650   3.408
 6861SOL     OW21402   4.593   2.200   2.046
 6861SOL    HW121403   4.653   2.254   1.987
 6861SOL    HW221404   4.554   2.124   1.993
 6862SOL     OW21405   5.414   2.433   3.688
 6862SOL    HW121406   5.386   2.516   3.640
 6862SOL    HW221407   5.424   2.358   3.622
 6863SOL     OW21408   4.288   2.011   2.758
 6863SOL    HW121409   4.293   2.012   2.858
 6863SOL    HW221410   4.297   2.104   2.723
 6864SOL     OW21411   4.050   3.652   2.850
 6864SOL    HW121412   4.122   3.585   2.830
 6864SOL    HW221413   4.085   3.744   2.834
 6865SOL     OW21414   5.499   2.927   2.779
 6865SOL    HW121415   5.459   2.902   2.690
 6865SOL    HW221416   5.426   2.934   2.847
 6866SOL     OW21417   4.953   3.417   3.380
 6866SOL    HW121418   4.951   3.350   3.455
 6866SOL    HW221419   4.880   3.396   3.315
 6867SOL     OW21420   3.994   2.753   2.058
 6867SOL    HW121421   4.030   2.771   1.966
 6867SOL    HW221422   3.970   2.657   2.066
 6868SOL     OW21423   5.247   2.608   2.552
 6868SOL    HW121424   5.262   2.558   2.466
 6868SOL    HW221425   5.312   2.683   2.558
 6869SOL     OW21426   4.214   3.150   3.578
 6869SOL    HW121427   4.196   3.143   3.480
 6869SOL    HW221428   4.132   3.124   3.629
 6870SOL     OW21429   4.863   3.655   2.033
 6870SOL    HW121430   4.764   3.669   2.027
 6870SOL    HW221431   4.887   3.568   1.989
 6871SOL     OW21432   3.955   2.103   3.433
 6871SOL    HW121433   3.889   2.165   3.390
 6871SOL    HW221434   3.913   2.013   3.444
 6872SOL     OW21435   5.357   3.244   1.971
 6872SOL    HW121436   5.326   3.338   1.953
 6872SOL    HW221437   5.286   3.180   1.942
 6873SOL     OW21438   4.227   3.639   2.106
 6873SOL    HW121439   4.289   3.705   2.147
 6873SOL    HW221440   4.279   3.570   2.057
 6874SOL     OW21441   5.124   1.948   2.312
 6874SOL    HW121442   5.126   1.926   2.215
 6874SOL    HW221443   5.211   1.922   2.354
 6875SOL     OW21444   3.987   3.609   3.110
 6875SOL    HW121445   4.031   3.522   3.133
 6875SOL    HW221446   3.998   3.628   3.013
 6876SOL     OW21447   4.730   3.545   2.796
 6876SOL    HW121448   4.816   3.557   2.845
 6876SOL    HW221449   4.737   3.588   2.706
 6877SOL     OW21450   4.136   2.540   2.316
 6877SOL    HW121451   4.132   2.440   2.320
 6877SOL    HW221452   4.050   2.578   2.350
 6878SOL     OW21453   5.220   2.049   3.587
 6878SOL    HW121454   5.230   2.088   3.679
 6878SOL    HW221455   5.205   1.951   3.594
 6879SOL     OW21456   4.389   1.961   1.964
 6879SOL    HW121457   4.443   1.883   1.995
 6879SOL    HW221458   4.322   1.931   1.897
 6880SOL     OW21459   4.504   2.055   3.629
 6880SOL    HW121460   4.595   2.015   3.642
 6880SOL    HW221461   4.450   2.041   3.712
 6881SOL     OW21462   4.624   3.417   3.113
 6881SOL    HW121463   4.609   3.383   3.020
 6881SOL    HW221464   4.676   3.348   3.165
 6882SOL     OW21465   4.593   3.323   2.853
 6882SOL    HW121466   4.646   3.404   2.829
 6882SOL    HW221467   4.538   3.295   2.774
 6883SOL     OW21468   4.609   2.296   2.731
 6883SOL    HW121469   4.607   2.308   2.632
 6883SOL    HW221470   4.662   2.215   2.754
 6884SOL     OW21471   4.287   1.924   2.347
 6884SOL    HW121472   4.212   1.921   2.414
 6884SOL    HW221473   4.275   2.004   2.287
 6885SOL     OW21474   5.147   3.076   1.898
 6885SOL    HW121475   5.186   3.003   1.955
 6885SOL    HW221476   5.054   3.096   1.929
 6886SOL     OW21477   4.014   1.905   2.041
 6886SOL    HW121478   4.062   1.981   1.998
 6886SOL    HW221479   4.080   1.846   2.088
 6887SOL     OW21480   4.692   2.116   2.288
 6887SOL    HW121481   4.660   2.147   2.199
 6887SOL    HW221482   4.791   2.131   2.296
 6888SOL     OW21483   4.756   2.367   1.900
 6888SOL    HW121484   4.713   2.454   1.877
 6888SOL    HW221485   4.824   2.381   1.971
 6889SOL     OW21486   4.278   1.978   3.027
 6889SOL    HW121487   4.290   1.907   3.096
 6889SOL    HW221488   4.188   2.019   3.037
 6890SOL     OW21489   4.594   2.311   2.462
 6890SOL    HW121490   4.522   2.361   2.413
 6890SOL    HW221491   4.629   2.237   2.404
 6891SOL     OW21492   4.737   1.886   2.574
 6891SOL    HW121493   4.673   1.891   2.497
 6891SOL    HW221494   4.708   1.815   2.638
 6892SOL     OW21495   5.548   2.640   2.234
 6892SOL    HW121496   5.607   2.608   2.308
 6892SOL    HW221497   5.544   2.571   2.162
 6893SOL     OW21498   4.231   3.249   1.980
 6893SOL    HW121499   4.159   3.211   2.037
 6893SOL    HW221500   4.228   3.207   1.890
 6894SOL     OW21501   5.451   3.167   2.471
 6894SOL    HW121502   5.544   3.143   2.497
 6894SOL    HW221503   5.423   3.250   2.519
 6895SOL     OW21504   5.112   2.440   1.914
 6895SOL    HW121505   5.062   2.407   1.994
 6895SOL    HW221506   5.210   2.424   1.927
 6896SOL     OW21507   4.257   2.118   2.153
 6896SOL    HW121508   4.312   2.066   2.088
 6896SOL    HW221509   4.224   2.202   2.109
 6897SOL     OW21510   5.475   3.114   3.403
 6897SOL    HW121511   5.561   3.068   3.381
 6897SOL    HW221512   5.494   3.205   3.438
 6898SOL     OW21513   4.762   3.231   3.259
 6898SOL    HW121514   4.677   3.189   3.292
 6898SOL    HW221515   4.840   3.182   3.299
 6899SOL     OW21516   5.347   3.508   3.522
 6899SOL    HW121517   5.322   3.539   3.430
 6899SOL    HW221518   5.429   3.451   3.517
 6900SOL     OW21519   4.842   3.109   3.025
 6900SOL    HW121520   4.816   3.147   3.113
 6900SOL    HW221521   4.761   3.076   2.977
 6901SOL     OW21522   5.304   2.952   2.980
 6901SOL    HW121523   5.334   3.026   3.041
 6901SOL    HW221524   5.206   2.936   2.993
 6902SOL     OW21525   4.659   1.908   3.239
 6902SOL    HW121526   4.669   1.900   3.140
 6902SOL    HW221527   4.743   1.946   3.278
 6903SOL     OW21528   4.700   3.039   3.565
 6903SOL    HW121529   4.613   3.048   3.613
 6903SOL    HW221530   4.699   2.956   3.510
 6904SOL     OW21531   4.424   2.955   2.184
 6904SOL    HW121532   4.335   2.931   2.223
 6904SOL    HW221533   4.490   2.883   2.204
 6905SOL     OW21534   4.987   2.175   3.141
 6905SOL    HW121535   5.025   2.267   3.132
 6905SOL    HW221536   4.891   2.176   3.112
 6906SOL     OW21537   3.788   3.460   3.251
 6906SOL    HW121538   3.730   3.510   3.185
 6906SOL    HW221539   3.883   3.489   3.240
 6907SOL     OW21540   4.148   2.927   2.212
 6907SOL    HW121541   4.105   3.015   2.195
 6907SOL    HW221542   4.095   2.855   2.169
 6908SOL     OW21543   4.332   2.299   2.691
 6908SOL    HW121544   4.332   2.362   2.613
 6908SOL    HW221545   4.423   2.296   2.732
 6909SOL     OW21546   5.022   3.315   2.991
 6909SOL    HW121547   5.074   3.327   3.076
 6909SOL    HW221548   4.957   3.240   3.001
 6910SOL     OW21549   5.297   2.531   2.293
 6910SOL    HW121550   5.227   2.572   2.235
 6910SOL    HW221551   5.385   2.575   2.276
 6911SOL     OW21552   4.089   3.367   3.164
 6911SOL    HW121553   4.073   3.307   3.085
 6911SOL    HW221554   4.186   3.389   3.170
 6912SOL     OW21555   5.343   2.664   3.565
 6912SOL    HW121556   5.258   2.717   3.563
 6912SOL    HW221557   5.401   2.692   3.488
 6913SOL     OW21558   4.755   1.950   3.672
 6913SOL    HW121559   4.824   2.015   3.641
 6913SOL    HW221560   4.781   1.858   3.644
 6914SOL     OW21561   4.204   1.871   3.627
 6914SOL    HW121562   4.160   1.816   3.557
 6914SOL    HW221563   4.146   1.950   3.649
 6915SOL     OW21564   4.932   2.379   2.118
 6915SOL    HW121565   4.951   2.300   2.176
 6915SOL    HW221566   4.874   2.444   2.167
 6916SOL     OW21567   4.020   2.064   3.081
 6916SOL    HW121568   4.071   2.095   3.161
 6916SOL    HW221569   3.988   1.970   3.096
 6917SOL     OW21570   3.806   3.197   3.187
 6917SOL    HW121571   3.815   3.139   3.267
 6917SOL    HW221572   3.797   3.293   3.216
 6918SOL     OW21573   5.483   2.845   3.723
 6918SOL    HW121574   5.440   2.769   3.673
 6918SOL    HW221575   5.425   2.871   3.800
 6919SOL     OW21576   4.055   1.905   2.501
 6919SOL    HW121577   4.014   1.996   2.507
 6919SOL    HW221578   4.063   1.866   2.592
 6920SOL     OW21579   5.347   2.262   2.206
 6920SOL    HW121580   5.385   2.194   2.270
 6920SOL    HW221581   5.313   2.340   2.257
 6921SOL     OW21582   4.738   3.459   3.615
 6921SOL    HW121583   4.692   3.503   3.538
 6921SOL    HW221584   4.778   3.373   3.584
 6922SOL     OW21585   5.574   3.365   3.459
 6922SOL    HW121586   5.594   3.392   3.364
 6922SOL    HW221587   5.657   3.374   3.514
 6923SOL     OW21588   4.110   2.817   3.666
 6923SOL    HW121589   4.195   2.836   3.715
 6923SOL    HW221590   4.132   2.779   3.576
 6924SOL     OW21591   5.245   2.125   1.983
 6924SOL    HW121592   5.194   2.046   2.017
 6924SOL    HW221593   5.282   2.177   2.060
 6925SOL     OW21594   5.001   2.688   1.884
 6925SOL    HW121595   5.035   2.594   1.888
 6925SOL    HW221596   5.032   2.731   1.800
 6926SOL     OW21597   4.055   2.361   2.686
 6926SOL    HW121598   4.010   2.310   2.760
 6926SOL    HW221599   4.154   2.350   2.694
 6927SOL     OW21600   4.948   2.117   3.571
 6927SOL    HW121601   4.931   2.215   3.581
 6927SOL    HW221602   5.046   2.100   3.581
 6928SOL     OW21603   4.902   1.995   3.333
 6928SOL    HW121604   4.910   2.043   3.420
 6928SOL    HW221605   4.939   2.052   3.260
 6929SOL     OW21606   3.742   3.144   2.051
 6929SOL    HW121607   3.650   3.171   2.024
 6929SOL    HW221608   3.742   3.048   2.081
 6930SOL     OW21609   3.778   3.644   2.839
 6930SOL    HW121610   3.765   3.547   2.819
 6930SOL    HW221611   3.875   3.666   2.835
 6931SOL     OW21612   4.233   3.446   2.821
 6931SOL    HW121613   4.307   3.503   2.858
 6931SOL    HW221614   4.262   3.406   2.734
 6932SOL     OW21615   5.126   2.829   3.530
 6932SOL    HW121616   5.140   2.927   3.542
 6932SOL    HW221617   5.135   2.805   3.434
 6933SOL     OW21618   4.510   2.419   2.198
 6933SOL    HW121619   4.524   2.337   2.143
 6933SOL    HW221620   4.436   2.474   2.159
 6934SOL     OW21621   5.371   2.453   3.027
 6934SOL    HW121622   5.376   2.387   3.102
 6934SOL    HW221623   5.460   2.461   2.983
 6935SOL     OW21624   3.967   3.381   3.593
 6935SOL    HW121625   3.926   3.423   3.674
 6935SOL    HW221626   3.981   3.283   3.609
 6936SOL     OW21627   4.464   2.171   3.096
 6936SOL    HW121628   4.404   2.097   3.066
 6936SOL    HW221629   4.409   2.240   3.144
 6937SOL     OW21630   4.615   3.561   3.387
 6937SOL    HW121631   4.604   3.504   3.306
 6937SOL    HW221632   4.631   3.656   3.359
 6938SOL     OW21633   4.164   2.341   2.017
 6938SOL    HW121634   4.234   2.412   2.030
 6938SOL    HW221635   4.073   2.381   2.029
 6939SOL     OW21636   3.854   3.016   3.390
 6939SOL    HW121637   3.853   2.960   3.473
 6939SOL    HW221638   3.885   2.961   3.313
 6940SOL     OW21639   5.037   2.926   3.082
 6940SOL    HW121640   4.995   2.837   3.062
 6940SOL    HW221641   4.974   2.999   3.055
 6941SOL     OW21642   5.112   2.680   2.147
 6941SOL    HW121643   5.054   2.683   2.228
 6941SOL    HW221644   5.055   2.679   2.065
 6942SOL     OW21645   5.498   3.585   3.013
 6942SOL    HW121646   5.564   3.613   2.944
 6942SOL    HW221647   5.468   3.492   2.995
 6943SOL     OW21648   4.966   3.576   2.932
 6943SOL    HW121649   5.053   3.621   2.914
 6943SOL    HW221650   4.982   3.479   2.954
 6944SOL     OW21651   3.819   3.126   2.933
 6944SOL    HW121652   3.819   3.154   3.029
 6944SOL    HW221653   3.737   3.071   2.915
 6945SOL     OW21654   4.426   3.563   3.586
 6945SOL    HW121655   4.350   3.627   3.576
 6945SOL    HW221656   4.493   3.580   3.514
 6946SOL     OW21657   5.489   2.062   2.341
 6946SOL    HW121658   5.541   2.043   2.258
 6946SOL    HW221659   5.447   1.978   2.374
 6947SOL     OW21660   3.847   3.709   3.685
 6947SOL    HW121661   3.817   3.618   3.712
 6947SOL    HW221662   3.897   3.752   3.760
 6948SOL     OW21663   5.024   2.704   2.412
 6948SOL    HW121664   5.101   2.670   2.466
 6948SOL    HW221665   5.018   2.803   2.422
 6949SOL     OW21666   4.496   3.150   3.292
 6949SOL    HW121667   4.470   3.208   3.369
 6949SOL    HW221668   4.421   3.146   3.226
 6950SOL     OW21669   4.394   3.467   1.968
 6950SOL    HW121670   4.401   3.489   1.871
 6950SOL    HW221671   4.342   3.382   1.979
 6951SOL     OW21672   5.336   3.585   3.244
 6951SOL    HW121673   5.397   3.580   3.164
 6951SOL    HW221674   5.328   3.680   3.274
 6952SOL     OW21675   5.573   2.012   2.834
 6952SOL    HW121676   5.606   1.920   2.812
 6952SOL    HW221677   5.486   2.029   2.788
 6953SOL     OW21678   3.954   2.154   2.528
 6953SOL    HW121679   3.860   2.184   2.509
 6953SOL    HW221680   3.992   2.208   2.603
 6954SOL     OW21681   4.940   3.422   1.902
 6954SOL    HW121682   4.926   3.330   1.939
 6954SOL    HW221683   4.869   3.441   1.834
 6955SOL     OW21684   4.617   2.925   3.202
 6955SOL    HW121685   4.610   2.940   3.103
 6955SOL    HW221686   4.570   2.999   3.250
 6956SOL     OW21687   4.640   2.781   2.189
 6956SOL    HW121688   4.690   2.813   2.109
 6956SOL    HW221689   4.680   2.695   2.221
 6957SOL     OW21690   5.213   3.493   1.913
 6957SOL    HW121691   5.118   3.465   1.901
 6957SOL    HW221692   5.258   3.500   1.824
 6958SOL     OW21693   4.102   3.148   3.334
 6958SOL    HW121694   4.088   3.230   3.278
 6958SOL    HW221695   4.014   3.106   3.354
 6959SOL     OW21696   5.332   3.154   3.167
 6959SOL    HW121697   5.385   3.132   3.249
 6959SOL    HW221698   5.264   3.224   3.189
 6960SOL     OW21699   4.755   2.062   2.790
 6960SOL    HW121700   4.752   2.016   2.701
 6960SOL    HW221701   4.747   1.994   2.863
 6961SOL     OW21702   5.466   2.267   3.240
 6961SOL    HW121703   5.546   2.327   3.243
 6961SOL    HW221704   5.488   2.186   3.185
 6962SOL     OW21705   4.014   3.171   2.145
 6962SOL    HW121706   3.919   3.161   2.114
 6962SOL    HW221707   4.023   3.256   2.197
 6963SOL     OW21708   3.840   2.885   3.625
 6963SOL    HW121709   3.761   2.858   3.680
 6963SOL    HW221710   3.920   2.834   3.656
 6964SOL     OW21711   4.425   2.012   3.372
 6964SOL    HW121712   4.507   1.998   3.318
 6964SOL    HW221713   4.450   2.035   3.466
 6965SOL     OW21714   3.808   2.181   1.855
 6965SOL    HW121715   3.725   2.162   1.803
 6965SOL    HW221716   3.841   2.273   1.833
 6966SOL     OW21717   5.191   2.798   3.269
 6966SOL    HW121718   5.139   2.853   3.203
 6966SOL    HW221719   5.272   2.761   3.224
 6967SOL     OW21720   3.766   1.999   2.100
 6967SOL    HW121721   3.747   2.072   2.034
 6967SOL    HW221722   3.861   1.968   2.089
 6968SOL     OW21723   4.880   3.153   1.972
 6968SOL    HW121724   4.792   3.166   1.926
 6968SOL    HW221725   4.868   3.093   2.051
 6969SOL     OW21726   5.226   3.671   2.894
 6969SOL    HW121727   5.252   3.739   2.826
 6969SOL    HW221728   5.307   3.634   2.938
 6970SOL     OW21729   5.204   3.096   3.500
 6970SOL    HW121730   5.197   3.107   3.599
 6970SOL    HW221731   5.300   3.101   3.472
 6971SOL     OW21732   4.046   3.583   3.428
 6971SOL    HW121733   3.960   3.632   3.412
 6971SOL    HW221734   4.028   3.500   3.479
 6972SOL     OW21735   5.408   2.722   3.117
 6972SOL    HW121736   5.398   2.631   3.077
 6972SOL    HW221737   5.391   2.792   3.048
 6973SOL     OW21738   4.966   2.174   2.305
 6973SOL    HW121739   5.019   2.090   2.300
 6973SOL    HW221740   4.993   2.225   2.387
 6974SOL     OW21741   4.345   2.496   2.497
 6974SOL    HW121742   4.396   2.582   2.506
 6974SOL    HW221743   4.270   2.509   2.432
 6975SOL     OW21744   5.439   2.216   3.517
 6975SOL    HW121745   5.442   2.235   3.419
 6975SOL    HW221746   5.361   2.156   3.537
 6976SOL     OW21747   5.502   2.774   3.371
 6976SOL    HW121748   5.485   2.871   3.390
 6976SOL    HW221749   5.479   2.754   3.276
 6977SOL     OW21750   4.618   3.217   1.885
 6977SOL    HW121751   4.585   3.221   1.980
 6977SOL    HW221752   4.624   3.309   1.848
 6978SOL     OW21753   4.431   3.623   2.886
 6978SOL    HW121754   4.394   3.698   2.942
 6978SOL    HW221755   4.530   3.633   2.879
 6979SOL     OW21756   4.784   2.841   1.961
 6979SOL    HW121757   4.760   2.898   1.881
 6979SOL    HW221758   4.861   2.782   1.938
 6980SOL     OW21759   5.610   3.381   2.711
 6980SOL    HW121760   5.516   3.381   2.677
 6980SOL    HW221761   5.627   3.295   2.759
 6981SOL     OW21762   3.973   3.120   3.685
 6981SOL    HW121763   3.917   3.040   3.664
 6981SOL    HW221764   3.970   3.138   3.783
 6982SOL     OW21765   4.414   3.311   3.490
 6982SOL    HW121766   4.328   3.269   3.522
 6982SOL    HW221767   4.421   3.404   3.525
 6983SOL     OW21768   5.525   2.044   3.102
 6983SOL    HW121769   5.531   1.950   3.136
 6983SOL    HW221770   5.543   2.045   3.004
 6984SOL     OW21771   4.127   2.274   2.346
 6984SOL    HW121772   4.176   2.206   2.292
 6984SOL    HW221773   4.066   2.228   2.411
 6985SOL     OW21774   5.406   3.337   2.969
 6985SOL    HW121775   5.339   3.312   2.900
 6985SOL    HW221776   5.406   3.270   3.043
 6986SOL     OW21777   5.157   2.072   2.958
 6986SOL    HW121778   5.173   1.974   2.966
 6986SOL    HW221779   5.099   2.102   3.034
 6987SOL     OW21780   4.744   1.845   2.966
 6987SOL    HW121781   4.684   1.777   2.923
 6987SOL    HW221782   4.839   1.811   2.964
 6988SOL     OW21783   4.541   3.196   2.139
 6988SOL    HW121784   4.498   3.106   2.146
 6988SOL    HW221785   4.520   3.249   2.222
 6989SOL     OW21786   4.354   3.428   3.162
 6989SOL    HW121787   4.331   3.510   3.215
 6989SOL    HW221788   4.452   3.428   3.142
 6990SOL     OW21789   5.111   1.891   2.045
 6990SOL    HW121790   5.158   1.817   1.995
 6990SOL    HW221791   5.016   1.865   2.059
 6991SOL     OW21792   5.047   2.306   2.531
 6991SOL    HW121793   4.982   2.380   2.519
 6991SOL    HW221794   5.030   2.260   2.619
 6992SOL     OW21795   5.325   2.065   2.741
 6992SOL    HW121796   5.264   2.082   2.818
 6992SOL    HW221797   5.324   2.144   2.679
 6993SOL     OW21798   3.766   2.872   2.164
 6993SOL    HW121799   3.850   2.861   2.112
 6993SOL    HW221800   3.746   2.788   2.215
 6994SOL     OW21801   4.576   3.641   2.068
 6994SOL    HW121802   4.520   3.567   2.031
 6994SOL    HW221803   4.604   3.618   2.162
 6995SOL     OW21804   3.947   2.133   4.716
 6995SOL    HW121805   3.979   2.100   4.805
 6995SOL    HW221806   3.854   2.102   4.701
 6996SOL     OW21807   3.644   2.262   4.333
 6996SOL    HW121808   3.558   2.271   4.383
 6996SOL    HW221809   3.654   2.168   4.300
 6997SOL     OW21810   4.362   3.182   4.943
 6997SOL    HW121811   4.269   3.156   4.918
 6997SOL    HW221812   4.366   3.280   4.959
 6998SOL     OW21813   4.937   2.538   4.466
 6998SOL    HW121814   4.927   2.599   4.388
 6998SOL    HW221815   4.876   2.567   4.539
 6999SOL     OW21816   5.525   2.435   3.931
 6999SOL    HW121817   5.487   2.440   3.839
 6999SOL    HW221818   5.475   2.367   3.985
 7000SOL     OW21819   4.547   3.016   4.817
 7000SOL    HW121820   4.481   3.066   4.873
 7000SOL    HW221821   4.537   3.044   4.721
 7001SOL     OW21822   4.613   2.595   5.564
 7001SOL    HW121823   4.601   2.657   5.642
 7001SOL    HW221824   4.633   2.648   5.482
 7002SOL     OW21825   4.437   3.016   5.564
 7002SOL    HW121826   4.496   3.086   5.605
 7002SOL    HW221827   4.355   3.060   5.526
 7003SOL     OW21828   4.097   3.177   4.858
 7003SOL    HW121829   4.063   3.083   4.850
 7003SOL    HW221830   4.089   3.223   4.769
 7004SOL     OW21831   5.174   3.373   5.100
 7004SOL    HW121832   5.233   3.453   5.110
 7004SOL    HW221833   5.101   3.377   5.168
 7005SOL     OW21834   4.197   2.234   5.178
 7005SOL    HW121835   4.276   2.174   5.191
 7005SOL    HW221836   4.114   2.185   5.205
 7006SOL     OW21837   5.319   2.286   4.470
 7006SOL    HW121838   5.230   2.267   4.429
 7006SOL    HW221839   5.329   2.385   4.483
 7007SOL     OW21840   3.949   3.609   4.161
 7007SOL    HW121841   3.958   3.702   4.198
 7007SOL    HW221842   4.027   3.590   4.101
 7008SOL     OW21843   4.861   3.197   5.434
 7008SOL    HW121844   4.908   3.189   5.522
 7008SOL    HW221845   4.802   3.118   5.420
 7009SOL     OW21846   3.926   3.340   4.176
 7009SOL    HW121847   3.926   3.440   4.180
 7009SOL    HW221848   3.927   3.303   4.268
 7010SOL     OW21849   3.996   2.939   4.782
 7010SOL    HW121850   4.023   2.850   4.746
 7010SOL    HW221851   3.897   2.943   4.789
 7011SOL     OW21852   4.285   3.688   5.131
 7011SOL    HW121853   4.207   3.659   5.186
 7011SOL    HW221854   4.329   3.767   5.175
 7012SOL     OW21855   4.335   2.874   3.801
 7012SOL    HW121856   4.369   2.966   3.778
 7012SOL    HW221857   4.406   2.807   3.780
 7013SOL     OW21858   5.310   1.995   5.186
 7013SOL    HW121859   5.350   2.075   5.141
 7013SOL    HW221860   5.271   2.022   5.274
 7014SOL     OW21861   3.856   2.396   4.431
 7014SOL    HW121862   3.778   2.351   4.389
 7014SOL    HW221863   3.824   2.469   4.491
 7015SOL     OW21864   5.594   3.614   4.041
 7015SOL    HW121865   5.670   3.600   4.105
 7015SOL    HW221866   5.597   3.708   4.007
 7016SOL     OW21867   3.788   3.465   3.781
 7016SOL    HW121868   3.749   3.374   3.794
 7016SOL    HW221869   3.772   3.520   3.862
 7017SOL     OW21870   5.418   2.801   4.404
 7017SOL    HW121871   5.508   2.758   4.400
 7017SOL    HW221872   5.398   2.845   4.317
 7018SOL     OW21873   5.391   2.945   4.164
 7018SOL    HW121874   5.478   2.937   4.117
 7018SOL    HW221875   5.393   3.024   4.226
 7019SOL     OW21876   3.850   2.613   5.301
 7019SOL    HW121877   3.940   2.656   5.292
 7019SOL    HW221878   3.779   2.680   5.281
 7020SOL     OW21879   5.005   3.072   5.155
 7020SOL    HW121880   5.033   3.011   5.081
 7020SOL    HW221881   5.071   3.068   5.229
 7021SOL     OW21882   4.533   1.849   4.236
 7021SOL    HW121883   4.585   1.932   4.217
 7021SOL    HW221884   4.435   1.871   4.238
 7022SOL     OW21885   3.920   2.810   5.049
 7022SOL    HW121886   4.009   2.771   5.025
 7022SOL    HW221887   3.867   2.826   4.966
 7023SOL     OW21888   5.274   2.878   3.921
 7023SOL    HW121889   5.227   2.790   3.927
 7023SOL    HW221890   5.306   2.905   4.011
 7024SOL     OW21891   4.908   3.674   5.363
 7024SOL    HW121892   4.914   3.745   5.292
 7024SOL    HW221893   4.926   3.585   5.321
 7025SOL     OW21894   4.079   2.120   5.607
 7025SOL    HW121895   4.118   2.202   5.649
 7025SOL    HW221896   3.981   2.132   5.594
 7026SOL     OW21897   5.352   3.699   4.253
 7026SOL    HW121898   5.344   3.642   4.172
 7026SOL    HW221899   5.353   3.641   4.335
 7027SOL     OW21900   5.017   2.235   4.689
 7027SOL    HW121901   4.925   2.196   4.688
 7027SOL    HW221902   5.074   2.183   4.753
 7028SOL     OW21903   5.333   3.544   4.026
 7028SOL    HW121904   5.432   3.559   4.025
 7028SOL    HW221905   5.300   3.532   3.932
 7029SOL     OW21906   4.519   2.456   5.153
 7029SOL    HW121907   4.496   2.426   5.245
 7029SOL    HW221908   4.489   2.387   5.087
 7030SOL     OW21909   5.116   2.330   5.399
 7030SOL    HW121910   5.119   2.379   5.486
 7030SOL    HW221911   5.159   2.241   5.409
 7031SOL     OW21912   4.673   2.733   5.327
 7031SOL    HW121913   4.730   2.662   5.286
 7031SOL    HW221914   4.622   2.781   5.256
 7032SOL     OW21915   4.730   2.251   4.922
 7032SOL    HW121916   4.634   2.268   4.943
 7032SOL    HW221917   4.738   2.203   4.835
 7033SOL     OW21918   3.773   2.599   4.605
 7033SOL    HW121919   3.866   2.624   4.631
 7033SOL    HW221920   3.728   2.678   4.562
 7034SOL     OW21921   3.836   3.756   5.336
 7034SOL    HW121922   3.847   3.717   5.428
 7034SOL    HW221923   3.744   3.736   5.302
 7035SOL     OW21924   4.651   2.069   3.916
 7035SOL    HW121925   4.635   2.156   3.869
 7035SOL    HW221926   4.702   2.007   3.856
 7036SOL     OW21927   5.397   2.421   5.559
 7036SOL    HW121928   5.380   2.504   5.507
 7036SOL    HW221929   5.421   2.346   5.497
 7037SOL     OW21930   4.275   2.017   4.658
 7037SOL    HW121931   4.284   2.030   4.757
 7037SOL    HW221932   4.274   2.106   4.612
 7038SOL     OW21933   4.719   3.319   4.170
 7038SOL    HW121934   4.688   3.390   4.107
 7038SOL    HW221935   4.702   3.349   4.264
 7039SOL     OW21936   5.493   2.916   4.644
 7039SOL    HW121937   5.453   2.889   4.557
 7039SOL    HW221938   5.419   2.928   4.712
 7040SOL     OW21939   4.944   3.399   5.254
 7040SOL    HW121940   4.937   3.332   5.329
 7040SOL    HW221941   4.885   3.371   5.179
 7041SOL     OW21942   4.023   2.921   3.907
 7041SOL    HW121943   4.102   2.935   3.966
 7041SOL    HW221944   4.052   2.879   3.821
 7042SOL     OW21945   5.295   2.560   4.472
 7042SOL    HW121946   5.234   2.550   4.550
 7042SOL    HW221947   5.323   2.656   4.463
 7043SOL     OW21948   4.197   3.147   5.484
 7043SOL    HW121949   4.180   3.143   5.386
 7043SOL    HW221950   4.110   3.138   5.533
 7044SOL     OW21951   4.857   3.636   3.956
 7044SOL    HW121952   4.767   3.601   3.983
 7044SOL    HW221953   4.899   3.572   3.891
 7045SOL     OW21954   3.944   2.125   5.221
 7045SOL    HW121955   3.878   2.200   5.212
 7045SOL    HW221956   3.900   2.047   5.265
 7046SOL     OW21957   5.370   3.258   3.823
 7046SOL    HW121958   5.337   3.350   3.802
 7046SOL    HW221959   5.297   3.192   3.806
 7047SOL     OW21960   4.171   3.578   3.996
 7047SOL    HW121961   4.217   3.639   4.060
 7047SOL    HW221962   4.239   3.530   3.941
 7048SOL     OW21963   5.128   1.940   4.177
 7048SOL    HW121964   5.128   1.925   4.078
 7048SOL    HW221965   5.219   1.916   4.214
 7049SOL     OW21966   3.998   3.625   4.934
 7049SOL    HW121967   4.038   3.545   4.979
 7049SOL    HW221968   4.033   3.631   4.840
 7050SOL     OW21969   5.213   2.070   5.443
 7050SOL    HW121970   5.231   2.090   5.539
 7050SOL    HW221971   5.141   2.001   5.436
 7051SOL     OW21972   4.347   1.956   3.849
 7051SOL    HW121973   4.416   1.890   3.879
 7051SOL    HW221974   4.298   1.918   3.770
 7052SOL     OW21975   4.490   2.125   5.483
 7052SOL    HW121976   4.578   2.079   5.479
 7052SOL    HW221977   4.432   2.082   5.553
 7053SOL     OW21978   4.639   3.425   5.007
 7053SOL    HW121979   4.695   3.462   4.934
 7053SOL    HW221980   4.682   3.343   5.045
 7054SOL     OW21981   5.054   2.446   5.159
 7054SOL    HW121982   5.088   2.414   5.247
 7054SOL    HW221983   5.087   2.539   5.142
 7055SOL     OW21984   4.670   2.354   4.595
 7055SOL    HW121985   4.634   2.341   4.503
 7055SOL    HW221986   4.707   2.267   4.629
 7056SOL     OW21987   4.272   1.924   4.211
 7056SOL    HW121988   4.193   1.926   4.272
 7056SOL    HW221989   4.276   2.008   4.159
 7057SOL     OW21990   5.165   3.083   3.772
 7057SOL    HW121991   5.198   3.005   3.824
 7057SOL    HW221992   5.074   3.109   3.804
 7058SOL     OW21993   4.027   1.895   3.918
 7058SOL    HW121994   4.077   1.964   3.866
 7058SOL    HW221995   4.092   1.832   3.961
 7059SOL     OW21996   4.672   2.080   4.191
 7059SOL    HW121997   4.659   2.080   4.091
 7059SOL    HW221998   4.768   2.098   4.212
 7060SOL     OW21999   4.796   2.539   5.184
 7060SOL    HW122000   4.721   2.473   5.180
 7060SOL    HW222001   4.883   2.491   5.177
 7061SOL     OW22002   3.845   2.394   5.134
 7061SOL    HW122003   3.933   2.401   5.089
 7061SOL    HW222004   3.831   2.474   5.193
 7062SOL     OW22005   4.292   2.061   4.927
 7062SOL    HW122006   4.330   1.989   4.986
 7062SOL    HW222007   4.194   2.068   4.942
 7063SOL     OW22008   4.554   2.284   4.356
 7063SOL    HW122009   4.456   2.283   4.339
 7063SOL    HW222010   4.600   2.222   4.293
 7064SOL     OW22011   4.759   1.934   4.467
 7064SOL    HW122012   4.705   1.962   4.387
 7064SOL    HW222013   4.714   1.857   4.511
 7065SOL     OW22014   5.168   2.482   4.709
 7065SOL    HW122015   5.111   2.400   4.699
 7065SOL    HW222016   5.239   2.465   4.777
 7066SOL     OW22017   5.557   2.647   4.100
 7066SOL    HW122018   5.617   2.610   4.171
 7066SOL    HW222019   5.544   2.579   4.028
 7067SOL     OW22020   4.215   3.285   3.838
 7067SOL    HW122021   4.124   3.273   3.878
 7067SOL    HW222022   4.223   3.230   3.755
 7068SOL     OW22023   5.440   3.141   4.346
 7068SOL    HW122024   5.537   3.137   4.372
 7068SOL    HW222025   5.407   3.236   4.355
 7069SOL     OW22026   4.286   2.144   4.047
 7069SOL    HW122027   4.314   2.080   3.976
 7069SOL    HW222028   4.266   2.233   4.006
 7070SOL     OW22029   5.470   3.103   5.259
 7070SOL    HW122030   5.559   3.063   5.238
 7070SOL    HW222031   5.483   3.194   5.301
 7071SOL     OW22032   4.771   3.212   5.117
 7071SOL    HW122033   4.688   3.174   5.158
 7071SOL    HW222034   4.850   3.160   5.149
 7072SOL     OW22035   5.342   3.507   5.400
 7072SOL    HW122036   5.323   3.543   5.308
 7072SOL    HW222037   5.421   3.446   5.395
 7073SOL     OW22038   4.813   3.066   4.887
 7073SOL    HW122039   4.804   3.128   4.965
 7073SOL    HW222040   4.722   3.042   4.852
 7074SOL     OW22041   5.293   2.961   4.835
 7074SOL    HW122042   5.322   3.033   4.898
 7074SOL    HW222043   5.198   2.937   4.853
 7075SOL     OW22044   4.651   1.934   5.111
 7075SOL    HW122045   4.670   1.913   5.015
 7075SOL    HW222046   4.730   1.979   5.152
 7076SOL     OW22047   4.693   2.980   5.439
 7076SOL    HW122048   4.600   2.997   5.473
 7076SOL    HW222049   4.696   2.891   5.394
 7077SOL     OW22050   4.162   2.684   4.990
 7077SOL    HW122051   4.235   2.694   5.058
 7077SOL    HW222052   4.128   2.590   4.993
 7078SOL     OW22053   4.982   2.223   5.022
 7078SOL    HW122054   5.014   2.307   5.066
 7078SOL    HW222055   4.891   2.239   4.983
 7079SOL     OW22056   3.827   3.436   5.112
 7079SOL    HW122057   3.793   3.511   5.055
 7079SOL    HW222058   3.927   3.432   5.107
 7080SOL     OW22059   4.289   2.301   4.596
 7080SOL    HW122060   4.295   2.302   4.497
 7080SOL    HW222061   4.353   2.368   4.634
 7081SOL     OW22062   4.966   3.219   4.102
 7081SOL    HW122063   5.034   3.285   4.134
 7081SOL    HW222064   4.876   3.244   4.138
 7082SOL     OW22065   4.978   3.368   4.905
 7082SOL    HW122066   5.050   3.356   4.973
 7082SOL    HW222067   4.969   3.284   4.851
 7083SOL     OW22068   5.351   2.488   4.211
 7083SOL    HW122069   5.319   2.510   4.303
 7083SOL    HW222070   5.411   2.561   4.178
 7084SOL     OW22071   4.094   3.382   5.039
 7084SOL    HW122072   4.084   3.304   4.976
 7084SOL    HW222073   4.191   3.407   5.045
 7085SOL     OW22074   4.163   2.615   5.344
 7085SOL    HW122075   4.230   2.654   5.281
 7085SOL    HW222076   4.191   2.523   5.371
 7086SOL     OW22077   5.353   2.650   5.423
 7086SOL    HW122078   5.261   2.688   5.413
 7086SOL    HW222079   5.411   2.684   5.348
 7087SOL     OW22080   4.726   1.993   5.483
 7087SOL    HW122081   4.783   2.075   5.472
 7087SOL    HW222082   4.779   1.912   5.461
 7088SOL     OW22083   4.212   1.903   5.492
 7088SOL    HW122084   4.158   1.850   5.427
 7088SOL    HW222085   4.161   1.986   5.517
 7089SOL     OW22086   4.255   2.763   4.738
 7089SOL    HW122087   4.354   2.761   4.726
 7089SOL    HW222088   4.234   2.745   4.834
 7090SOL     OW22089   5.018   2.708   4.735
 7090SOL    HW122090   4.925   2.681   4.714
 7090SOL    HW222091   5.079   2.629   4.724
 7091SOL     OW22092   4.022   2.044   4.967
 7091SOL    HW122093   3.990   2.078   5.056
 7091SOL    HW222094   3.999   1.947   4.958
 7092SOL     OW22095   3.783   3.181   5.021
 7092SOL    HW122096   3.813   3.115   5.090
 7092SOL    HW222097   3.800   3.274   5.055
 7093SOL     OW22098   4.461   2.472   4.724
 7093SOL    HW122099   4.541   2.433   4.679
 7093SOL    HW222100   4.467   2.572   4.720
 7094SOL     OW22101   5.471   2.841   5.589
 7094SOL    HW122102   5.432   2.763   5.539
 7094SOL    HW222103   5.411   2.864   5.666
 7095SOL     OW22104   4.042   1.931   4.360
 7095SOL    HW122105   4.024   2.028   4.378
 7095SOL    HW222106   4.051   1.882   4.446
 7096SOL     OW22107   5.349   2.261   4.061
 7096SOL    HW122108   5.390   2.187   4.114
 7096SOL    HW222109   5.333   2.339   4.121
 7097SOL     OW22110   4.767   2.596   4.690
 7097SOL    HW122111   4.747   2.604   4.787
 7097SOL    HW222112   4.740   2.505   4.658
 7098SOL     OW22113   4.706   3.420   5.485
 7098SOL    HW122114   4.672   3.477   5.410
 7098SOL    HW222115   4.747   3.337   5.449
 7099SOL     OW22116   5.566   3.356   5.326
 7099SOL    HW122117   5.586   3.383   5.232
 7099SOL    HW222118   5.648   3.366   5.382
 7100SOL     OW22119   4.081   2.786   5.543
 7100SOL    HW122120   4.158   2.803   5.605
 7100SOL    HW222121   4.110   2.722   5.472
 7101SOL     OW22122   5.231   2.132   3.844
 7101SOL    HW122123   5.180   2.053   3.878
 7101SOL    HW222124   5.279   2.175   3.920
 7102SOL     OW22125   4.023   2.644   4.685
 7102SOL    HW122126   4.112   2.689   4.687
 7102SOL    HW222127   4.035   2.546   4.703
 7103SOL     OW22128   4.067   2.376   4.738
 7103SOL    HW122129   4.004   2.298   4.730
 7103SOL    HW222130   4.150   2.357   4.684
 7104SOL     OW22131   4.862   2.226   5.423
 7104SOL    HW122132   4.812   2.277   5.494
 7104SOL    HW222133   4.951   2.269   5.407
 7105SOL     OW22134   4.881   2.051   5.209
 7105SOL    HW122135   4.865   2.112   5.287
 7105SOL    HW222136   4.925   2.101   5.135
 7106SOL     OW22137   3.702   3.217   3.830
 7106SOL    HW122138   3.606   3.227   3.801
 7106SOL    HW222139   3.715   3.126   3.869
 7107SOL     OW22140   4.688   2.631   4.949
 7107SOL    HW122141   4.745   2.614   5.029
 7107SOL    HW222142   4.596   2.594   4.965
 7108SOL     OW22143   3.738   2.425   4.838
 7108SOL    HW122144   3.765   2.470   4.753
 7108SOL    HW222145   3.815   2.425   4.902
 7109SOL     OW22146   3.920   2.408   5.471
 7109SOL    HW122147   3.984   2.356   5.414
 7109SOL    HW222148   3.884   2.486   5.419
 7110SOL     OW22149   5.118   2.780   5.366
 7110SOL    HW122150   5.141   2.878   5.367
 7110SOL    HW222151   5.105   2.750   5.272
 7111SOL     OW22152   5.371   2.456   4.897
 7111SOL    HW122153   5.360   2.384   4.965
 7111SOL    HW222154   5.466   2.458   4.865
 7112SOL     OW22155   3.972   3.402   5.441
 7112SOL    HW122156   3.949   3.474   5.506
 7112SOL    HW222157   3.971   3.313   5.487
 7113SOL     OW22158   4.455   2.292   4.941
 7113SOL    HW122159   4.393   2.213   4.936
 7113SOL    HW222160   4.439   2.353   4.863
 7114SOL     OW22161   4.600   3.565   5.258
 7114SOL    HW122162   4.604   3.503   5.179
 7114SOL    HW222163   4.620   3.658   5.228
 7115SOL     OW22164   3.861   3.005   5.222
 7115SOL    HW122165   3.861   2.971   5.316
 7115SOL    HW222166   3.883   2.930   5.160
 7116SOL     OW22167   5.032   2.906   4.913
 7116SOL    HW122168   5.026   2.831   4.846
 7116SOL    HW222169   4.954   2.968   4.901
 7117SOL     OW22170   5.484   3.576   4.881
 7117SOL    HW122171   5.558   3.601   4.817
 7117SOL    HW222172   5.452   3.484   4.858
 7118SOL     OW22173   4.992   3.642   4.879
 7118SOL    HW122174   5.083   3.661   4.842
 7118SOL    HW222175   4.979   3.544   4.889
 7119SOL     OW22176   3.736   2.969   4.846
 7119SOL    HW122177   3.752   3.051   4.901
 7119SOL    HW222178   3.637   2.956   4.833
 7120SOL     OW22179   4.412   3.565   5.464
 7120SOL    HW122180   4.345   3.639   5.459
 7120SOL    HW222181   4.480   3.576   5.391
 7121SOL     OW22182   5.489   2.059   4.190
 7121SOL    HW122183   5.543   2.037   4.108
 7121SOL    HW222184   5.450   1.975   4.227
 7122SOL     OW22185   5.123   3.436   4.166
 7122SOL    HW122186   5.202   3.465   4.113
 7122SOL    HW222187   5.058   3.511   4.173
 7123SOL     OW22188   3.879   3.633   5.574
 7123SOL    HW122189   3.823   3.563   5.618
 7123SOL    HW222190   3.928   3.685   5.644
 7124SOL     OW22191   4.511   3.140   5.174
 7124SOL    HW122192   4.478   3.193   5.252
 7124SOL    HW222193   4.448   3.152   5.097
 7125SOL     OW22194   4.401   3.478   3.842
 7125SOL    HW122195   4.417   3.503   3.746
 7125SOL    HW222196   4.341   3.398   3.845
 7126SOL     OW22197   5.339   3.594   5.124
 7126SOL    HW122198   5.394   3.588   5.041
 7126SOL    HW222199   5.324   3.690   5.148
 7127SOL     OW22200   5.574   2.012   4.689
 7127SOL    HW122201   5.603   1.919   4.668
 7127SOL    HW222202   5.481   2.027   4.655
 7128SOL     OW22203   4.029   2.190   4.451
 7128SOL    HW122204   3.971   2.269   4.432
 7128SOL    HW222205   4.015   2.161   4.546
 7129SOL     OW22206   4.961   3.459   3.778
 7129SOL    HW122207   4.953   3.364   3.810
 7129SOL    HW222208   4.888   3.477   3.711
 7130SOL     OW22209   4.556   2.875   5.125
 7130SOL    HW122210   4.600   2.870   5.035
 7130SOL    HW222211   4.540   2.971   5.149
 7131SOL     OW22212   5.229   3.516   3.770
 7131SOL    HW122213   5.133   3.489   3.761
 7131SOL    HW222214   5.271   3.521   3.679
 7132SOL     OW22215   4.104   3.157   5.229
 7132SOL    HW122216   4.094   3.241   5.177
 7132SOL    HW222217   4.021   3.101   5.219
 7133SOL     OW22218   5.333   3.162   5.022
 7133SOL    HW122219   5.387   3.133   5.101
 7133SOL    HW222220   5.266   3.230   5.051
 7134SOL     OW22221   4.771   2.099   4.689
 7134SOL    HW122222   4.774   2.058   4.598
 7134SOL    HW222223   4.758   2.027   4.757
 7135SOL     OW22224   4.306   3.357   4.155
 7135SOL    HW122225   4.372   3.300   4.107
 7135SOL    HW222226   4.228   3.376   4.096
 7136SOL     OW22227   5.483   2.236   5.119
 7136SOL    HW122228   5.554   2.306   5.115
 7136SOL    HW222229   5.506   2.162   5.055
 7137SOL     OW22230   3.959   3.243   3.930
 7137SOL    HW122231   3.866   3.243   3.895
 7137SOL    HW222232   3.958   3.273   4.026
 7138SOL     OW22233   3.847   2.911   5.477
 7138SOL    HW122234   3.764   2.882   5.524
 7138SOL    HW222235   3.924   2.856   5.508
 7139SOL     OW22236   4.418   2.051   5.224
 7139SOL    HW122237   4.503   2.021   5.180
 7139SOL    HW222238   4.439   2.085   5.316
 7140SOL     OW22239   3.768   2.120   3.763
 7140SOL    HW122240   3.718   2.092   3.681
 7140SOL    HW222241   3.744   2.214   3.786
 7141SOL     OW22242   5.127   2.711   5.102
 7141SOL    HW122243   5.071   2.769   5.043
 7141SOL    HW222244   5.221   2.710   5.068
 7142SOL     OW22245   3.777   1.971   3.992
 7142SOL    HW122246   3.753   2.027   3.912
 7142SOL    HW222247   3.873   1.943   3.986
 7143SOL     OW22248   4.916   3.192   3.842
 7143SOL    HW122249   4.817   3.192   3.830
 7143SOL    HW222250   4.938   3.189   3.939
 7144SOL     OW22251   4.366   2.684   5.170
 7144SOL    HW122252   4.426   2.763   5.160
 7144SOL    HW222253   4.420   2.600   5.168
 7145SOL     OW22254   5.250   3.709   4.785
 7145SOL    HW122255   5.282   3.779   4.721
 7145SOL    HW222256   5.330   3.664   4.826
 7146SOL     OW22257   4.468   2.397   5.412
 7146SOL    HW122258   4.511   2.459   5.478
 7146SOL    HW222259   4.474   2.303   5.446
 7147SOL     OW22260   5.203   3.042   5.353
 7147SOL    HW122261   5.186   3.064   5.450
 7147SOL    HW222262   5.297   3.066   5.329
 7148SOL     OW22263   4.075   3.618   5.297
 7148SOL    HW122264   3.990   3.670   5.292
 7148SOL    HW222265   4.056   3.527   5.336
 7149SOL     OW22266   5.376   2.723   4.984
 7149SOL    HW122267   5.377   2.632   4.943
 7149SOL    HW222268   5.364   2.792   4.912
 7150SOL     OW22269   4.931   2.120   4.244
 7150SOL    HW122270   5.004   2.060   4.212
 7150SOL    HW222271   4.970   2.191   4.303
 7151SOL     OW22272   5.455   2.204   5.394
 7151SOL    HW122273   5.462   2.219   5.295
 7151SOL    HW222274   5.375   2.147   5.413
 7152SOL     OW22275   5.494   2.777   5.227
 7152SOL    HW122276   5.480   2.873   5.248
 7152SOL    HW222277   5.458   2.757   5.136
 7153SOL     OW22278   4.648   3.268   3.803
 7153SOL    HW122279   4.594   3.277   3.887
 7153SOL    HW222280   4.658   3.357   3.760
 7154SOL     OW22281   4.529   2.752   4.715
 7154SOL    HW122282   4.618   2.715   4.688
 7154SOL    HW222283   4.542   2.839   4.763
 7155SOL     OW22284   4.821   2.873   3.758
 7155SOL    HW122285   4.795   2.947   3.697
 7155SOL    HW222286   4.912   2.839   3.733
 7156SOL     OW22287   5.585   3.366   4.606
 7156SOL    HW122288   5.631   3.282   4.579
 7156SOL    HW222289   5.516   3.346   4.675
 7157SOL     OW22290   3.932   3.154   5.566
 7157SOL    HW122291   3.907   3.068   5.522
 7157SOL    HW222292   3.873   3.170   5.645
 7158SOL     OW22293   4.407   3.296   5.374
 7158SOL    HW122294   4.328   3.252   5.417
 7158SOL    HW222295   4.413   3.391   5.406
 7159SOL     OW22296   5.539   2.026   4.960
 7159SOL    HW122297   5.541   1.929   4.985
 7159SOL    HW222298   5.553   2.036   4.862
 7160SOL     OW22299   4.271   2.252   4.319
 7160SOL    HW122300   4.274   2.218   4.225
 7160SOL    HW222301   4.182   2.232   4.359
 7161SOL     OW22302   5.391   3.328   4.804
 7161SOL    HW122303   5.299   3.322   4.765
 7161SOL    HW222304   5.399   3.265   4.881
 7162SOL     OW22305   4.085   2.419   5.008
 7162SOL    HW122306   4.139   2.355   5.062
 7162SOL    HW222307   4.090   2.395   4.911
 7163SOL     OW22308   5.163   2.090   4.867
 7163SOL    HW122309   5.170   1.992   4.888
 7163SOL    HW222310   5.105   2.135   4.935
 7164SOL     OW22311   4.738   1.870   4.847
 7164SOL    HW122312   4.674   1.812   4.796
 7164SOL    HW222313   4.829   1.829   4.845
 7165SOL     OW22314   4.504   3.202   4.036
 7165SOL    HW122315   4.495   3.103   4.021
 7165SOL    HW222316   4.582   3.219   4.096
 7166SOL     OW22317   4.364   3.453   5.012
 7166SOL    HW122318   4.340   3.541   5.052
 7166SOL    HW222319   4.463   3.444   5.007
 7167SOL     OW22320   5.108   1.893   3.906
 7167SOL    HW122321   5.154   1.817   3.859
 7167SOL    HW222322   5.011   1.870   3.919
 7168SOL     OW22323   5.045   2.291   4.425
 7168SOL    HW122324   5.011   2.385   4.419
 7168SOL    HW222325   5.036   2.259   4.519
 7169SOL     OW22326   5.314   2.063   4.634
 7169SOL    HW122327   5.263   2.090   4.716
 7169SOL    HW222328   5.316   2.139   4.570
 7170SOL     OW22329   3.759   2.981   3.949
 7170SOL    HW122330   3.857   2.959   3.949
 7170SOL    HW222331   3.710   2.917   3.890
 7171SOL     OW22332   4.615   3.509   4.007
 7171SOL    HW122333   4.542   3.489   3.943
 7171SOL    HW222334   4.580   3.569   4.080
 7172SOL     OW22335   3.927   2.481   5.739
 7172SOL    HW122336   3.835   2.462   5.773
 7172SOL    HW222337   3.927   2.473   5.639
 7173SOL     OW22338   3.941   2.162   6.574
 7173SOL    HW122339   3.984   2.124   6.656
 7173SOL    HW222340   3.849   2.124   6.564
 7174SOL     OW22341   3.706   2.279   6.225
 7174SOL    HW122342   3.622   2.303   6.273
 7174SOL    HW222343   3.688   2.202   6.163
 7175SOL     OW22344   4.287   3.136   6.777
 7175SOL    HW122345   4.203   3.155   6.725
 7175SOL    HW222346   4.317   3.220   6.822
 7176SOL     OW22347   5.307   3.376   6.292
 7176SOL    HW122348   5.251   3.345   6.369
 7176SOL    HW222349   5.249   3.391   6.212
 7177SOL     OW22350   4.860   2.570   6.257
 7177SOL    HW122351   4.908   2.658   6.252
 7177SOL    HW222352   4.798   2.569   6.335
 7178SOL     OW22353   5.522   2.430   5.796
 7178SOL    HW122354   5.482   2.434   5.704
 7178SOL    HW222355   5.473   2.362   5.851
 7179SOL     OW22356   4.452   2.987   6.622
 7179SOL    HW122357   4.388   3.018   6.692
 7179SOL    HW222358   4.485   3.065   6.569
 7180SOL     OW22359   4.411   2.847   6.235
 7180SOL    HW122360   4.482   2.842   6.306
 7180SOL    HW222361   4.339   2.910   6.264
 7181SOL     OW22362   4.062   3.241   6.641
 7181SOL    HW122363   3.975   3.203   6.610
 7181SOL    HW222364   4.097   3.305   6.573
 7182SOL     OW22365   5.304   2.310   6.335
 7182SOL    HW122366   5.230   2.317   6.268
 7182SOL    HW222367   5.287   2.375   6.410
 7183SOL     OW22368   3.949   3.596   6.054
 7183SOL    HW122369   3.973   3.668   6.119
 7183SOL    HW222370   4.025   3.581   5.991
 7184SOL     OW22371   3.965   3.325   6.125
 7184SOL    HW122372   3.943   3.422   6.128
 7184SOL    HW222373   3.919   3.278   6.200
 7185SOL     OW22374   4.010   2.950   6.475
 7185SOL    HW122375   4.026   2.855   6.502
 7185SOL    HW222376   3.954   2.995   6.543
 7186SOL     OW22377   4.338   3.675   6.969
 7186SOL    HW122378   4.248   3.651   0.005
 7186SOL    HW222379   4.369   3.760   0.012
 7187SOL     OW22380   4.292   2.850   5.746
 7187SOL    HW122381   4.342   2.893   5.671
 7187SOL    HW222382   4.333   2.876   5.833
 7188SOL     OW22383   3.829   2.531   6.162
 7188SOL    HW122384   3.794   2.439   6.180
 7188SOL    HW222385   3.836   2.582   6.247
 7189SOL     OW22386   5.577   3.610   5.907
 7189SOL    HW122387   5.653   3.597   5.971
 7189SOL    HW222388   5.579   3.704   5.873
 7190SOL     OW22389   3.760   3.432   5.704
 7190SOL    HW122390   3.741   3.336   5.725
 7190SOL    HW222391   3.740   3.488   5.784
 7191SOL     OW22392   5.436   2.789   6.240
 7191SOL    HW122393   5.521   2.739   6.223
 7191SOL    HW222394   5.414   2.846   6.160
 7192SOL     OW22395   5.396   2.973   6.026
 7192SOL    HW122396   5.480   2.954   5.976
 7192SOL    HW222397   5.414   3.042   6.096
 7193SOL     OW22398   4.332   3.262   6.295
 7193SOL    HW122399   4.288   3.172   6.303
 7193SOL    HW222400   4.319   3.297   6.202
 7194SOL     OW22401   4.553   1.883   6.093
 7194SOL    HW122402   4.599   1.967   6.066
 7194SOL    HW222403   4.454   1.899   6.098
 7195SOL     OW22404   3.885   2.835   6.850
 7195SOL    HW122405   3.973   2.792   6.826
 7195SOL    HW222406   3.810   2.779   6.815
 7196SOL     OW22407   5.269   2.890   5.792
 7196SOL    HW122408   5.195   2.827   5.816
 7196SOL    HW222409   5.314   2.922   5.876
 7197SOL     OW22410   5.150   3.284   6.503
 7197SOL    HW122411   5.103   3.294   6.591
 7197SOL    HW222412   5.148   3.188   6.475
 7198SOL     OW22413   5.352   3.696   6.131
 7198SOL    HW122414   5.343   3.633   6.054
 7198SOL    HW222415   5.364   3.644   6.216
 7199SOL     OW22416   4.303   2.566   5.862
 7199SOL    HW122417   4.308   2.656   5.819
 7199SOL    HW222418   4.233   2.567   5.934
 7200SOL     OW22419   5.007   2.265   6.519
 7200SOL    HW122420   4.914   2.227   6.517
 7200SOL    HW222421   5.066   2.207   6.575
 7201SOL     OW22422   5.314   3.534   5.907
 7201SOL    HW122423   5.412   3.550   5.901
 7201SOL    HW222424   5.276   3.523   5.815
 7202SOL     OW22425   4.495   2.513   0.021
 7202SOL    HW122426   4.436   2.536   0.098
 7202SOL    HW222427   4.454   2.438   6.968
 7203SOL     OW22428   4.754   2.312   6.781
 7203SOL    HW122429   4.744   2.345   6.875
 7203SOL    HW222430   4.670   2.264   6.754
 7204SOL     OW22431   4.776   2.558   5.994
 7204SOL    HW122432   4.803   2.559   6.090
 7204SOL    HW222433   4.687   2.512   5.984
 7205SOL     OW22434   3.831   2.688   6.385
 7205SOL    HW122435   3.922   2.684   6.428
 7205SOL    HW222436   3.777   2.760   6.428
 7206SOL     OW22437   3.842   3.710   0.093
 7206SOL    HW122438   3.793   3.623   0.100
 7206SOL    HW222439   3.871   3.724   6.998
 7207SOL     OW22440   4.588   2.211   5.791
 7207SOL    HW122441   4.648   2.260   5.727
 7207SOL    HW222442   4.537   2.140   5.741
 7208SOL     OW22443   5.128   3.026   6.135
 7208SOL    HW122444   5.214   3.012   6.085
 7208SOL    HW222445   5.069   3.088   6.083
 7209SOL     OW22446   4.281   2.003   6.513
 7209SOL    HW122447   4.292   2.034   6.607
 7209SOL    HW222448   4.281   2.082   6.452
 7210SOL     OW22449   4.714   3.328   6.051
 7210SOL    HW122450   4.693   3.403   5.988
 7210SOL    HW222451   4.679   3.351   6.142
 7211SOL     OW22452   4.075   3.672   6.474
 7211SOL    HW122453   4.114   3.580   6.478
 7211SOL    HW222454   4.145   3.739   6.499
 7212SOL     OW22455   5.528   2.900   6.478
 7212SOL    HW122456   5.489   2.882   6.388
 7212SOL    HW222457   5.454   2.903   6.546
 7213SOL     OW22458   4.028   2.808   5.859
 7213SOL    HW122459   4.113   2.833   5.813
 7213SOL    HW222460   4.003   2.715   5.834
 7214SOL     OW22461   5.216   2.634   6.297
 7214SOL    HW122462   5.213   2.587   6.385
 7214SOL    HW222463   5.299   2.689   6.292
 7215SOL     OW22464   4.868   3.634   5.812
 7215SOL    HW122465   4.778   3.611   5.850
 7215SOL    HW222466   4.894   3.565   5.745
 7216SOL     OW22467   5.360   3.250   5.682
 7216SOL    HW122468   5.327   3.344   5.670
 7216SOL    HW222469   5.288   3.186   5.659
 7217SOL     OW22470   4.189   3.603   5.901
 7217SOL    HW122471   4.234   3.657   5.972
 7217SOL    HW222472   4.259   3.565   5.840
 7218SOL     OW22473   5.121   1.958   6.043
 7218SOL    HW122474   5.120   1.936   5.945
 7218SOL    HW222475   5.209   1.933   6.082
 7219SOL     OW22476   3.967   3.666   6.845
 7219SOL    HW122477   4.031   3.622   6.908
 7219SOL    HW222478   3.917   3.596   6.794
 7220SOL     OW22479   4.685   3.552   6.465
 7220SOL    HW122480   4.776   3.510   6.466
 7220SOL    HW222481   4.628   3.507   6.395
 7221SOL     OW22482   4.106   2.540   6.060
 7221SOL    HW122483   4.122   2.442   6.071
 7221SOL    HW222484   4.011   2.560   6.081
 7222SOL     OW22485   4.388   1.968   5.694
 7222SOL    HW122486   4.449   1.893   5.718
 7222SOL    HW222487   4.320   1.937   5.627
 7223SOL     OW22488   4.598   3.336   6.746
 7223SOL    HW122489   4.554   3.317   6.658
 7223SOL    HW222490   4.674   3.273   6.760
 7224SOL     OW22491   4.518   3.227   6.501
 7224SOL    HW122492   4.611   3.229   6.465
 7224SOL    HW222493   4.453   3.242   6.427
 7225SOL     OW22494   4.659   2.380   6.471
 7225SOL    HW122495   4.631   2.369   6.376
 7225SOL    HW222496   4.698   2.295   6.505
 7226SOL     OW22497   4.282   1.926   6.080
 7226SOL    HW122498   4.203   1.925   6.142
 7226SOL    HW222499   4.273   2.003   6.016
 7227SOL     OW22500   5.153   3.076   5.625
 7227SOL    HW122501   5.191   3.002   5.680
 7227SOL    HW222502   5.064   3.102   5.662
 7228SOL     OW22503   4.011   1.906   5.770
 7228SOL    HW122504   4.058   1.982   5.726
 7228SOL    HW222505   4.078   1.847   5.815
 7229SOL     OW22506   4.685   2.116   6.031
 7229SOL    HW122507   4.651   2.151   5.944
 7229SOL    HW222508   4.784   2.132   6.038
 7230SOL     OW22509   4.936   3.443   6.388
 7230SOL    HW122510   4.957   3.513   6.320
 7230SOL    HW222511   5.022   3.406   6.425
 7231SOL     OW22512   4.200   3.020   6.290
 7231SOL    HW122513   4.139   2.997   6.366
 7231SOL    HW222514   4.151   3.014   6.204
 7232SOL     OW22515   4.974   3.650   6.202
 7232SOL    HW122516   5.025   3.714   6.145
 7232SOL    HW222517   4.892   3.695   6.239
 7233SOL     OW22518   4.752   2.365   5.631
 7233SOL    HW122519   4.709   2.453   5.609
 7233SOL    HW222520   4.821   2.379   5.702
 7234SOL     OW22521   4.297   2.062   6.783
 7234SOL    HW122522   4.329   1.977   6.825
 7234SOL    HW222523   4.198   2.071   6.799
 7235SOL     OW22524   4.601   2.324   6.208
 7235SOL    HW122525   4.554   2.381   6.141
 7235SOL    HW222526   4.633   2.240   6.164
 7236SOL     OW22527   4.741   1.907   6.305
 7236SOL    HW122528   4.676   1.906   6.229
 7236SOL    HW222529   4.718   1.835   6.370
 7237SOL     OW22530   5.143   3.013   6.430
 7237SOL    HW122531   5.075   2.942   6.447
 7237SOL    HW222532   5.157   3.023   6.332
 7238SOL     OW22533   5.188   2.489   6.537
 7238SOL    HW122534   5.119   2.417   6.545
 7238SOL    HW222535   5.251   2.484   6.614
 7239SOL     OW22536   5.538   2.643   5.965
 7239SOL    HW122537   5.600   2.607   6.035
 7239SOL    HW222538   5.529   2.577   5.891
 7240SOL     OW22539   4.221   3.292   5.737
 7240SOL    HW122540   4.141   3.263   5.790
 7240SOL    HW222541   4.224   3.241   5.651
 7241SOL     OW22542   5.456   3.143   6.221
 7241SOL    HW122543   5.552   3.135   6.249
 7241SOL    HW222544   5.420   3.231   6.252
 7242SOL     OW22545   5.115   2.440   5.648
 7242SOL    HW122546   5.062   2.411   5.727
 7242SOL    HW222547   5.212   2.423   5.666
 7243SOL     OW22548   4.252   2.117   5.888
 7243SOL    HW122549   4.305   2.067   5.819
 7243SOL    HW222550   4.218   2.202   5.848
 7244SOL     OW22551   5.484   3.011   0.182
 7244SOL    HW122552   5.579   3.004   0.152
 7244SOL    HW222553   5.447   3.100   0.157
 7245SOL     OW22554   4.805   3.151   6.702
 7245SOL    HW122555   4.789   3.053   6.715
 7245SOL    HW222556   4.795   3.173   6.605
 7246SOL     OW22557   5.316   2.934   6.648
 7246SOL    HW122558   5.319   3.011   6.711
 7246SOL    HW222559   5.253   2.954   6.573
 7247SOL     OW22560   4.447   2.918   5.968
 7247SOL    HW122561   4.432   2.891   6.063
 7247SOL    HW222562   4.521   2.862   5.929
 7248SOL     OW22563   4.150   2.712   6.853
 7248SOL    HW122564   4.203   2.747   6.931
 7248SOL    HW222565   4.118   2.619   6.873
 7249SOL     OW22566   5.009   2.251   6.852
 7249SOL    HW122567   5.039   2.318   6.920
 7249SOL    HW222568   4.922   2.280   6.812
 7250SOL     OW22569   3.832   3.399   6.893
 7250SOL    HW122570   3.796   3.428   6.982
 7250SOL    HW222571   3.931   3.387   6.899
 7251SOL     OW22572   4.043   3.002   6.062
 7251SOL    HW122573   4.041   3.080   6.000
 7251SOL    HW222574   4.039   2.917   6.010
 7252SOL     OW22575   4.269   2.392   6.447
 7252SOL    HW122576   4.280   2.453   6.368
 7252SOL    HW222577   4.342   2.409   6.513
 7253SOL     OW22578   4.968   3.225   5.996
 7253SOL    HW122579   5.031   3.297   6.026
 7253SOL    HW222580   4.875   3.250   6.022
 7254SOL     OW22581   5.032   3.298   6.750
 7254SOL    HW122582   5.087   3.254   6.821
 7254SOL    HW222583   4.945   3.250   6.741
 7255SOL     OW22584   5.308   2.494   6.066
 7255SOL    HW122585   5.257   2.535   6.142
 7255SOL    HW222586   5.373   2.561   6.030
 7256SOL     OW22587   4.099   3.358   6.880
 7256SOL    HW122588   4.076   3.309   6.796
 7256SOL    HW222589   4.194   3.390   6.875
 7257SOL     OW22590   4.328   2.729   6.640
 7257SOL    HW122591   4.372   2.818   6.632
 7257SOL    HW222592   4.266   2.729   6.718
 7258SOL     OW22593   5.012   2.725   6.576
 7258SOL    HW122594   4.917   2.692   6.571
 7258SOL    HW222595   5.075   2.648   6.560
 7259SOL     OW22596   4.928   2.381   5.847
 7259SOL    HW122597   4.945   2.302   5.906
 7259SOL    HW222598   4.881   2.452   5.899
 7260SOL     OW22599   4.027   2.069   6.819
 7260SOL    HW122600   3.965   2.117   6.880
 7260SOL    HW222601   4.006   1.971   6.821
 7261SOL     OW22602   3.734   3.146   6.874
 7261SOL    HW122603   3.791   3.093   6.938
 7261SOL    HW222604   3.764   3.241   6.874
 7262SOL     OW22605   4.449   2.470   6.639
 7262SOL    HW122606   4.528   2.455   6.581
 7262SOL    HW222607   4.422   2.566   6.635
 7263SOL     OW22608   4.047   1.924   6.227
 7263SOL    HW122609   4.009   2.016   6.241
 7263SOL    HW222610   4.052   1.877   6.314
 7264SOL     OW22611   5.347   2.260   5.928
 7264SOL    HW122612   5.390   2.192   5.987
 7264SOL    HW222613   5.319   2.338   5.982
 7265SOL     OW22614   4.742   2.626   6.577
 7265SOL    HW122615   4.714   2.639   6.672
 7265SOL    HW222616   4.724   2.532   6.550
 7266SOL     OW22617   5.248   2.120   5.705
 7266SOL    HW122618   5.195   2.043   5.741
 7266SOL    HW222619   5.284   2.174   5.781
 7267SOL     OW22620   5.002   2.683   5.594
 7267SOL    HW122621   5.039   2.592   5.609
 7267SOL    HW222622   5.039   2.721   5.509
 7268SOL     OW22623   4.782   3.218   6.437
 7268SOL    HW122624   4.803   3.134   6.387
 7268SOL    HW222625   4.840   3.293   6.403
 7269SOL     OW22626   4.068   2.679   6.531
 7269SOL    HW122627   4.165   2.700   6.539
 7269SOL    HW222628   4.051   2.585   6.559
 7270SOL     OW22629   4.053   2.405   6.603
 7270SOL    HW122630   4.004   2.319   6.593
 7270SOL    HW222631   4.134   2.404   6.545
 7271SOL     OW22632   4.902   2.071   0.030
 7271SOL    HW122633   4.977   2.030   0.083
 7271SOL    HW222634   4.939   2.134   6.962
 7272SOL     OW22635   3.743   3.153   5.772
 7272SOL    HW122636   3.650   3.177   5.743
 7272SOL    HW222637   3.743   3.060   5.808
 7273SOL     OW22638   3.807   3.643   6.541
 7273SOL    HW122639   3.771   3.564   6.491
 7273SOL    HW222640   3.904   3.655   6.519
 7274SOL     OW22641   4.206   3.427   6.483
 7274SOL    HW122642   4.280   3.486   6.514
 7274SOL    HW222643   4.240   3.366   6.411
 7275SOL     OW22644   4.648   2.676   6.844
 7275SOL    HW122645   4.708   2.724   6.907
 7275SOL    HW222646   4.596   2.607   6.894
 7276SOL     OW22647   3.793   2.483   6.714
 7276SOL    HW122648   3.845   2.468   6.630
 7276SOL    HW222649   3.853   2.470   6.793
 7277SOL     OW22650   4.534   2.435   5.952
 7277SOL    HW122651   4.543   2.353   5.896
 7277SOL    HW222652   4.453   2.486   5.924
 7278SOL     OW22653   5.379   2.470   6.743
 7278SOL    HW122654   5.361   2.398   6.810
 7278SOL    HW222655   5.477   2.472   6.721
 7279SOL     OW22656   4.403   2.309   6.857
 7279SOL    HW122657   4.364   2.222   6.827
 7279SOL    HW222658   4.416   2.368   6.778
 7280SOL     OW22659   4.691   3.508   6.944
 7280SOL    HW122660   4.660   3.454   6.866
 7280SOL    HW222661   4.682   3.605   6.924
 7281SOL     OW22662   4.164   2.344   5.757
 7281SOL    HW122663   4.233   2.411   5.781
 7281SOL    HW222664   4.073   2.387   5.760
 7282SOL     OW22665   3.877   2.979   0.078
 7282SOL    HW122666   3.930   2.927   0.144
 7282SOL    HW222667   3.878   2.932   6.990
 7283SOL     OW22668   5.025   2.826   6.834
 7283SOL    HW122669   5.029   2.800   6.737
 7283SOL    HW222670   5.073   2.913   6.847
 7284SOL     OW22671   5.055   2.736   5.862
 7284SOL    HW122672   4.989   2.696   5.925
 7284SOL    HW222673   5.026   2.717   5.768
 7285SOL     OW22674   5.465   3.613   6.729
 7285SOL    HW122675   5.546   3.630   6.673
 7285SOL    HW222676   5.442   3.515   6.725
 7286SOL     OW22677   4.996   3.581   6.724
 7286SOL    HW122678   5.077   3.617   6.680
 7286SOL    HW222679   5.005   3.482   6.737
 7287SOL     OW22680   3.817   3.100   6.607
 7287SOL    HW122681   3.783   3.109   6.701
 7287SOL    HW222682   3.758   3.037   6.556
 7288SOL     OW22683   5.491   2.067   6.065
 7288SOL    HW122684   5.546   2.046   5.984
 7288SOL    HW222685   5.447   1.984   6.098
 7289SOL     OW22686   5.127   3.437   6.087
 7289SOL    HW122687   5.188   3.470   6.015
 7289SOL    HW222688   5.066   3.511   6.116
 7290SOL     OW22689   5.009   2.800   6.235
 7290SOL    HW122690   5.084   2.737   6.256
 7290SOL    HW222691   5.046   2.878   6.184
 7291SOL     OW22692   4.395   3.503   5.734
 7291SOL    HW122693   4.413   3.523   5.638
 7291SOL    HW222694   4.340   3.420   5.741
 7292SOL     OW22695   5.562   2.034   6.560
 7292SOL    HW122696   5.599   1.942   6.543
 7292SOL    HW222697   5.473   2.043   6.515
 7293SOL     OW22698   3.956   2.173   6.293
 7293SOL    HW122699   3.869   2.215   6.267
 7293SOL    HW222700   3.965   2.175   6.393
 7294SOL     OW22701   4.945   3.443   5.632
 7294SOL    HW122702   4.937   3.350   5.669
 7294SOL    HW222703   4.869   3.460   5.569
 7295SOL     OW22704   4.446   2.849   6.955
 7295SOL    HW122705   4.508   2.789   6.905
 7295SOL    HW222706   4.477   2.944   6.947
 7296SOL     OW22707   4.644   2.766   5.859
 7296SOL    HW122708   4.704   2.809   5.792
 7296SOL    HW222709   4.695   2.696   5.910
 7297SOL     OW22710   5.214   3.514   5.645
 7297SOL    HW122711   5.118   3.488   5.632
 7297SOL    HW222712   5.259   3.519   5.557
 7298SOL     OW22713   5.327   3.140   6.828
 7298SOL    HW122714   5.421   3.137   6.862
 7298SOL    HW222715   5.264   3.114   6.901
 7299SOL     OW22716   4.815   2.970   6.336
 7299SOL    HW122717   4.733   2.920   6.365
 7299SOL    HW222718   4.879   2.907   6.293
 7300SOL     OW22719   4.770   2.111   6.510
 7300SOL    HW122720   4.762   2.064   6.423
 7300SOL    HW222721   4.770   2.044   6.585
 7301SOL     OW22722   4.324   3.355   6.042
 7301SOL    HW122723   4.382   3.297   5.985
 7301SOL    HW222724   4.243   3.382   5.990
 7302SOL     OW22725   5.371   2.256   6.921
 7302SOL    HW122726   5.321   2.229   0.003
 7302SOL    HW222727   5.412   2.175   6.879
 7303SOL     OW22728   3.997   3.215   5.885
 7303SOL    HW122729   3.907   3.198   5.847
 7303SOL    HW222730   3.988   3.263   5.972
 7304SOL     OW22731   4.418   2.047   0.081
 7304SOL    HW122732   4.511   2.014   0.098
 7304SOL    HW222733   4.422   2.137   0.038
 7305SOL     OW22734   3.807   2.181   5.584
 7305SOL    HW122735   3.727   2.162   5.527
 7305SOL    HW222736   3.841   2.273   5.565
 7306SOL     OW22737   3.767   2.013   5.829
 7306SOL    HW122738   3.751   2.080   5.757
 7306SOL    HW222739   3.860   1.975   5.820
 7307SOL     OW22740   4.908   3.183   5.722
 7307SOL    HW122741   4.811   3.158   5.712
 7307SOL    HW222742   4.931   3.186   5.819
 7308SOL     OW22743   5.226   3.690   6.618
 7308SOL    HW122744   5.245   3.747   6.539
 7308SOL    HW222745   5.312   3.661   6.660
 7309SOL     OW22746   5.202   3.171   0.281
 7309SOL    HW122747   5.119   3.197   0.331
 7309SOL    HW222748   5.198   3.073   0.259
 7310SOL     OW22749   4.105   3.597   0.081
 7310SOL    HW122750   4.028   3.641   0.126
 7310SOL    HW222751   4.121   3.507   0.120
 7311SOL     OW22752   5.445   2.735   6.826
 7311SOL    HW122753   5.417   2.643   6.799
 7311SOL    HW222754   5.399   2.802   6.768
 7312SOL     OW22755   4.956   2.181   6.043
 7312SOL    HW122756   5.015   2.101   6.041
 7312SOL    HW222757   4.981   2.240   6.120
 7313SOL     OW22758   4.297   2.590   6.257
 7313SOL    HW122759   4.342   2.678   6.245
 7313SOL    HW222760   4.228   2.577   6.186
 7314SOL     OW22761   5.485   2.731   0.108
 7314SOL    HW122762   5.479   2.826   0.137
 7314SOL    HW222763   5.473   2.725   0.009
 7315SOL     OW22764   4.613   3.209   5.665
 7315SOL    HW122765   4.569   3.220   5.754
 7315SOL    HW222766   4.622   3.298   5.620
 7316SOL     OW22767   4.401   3.611   6.532
 7316SOL    HW122768   4.373   3.706   6.520
 7316SOL    HW222769   4.501   3.605   6.526
 7317SOL     OW22770   4.601   2.832   6.446
 7317SOL    HW122771   4.648   2.755   6.489
 7317SOL    HW222772   4.547   2.880   6.515
 7318SOL     OW22773   4.802   2.858   5.662
 7318SOL    HW122774   4.771   2.911   5.584
 7318SOL    HW222775   4.875   2.796   5.633
 7319SOL     OW22776   5.536   3.431   6.439
 7319SOL    HW122777   5.464   3.419   6.371
 7319SOL    HW222778   5.509   3.388   6.525
 7320SOL     OW22779   3.864   3.090   6.264
 7320SOL    HW122780   3.896   3.043   6.347
 7320SOL    HW222781   3.916   3.057   6.185
 7321SOL     OW22782   5.504   2.028   6.828
 7321SOL    HW122783   5.484   1.931   6.838
 7321SOL    HW222784   5.528   2.048   6.733
 7322SOL     OW22785   4.134   2.276   6.100
 7322SOL    HW122786   4.173   2.204   6.042
 7322SOL    HW222787   4.078   2.234   6.171
 7323SOL     OW22788   5.376   3.356   6.662
 7323SOL    HW122789   5.300   3.349   6.598
 7323SOL    HW222790   5.371   3.280   6.728
 7324SOL     OW22791   4.046   2.454   6.881
 7324SOL    HW122792   4.091   2.384   6.938
 7324SOL    HW222793   4.059   2.431   6.784
 7325SOL     OW22794   4.547   3.450   6.253
 7325SOL    HW122795   4.521   3.523   6.189
 7325SOL    HW222796   4.470   3.387   6.264
 7326SOL     OW22797   5.154   2.101   6.682
 7326SOL    HW122798   5.151   2.004   6.703
 7326SOL    HW222799   5.110   2.153   6.755
 7327SOL     OW22800   4.769   1.869   6.666
 7327SOL    HW122801   4.725   1.806   6.602
 7327SOL    HW222802   4.853   1.827   6.701
 7328SOL     OW22803   4.508   3.188   5.920
 7328SOL    HW122804   4.484   3.092   5.936
 7328SOL    HW222805   4.587   3.213   5.975
 7329SOL     OW22806   4.362   3.418   6.861
 7329SOL    HW122807   4.364   3.516   6.881
 7329SOL    HW222808   4.449   3.391   6.820
 7330SOL     OW22809   5.110   1.891   5.776
 7330SOL    HW122810   5.158   1.819   5.726
 7330SOL    HW222811   5.014   1.864   5.790
 7331SOL     OW22812   5.023   2.342   6.255
 7331SOL    HW122813   4.969   2.426   6.246
 7331SOL    HW222814   5.017   2.309   6.349
 7332SOL     OW22815   5.309   2.062   6.464
 7332SOL    HW122816   5.255   2.085   6.544
 7332SOL    HW222817   5.311   2.139   6.400
 7333SOL     OW22818   3.761   2.895   5.891
 7333SOL    HW122819   3.859   2.884   5.874
 7333SOL    HW222820   3.720   2.805   5.907
 7334SOL     OW22821   4.617   3.547   5.907
 7334SOL    HW122822   4.539   3.526   5.849
 7334SOL    HW222823   4.592   3.619   5.972
 7335SOL     OW22824   3.931   4.397   0.134
 7335SOL    HW122825   3.841   4.360   0.155
 7335SOL    HW222826   3.951   4.384   0.037
 7336SOL     OW22827   3.938   4.012   0.992
 7336SOL    HW122828   3.975   3.977   1.078
 7336SOL    HW222829   3.849   3.970   0.974
 7337SOL     OW22830   3.709   4.141   0.646
 7337SOL    HW122831   3.631   4.177   0.698
 7337SOL    HW222832   3.681   4.057   0.599
 7338SOL     OW22833   4.298   5.043   1.219
 7338SOL    HW122834   4.214   5.040   1.166
 7338SOL    HW222835   4.318   5.138   1.243
 7339SOL     OW22836   5.318   5.250   0.705
 7339SOL    HW122837   5.269   5.217   0.786
 7339SOL    HW222838   5.254   5.258   0.629
 7340SOL     OW22839   4.865   4.440   0.691
 7340SOL    HW122840   4.919   4.523   0.679
 7340SOL    HW222841   4.814   4.446   0.777
 7341SOL     OW22842   5.543   4.283   0.169
 7341SOL    HW122843   5.486   4.355   0.129
 7341SOL    HW222844   5.488   4.228   0.233
 7342SOL     OW22845   4.442   4.850   1.064
 7342SOL    HW122846   4.383   4.887   1.136
 7342SOL    HW222847   4.486   4.926   1.016
 7343SOL     OW22848   4.597   4.469   1.828
 7343SOL    HW122849   4.588   4.530   1.907
 7343SOL    HW222850   4.618   4.523   1.747
 7344SOL     OW22851   4.419   4.700   0.654
 7344SOL    HW122852   4.491   4.698   0.723
 7344SOL    HW222853   4.347   4.763   0.681
 7345SOL     OW22854   4.425   4.884   1.813
 7345SOL    HW122855   4.478   4.956   1.856
 7345SOL    HW222856   4.342   4.923   1.773
 7346SOL     OW22857   4.066   5.114   1.068
 7346SOL    HW122858   3.985   5.072   1.027
 7346SOL    HW222859   4.110   5.173   1.000
 7347SOL     OW22860   5.168   5.234   1.379
 7347SOL    HW122861   5.228   5.313   1.390
 7347SOL    HW222862   5.090   5.243   1.441
 7348SOL     OW22863   4.192   4.089   1.443
 7348SOL    HW122864   4.271   4.030   1.457
 7348SOL    HW222865   4.110   4.044   1.478
 7349SOL     OW22866   5.308   4.173   0.759
 7349SOL    HW122867   5.247   4.186   0.680
 7349SOL    HW222868   5.282   4.238   0.831
 7350SOL     OW22869   3.958   5.433   0.496
 7350SOL    HW122870   3.975   5.515   0.550
 7350SOL    HW222871   4.041   5.408   0.445
 7351SOL     OW22872   4.857   5.065   1.703
 7351SOL    HW122873   4.912   5.052   1.786
 7351SOL    HW222874   4.796   4.986   1.690
 7352SOL     OW22875   3.893   5.154   0.484
 7352SOL    HW122876   3.908   5.246   0.520
 7352SOL    HW222877   3.878   5.091   0.560
 7353SOL     OW22878   3.998   4.816   0.860
 7353SOL    HW122879   4.007   4.722   0.895
 7353SOL    HW222880   3.941   4.869   0.923
 7354SOL     OW22881   4.284   5.554   1.408
 7354SOL    HW122882   4.207   5.524   1.464
 7354SOL    HW222883   4.330   5.631   1.453
 7355SOL     OW22884   4.291   4.679   0.178
 7355SOL    HW122885   4.345   4.694   0.095
 7355SOL    HW222886   4.334   4.728   0.255
 7356SOL     OW22887   5.312   3.858   1.463
 7356SOL    HW122888   5.358   3.937   1.422
 7356SOL    HW222889   5.269   3.885   1.549
 7357SOL     OW22890   3.838   4.389   0.550
 7357SOL    HW122891   3.801   4.299   0.575
 7357SOL    HW222892   3.835   4.450   0.629
 7358SOL     OW22893   5.574   5.470   0.371
 7358SOL    HW122894   5.654   5.441   0.424
 7358SOL    HW222895   5.585   5.566   0.345
 7359SOL     OW22896   3.726   5.325   0.136
 7359SOL    HW122897   3.655   5.255   0.130
 7359SOL    HW222898   3.729   5.361   0.229
 7360SOL     OW22899   5.428   4.655   0.663
 7360SOL    HW122900   5.518   4.612   0.657
 7360SOL    HW222901   5.408   4.704   0.578
 7361SOL     OW22902   5.378   4.827   0.445
 7361SOL    HW122903   5.431   4.846   0.361
 7361SOL    HW222904   5.402   4.893   0.515
 7362SOL     OW22905   3.836   4.490   1.563
 7362SOL    HW122906   3.920   4.546   1.568
 7362SOL    HW222907   3.758   4.549   1.543
 7363SOL     OW22908   4.352   5.110   0.741
 7363SOL    HW122909   4.309   5.020   0.747
 7363SOL    HW222910   4.344   5.145   0.648
 7364SOL     OW22911   4.983   4.942   1.422
 7364SOL    HW122912   5.005   4.871   1.355
 7364SOL    HW222913   5.052   4.942   1.494
 7365SOL     OW22914   4.552   3.761   0.518
 7365SOL    HW122915   4.599   3.846   0.493
 7365SOL    HW222916   4.453   3.776   0.517
 7366SOL     OW22917   3.918   4.672   1.301
 7366SOL    HW122918   4.009   4.633   1.285
 7366SOL    HW222919   3.854   4.636   1.233
 7367SOL     OW22920   5.184   4.769   0.217
 7367SOL    HW122921   5.112   4.708   0.251
 7367SOL    HW222922   5.272   4.741   0.255
 7368SOL     OW22923   4.912   5.541   1.633
 7368SOL    HW122924   4.909   5.611   1.561
 7368SOL    HW222925   4.921   5.451   1.591
 7369SOL     OW22926   4.084   3.985   1.850
 7369SOL    HW122927   4.125   4.070   1.883
 7369SOL    HW222928   3.987   3.999   1.832
 7370SOL     OW22929   5.181   5.148   0.920
 7370SOL    HW122930   5.128   5.168   1.002
 7370SOL    HW222931   5.174   5.051   0.899
 7371SOL     OW22932   5.314   5.554   0.583
 7371SOL    HW122933   5.304   5.515   0.491
 7371SOL    HW222934   5.342   5.482   0.646
 7372SOL     OW22935   4.314   4.422   0.268
 7372SOL    HW122936   4.314   4.516   0.235
 7372SOL    HW222937   4.250   4.413   0.344
 7373SOL     OW22938   5.006   4.115   0.938
 7373SOL    HW122939   4.912   4.080   0.939
 7373SOL    HW222940   5.063   4.059   0.997
 7374SOL     OW22941   5.301   5.422   0.337
 7374SOL    HW122942   5.401   5.428   0.343
 7374SOL    HW222943   5.275   5.407   0.241
 7375SOL     OW22944   4.520   4.315   1.442
 7375SOL    HW122945   4.484   4.290   1.532
 7375SOL    HW222946   4.494   4.245   1.375
 7376SOL     OW22947   5.123   4.193   1.651
 7376SOL    HW122948   5.127   4.247   1.735
 7376SOL    HW222949   5.165   4.103   1.668
 7377SOL     OW22950   4.665   4.603   1.592
 7377SOL    HW122951   4.723   4.536   1.547
 7377SOL    HW222952   4.613   4.654   1.523
 7378SOL     OW22953   4.732   4.107   1.190
 7378SOL    HW122954   4.637   4.122   1.217
 7378SOL    HW222955   4.734   4.056   1.104
 7379SOL     OW22956   4.779   4.443   0.429
 7379SOL    HW122957   4.804   4.440   0.526
 7379SOL    HW222958   4.691   4.397   0.416
 7380SOL     OW22959   3.819   4.563   0.769
 7380SOL    HW122960   3.908   4.548   0.811
 7380SOL    HW222961   3.768   4.631   0.822
 7381SOL     OW22962   3.830   5.613   1.596
 7381SOL    HW122963   3.842   5.584   1.691
 7381SOL    HW222964   3.740   5.586   1.564
 7382SOL     OW22965   4.630   4.081   0.215
 7382SOL    HW122966   4.675   4.141   0.149
 7382SOL    HW222967   4.643   3.986   0.189
 7383SOL     OW22968   5.401   4.285   1.835
 7383SOL    HW122969   5.386   4.367   1.780
 7383SOL    HW222970   5.427   4.209   1.775
 7384SOL     OW22971   5.126   4.882   0.559
 7384SOL    HW122972   5.208   4.866   0.505
 7384SOL    HW222973   5.068   4.949   0.511
 7385SOL     OW22974   4.280   3.867   0.929
 7385SOL    HW122975   4.286   3.894   1.025
 7385SOL    HW222976   4.277   3.949   0.872
 7386SOL     OW22977   4.711   5.163   0.473
 7386SOL    HW122978   4.685   5.246   0.425
 7386SOL    HW222979   4.686   5.172   0.570
 7387SOL     OW22980   4.082   5.531   0.882
 7387SOL    HW122981   4.124   5.440   0.886
 7387SOL    HW222982   4.149   5.600   0.909
 7388SOL     OW22983   5.524   4.770   0.902
 7388SOL    HW122984   5.476   4.756   0.815
 7388SOL    HW222985   5.456   4.780   0.975
 7389SOL     OW22986   4.926   5.262   1.516
 7389SOL    HW122987   4.919   5.193   1.588
 7389SOL    HW222988   4.864   5.239   1.441
 7390SOL     OW22989   4.018   4.658   0.238
 7390SOL    HW122990   4.115   4.669   0.213
 7390SOL    HW222991   3.987   4.567   0.211
 7391SOL     OW22992   5.218   4.490   0.718
 7391SOL    HW122993   5.214   4.445   0.807
 7391SOL    HW222994   5.298   4.549   0.714
 7392SOL     OW22995   4.191   5.018   1.740
 7392SOL    HW122996   4.167   5.024   1.643
 7392SOL    HW222997   4.108   5.005   1.794
 7393SOL     OW22998   4.847   5.496   0.248
 7393SOL    HW122999   4.774   5.455   0.303
 7393SOL    HW223000   4.884   5.428   0.185
 7394SOL     OW23001   3.938   3.981   1.492
 7394SOL    HW123002   3.880   4.059   1.514
 7394SOL    HW223003   3.900   3.899   1.535
 7395SOL     OW23004   5.370   5.161   0.121
 7395SOL    HW123005   5.318   5.234   0.078
 7395SOL    HW223006   5.312   5.114   0.187
 7396SOL     OW23007   4.214   5.419   0.382
 7396SOL    HW123008   4.239   5.507   0.424
 7396SOL    HW223009   4.272   5.402   0.303
 7397SOL     OW23010   3.962   5.511   1.206
 7397SOL    HW123011   4.012   5.431   1.238
 7397SOL    HW223012   3.926   5.493   1.114
 7398SOL     OW23013   4.680   5.425   0.892
 7398SOL    HW123014   4.768   5.384   0.916
 7398SOL    HW223015   4.637   5.370   0.820
 7399SOL     OW23016   4.118   4.396   0.464
 7399SOL    HW123017   4.132   4.299   0.482
 7399SOL    HW223018   4.022   4.420   0.479
 7400SOL     OW23019   5.211   3.934   1.716
 7400SOL    HW123020   5.230   3.958   1.811
 7400SOL    HW223021   5.141   3.863   1.713
 7401SOL     OW23022   4.486   3.999   1.730
 7401SOL    HW123023   4.576   3.956   1.729
 7401SOL    HW223024   4.430   3.956   1.801
 7402SOL     OW23025   4.582   5.243   1.189
 7402SOL    HW123026   4.562   5.193   1.105
 7402SOL    HW223027   4.652   5.193   1.241
 7403SOL     OW23028   5.043   4.317   1.422
 7403SOL    HW123029   5.082   4.281   1.506
 7403SOL    HW223030   5.079   4.409   1.406
 7404SOL     OW23031   4.534   5.088   0.957
 7404SOL    HW123032   4.626   5.087   0.919
 7404SOL    HW223033   4.467   5.100   0.884
 7405SOL     OW23034   4.647   4.237   0.887
 7405SOL    HW123035   4.624   4.229   0.790
 7405SOL    HW223036   4.677   4.148   0.922
 7406SOL     OW23037   4.278   3.803   0.486
 7406SOL    HW123038   4.199   3.803   0.547
 7406SOL    HW223039   4.264   3.871   0.414
 7407SOL     OW23040   5.118   4.922   6.993
 7407SOL    HW123041   5.152   4.855   0.059
 7407SOL    HW223042   5.043   4.974   0.033
 7408SOL     OW23043   4.695   3.988   0.462
 7408SOL    HW123044   4.662   4.026   0.376
 7408SOL    HW223045   4.794   4.000   0.468
 7409SOL     OW23046   4.784   4.417   1.431
 7409SOL    HW123047   4.709   4.352   1.440
 7409SOL    HW223048   4.871   4.368   1.429
 7410SOL     OW23049   4.943   5.292   0.810
 7410SOL    HW123050   4.959   5.370   0.750
 7410SOL    HW223051   5.031   5.262   0.848
 7411SOL     OW23052   4.219   4.875   0.715
 7411SOL    HW123053   4.141   4.855   0.775
 7411SOL    HW223054   4.189   4.872   0.620
 7412SOL     OW23055   4.996   5.513   0.648
 7412SOL    HW123056   5.075   5.574   0.650
 7412SOL    HW223057   4.913   5.566   0.667
 7413SOL     OW23058   4.741   4.259   0.041
 7413SOL    HW123059   4.664   4.322   0.046
 7413SOL    HW223060   4.807   4.281   0.114
 7414SOL     OW23061   3.831   4.275   1.393
 7414SOL    HW123062   3.925   4.269   1.361
 7414SOL    HW223063   3.822   4.351   1.457
 7415SOL     OW23064   4.289   3.932   1.193
 7415SOL    HW123065   4.332   3.873   1.261
 7415SOL    HW223066   4.190   3.936   1.211
 7416SOL     OW23067   4.598   4.190   0.627
 7416SOL    HW123068   4.555   4.249   0.559
 7416SOL    HW223069   4.632   4.107   0.583
 7417SOL     OW23070   4.749   3.774   0.727
 7417SOL    HW123071   4.682   3.775   0.652
 7417SOL    HW223072   4.726   3.702   0.792
 7418SOL     OW23073   5.170   4.877   0.859
 7418SOL    HW123074   5.095   4.812   0.866
 7418SOL    HW223075   5.197   4.886   0.763
 7419SOL     OW23076   5.182   4.341   0.953
 7419SOL    HW123077   5.113   4.269   0.960
 7419SOL    HW223078   5.243   4.337   1.032
 7420SOL     OW23079   5.523   4.533   0.384
 7420SOL    HW123080   5.594   4.471   0.417
 7420SOL    HW223081   5.522   4.532   0.284
 7421SOL     OW23082   4.176   5.198   0.146
 7421SOL    HW123083   4.130   5.132   0.205
 7421SOL    HW223084   4.149   5.182   0.051
 7422SOL     OW23085   5.433   4.993   0.649
 7422SOL    HW123086   5.532   4.981   0.659
 7422SOL    HW223087   5.409   5.090   0.662
 7423SOL     OW23088   5.088   4.256   0.071
 7423SOL    HW123089   5.021   4.262   0.146
 7423SOL    HW223090   5.153   4.183   0.091
 7424SOL     OW23091   4.237   3.986   0.285
 7424SOL    HW123092   4.300   3.947   0.218
 7424SOL    HW223093   4.193   4.067   0.245
 7425SOL     OW23094   5.464   4.969   1.531
 7425SOL    HW123095   5.553   4.928   1.512
 7425SOL    HW223096   5.477   5.059   1.572
 7426SOL     OW23097   4.755   5.081   1.347
 7426SOL    HW123098   4.669   5.049   1.386
 7426SOL    HW223099   4.832   5.030   1.387
 7427SOL     OW23100   5.339   5.368   1.675
 7427SOL    HW123101   5.320   5.406   1.584
 7427SOL    HW223102   5.419   5.309   1.670
 7428SOL     OW23103   4.871   4.981   1.114
 7428SOL    HW123104   4.811   5.012   1.188
 7428SOL    HW223105   4.833   5.008   1.026
 7429SOL     OW23106   5.328   4.818   1.090
 7429SOL    HW123107   5.321   4.886   1.163
 7429SOL    HW223108   5.262   4.839   1.018
 7430SOL     OW23109   4.653   3.801   1.372
 7430SOL    HW123110   4.673   3.782   1.276
 7430SOL    HW223111   4.732   3.845   1.414
 7431SOL     OW23112   4.689   4.845   1.712
 7431SOL    HW123113   4.595   4.866   1.740
 7431SOL    HW223114   4.690   4.758   1.664
 7432SOL     OW23115   4.446   4.780   0.385
 7432SOL    HW123116   4.431   4.753   0.480
 7432SOL    HW223117   4.525   4.730   0.348
 7433SOL     OW23118   4.157   4.540   1.263
 7433SOL    HW123119   4.230   4.552   1.331
 7433SOL    HW223120   4.123   4.446   1.267
 7434SOL     OW23121   4.985   4.090   1.284
 7434SOL    HW123122   5.013   4.174   1.331
 7434SOL    HW223123   4.892   4.101   1.249
 7435SOL     OW23124   3.794   5.285   1.354
 7435SOL    HW123125   3.754   5.356   1.296
 7435SOL    HW223126   3.894   5.288   1.347
 7436SOL     OW23127   4.133   4.848   0.461
 7436SOL    HW123128   4.101   4.920   0.399
 7436SOL    HW223129   4.110   4.759   0.423
 7437SOL     OW23130   4.254   4.259   0.864
 7437SOL    HW123131   4.269   4.315   0.783
 7437SOL    HW223132   4.325   4.278   0.932
 7438SOL     OW23133   4.973   5.090   0.421
 7438SOL    HW123134   5.024   5.168   0.460
 7438SOL    HW223135   4.876   5.100   0.442
 7439SOL     OW23136   5.038   5.199   1.142
 7439SOL    HW123137   5.085   5.209   1.230
 7439SOL    HW223138   4.981   5.116   1.145
 7440SOL     OW23139   5.326   4.365   0.491
 7440SOL    HW123140   5.271   4.405   0.564
 7440SOL    HW223141   5.387   4.434   0.453
 7441SOL     OW23142   4.066   5.261   1.295
 7441SOL    HW123143   4.057   5.203   1.214
 7441SOL    HW223144   4.162   5.285   1.309
 7442SOL     OW23145   4.202   4.434   1.645
 7442SOL    HW123146   4.240   4.485   1.568
 7442SOL    HW223147   4.269   4.366   1.676
 7443SOL     OW23148   5.352   4.513   1.695
 7443SOL    HW123149   5.260   4.551   1.685
 7443SOL    HW223150   5.410   4.546   1.620
 7444SOL     OW23151   4.725   3.870   1.747
 7444SOL    HW123152   4.785   3.949   1.734
 7444SOL    HW223153   4.777   3.786   1.731
 7445SOL     OW23154   4.226   3.765   1.756
 7445SOL    HW123155   4.168   3.710   1.697
 7445SOL    HW223156   4.177   3.847   1.784
 7446SOL     OW23157   4.311   4.598   1.039
 7446SOL    HW123158   4.353   4.689   1.042
 7446SOL    HW223159   4.253   4.586   1.120
 7447SOL     OW23160   5.017   4.570   1.004
 7447SOL    HW123161   4.924   4.542   0.981
 7447SOL    HW223162   5.080   4.494   0.986
 7448SOL     OW23163   4.902   4.261   0.269
 7448SOL    HW123164   4.922   4.179   0.324
 7448SOL    HW223165   4.864   4.332   0.328
 7449SOL     OW23166   4.018   3.912   1.235
 7449SOL    HW123167   3.985   3.945   1.324
 7449SOL    HW223168   3.997   3.814   1.226
 7450SOL     OW23169   3.784   5.025   1.260
 7450SOL    HW123170   3.814   4.965   1.335
 7450SOL    HW223171   3.778   5.119   1.293
 7451SOL     OW23172   4.442   4.351   1.045
 7451SOL    HW123173   4.516   4.333   0.981
 7451SOL    HW223174   4.406   4.443   1.029
 7452SOL     OW23175   5.468   4.697   1.867
 7452SOL    HW123176   5.430   4.622   1.814
 7452SOL    HW223177   5.407   4.718   1.943
 7453SOL     OW23178   4.048   3.792   0.639
 7453SOL    HW123179   4.009   3.882   0.657
 7453SOL    HW223180   4.060   3.743   0.725
 7454SOL     OW23181   5.381   4.136   0.356
 7454SOL    HW123182   5.407   4.064   0.421
 7454SOL    HW223183   5.356   4.218   0.407
 7455SOL     OW23184   4.752   4.478   0.956
 7455SOL    HW123185   4.728   4.500   1.051
 7455SOL    HW223186   4.722   4.386   0.935
 7456SOL     OW23187   4.708   5.288   1.762
 7456SOL    HW123188   4.675   5.345   1.687
 7456SOL    HW223189   4.749   5.204   1.725
 7457SOL     OW23190   5.564   5.220   1.602
 7457SOL    HW123191   5.585   5.245   1.508
 7457SOL    HW223192   5.646   5.229   1.659
 7458SOL     OW23193   4.083   4.634   1.794
 7458SOL    HW123194   4.149   4.669   1.861
 7458SOL    HW223195   4.123   4.558   1.743
 7459SOL     OW23196   5.234   4.035   0.149
 7459SOL    HW123197   5.187   3.950   0.172
 7459SOL    HW223198   5.288   4.066   0.227
 7460SOL     OW23199   4.997   4.513   0.039
 7460SOL    HW123200   5.042   4.424   0.034
 7460SOL    HW223201   5.020   4.567   6.958
 7461SOL     OW23202   4.788   5.075   0.869
 7461SOL    HW123203   4.803   4.994   0.811
 7461SOL    HW223204   4.843   5.151   0.835
 7462SOL     OW23205   4.049   4.544   0.929
 7462SOL    HW123206   4.146   4.563   0.939
 7462SOL    HW223207   4.029   4.451   0.959
 7463SOL     OW23208   4.024   4.266   1.000
 7463SOL    HW123209   3.982   4.176   0.996
 7463SOL    HW223210   4.107   4.268   0.946
 7464SOL     OW23211   4.869   4.094   1.678
 7464SOL    HW123212   4.819   4.151   1.743
 7464SOL    HW223213   4.959   4.133   1.661
 7465SOL     OW23214   4.885   3.913   1.471
 7465SOL    HW123215   4.870   3.976   1.547
 7465SOL    HW223216   4.930   3.962   1.397
 7466SOL     OW23217   3.823   5.483   0.957
 7466SOL    HW123218   3.783   5.406   0.908
 7466SOL    HW223219   3.913   5.504   0.919
 7467SOL     OW23220   4.213   5.286   0.905
 7467SOL    HW123221   4.284   5.350   0.934
 7467SOL    HW223222   4.251   5.220   0.841
 7468SOL     OW23223   4.657   4.520   1.208
 7468SOL    HW123224   4.716   4.497   1.286
 7468SOL    HW223225   4.573   4.467   1.213
 7469SOL     OW23226   3.772   4.327   1.126
 7469SOL    HW123227   3.853   4.315   1.069
 7469SOL    HW223228   3.794   4.309   1.221
 7470SOL     OW23229   3.939   4.295   1.729
 7470SOL    HW123230   4.035   4.302   1.702
 7470SOL    HW223231   3.885   4.361   1.676
 7471SOL     OW23232   5.121   4.653   1.633
 7471SOL    HW123233   5.142   4.751   1.631
 7471SOL    HW223234   5.111   4.619   1.539
 7472SOL     OW23235   4.549   4.304   0.370
 7472SOL    HW123236   4.564   4.222   0.315
 7472SOL    HW223237   4.465   4.349   0.340
 7473SOL     OW23238   5.363   4.328   1.158
 7473SOL    HW123239   5.344   4.265   1.233
 7473SOL    HW223240   5.460   4.324   1.134
 7474SOL     OW23241   3.954   5.263   1.718
 7474SOL    HW123242   3.936   5.330   1.790
 7474SOL    HW223243   3.961   5.172   1.759
 7475SOL     OW23244   4.461   4.150   1.229
 7475SOL    HW123245   4.395   4.076   1.219
 7475SOL    HW223246   4.443   4.222   1.162
 7476SOL     OW23247   4.594   5.428   1.535
 7476SOL    HW123248   4.562   5.361   1.468
 7476SOL    HW223249   4.619   5.512   1.487
 7477SOL     OW23250   4.149   4.223   0.166
 7477SOL    HW123251   4.222   4.284   0.197
 7477SOL    HW223252   4.061   4.269   0.173
 7478SOL     OW23253   3.859   4.866   1.479
 7478SOL    HW123254   3.861   4.831   1.573
 7478SOL    HW223255   3.883   4.793   1.415
 7479SOL     OW23256   5.006   4.758   1.202
 7479SOL    HW123257   5.015   4.690   1.130
 7479SOL    HW223258   4.958   4.838   1.167
 7480SOL     OW23259   4.995   4.593   0.301
 7480SOL    HW123260   4.930   4.545   0.359
 7480SOL    HW223261   4.995   4.551   0.210
 7481SOL     OW23262   5.498   5.441   1.166
 7481SOL    HW123263   5.567   5.466   1.098
 7481SOL    HW223264   5.461   5.351   1.144
 7482SOL     OW23265   4.977   5.467   1.094
 7482SOL    HW123266   5.065   5.502   1.062
 7482SOL    HW223267   4.985   5.370   1.114
 7483SOL     OW23268   3.822   4.982   0.995
 7483SOL    HW123269   3.801   4.997   1.092
 7483SOL    HW223270   3.757   4.915   0.958
 7484SOL     OW23271   4.414   5.430   1.744
 7484SOL    HW123272   4.345   5.501   1.738
 7484SOL    HW223273   4.483   5.444   1.673
 7485SOL     OW23274   4.676   3.826   0.124
 7485SOL    HW123275   4.751   3.868   0.073
 7485SOL    HW223276   4.711   3.750   0.178
 7486SOL     OW23277   5.463   3.922   0.515
 7486SOL    HW123278   5.521   3.890   0.440
 7486SOL    HW223279   5.410   3.845   0.551
 7487SOL     OW23280   5.121   5.304   0.510
 7487SOL    HW123281   5.181   5.341   0.439
 7487SOL    HW223282   5.067   5.378   0.550
 7488SOL     OW23283   3.870   5.514   1.845
 7488SOL    HW123284   3.816   5.441   1.886
 7488SOL    HW223285   3.922   5.561   1.915
 7489SOL     OW23286   5.015   4.664   0.671
 7489SOL    HW123287   5.090   4.599   0.686
 7489SOL    HW223288   5.050   4.743   0.619
 7490SOL     OW23289   4.496   5.011   1.418
 7490SOL    HW123290   4.470   5.063   1.499
 7490SOL    HW223291   4.422   5.016   1.350
 7491SOL     OW23292   4.403   5.354   0.187
 7491SOL    HW123293   4.409   5.410   0.105
 7491SOL    HW223294   4.342   5.277   0.170
 7492SOL     OW23295   5.333   5.456   1.401
 7492SOL    HW123296   5.391   5.449   1.320
 7492SOL    HW223297   5.318   5.553   1.422
 7493SOL     OW23298   5.572   3.877   0.958
 7493SOL    HW123299   5.601   3.783   0.938
 7493SOL    HW223300   5.481   3.891   0.920
 7494SOL     OW23301   3.959   4.038   0.712
 7494SOL    HW123302   3.873   4.082   0.687
 7494SOL    HW223303   3.967   4.035   0.812
 7495SOL     OW23304   4.940   5.313   0.063
 7495SOL    HW123305   4.939   5.216   0.085
 7495SOL    HW223306   4.860   5.336   0.007
 7496SOL     OW23307   4.543   4.741   1.391
 7496SOL    HW123308   4.587   4.725   1.302
 7496SOL    HW223309   4.529   4.839   1.403
 7497SOL     OW23310   4.651   4.644   0.280
 7497SOL    HW123311   4.696   4.660   0.192
 7497SOL    HW223312   4.706   4.581   0.334
 7498SOL     OW23313   5.202   5.400   0.071
 7498SOL    HW123314   5.107   5.368   0.068
 7498SOL    HW223315   5.228   5.436   6.981
 7499SOL     OW23316   4.085   5.040   1.492
 7499SOL    HW123317   4.078   5.117   1.429
 7499SOL    HW223318   4.006   4.980   1.480
 7500SOL     OW23319   5.316   5.014   1.293
 7500SOL    HW123320   5.377   4.988   1.368
 7500SOL    HW223321   5.252   5.084   1.326
 7501SOL     OW23322   4.810   4.837   0.744
 7501SOL    HW123323   4.730   4.788   0.778
 7501SOL    HW223324   4.878   4.772   0.711
 7502SOL     OW23325   4.758   3.965   0.948
 7502SOL    HW123326   4.755   3.928   0.855
 7502SOL    HW223327   4.755   3.890   1.014
 7503SOL     OW23328   4.348   5.204   0.492
 7503SOL    HW123329   4.388   5.148   0.418
 7503SOL    HW223330   4.286   5.272   0.452
 7504SOL     OW23331   5.490   4.086   1.400
 7504SOL    HW123332   5.557   4.161   1.392
 7504SOL    HW223333   5.511   4.016   1.332
 7505SOL     OW23334   4.012   5.024   0.281
 7505SOL    HW123335   3.945   4.984   0.219
 7505SOL    HW223336   3.965   5.074   0.353
 7506SOL     OW23337   3.849   4.767   1.736
 7506SOL    HW123338   3.768   4.740   1.786
 7506SOL    HW223339   3.927   4.712   1.766
 7507SOL     OW23340   4.417   3.910   1.477
 7507SOL    HW123341   4.503   3.880   1.436
 7507SOL    HW223342   4.435   3.947   1.569
 7508SOL     OW23343   3.823   4.040   6.968
 7508SOL    HW123344   3.757   3.978   6.926
 7508SOL    HW223345   3.775   4.119   0.006
 7509SOL     OW23346   5.128   4.576   1.372
 7509SOL    HW123347   5.071   4.637   1.318
 7509SOL    HW223348   5.222   4.580   1.337
 7510SOL     OW23349   3.757   3.871   0.293
 7510SOL    HW123350   3.776   3.969   0.279
 7510SOL    HW223351   3.794   3.819   0.215
 7511SOL     OW23352   4.913   5.047   0.133
 7511SOL    HW123353   4.815   5.061   0.117
 7511SOL    HW223354   4.930   5.042   0.231
 7512SOL     OW23355   4.362   4.542   1.439
 7512SOL    HW123356   4.418   4.624   1.429
 7512SOL    HW223357   4.421   4.462   1.441
 7513SOL     OW23358   5.230   5.550   1.020
 7513SOL    HW123359   5.260   5.619   0.954
 7513SOL    HW223360   5.310   5.502   1.056
 7514SOL     OW23361   4.429   4.276   1.700
 7514SOL    HW123362   4.485   4.334   1.758
 7514SOL    HW223363   4.448   4.180   1.721
 7515SOL     OW23364   5.194   4.916   1.619
 7515SOL    HW123365   5.184   4.933   1.717
 7515SOL    HW223366   5.288   4.938   1.591
 7516SOL     OW23367   4.075   5.478   1.577
 7516SOL    HW123368   3.990   5.529   1.563
 7516SOL    HW223369   4.053   5.387   1.613
 7517SOL     OW23370   5.376   4.596   1.253
 7517SOL    HW123371   5.376   4.508   1.205
 7517SOL    HW223372   5.363   4.670   1.187
 7518SOL     OW23373   4.963   4.055   0.448
 7518SOL    HW123374   5.040   3.996   0.424
 7518SOL    HW223375   4.985   4.107   0.530
 7519SOL     OW23376   4.301   4.446   0.669
 7519SOL    HW123377   4.347   4.535   0.661
 7519SOL    HW223378   4.235   4.436   0.595
 7520SOL     OW23379   5.457   4.064   1.674
 7520SOL    HW123380   5.469   4.076   1.575
 7520SOL    HW223381   5.377   4.007   1.691
 7521SOL     OW23382   5.492   4.639   1.499
 7521SOL    HW123383   5.480   4.736   1.521
 7521SOL    HW223384   5.457   4.622   1.406
 7522SOL     OW23385   4.655   5.118   0.100
 7522SOL    HW123386   4.585   5.096   0.168
 7522SOL    HW223387   4.637   5.209   0.061
 7523SOL     OW23388   4.401   5.477   0.942
 7523SOL    HW123389   4.375   5.573   0.932
 7523SOL    HW223390   4.500   5.468   0.932
 7524SOL     OW23391   4.600   4.701   0.867
 7524SOL    HW123392   4.652   4.621   0.900
 7524SOL    HW223393   4.549   4.741   0.943
 7525SOL     OW23394   4.785   4.684   0.041
 7525SOL    HW123395   4.819   4.778   0.032
 7525SOL    HW223396   4.862   4.621   0.043
 7526SOL     OW23397   5.566   5.271   0.840
 7526SOL    HW123398   5.482   5.267   0.786
 7526SOL    HW223399   5.581   5.183   0.885
 7527SOL     OW23400   3.932   5.009   1.836
 7527SOL    HW123401   3.906   4.924   1.789
 7527SOL    HW223402   3.869   5.026   1.911
 7528SOL     OW23403   3.843   4.929   0.645
 7528SOL    HW123404   3.899   4.888   0.717
 7528SOL    HW223405   3.843   4.869   0.565
 7529SOL     OW23406   4.406   5.166   1.629
 7529SOL    HW123407   4.331   5.116   1.672
 7529SOL    HW223408   4.418   5.255   1.673
 7530SOL     OW23409   5.536   3.883   1.230
 7530SOL    HW123410   5.536   3.785   1.249
 7530SOL    HW223411   5.551   3.897   1.132
 7531SOL     OW23412   4.139   4.135   0.514
 7531SOL    HW123413   4.170   4.064   0.452
 7531SOL    HW223414   4.084   4.094   0.587
 7532SOL     OW23415   5.392   5.203   1.102
 7532SOL    HW123416   5.326   5.186   1.028
 7532SOL    HW223417   5.385   5.131   1.170
 7533SOL     OW23418   4.079   4.279   1.281
 7533SOL    HW123419   4.132   4.212   1.334
 7533SOL    HW223420   4.080   4.252   1.185
 7534SOL     OW23421   4.562   5.291   0.688
 7534SOL    HW123422   4.532   5.342   0.607
 7534SOL    HW223423   4.491   5.226   0.714
 7535SOL     OW23424   5.148   3.958   1.112
 7535SOL    HW123425   5.158   3.861   1.133
 7535SOL    HW223426   5.097   4.003   1.185
 7536SOL     OW23427   4.743   3.740   1.111
 7536SOL    HW123428   4.686   3.677   1.058
 7536SOL    HW223429   4.835   3.702   1.119
 7537SOL     OW23430   4.504   5.044   0.324
 7537SOL    HW123431   4.475   4.949   0.341
 7537SOL    HW223432   4.584   5.065   0.380
 7538SOL     OW23433   4.337   5.312   1.288
 7538SOL    HW123434   4.328   5.404   1.327
 7538SOL    HW223435   4.428   5.302   1.248
 7539SOL     OW23436   5.080   3.793   0.196
 7539SOL    HW123437   5.142   3.719   0.168
 7539SOL    HW223438   4.996   3.753   0.232
 7540SOL     OW23439   5.015   4.200   0.673
 7540SOL    HW123440   4.966   4.287   0.670
 7540SOL    HW223441   5.016   4.165   0.767
 7541SOL     OW23442   5.312   3.927   0.892
 7541SOL    HW123443   5.257   3.951   0.973
 7541SOL    HW223444   5.314   4.005   0.830
 7542SOL     OW23445   3.830   4.754   0.428
 7542SOL    HW123446   3.903   4.727   0.365
 7542SOL    HW223447   3.755   4.688   0.422
 7543SOL     OW23448   4.614   5.399   0.366
 7543SOL    HW123449   4.539   5.378   0.303
 7543SOL    HW223450   4.590   5.479   0.421
 7544SOL     OW23451   3.936   4.356   2.000
 7544SOL    HW123452   3.845   4.335   2.035
 7544SOL    HW223453   3.935   4.351   1.900
 7545SOL     OW23454   3.945   3.917   2.936
 7545SOL    HW123455   3.976   3.905   3.030
 7545SOL    HW223456   3.846   3.925   2.934
 7546SOL     OW23457   4.311   5.065   3.092
 7546SOL    HW123458   4.228   5.051   3.038
 7546SOL    HW223459   4.324   5.162   3.109
 7547SOL     OW23460   5.313   5.254   2.563
 7547SOL    HW123461   5.261   5.233   2.645
 7547SOL    HW223462   5.251   5.263   2.485
 7548SOL     OW23463   4.786   4.535   2.464
 7548SOL    HW123464   4.874   4.542   2.510
 7548SOL    HW223465   4.747   4.445   2.481
 7549SOL     OW23466   5.516   4.299   2.078
 7549SOL    HW123467   5.478   4.300   1.986
 7549SOL    HW223468   5.469   4.230   2.133
 7550SOL     OW23469   4.470   4.870   2.890
 7550SOL    HW123470   4.523   4.858   2.974
 7550SOL    HW223471   4.474   4.965   2.861
 7551SOL     OW23472   4.407   4.743   2.469
 7551SOL    HW123473   4.476   4.737   2.542
 7551SOL    HW223474   4.332   4.802   2.499
 7552SOL     OW23475   4.423   4.913   3.701
 7552SOL    HW123476   4.468   4.997   3.732
 7552SOL    HW223477   4.344   4.937   3.645
 7553SOL     OW23478   4.070   5.126   2.929
 7553SOL    HW123479   3.989   5.085   2.887
 7553SOL    HW223480   4.118   5.183   2.862
 7554SOL     OW23481   5.163   5.240   3.232
 7554SOL    HW123482   5.226   5.318   3.241
 7554SOL    HW223483   5.088   5.251   3.298
 7555SOL     OW23484   4.186   4.049   3.428
 7555SOL    HW123485   4.267   3.993   3.411
 7555SOL    HW223486   4.105   3.991   3.428
 7556SOL     OW23487   3.952   5.456   2.328
 7556SOL    HW123488   3.975   5.530   2.391
 7556SOL    HW223489   4.026   5.443   2.263
 7557SOL     OW23490   4.875   5.092   3.580
 7557SOL    HW123491   4.934   5.069   3.656
 7557SOL    HW223492   4.806   5.020   3.567
 7558SOL     OW23493   3.949   5.188   2.397
 7558SOL    HW123494   3.939   5.288   2.394
 7558SOL    HW223495   3.895   5.151   2.471
 7559SOL     OW23496   4.011   4.828   2.733
 7559SOL    HW123497   4.087   4.805   2.794
 7559SOL    HW223498   3.941   4.878   2.784
 7560SOL     OW23499   4.284   5.575   3.262
 7560SOL    HW123500   4.207   5.543   3.318
 7560SOL    HW223501   4.332   5.648   3.311
 7561SOL     OW23502   4.281   4.726   1.993
 7561SOL    HW123503   4.331   4.768   1.917
 7561SOL    HW223504   4.323   4.753   2.079
 7562SOL     OW23505   5.338   3.841   3.325
 7562SOL    HW123506   5.374   3.924   3.284
 7562SOL    HW223507   5.285   3.864   3.407
 7563SOL     OW23508   3.868   4.449   2.412
 7563SOL    HW123509   3.865   4.355   2.447
 7563SOL    HW223510   3.866   4.513   2.489
 7564SOL     OW23511   5.575   5.475   2.183
 7564SOL    HW123512   5.652   5.461   2.246
 7564SOL    HW223513   5.578   5.568   2.148
 7565SOL     OW23514   3.766   5.304   1.975
 7565SOL    HW123515   3.747   5.207   1.992
 7565SOL    HW223516   3.744   5.357   2.057
 7566SOL     OW23517   5.439   4.660   2.505
 7566SOL    HW123518   5.530   4.620   2.496
 7566SOL    HW223519   5.418   4.715   2.424
 7567SOL     OW23520   5.392   4.838   2.293
 7567SOL    HW123521   5.476   4.820   2.241
 7567SOL    HW223522   5.409   4.911   2.360
 7568SOL     OW23523   4.336   5.136   2.569
 7568SOL    HW123524   4.293   5.046   2.573
 7568SOL    HW223525   4.326   5.174   2.477
 7569SOL     OW23526   4.971   4.965   3.284
 7569SOL    HW123527   5.007   4.920   3.203
 7569SOL    HW223528   5.040   4.963   3.357
 7570SOL     OW23529   3.988   4.849   3.077
 7570SOL    HW123530   4.078   4.830   3.038
 7570SOL    HW223531   3.928   4.888   3.007
 7571SOL     OW23532   5.258   4.742   2.068
 7571SOL    HW123533   5.186   4.678   2.095
 7571SOL    HW223534   5.303   4.778   2.150
 7572SOL     OW23535   4.926   5.555   3.497
 7572SOL    HW123536   4.915   5.622   3.424
 7572SOL    HW223537   4.935   5.464   3.456
 7573SOL     OW23538   4.071   3.931   3.699
 7573SOL    HW123539   4.124   4.012   3.724
 7573SOL    HW223540   3.987   3.959   3.654
 7574SOL     OW23541   5.169   5.177   2.786
 7574SOL    HW123542   5.109   5.188   2.866
 7574SOL    HW223543   5.171   5.081   2.759
 7575SOL     OW23544   5.350   5.553   2.408
 7575SOL    HW123545   5.342   5.496   2.327
 7575SOL    HW223546   5.358   5.495   2.489
 7576SOL     OW23547   4.304   4.451   2.076
 7576SOL    HW123548   4.306   4.542   2.035
 7576SOL    HW223549   4.239   4.450   2.152
 7577SOL     OW23550   5.312   5.398   2.181
 7577SOL    HW123551   5.411   5.413   2.175
 7577SOL    HW223552   5.275   5.386   2.089
 7578SOL     OW23553   4.528   4.161   3.347
 7578SOL    HW123554   4.477   4.174   3.433
 7578SOL    HW223555   4.466   4.127   3.277
 7579SOL     OW23556   5.137   4.161   3.521
 7579SOL    HW123557   5.143   4.196   3.615
 7579SOL    HW223558   5.168   4.066   3.519
 7580SOL     OW23559   4.754   4.112   3.197
 7580SOL    HW123560   4.680   4.139   3.259
 7580SOL    HW223561   4.719   4.047   3.130
 7581SOL     OW23562   4.783   4.458   2.203
 7581SOL    HW123563   4.782   4.490   2.298
 7581SOL    HW223564   4.701   4.404   2.184
 7582SOL     OW23565   3.843   4.630   2.617
 7582SOL    HW123566   3.930   4.674   2.637
 7582SOL    HW223567   3.774   4.661   2.681
 7583SOL     OW23568   3.828   5.619   3.459
 7583SOL    HW123569   3.842   5.587   3.553
 7583SOL    HW223570   3.737   5.593   3.429
 7584SOL     OW23571   4.587   4.081   2.021
 7584SOL    HW123572   4.646   4.126   1.952
 7584SOL    HW223573   4.549   3.998   1.982
 7585SOL     OW23574   5.423   4.287   3.696
 7585SOL    HW123575   5.412   4.367   3.636
 7585SOL    HW223576   5.444   4.207   3.640
 7586SOL     OW23577   5.129   4.868   2.424
 7586SOL    HW123578   5.212   4.860   2.369
 7586SOL    HW223579   5.066   4.932   2.380
 7587SOL     OW23580   4.722   5.191   2.328
 7587SOL    HW123581   4.700   5.266   2.264
 7587SOL    HW223582   4.689   5.215   2.419
 7588SOL     OW23583   4.081   5.533   2.741
 7588SOL    HW123584   4.124   5.443   2.746
 7588SOL    HW223585   4.147   5.603   2.768
 7589SOL     OW23586   5.532   4.778   2.747
 7589SOL    HW123587   5.485   4.767   2.660
 7589SOL    HW223588   5.465   4.796   2.820
 7590SOL     OW23589   4.939   5.286   3.390
 7590SOL    HW123590   4.939   5.220   3.465
 7590SOL    HW223591   4.870   5.261   3.322
 7591SOL     OW23592   4.021   4.682   2.114
 7591SOL    HW123593   4.106   4.708   2.068
 7591SOL    HW223594   4.005   4.584   2.102
 7592SOL     OW23595   5.270   4.476   2.604
 7592SOL    HW123596   5.287   4.465   2.702
 7592SOL    HW223597   5.334   4.543   2.567
 7593SOL     OW23598   4.205   5.007   3.566
 7593SOL    HW123599   4.166   5.021   3.475
 7593SOL    HW223600   4.134   5.017   3.635
 7594SOL     OW23601   4.868   5.494   2.089
 7594SOL    HW123602   4.778   5.472   2.127
 7594SOL    HW223603   4.894   5.423   2.023
 7595SOL     OW23604   3.932   3.939   3.409
 7595SOL    HW123605   3.875   4.019   3.390
 7595SOL    HW223606   3.874   3.858   3.417
 7596SOL     OW23607   5.359   5.116   1.960
 7596SOL    HW123608   5.323   5.208   1.945
 7596SOL    HW223609   5.291   5.048   1.931
 7597SOL     OW23610   4.190   5.464   2.175
 7597SOL    HW123611   4.236   5.519   2.245
 7597SOL    HW223612   4.259   5.428   2.111
 7598SOL     OW23613   5.204   3.843   2.237
 7598SOL    HW123614   5.179   3.787   2.158
 7598SOL    HW223615   5.253   3.787   2.304
 7599SOL     OW23616   3.956   5.524   3.059
 7599SOL    HW123617   4.012   5.447   3.089
 7599SOL    HW223618   3.922   5.507   2.967
 7600SOL     OW23619   4.677   5.425   2.750
 7600SOL    HW123620   4.767   5.385   2.769
 7600SOL    HW223621   4.635   5.375   2.674
 7601SOL     OW23622   4.119   4.437   2.283
 7601SOL    HW123623   4.140   4.339   2.287
 7601SOL    HW223624   4.026   4.452   2.317
 7602SOL     OW23625   5.212   3.896   3.566
 7602SOL    HW123626   5.233   3.909   3.663
 7602SOL    HW223627   5.146   3.821   3.556
 7603SOL     OW23628   4.419   3.839   1.952
 7603SOL    HW123629   4.486   3.773   1.986
 7603SOL    HW223630   4.353   3.792   1.893
 7604SOL     OW23631   4.515   3.907   3.652
 7604SOL    HW123632   4.604   3.866   3.633
 7604SOL    HW223633   4.463   3.847   3.714
 7605SOL     OW23634   4.586   5.269   3.045
 7605SOL    HW123635   4.567   5.219   2.960
 7605SOL    HW223636   4.662   5.224   3.093
 7606SOL     OW23637   5.196   4.270   3.275
 7606SOL    HW123638   5.178   4.231   3.366
 7606SOL    HW223639   5.168   4.366   3.273
 7607SOL     OW23640   4.519   5.124   2.799
 7607SOL    HW123641   4.611   5.113   2.761
 7607SOL    HW223642   4.454   5.140   2.725
 7608SOL     OW23643   5.163   4.934   1.894
 7608SOL    HW123644   5.197   4.858   1.948
 7608SOL    HW223645   5.079   4.970   1.936
 7609SOL     OW23646   4.012   3.786   2.032
 7609SOL    HW123647   4.054   3.863   1.983
 7609SOL    HW223648   4.084   3.726   2.069
 7610SOL     OW23649   4.718   4.077   2.262
 7610SOL    HW123650   4.666   4.070   2.177
 7610SOL    HW223651   4.811   4.043   2.247
 7611SOL     OW23652   4.934   5.299   2.660
 7611SOL    HW123653   4.948   5.372   2.594
 7611SOL    HW223654   5.021   5.275   2.703
 7612SOL     OW23655   4.193   4.901   2.542
 7612SOL    HW123656   4.132   4.876   2.616
 7612SOL    HW223657   4.144   4.896   2.455
 7613SOL     OW23658   4.968   5.514   2.482
 7613SOL    HW123659   5.019   5.577   2.424
 7613SOL    HW223660   4.890   5.561   2.522
 7614SOL     OW23661   4.753   4.245   1.870
 7614SOL    HW123662   4.702   4.331   1.858
 7614SOL    HW223663   4.822   4.257   1.942
 7615SOL     OW23664   3.832   4.204   3.352
 7615SOL    HW123665   3.907   4.186   3.289
 7615SOL    HW223666   3.807   4.301   3.347
 7616SOL     OW23667   4.306   3.801   3.064
 7616SOL    HW123668   4.318   3.737   3.140
 7616SOL    HW223669   4.216   3.844   3.070
 7617SOL     OW23670   4.651   4.296   2.414
 7617SOL    HW123671   4.568   4.330   2.370
 7617SOL    HW223672   4.679   4.210   2.372
 7618SOL     OW23673   5.187   4.916   2.710
 7618SOL    HW123674   5.133   4.841   2.747
 7618SOL    HW223675   5.186   4.913   2.610
 7619SOL     OW23676   5.564   4.519   2.235
 7619SOL    HW123677   5.622   4.478   2.305
 7619SOL    HW223678   5.537   4.449   2.169
 7620SOL     OW23679   4.220   5.158   2.010
 7620SOL    HW123680   4.139   5.129   2.061
 7620SOL    HW223681   4.225   5.108   1.924
 7621SOL     OW23682   5.452   5.014   2.485
 7621SOL    HW123683   5.548   5.006   2.511
 7621SOL    HW223684   5.417   5.103   2.515
 7622SOL     OW23685   5.123   4.318   1.892
 7622SOL    HW123686   5.067   4.285   1.968
 7622SOL    HW223687   5.219   4.297   1.910
 7623SOL     OW23688   4.264   3.999   2.118
 7623SOL    HW123689   4.327   3.943   2.064
 7623SOL    HW223690   4.232   4.076   2.063
 7624SOL     OW23691   5.454   4.969   3.393
 7624SOL    HW123692   5.539   4.919   3.377
 7624SOL    HW223693   5.474   5.059   3.431
 7625SOL     OW23694   4.757   5.138   3.239
 7625SOL    HW123695   4.670   5.096   3.262
 7625SOL    HW223696   4.831   5.072   3.253
 7626SOL     OW23697   5.345   5.369   3.536
 7626SOL    HW123698   5.323   5.404   3.445
 7626SOL    HW223699   5.424   5.308   3.530
 7627SOL     OW23700   4.826   4.999   2.962
 7627SOL    HW123701   4.750   4.953   3.008
 7627SOL    HW223702   4.799   5.024   2.869
 7628SOL     OW23703   5.349   4.847   2.939
 7628SOL    HW123704   5.338   4.906   3.018
 7628SOL    HW223705   5.289   4.878   2.865
 7629SOL     OW23706   4.651   3.809   3.284
 7629SOL    HW123707   4.668   3.770   3.194
 7629SOL    HW223708   4.733   3.856   3.317
 7630SOL     OW23709   4.668   4.906   3.566
 7630SOL    HW123710   4.579   4.908   3.611
 7630SOL    HW223711   4.657   4.887   3.469
 7631SOL     OW23712   4.445   4.797   2.204
 7631SOL    HW123713   4.435   4.771   2.300
 7631SOL    HW223714   4.517   4.741   2.161
 7632SOL     OW23715   5.022   4.080   3.162
 7632SOL    HW123716   5.082   4.154   3.195
 7632SOL    HW223717   4.927   4.109   3.171
 7633SOL     OW23718   3.805   5.323   3.225
 7633SOL    HW123719   3.772   5.399   3.168
 7633SOL    HW223720   3.905   5.318   3.217
 7634SOL     OW23721   4.028   4.869   2.324
 7634SOL    HW123722   4.029   4.948   2.263
 7634SOL    HW223723   4.029   4.785   2.269
 7635SOL     OW23724   4.973   5.078   2.286
 7635SOL    HW123725   5.036   5.152   2.311
 7635SOL    HW223726   4.880   5.106   2.306
 7636SOL     OW23727   5.011   5.204   3.004
 7636SOL    HW123728   5.060   5.206   3.091
 7636SOL    HW223729   4.940   5.133   3.007
 7637SOL     OW23730   5.226   4.286   2.408
 7637SOL    HW123731   5.254   4.351   2.479
 7637SOL    HW223732   5.201   4.337   2.326
 7638SOL     OW23733   4.072   5.283   3.149
 7638SOL    HW123734   4.063   5.220   3.072
 7638SOL    HW223735   4.168   5.308   3.160
 7639SOL     OW23736   5.342   4.498   3.540
 7639SOL    HW123737   5.260   4.449   3.511
 7639SOL    HW223738   5.366   4.567   3.471
 7640SOL     OW23739   4.762   3.812   3.606
 7640SOL    HW123740   4.811   3.897   3.585
 7640SOL    HW223741   4.823   3.734   3.592
 7641SOL     OW23742   4.202   3.718   3.606
 7641SOL    HW123743   4.143   3.664   3.546
 7641SOL    HW223744   4.153   3.800   3.635
 7642SOL     OW23745   4.210   4.782   2.910
 7642SOL    HW123746   4.299   4.828   2.905
 7642SOL    HW223747   4.223   4.685   2.928
 7643SOL     OW23748   5.058   4.698   2.807
 7643SOL    HW123749   5.035   4.676   2.712
 7643SOL    HW223750   5.031   4.622   2.866
 7644SOL     OW23751   4.936   4.256   2.081
 7644SOL    HW123752   4.952   4.174   2.135
 7644SOL    HW223753   4.887   4.324   2.137
 7645SOL     OW23754   4.056   3.860   3.175
 7645SOL    HW123755   4.013   3.897   3.258
 7645SOL    HW223756   4.032   3.763   3.165
 7646SOL     OW23757   3.765   5.079   3.110
 7646SOL    HW123758   3.785   5.011   3.181
 7646SOL    HW223759   3.770   5.171   3.150
 7647SOL     OW23760   5.474   4.677   3.717
 7647SOL    HW123761   5.425   4.608   3.663
 7647SOL    HW223762   5.417   4.705   3.794
 7648SOL     OW23763   5.361   4.120   2.216
 7648SOL    HW123764   5.404   4.039   2.258
 7648SOL    HW223765   5.308   4.169   2.285
 7649SOL     OW23766   4.713   5.310   3.624
 7649SOL    HW123767   4.678   5.361   3.545
 7649SOL    HW223768   4.761   5.228   3.591
 7650SOL     OW23769   5.566   5.214   3.464
 7650SOL    HW123770   5.587   5.244   3.370
 7650SOL    HW223771   5.648   5.223   3.521
 7651SOL     OW23772   5.254   3.994   1.975
 7651SOL    HW123773   5.207   3.910   2.001
 7651SOL    HW223774   5.290   4.039   2.056
 7652SOL     OW23775   5.007   4.566   1.863
 7652SOL    HW123776   5.040   4.472   1.871
 7652SOL    HW223777   5.040   4.606   1.778
 7653SOL     OW23778   4.770   5.080   2.706
 7653SOL    HW123779   4.787   5.000   2.649
 7653SOL    HW223780   4.831   5.155   2.677
 7654SOL     OW23781   4.887   4.049   3.539
 7654SOL    HW123782   4.835   4.098   3.609
 7654SOL    HW223783   4.971   4.099   3.519
 7655SOL     OW23784   4.920   3.883   3.329
 7655SOL    HW123785   4.900   3.946   3.404
 7655SOL    HW223786   4.961   3.934   3.253
 7656SOL     OW23787   3.741   5.027   2.037
 7656SOL    HW123788   3.648   5.051   2.010
 7656SOL    HW223789   3.742   4.934   2.074
 7657SOL     OW23790   3.821   5.487   2.814
 7657SOL    HW123791   3.777   5.411   2.766
 7657SOL    HW223792   3.911   5.504   2.774
 7658SOL     OW23793   4.211   5.290   2.759
 7658SOL    HW123794   4.284   5.352   2.790
 7658SOL    HW223795   4.244   5.233   2.685
 7659SOL     OW23796   3.992   4.190   3.578
 7659SOL    HW123797   4.075   4.155   3.534
 7659SOL    HW223798   3.922   4.206   3.509
 7660SOL     OW23799   4.547   4.334   2.140
 7660SOL    HW123800   4.549   4.241   2.103
 7660SOL    HW223801   4.460   4.377   2.116
 7661SOL     OW23802   5.370   4.381   3.052
 7661SOL    HW123803   5.326   4.322   3.120
 7661SOL    HW223804   5.454   4.337   3.019
 7662SOL     OW23805   3.969   5.282   3.578
 7662SOL    HW123806   3.944   5.357   3.640
 7662SOL    HW223807   3.987   5.199   3.632
 7663SOL     OW23808   4.398   4.059   3.126
 7663SOL    HW123809   4.374   3.964   3.108
 7663SOL    HW223810   4.460   4.092   3.055
 7664SOL     OW23811   4.599   5.435   3.396
 7664SOL    HW123812   4.583   5.363   3.330
 7664SOL    HW223813   4.618   5.521   3.348
 7665SOL     OW23814   4.173   4.219   1.977
 7665SOL    HW123815   4.243   4.288   1.994
 7665SOL    HW223816   4.083   4.257   1.997
 7666SOL     OW23817   3.848   4.900   3.305
 7666SOL    HW123818   3.873   4.851   3.389
 7666SOL    HW223819   3.899   4.863   3.228
 7667SOL     OW23820   5.042   4.858   3.040
 7667SOL    HW123821   5.073   4.798   2.967
 7667SOL    HW223822   4.963   4.911   3.009
 7668SOL     OW23823   5.042   4.576   2.134
 7668SOL    HW123824   4.957   4.546   2.178
 7668SOL    HW223825   5.030   4.574   2.035
 7669SOL     OW23826   5.499   5.441   3.027
 7669SOL    HW123827   5.569   5.471   2.961
 7669SOL    HW223828   5.464   5.352   3.000
 7670SOL     OW23829   4.972   5.474   2.956
 7670SOL    HW123830   5.062   5.504   2.926
 7670SOL    HW223831   4.975   5.377   2.977
 7671SOL     OW23832   3.825   4.961   2.876
 7671SOL    HW123833   3.789   5.013   2.953
 7671SOL    HW223834   3.752   4.906   2.836
 7672SOL     OW23835   4.414   5.431   3.610
 7672SOL    HW123836   4.345   5.503   3.603
 7672SOL    HW223837   4.484   5.445   3.539
 7673SOL     OW23838   5.508   3.925   2.350
 7673SOL    HW123839   5.561   3.909   2.267
 7673SOL    HW223840   5.457   3.843   2.375
 7674SOL     OW23841   5.126   5.300   2.363
 7674SOL    HW123842   5.185   5.334   2.289
 7674SOL    HW223843   5.062   5.372   2.390
 7675SOL     OW23844   3.873   5.512   3.706
 7675SOL    HW123845   3.815   5.442   3.747
 7675SOL    HW223846   3.923   5.560   3.778
 7676SOL     OW23847   5.043   4.627   2.542
 7676SOL    HW123848   5.123   4.568   2.552
 7676SOL    HW223849   5.067   4.709   2.491
 7677SOL     OW23850   4.506   5.022   3.283
 7677SOL    HW123851   4.479   5.073   3.365
 7677SOL    HW223852   4.433   5.027   3.215
 7678SOL     OW23853   4.396   5.367   2.011
 7678SOL    HW123854   4.416   5.387   1.916
 7678SOL    HW223855   4.343   5.282   2.017
 7679SOL     OW23856   5.337   5.455   3.260
 7679SOL    HW123857   5.395   5.450   3.179
 7679SOL    HW223858   5.321   5.551   3.284
 7680SOL     OW23859   5.556   3.885   2.811
 7680SOL    HW123860   5.589   3.792   2.792
 7680SOL    HW223861   5.462   3.894   2.777
 7681SOL     OW23862   4.942   5.296   1.914
 7681SOL    HW123863   4.936   5.203   1.952
 7681SOL    HW223864   4.865   5.312   1.853
 7682SOL     OW23865   4.634   4.859   3.107
 7682SOL    HW123866   4.677   4.781   3.153
 7682SOL    HW223867   4.586   4.915   3.175
 7683SOL     OW23868   4.637   4.652   2.067
 7683SOL    HW123869   4.704   4.712   2.022
 7683SOL    HW223870   4.686   4.582   2.119
 7684SOL     OW23871   5.211   5.375   1.921
 7684SOL    HW123872   5.115   5.347   1.909
 7684SOL    HW223873   5.255   5.381   1.832
 7685SOL     OW23874   4.075   5.067   3.338
 7685SOL    HW123875   4.082   5.147   3.279
 7685SOL    HW223876   3.990   5.018   3.319
 7686SOL     OW23877   5.329   5.034   3.148
 7686SOL    HW123878   5.383   5.005   3.227
 7686SOL    HW223879   5.257   5.097   3.178
 7687SOL     OW23880   4.793   4.838   2.580
 7687SOL    HW123881   4.711   4.795   2.617
 7687SOL    HW223882   4.837   4.775   2.516
 7688SOL     OW23883   4.685   3.930   3.001
 7688SOL    HW123884   4.729   3.958   2.915
 7688SOL    HW223885   4.701   3.833   3.017
 7689SOL     OW23886   4.328   5.230   2.318
 7689SOL    HW123887   4.388   5.173   2.261
 7689SOL    HW223888   4.252   5.263   2.262
 7690SOL     OW23889   5.542   4.077   3.290
 7690SOL    HW123890   5.578   4.167   3.267
 7690SOL    HW223891   5.541   4.020   3.208
 7691SOL     OW23892   3.994   5.085   2.155
 7691SOL    HW123893   3.904   5.073   2.112
 7691SOL    HW223894   3.982   5.132   2.242
 7692SOL     OW23895   3.779   4.898   3.621
 7692SOL    HW123896   3.705   4.943   3.571
 7692SOL    HW223897   3.746   4.811   3.657
 7693SOL     OW23898   4.406   3.873   3.401
 7693SOL    HW123899   4.487   3.869   3.342
 7693SOL    HW223900   4.435   3.889   3.495
 7694SOL     OW23901   3.817   4.063   1.824
 7694SOL    HW123902   3.732   4.050   1.773
 7694SOL    HW223903   3.857   4.151   1.800
 7695SOL     OW23904   3.767   3.902   2.061
 7695SOL    HW123905   3.764   3.972   1.989
 7695SOL    HW223906   3.860   3.864   2.067
 7696SOL     OW23907   4.932   5.032   2.009
 7696SOL    HW123908   4.881   4.947   1.995
 7696SOL    HW223909   4.946   5.046   2.107
 7697SOL     OW23910   5.229   5.550   2.888
 7697SOL    HW123911   5.256   5.616   2.818
 7697SOL    HW223912   5.310   5.506   2.925
 7698SOL     OW23913   4.447   4.169   3.621
 7698SOL    HW123914   4.520   4.224   3.662
 7698SOL    HW223915   4.471   4.072   3.626
 7699SOL     OW23916   5.183   4.939   3.473
 7699SOL    HW123917   5.176   4.935   3.573
 7699SOL    HW223918   5.277   4.961   3.447
 7700SOL     OW23919   4.077   5.493   3.429
 7700SOL    HW123920   3.990   5.542   3.419
 7700SOL    HW223921   4.059   5.402   3.466
 7701SOL     OW23922   5.465   4.636   3.094
 7701SOL    HW123923   5.429   4.546   3.072
 7701SOL    HW223924   5.427   4.704   3.032
 7702SOL     OW23925   4.992   4.032   2.231
 7702SOL    HW123926   5.054   3.961   2.198
 7702SOL    HW223927   5.009   4.049   2.328
 7703SOL     OW23928   4.308   4.484   2.483
 7703SOL    HW123929   4.348   4.575   2.474
 7703SOL    HW223930   4.240   4.471   2.411
 7704SOL     OW23931   5.457   4.053   3.550
 7704SOL    HW123932   5.488   4.063   3.456
 7704SOL    HW223933   5.381   3.988   3.554
 7705SOL     OW23934   5.354   4.686   3.340
 7705SOL    HW123935   5.365   4.782   3.367
 7705SOL    HW223936   5.404   4.669   3.255
 7706SOL     OW23937   4.568   5.087   1.917
 7706SOL    HW123938   4.550   5.097   2.015
 7706SOL    HW223939   4.610   5.170   1.881
 7707SOL     OW23940   4.400   5.478   2.798
 7707SOL    HW123941   4.376   5.575   2.791
 7707SOL    HW223942   4.500   5.468   2.792
 7708SOL     OW23943   4.571   4.717   2.688
 7708SOL    HW123944   4.573   4.620   2.712
 7708SOL    HW223945   4.533   4.769   2.765
 7709SOL     OW23946   4.838   4.782   1.930
 7709SOL    HW123947   4.785   4.807   1.848
 7709SOL    HW223948   4.898   4.706   1.908
 7710SOL     OW23949   5.543   5.288   2.713
 7710SOL    HW123950   5.470   5.283   2.644
 7710SOL    HW223951   5.516   5.235   2.794
 7711SOL     OW23952   3.987   5.046   3.725
 7711SOL    HW123953   3.910   4.991   3.690
 7711SOL    HW223954   3.978   5.057   3.824
 7712SOL     OW23955   3.827   4.943   2.513
 7712SOL    HW123956   3.861   4.899   2.596
 7712SOL    HW223957   3.886   4.921   2.436
 7713SOL     OW23958   4.415   5.169   3.491
 7713SOL    HW123959   4.336   5.116   3.522
 7713SOL    HW223960   4.418   5.256   3.541
 7714SOL     OW23961   5.535   3.895   3.087
 7714SOL    HW123962   5.528   3.797   3.104
 7714SOL    HW223963   5.541   3.913   2.989
 7715SOL     OW23964   4.198   4.183   2.309
 7715SOL    HW123965   4.216   4.107   2.246
 7715SOL    HW223966   4.256   4.173   2.390
 7716SOL     OW23967   5.401   5.203   2.941
 7716SOL    HW123968   5.318   5.198   2.886
 7716SOL    HW223969   5.396   5.136   3.015
 7717SOL     OW23970   4.051   4.152   3.208
 7717SOL    HW123971   4.123   4.131   3.275
 7717SOL    HW223972   4.074   4.110   3.121
 7718SOL     OW23973   4.560   5.321   2.527
 7718SOL    HW123974   4.538   5.398   2.467
 7718SOL    HW223975   4.481   5.260   2.533
 7719SOL     OW23976   5.146   3.946   2.961
 7719SOL    HW123977   5.150   3.850   2.990
 7719SOL    HW223978   5.100   4.001   3.031
 7720SOL     OW23979   4.735   3.667   3.065
 7720SOL    HW123980   4.688   3.580   3.081
 7720SOL    HW223981   4.826   3.650   3.029
 7721SOL     OW23982   4.510   5.068   2.188
 7721SOL    HW123983   4.486   4.971   2.193
 7721SOL    HW223984   4.592   5.084   2.243
 7722SOL     OW23985   4.341   5.335   3.143
 7722SOL    HW123986   4.333   5.426   3.184
 7722SOL    HW223987   4.432   5.324   3.104
 7723SOL     OW23988   5.120   3.745   1.999
 7723SOL    HW123989   5.162   3.663   1.959
 7723SOL    HW223990   5.022   3.729   2.011
 7724SOL     OW23991   5.292   3.903   2.738
 7724SOL    HW123992   5.241   3.935   2.818
 7724SOL    HW223993   5.251   3.939   2.655
 7725SOL     OW23994   3.759   4.774   2.155
 7725SOL    HW123995   3.856   4.759   2.134
 7725SOL    HW223996   3.714   4.686   2.168
 7726SOL     OW23997   4.619   5.409   2.185
 7726SOL    HW123998   4.540   5.387   2.127
 7726SOL    HW223999   4.593   5.479   2.251
 7727SOL     OW24000   3.921   4.045   4.803
 7727SOL    HW124001   3.963   3.985   4.871
 7727SOL    HW224002   3.822   4.033   4.806
 7728SOL     OW24003   4.295   5.052   4.953
 7728SOL    HW124004   4.211   5.049   4.900
 7728SOL    HW224005   4.316   5.146   4.979
 7729SOL     OW24006   5.317   5.240   4.428
 7729SOL    HW124007   5.267   5.211   4.509
 7729SOL    HW224008   5.253   5.264   4.356
 7730SOL     OW24009   4.813   4.539   4.467
 7730SOL    HW124010   4.891   4.595   4.441
 7730SOL    HW224011   4.799   4.543   4.565
 7731SOL     OW24012   5.510   4.300   3.951
 7731SOL    HW124013   5.481   4.300   3.856
 7731SOL    HW224014   5.459   4.229   4.001
 7732SOL     OW24015   4.437   4.884   4.785
 7732SOL    HW124016   4.381   4.919   4.860
 7732SOL    HW224017   4.479   4.960   4.735
 7733SOL     OW24018   4.607   4.458   5.583
 7733SOL    HW124019   4.598   4.517   5.663
 7733SOL    HW224020   4.626   4.513   5.503
 7734SOL     OW24021   4.423   4.735   4.384
 7734SOL    HW124022   4.489   4.738   4.459
 7734SOL    HW224023   4.350   4.801   4.401
 7735SOL     OW24024   4.430   4.884   5.563
 7735SOL    HW124025   4.488   4.954   5.604
 7735SOL    HW224026   4.350   4.928   5.521
 7736SOL     OW24027   4.070   5.121   4.799
 7736SOL    HW124028   3.991   5.072   4.761
 7736SOL    HW224029   4.112   5.176   4.728
 7737SOL     OW24030   5.169   5.236   5.100
 7737SOL    HW124031   5.229   5.315   5.113
 7737SOL    HW224032   5.091   5.242   5.163
 7738SOL     OW24033   4.199   4.097   5.191
 7738SOL    HW124034   4.278   4.036   5.199
 7738SOL    HW224035   4.116   4.050   5.221
 7739SOL     OW24036   5.375   4.198   4.514
 7739SOL    HW124037   5.333   4.262   4.450
 7739SOL    HW224038   5.384   4.241   4.603
 7740SOL     OW24039   3.952   5.453   4.195
 7740SOL    HW124040   3.973   5.527   4.258
 7740SOL    HW224041   4.027   5.442   4.130
 7741SOL     OW24042   4.858   5.066   5.429
 7741SOL    HW124043   4.911   5.056   5.513
 7741SOL    HW224044   4.799   4.986   5.416
 7742SOL     OW24045   3.959   5.181   4.254
 7742SOL    HW124046   3.945   5.280   4.259
 7742SOL    HW224047   3.912   5.136   4.330
 7743SOL     OW24048   4.024   4.825   4.593
 7743SOL    HW124049   4.029   4.727   4.615
 7743SOL    HW224050   3.969   4.871   4.663
 7744SOL     OW24051   4.281   5.559   5.134
 7744SOL    HW124052   4.205   5.529   5.191
 7744SOL    HW224053   4.328   5.635   5.178
 7745SOL     OW24054   4.298   4.875   3.953
 7745SOL    HW124055   4.333   4.870   3.859
 7745SOL    HW224056   4.370   4.848   4.017
 7746SOL     OW24057   5.323   3.856   5.193
 7746SOL    HW124058   5.357   3.937   5.146
 7746SOL    HW224059   5.279   3.883   5.279
 7747SOL     OW24060   5.581   5.473   4.044
 7747SOL    HW124061   5.658   5.459   4.107
 7747SOL    HW224062   5.583   5.567   4.009
 7748SOL     OW24063   3.752   5.310   3.833
 7748SOL    HW124064   3.731   5.214   3.849
 7748SOL    HW224065   3.736   5.362   3.918
 7749SOL     OW24066   5.436   4.656   4.379
 7749SOL    HW124067   5.529   4.619   4.380
 7749SOL    HW224068   5.420   4.704   4.293
 7750SOL     OW24069   5.401   4.845   4.158
 7750SOL    HW124070   5.490   4.832   4.115
 7750SOL    HW224071   5.411   4.902   4.239
 7751SOL     OW24072   3.850   4.474   5.299
 7751SOL    HW124073   3.941   4.516   5.303
 7751SOL    HW224074   3.782   4.545   5.282
 7752SOL     OW24075   4.346   5.129   4.442
 7752SOL    HW124076   4.300   5.041   4.443
 7752SOL    HW224077   4.338   5.169   4.350
 7753SOL     OW24078   4.981   4.953   5.153
 7753SOL    HW124079   5.004   4.884   5.084
 7753SOL    HW224080   5.047   4.948   5.227
 7754SOL     OW24081   4.513   3.683   4.177
 7754SOL    HW124082   4.576   3.756   4.151
 7754SOL    HW224083   4.419   3.717   4.173
 7755SOL     OW24084   3.913   4.674   5.027
 7755SOL    HW124085   4.003   4.632   5.011
 7755SOL    HW224086   3.849   4.642   4.956
 7756SOL     OW24087   5.281   4.744   3.927
 7756SOL    HW124088   5.220   4.671   3.959
 7756SOL    HW224089   5.327   4.785   4.006
 7757SOL     OW24090   4.913   5.542   5.358
 7757SOL    HW124091   4.910   5.612   5.287
 7757SOL    HW224092   4.923   5.452   5.316
 7758SOL     OW24093   4.078   3.982   5.607
 7758SOL    HW124094   4.118   4.063   5.649
 7758SOL    HW224095   3.980   3.994   5.596
 7759SOL     OW24096   5.200   5.138   4.653
 7759SOL    HW124097   5.133   5.163   4.723
 7759SOL    HW224098   5.187   5.042   4.626
 7760SOL     OW24099   5.357   5.559   4.271
 7760SOL    HW124100   5.349   5.502   4.189
 7760SOL    HW224101   5.364   5.501   4.352
 7761SOL     OW24102   5.040   4.175   4.700
 7761SOL    HW124103   4.967   4.141   4.642
 7761SOL    HW224104   5.074   4.101   4.758
 7762SOL     OW24105   5.317   5.405   4.043
 7762SOL    HW124106   5.416   5.417   4.037
 7762SOL    HW224107   5.279   5.393   3.950
 7763SOL     OW24108   4.522   4.313   5.174
 7763SOL    HW124109   4.494   4.288   5.267
 7763SOL    HW224110   4.501   4.237   5.112
 7764SOL     OW24111   5.115   4.197   5.394
 7764SOL    HW124112   5.119   4.246   5.481
 7764SOL    HW224113   5.161   4.108   5.403
 7765SOL     OW24114   4.661   4.597   5.346
 7765SOL    HW124115   4.719   4.533   5.296
 7765SOL    HW224116   4.603   4.646   5.282
 7766SOL     OW24117   4.728   4.067   4.878
 7766SOL    HW124118   4.639   4.088   4.919
 7766SOL    HW224119   4.742   3.968   4.877
 7767SOL     OW24120   3.812   4.613   4.481
 7767SOL    HW124121   3.896   4.576   4.521
 7767SOL    HW224122   3.770   4.676   4.546
 7768SOL     OW24123   3.829   5.614   5.324
 7768SOL    HW124124   3.842   5.582   5.418
 7768SOL    HW224125   3.737   5.591   5.293
 7769SOL     OW24126   4.617   4.034   3.881
 7769SOL    HW124127   4.681   4.097   3.837
 7769SOL    HW224128   4.565   3.984   3.811
 7770SOL     OW24129   5.394   4.286   5.560
 7770SOL    HW124130   5.378   4.369   5.506
 7770SOL    HW224131   5.421   4.212   5.498
 7771SOL     OW24132   5.123   4.889   4.225
 7771SOL    HW124133   5.215   4.887   4.185
 7771SOL    HW224134   5.074   4.968   4.190
 7772SOL     OW24135   4.738   5.218   4.197
 7772SOL    HW124136   4.712   5.293   4.136
 7772SOL    HW224137   4.703   5.236   4.289
 7773SOL     OW24138   4.081   5.531   4.606
 7773SOL    HW124139   4.123   5.441   4.611
 7773SOL    HW224140   4.147   5.601   4.632
 7774SOL     OW24141   5.521   4.767   4.629
 7774SOL    HW124142   5.475   4.754   4.542
 7774SOL    HW224143   5.453   4.780   4.702
 7775SOL     OW24144   4.928   5.264   5.241
 7775SOL    HW124145   4.922   5.194   5.312
 7775SOL    HW224146   4.865   5.242   5.167
 7776SOL     OW24147   5.262   4.449   4.415
 7776SOL    HW124148   5.235   4.440   4.511
 7776SOL    HW224149   5.326   4.525   4.405
 7777SOL     OW24150   4.194   5.018   5.473
 7777SOL    HW124151   4.172   5.022   5.375
 7777SOL    HW224152   4.110   5.002   5.525
 7778SOL     OW24153   4.865   5.515   3.959
 7778SOL    HW124154   4.775   5.490   3.995
 7778SOL    HW224155   4.891   5.450   3.887
 7779SOL     OW24156   3.948   3.989   5.244
 7779SOL    HW124157   3.880   4.062   5.239
 7779SOL    HW224158   3.908   3.908   5.286
 7780SOL     OW24159   5.360   5.119   3.819
 7780SOL    HW124160   5.323   5.211   3.806
 7780SOL    HW224161   5.295   5.052   3.784
 7781SOL     OW24162   4.187   5.470   4.042
 7781SOL    HW124163   4.233   5.525   4.113
 7781SOL    HW224164   4.256   5.431   3.981
 7782SOL     OW24165   5.194   3.884   4.120
 7782SOL    HW124166   5.148   3.830   4.050
 7782SOL    HW224167   5.244   3.822   4.182
 7783SOL     OW24168   3.952   5.514   4.932
 7783SOL    HW124169   4.006   5.436   4.964
 7783SOL    HW224170   3.920   5.496   4.839
 7784SOL     OW24171   4.672   5.430   4.618
 7784SOL    HW124172   4.762   5.391   4.635
 7784SOL    HW224173   4.628   5.382   4.542
 7785SOL     OW24174   5.214   3.936   5.442
 7785SOL    HW124175   5.232   3.955   5.539
 7785SOL    HW224176   5.139   3.870   5.435
 7786SOL     OW24177   4.366   3.760   3.821
 7786SOL    HW124178   4.402   3.676   3.861
 7786SOL    HW224179   4.299   3.738   3.750
 7787SOL     OW24180   4.487   3.989   5.494
 7787SOL    HW124181   4.576   3.943   5.485
 7787SOL    HW224182   4.432   3.941   5.563
 7788SOL     OW24183   4.581   5.251   4.912
 7788SOL    HW124184   4.562   5.208   4.824
 7788SOL    HW224185   4.649   5.198   4.962
 7789SOL     OW24186   5.036   4.314   5.157
 7789SOL    HW124187   5.074   4.280   5.243
 7789SOL    HW224188   5.072   4.405   5.138
 7790SOL     OW24189   4.532   5.111   4.666
 7790SOL    HW124190   4.626   5.108   4.633
 7790SOL    HW224191   4.470   5.124   4.589
 7791SOL     OW24192   4.690   4.277   4.698
 7791SOL    HW124193   4.687   4.244   4.604
 7791SOL    HW224194   4.712   4.201   4.760
 7792SOL     OW24195   4.256   3.780   4.154
 7792SOL    HW124196   4.241   3.814   4.247
 7792SOL    HW224197   4.254   3.856   4.089
 7793SOL     OW24198   5.171   4.929   3.751
 7793SOL    HW124199   5.208   4.857   3.810
 7793SOL    HW224200   5.098   4.978   3.799
 7794SOL     OW24201   4.003   3.780   3.912
 7794SOL    HW124202   4.048   3.843   3.849
 7794SOL    HW224203   4.064   3.704   3.934
 7795SOL     OW24204   4.693   3.849   4.066
 7795SOL    HW124205   4.665   3.924   4.007
 7795SOL    HW224206   4.769   3.800   4.024
 7796SOL     OW24207   4.781   4.419   5.178
 7796SOL    HW124208   4.705   4.354   5.183
 7796SOL    HW224209   4.867   4.369   5.174
 7797SOL     OW24210   4.930   5.325   4.534
 7797SOL    HW124211   4.946   5.384   4.456
 7797SOL    HW224212   4.987   5.355   4.611
 7798SOL     OW24213   4.201   4.897   4.401
 7798SOL    HW124214   4.139   4.872   4.475
 7798SOL    HW224215   4.153   4.894   4.314
 7799SOL     OW24216   4.967   5.526   4.342
 7799SOL    HW124217   5.019   5.590   4.286
 7799SOL    HW224218   4.888   5.572   4.381
 7800SOL     OW24219   4.793   4.194   3.747
 7800SOL    HW124220   4.783   4.289   3.718
 7800SOL    HW224221   4.870   4.187   3.811
 7801SOL     OW24222   3.837   4.262   5.130
 7801SOL    HW124223   3.929   4.258   5.092
 7801SOL    HW224224   3.829   4.339   5.192
 7802SOL     OW24225   4.298   3.924   4.933
 7802SOL    HW124226   4.332   3.840   4.975
 7802SOL    HW224227   4.199   3.930   4.948
 7803SOL     OW24228   5.202   4.874   4.568
 7803SOL    HW124229   5.133   4.808   4.539
 7803SOL    HW224230   5.266   4.892   4.492
 7804SOL     OW24231   5.202   4.388   4.679
 7804SOL    HW124232   5.137   4.312   4.683
 7804SOL    HW224233   5.265   4.382   4.757
 7805SOL     OW24234   5.565   4.523   4.102
 7805SOL    HW124235   5.621   4.483   4.175
 7805SOL    HW224236   5.534   4.450   4.040
 7806SOL     OW24237   4.231   5.151   3.940
 7806SOL    HW124238   4.132   5.148   3.947
 7806SOL    HW224239   4.267   5.057   3.940
 7807SOL     OW24240   5.430   4.984   4.388
 7807SOL    HW124241   5.529   4.977   4.402
 7807SOL    HW224242   5.402   5.079   4.399
 7808SOL     OW24243   5.176   4.204   3.786
 7808SOL    HW124244   5.192   4.110   3.817
 7808SOL    HW224245   5.263   4.251   3.774
 7809SOL     OW24246   4.262   3.969   3.965
 7809SOL    HW124247   4.311   3.902   3.910
 7809SOL    HW224248   4.245   4.051   3.909
 7810SOL     OW24249   5.462   4.965   5.259
 7810SOL    HW124250   5.552   4.926   5.239
 7810SOL    HW224251   5.474   5.056   5.299
 7811SOL     OW24252   4.752   5.086   5.071
 7811SOL    HW124253   4.667   5.053   5.110
 7811SOL    HW224254   4.829   5.037   5.112
 7812SOL     OW24255   5.340   5.370   5.399
 7812SOL    HW124256   5.321   5.407   5.308
 7812SOL    HW224257   5.419   5.309   5.394
 7813SOL     OW24258   4.868   4.989   4.838
 7813SOL    HW124259   4.806   5.019   4.910
 7813SOL    HW224260   4.832   5.017   4.749
 7814SOL     OW24261   5.328   4.817   4.819
 7814SOL    HW124262   5.320   4.888   4.889
 7814SOL    HW224263   5.262   4.834   4.745
 7815SOL     OW24264   4.653   3.811   5.135
 7815SOL    HW124265   4.675   3.797   5.039
 7815SOL    HW224266   4.732   3.851   5.182
 7816SOL     OW24267   4.692   4.847   5.447
 7816SOL    HW124268   4.600   4.868   5.479
 7816SOL    HW224269   4.693   4.757   5.404
 7817SOL     OW24270   4.500   4.810   4.129
 7817SOL    HW124271   4.470   4.783   4.221
 7817SOL    HW224272   4.580   4.755   4.104
 7818SOL     OW24273   4.148   4.537   4.987
 7818SOL    HW124274   4.223   4.548   5.052
 7818SOL    HW224275   4.117   4.443   4.988
 7819SOL     OW24276   4.968   4.088   5.019
 7819SOL    HW124277   4.993   4.174   5.062
 7819SOL    HW224278   4.883   4.100   4.967
 7820SOL     OW24279   3.793   5.291   5.082
 7820SOL    HW124280   3.754   5.362   5.024
 7820SOL    HW224281   3.893   5.294   5.076
 7821SOL     OW24282   4.068   4.876   4.130
 7821SOL    HW124283   4.036   4.965   4.097
 7821SOL    HW224284   4.147   4.847   4.077
 7822SOL     OW24285   4.261   4.318   4.640
 7822SOL    HW124286   4.274   4.389   4.571
 7822SOL    HW224287   4.333   4.325   4.710
 7823SOL     OW24288   4.988   5.115   4.139
 7823SOL    HW124289   5.049   5.185   4.177
 7823SOL    HW224290   4.893   5.137   4.164
 7824SOL     OW24291   5.039   5.202   4.863
 7824SOL    HW124292   5.086   5.209   4.951
 7824SOL    HW224293   4.980   5.121   4.864
 7825SOL     OW24294   4.064   5.270   5.024
 7825SOL    HW124295   4.057   5.210   4.944
 7825SOL    HW224296   4.160   5.293   5.040
 7826SOL     OW24297   4.158   4.466   5.349
 7826SOL    HW124298   4.219   4.505   5.280
 7826SOL    HW224299   4.197   4.382   5.385
 7827SOL     OW24300   5.349   4.515   5.422
 7827SOL    HW124301   5.257   4.552   5.412
 7827SOL    HW224302   5.408   4.550   5.348
 7828SOL     OW24303   4.723   3.857   5.480
 7828SOL    HW124304   4.782   3.938   5.473
 7828SOL    HW224305   4.776   3.775   5.460
 7829SOL     OW24306   4.212   3.766   5.490
 7829SOL    HW124307   4.159   3.714   5.423
 7829SOL    HW224308   4.161   3.848   5.516
 7830SOL     OW24309   4.351   4.614   4.801
 7830SOL    HW124310   4.372   4.712   4.793
 7830SOL    HW224311   4.265   4.602   4.851
 7831SOL     OW24312   5.038   4.601   4.737
 7831SOL    HW124313   4.942   4.573   4.731
 7831SOL    HW224314   5.097   4.525   4.711
 7832SOL     OW24315   4.029   3.891   4.997
 7832SOL    HW124316   3.998   3.922   5.087
 7832SOL    HW224317   4.013   3.793   4.987
 7833SOL     OW24318   3.789   5.030   4.993
 7833SOL    HW124319   3.816   4.970   5.068
 7833SOL    HW224320   3.781   5.124   5.027
 7834SOL     OW24321   4.459   4.368   4.824
 7834SOL    HW124322   4.544   4.355   4.772
 7834SOL    HW224323   4.427   4.462   4.811
 7835SOL     OW24324   5.470   4.699   5.592
 7835SOL    HW124325   5.430   4.624   5.540
 7835SOL    HW224326   5.410   4.724   5.667
 7836SOL     OW24327   5.368   4.090   4.066
 7836SOL    HW124328   5.439   4.048   4.122
 7836SOL    HW224329   5.279   4.048   4.087
 7837SOL     OW24330   4.763   4.536   4.734
 7837SOL    HW124331   4.732   4.561   4.825
 7837SOL    HW224332   4.746   4.439   4.718
 7838SOL     OW24333   4.706   5.288   5.482
 7838SOL    HW124334   4.674   5.343   5.405
 7838SOL    HW224335   4.748   5.204   5.448
 7839SOL     OW24336   5.563   5.218   5.327
 7839SOL    HW124337   5.584   5.246   5.233
 7839SOL    HW224338   5.645   5.226   5.383
 7840SOL     OW24339   4.081   4.648   5.541
 7840SOL    HW124340   4.156   4.668   5.604
 7840SOL    HW224341   4.111   4.581   5.473
 7841SOL     OW24342   5.269   3.948   3.830
 7841SOL    HW124343   5.211   3.874   3.864
 7841SOL    HW224344   5.328   3.981   3.903
 7842SOL     OW24345   4.792   5.093   4.592
 7842SOL    HW124346   4.802   5.014   4.532
 7842SOL    HW224347   4.848   5.169   4.559
 7843SOL     OW24348   4.039   4.549   4.625
 7843SOL    HW124349   4.126   4.543   4.575
 7843SOL    HW224350   4.022   4.463   4.673
 7844SOL     OW24351   4.009   4.284   4.723
 7844SOL    HW124352   3.980   4.190   4.735
 7844SOL    HW224353   4.102   4.285   4.686
 7845SOL     OW24354   4.865   4.090   5.431
 7845SOL    HW124355   4.815   4.140   5.502
 7845SOL    HW224356   4.952   4.135   5.414
 7846SOL     OW24357   4.893   3.916   5.220
 7846SOL    HW124358   4.878   3.979   5.297
 7846SOL    HW224359   4.930   3.967   5.142
 7847SOL     OW24360   3.709   5.045   3.920
 7847SOL    HW124361   3.620   5.064   3.880
 7847SOL    HW224362   3.710   4.953   3.960
 7848SOL     OW24363   3.822   5.485   4.682
 7848SOL    HW124364   3.778   5.411   4.631
 7848SOL    HW224365   3.912   5.503   4.643
 7849SOL     OW24366   4.211   5.286   4.626
 7849SOL    HW124367   4.282   5.349   4.658
 7849SOL    HW224368   4.248   5.226   4.556
 7850SOL     OW24369   4.649   4.551   4.979
 7850SOL    HW124370   4.708   4.514   5.050
 7850SOL    HW224371   4.568   4.492   4.970
 7851SOL     OW24372   3.769   4.319   4.865
 7851SOL    HW124373   3.847   4.317   4.803
 7851SOL    HW224374   3.800   4.300   4.958
 7852SOL     OW24375   3.916   4.265   5.468
 7852SOL    HW124376   3.993   4.224   5.418
 7852SOL    HW224377   3.881   4.344   5.416
 7853SOL     OW24378   5.115   4.646   5.364
 7853SOL    HW124379   5.134   4.744   5.364
 7853SOL    HW224380   5.103   4.614   5.270
 7854SOL     OW24381   5.376   4.340   4.884
 7854SOL    HW124382   5.352   4.275   4.956
 7854SOL    HW224383   5.473   4.332   4.862
 7855SOL     OW24384   3.955   5.262   5.442
 7855SOL    HW124385   3.936   5.332   5.512
 7855SOL    HW224386   3.961   5.172   5.486
 7856SOL     OW24387   4.477   4.132   4.967
 7856SOL    HW124388   4.408   4.061   4.954
 7856SOL    HW224389   4.452   4.213   4.913
 7857SOL     OW24390   4.595   5.426   5.255
 7857SOL    HW124391   4.565   5.359   5.187
 7857SOL    HW224392   4.619   5.512   5.210
 7858SOL     OW24393   4.212   4.153   3.761
 7858SOL    HW124394   4.294   4.168   3.707
 7858SOL    HW224395   4.139   4.213   3.728
 7859SOL     OW24396   3.859   4.867   5.208
 7859SOL    HW124397   3.862   4.830   5.301
 7859SOL    HW224398   3.881   4.793   5.143
 7860SOL     OW24399   5.012   4.778   4.938
 7860SOL    HW124400   5.033   4.713   4.864
 7860SOL    HW224401   4.959   4.854   4.900
 7861SOL     OW24402   5.490   5.439   4.884
 7861SOL    HW124403   5.561   5.468   4.820
 7861SOL    HW224404   5.462   5.346   4.862
 7862SOL     OW24405   4.980   5.462   4.797
 7862SOL    HW124406   5.070   5.502   4.783
 7862SOL    HW224407   4.990   5.368   4.831
 7863SOL     OW24408   3.842   4.965   4.737
 7863SOL    HW124409   3.817   4.988   4.831
 7863SOL    HW224410   3.767   4.913   4.695
 7864SOL     OW24411   4.415   5.428   5.468
 7864SOL    HW124412   4.346   5.500   5.463
 7864SOL    HW224413   4.484   5.442   5.397
 7865SOL     OW24414   5.528   3.921   4.214
 7865SOL    HW124415   5.579   3.902   4.130
 7865SOL    HW224416   5.471   3.842   4.237
 7866SOL     OW24417   5.138   5.322   4.236
 7866SOL    HW124418   5.193   5.354   4.159
 7866SOL    HW224419   5.073   5.394   4.262
 7867SOL     OW24420   3.870   5.507   5.570
 7867SOL    HW124421   3.816   5.435   5.613
 7867SOL    HW224422   3.922   5.556   5.640
 7868SOL     OW24423   5.023   4.698   4.381
 7868SOL    HW124424   5.042   4.614   4.330
 7868SOL    HW224425   5.057   4.777   4.329
 7869SOL     OW24426   4.496   5.014   5.148
 7869SOL    HW124427   4.471   5.065   5.231
 7869SOL    HW224428   4.421   5.019   5.082
 7870SOL     OW24429   4.392   5.371   3.882
 7870SOL    HW124430   4.409   5.384   3.785
 7870SOL    HW224431   4.347   5.283   3.897
 7871SOL     OW24432   5.334   5.457   5.124
 7871SOL    HW124433   5.389   5.450   5.040
 7871SOL    HW224434   5.320   5.554   5.146
 7872SOL     OW24435   5.582   3.873   4.691
 7872SOL    HW124436   5.604   3.779   4.666
 7872SOL    HW224437   5.490   3.895   4.658
 7873SOL     OW24438   4.948   5.335   3.772
 7873SOL    HW124439   4.952   5.241   3.805
 7873SOL    HW224440   4.870   5.345   3.710
 7874SOL     OW24441   4.531   4.740   5.154
 7874SOL    HW124442   4.579   4.711   5.071
 7874SOL    HW224443   4.522   4.840   5.153
 7875SOL     OW24444   5.219   5.385   3.782
 7875SOL    HW124445   5.121   5.367   3.768
 7875SOL    HW224446   5.265   5.388   3.693
 7876SOL     OW24447   4.088   5.039   5.223
 7876SOL    HW124448   4.080   5.116   5.161
 7876SOL    HW224449   4.009   4.978   5.211
 7877SOL     OW24450   5.322   5.017   5.017
 7877SOL    HW124451   5.378   4.989   5.095
 7877SOL    HW224452   5.257   5.088   5.046
 7878SOL     OW24453   4.801   4.862   4.454
 7878SOL    HW124454   4.727   4.808   4.494
 7878SOL    HW224455   4.874   4.801   4.424
 7879SOL     OW24456   4.349   5.230   4.193
 7879SOL    HW124457   4.418   5.179   4.141
 7879SOL    HW224458   4.269   5.246   4.135
 7880SOL     OW24459   5.484   4.106   5.123
 7880SOL    HW124460   5.554   4.177   5.119
 7880SOL    HW224461   5.506   4.034   5.057
 7881SOL     OW24462   3.961   5.099   4.001
 7881SOL    HW124463   3.866   5.088   3.972
 7881SOL    HW224464   3.964   5.140   4.092
 7882SOL     OW24465   3.848   4.769   5.464
 7882SOL    HW124466   3.765   4.742   5.514
 7882SOL    HW224467   3.926   4.718   5.500
 7883SOL     OW24468   4.412   3.909   5.237
 7883SOL    HW124469   4.499   3.884   5.195
 7883SOL    HW224470   4.429   3.944   5.330
 7884SOL     OW24471   3.786   4.082   3.747
 7884SOL    HW124472   3.708   4.071   3.685
 7884SOL    HW224473   3.856   4.137   3.702
 7885SOL     OW24474   5.122   4.575   5.100
 7885SOL    HW124475   5.065   4.641   5.050
 7885SOL    HW224476   5.216   4.580   5.067
 7886SOL     OW24477   3.770   3.910   3.963
 7886SOL    HW124478   3.764   3.981   3.893
 7886SOL    HW224479   3.862   3.870   3.962
 7887SOL     OW24480   4.970   5.077   3.869
 7887SOL    HW124481   4.897   5.010   3.857
 7887SOL    HW224482   4.983   5.095   3.967
 7888SOL     OW24483   4.352   4.535   5.167
 7888SOL    HW124484   4.408   4.619   5.169
 7888SOL    HW224485   4.412   4.455   5.170
 7889SOL     OW24486   5.236   5.552   4.758
 7889SOL    HW124487   5.262   5.618   4.687
 7889SOL    HW224488   5.318   5.510   4.796
 7890SOL     OW24489   4.457   4.263   5.432
 7890SOL    HW124490   4.503   4.324   5.497
 7890SOL    HW224491   4.467   4.169   5.463
 7891SOL     OW24492   5.190   4.911   5.350
 7891SOL    HW124493   5.178   4.931   5.447
 7891SOL    HW224494   5.284   4.933   5.322
 7892SOL     OW24495   4.073   5.479   5.303
 7892SOL    HW124496   3.989   5.530   5.290
 7892SOL    HW224497   4.052   5.388   5.338
 7893SOL     OW24498   5.373   4.601   4.986
 7893SOL    HW124499   5.378   4.513   4.938
 7893SOL    HW224500   5.359   4.675   4.920
 7894SOL     OW24501   4.258   4.524   4.456
 7894SOL    HW124502   4.327   4.595   4.438
 7894SOL    HW224503   4.221   4.490   4.370
 7895SOL     OW24504   5.456   4.069   5.396
 7895SOL    HW124505   5.463   4.087   5.298
 7895SOL    HW224506   5.375   4.013   5.414
 7896SOL     OW24507   5.490   4.646   5.229
 7896SOL    HW124508   5.475   4.741   5.254
 7896SOL    HW224509   5.454   4.629   5.137
 7897SOL     OW24510   4.557   5.128   3.784
 7897SOL    HW124511   4.563   5.131   3.884
 7897SOL    HW224512   4.608   5.205   3.745
 7898SOL     OW24513   4.397   5.478   4.668
 7898SOL    HW124514   4.371   5.574   4.658
 7898SOL    HW224515   4.496   5.469   4.661
 7899SOL     OW24516   4.593   4.737   4.603
 7899SOL    HW124517   4.646   4.662   4.643
 7899SOL    HW224518   4.539   4.781   4.674
 7900SOL     OW24519   4.796   4.886   3.814
 7900SOL    HW124520   4.741   4.896   3.731
 7900SOL    HW224521   4.807   4.788   3.835
 7901SOL     OW24522   5.546   5.282   4.577
 7901SOL    HW124523   5.472   5.274   4.510
 7901SOL    HW224524   5.523   5.228   4.658
 7902SOL     OW24525   3.933   5.010   5.564
 7902SOL    HW124526   3.906   4.926   5.516
 7902SOL    HW224527   3.871   5.024   5.641
 7903SOL     OW24528   3.848   4.963   4.403
 7903SOL    HW124529   3.890   4.927   4.486
 7903SOL    HW224530   3.878   4.909   4.324
 7904SOL     OW24531   4.410   5.161   5.365
 7904SOL    HW124532   4.331   5.115   5.405
 7904SOL    HW224533   4.418   5.254   5.403
 7905SOL     OW24534   5.541   3.899   4.961
 7905SOL    HW124535   5.560   3.807   4.994
 7905SOL    HW224536   5.559   3.903   4.862
 7906SOL     OW24537   5.418   5.187   4.811
 7906SOL    HW124538   5.339   5.172   4.751
 7906SOL    HW224539   5.417   5.121   4.886
 7907SOL     OW24540   4.082   4.269   5.014
 7907SOL    HW124541   4.138   4.211   5.072
 7907SOL    HW224542   4.086   4.236   4.919
 7908SOL     OW24543   4.560   5.322   4.397
 7908SOL    HW124544   4.531   5.393   4.334
 7908SOL    HW224545   4.487   5.254   4.408
 7909SOL     OW24546   5.141   3.967   4.850
 7909SOL    HW124547   5.155   3.869   4.865
 7909SOL    HW224548   5.085   4.005   4.923
 7910SOL     OW24549   4.759   3.789   4.878
 7910SOL    HW124550   4.716   3.758   4.793
 7910SOL    HW224551   4.848   3.743   4.889
 7911SOL     OW24552   4.542   5.080   4.064
 7911SOL    HW124553   4.529   4.983   4.085
 7911SOL    HW224554   4.622   5.113   4.113
 7912SOL     OW24555   4.338   5.317   5.019
 7912SOL    HW124556   4.328   5.410   5.056
 7912SOL    HW224557   4.427   5.308   4.975
 7913SOL     OW24558   5.107   3.741   3.903
 7913SOL    HW124559   5.149   3.665   3.853
 7913SOL    HW224560   5.011   3.718   3.922
 7914SOL     OW24561   5.325   3.948   4.643
 7914SOL    HW124562   5.262   3.973   4.717
 7914SOL    HW224563   5.336   4.027   4.581
 7915SOL     OW24564   3.802   4.801   4.062
 7915SOL    HW124565   3.895   4.825   4.089
 7915SOL    HW224566   3.801   4.708   4.025
 7916SOL     OW24567   4.618   5.422   4.052
 7916SOL    HW124568   4.539   5.399   3.995
 7916SOL    HW224569   4.591   5.491   4.119
 7917SOL     OW24570   3.926   4.339   5.736
 7917SOL    HW124571   3.835   4.322   5.773
 7917SOL    HW224572   3.924   4.330   5.636
 7918SOL     OW24573   3.941   4.024   6.574
 7918SOL    HW124574   3.984   3.986   6.655
 7918SOL    HW224575   3.849   3.987   6.564
 7919SOL     OW24576   3.706   4.141   6.225
 7919SOL    HW124577   3.621   4.166   6.272
 7919SOL    HW224578   3.688   4.065   6.163
 7920SOL     OW24579   4.286   4.998   6.777
 7920SOL    HW124580   4.203   5.017   6.725
 7920SOL    HW224581   4.317   5.082   6.822
 7921SOL     OW24582   5.307   5.238   6.292
 7921SOL    HW124583   5.251   5.207   6.368
 7921SOL    HW224584   5.249   5.253   6.212
 7922SOL     OW24585   4.860   4.433   6.257
 7922SOL    HW124586   4.908   4.520   6.253
 7922SOL    HW224587   4.799   4.431   6.336
 7923SOL     OW24588   5.521   4.292   5.795
 7923SOL    HW124589   5.480   4.297   5.704
 7923SOL    HW224590   5.472   4.224   5.850
 7924SOL     OW24591   4.452   4.849   6.622
 7924SOL    HW124592   4.388   4.881   6.692
 7924SOL    HW224593   4.485   4.927   6.569
 7925SOL     OW24594   4.413   4.709   6.233
 7925SOL    HW124595   4.483   4.703   6.305
 7925SOL    HW224596   4.340   4.772   6.262
 7926SOL     OW24597   4.062   5.103   6.641
 7926SOL    HW124598   3.975   5.065   6.610
 7926SOL    HW224599   4.097   5.167   6.573
 7927SOL     OW24600   5.304   4.172   6.335
 7927SOL    HW124601   5.230   4.179   6.268
 7927SOL    HW224602   5.288   4.237   6.409
 7928SOL     OW24603   3.949   5.458   6.054
 7928SOL    HW124604   3.973   5.530   6.119
 7928SOL    HW224605   4.025   5.444   5.991
 7929SOL     OW24606   3.962   5.187   6.123
 7929SOL    HW124607   3.942   5.285   6.127
 7929SOL    HW224608   3.917   5.141   6.200
 7930SOL     OW24609   4.011   4.812   6.475
 7930SOL    HW124610   4.026   4.717   6.502
 7930SOL    HW224611   3.954   4.858   6.543
 7931SOL     OW24612   4.340   5.540   6.970
 7931SOL    HW124613   4.250   5.515   0.006
 7931SOL    HW224614   4.371   5.624   0.014
 7932SOL     OW24615   4.290   4.716   5.744
 7932SOL    HW124616   4.338   4.761   5.669
 7932SOL    HW224617   4.332   4.739   5.831
 7933SOL     OW24618   3.830   4.394   6.162
 7933SOL    HW124619   3.795   4.302   6.181
 7933SOL    HW224620   3.836   4.445   6.248
 7934SOL     OW24621   5.576   5.473   5.908
 7934SOL    HW124622   5.653   5.459   5.971
 7934SOL    HW224623   5.578   5.566   5.873
 7935SOL     OW24624   3.764   5.298   5.702
 7935SOL    HW124625   3.744   5.202   5.720
 7935SOL    HW224626   3.743   5.353   5.784
 7936SOL     OW24627   5.436   4.651   6.239
 7936SOL    HW124628   5.521   4.602   6.223
 7936SOL    HW224629   5.414   4.708   6.160
 7937SOL     OW24630   5.395   4.835   6.026
 7937SOL    HW124631   5.479   4.816   5.975
 7937SOL    HW224632   5.413   4.904   6.096
 7938SOL     OW24633   4.331   5.123   6.295
 7938SOL    HW124634   4.288   5.034   6.303
 7938SOL    HW224635   4.319   5.158   6.202
 7939SOL     OW24636   4.553   3.745   6.093
 7939SOL    HW124637   4.600   3.829   6.067
 7939SOL    HW224638   4.455   3.761   6.098
 7940SOL     OW24639   3.886   4.697   6.850
 7940SOL    HW124640   3.973   4.654   6.826
 7940SOL    HW224641   3.810   4.641   6.815
 7941SOL     OW24642   5.268   4.753   5.791
 7941SOL    HW124643   5.195   4.689   5.815
 7941SOL    HW224644   5.313   4.785   5.875
 7942SOL     OW24645   5.150   5.146   6.503
 7942SOL    HW124646   5.104   5.156   6.591
 7942SOL    HW224647   5.149   5.050   6.475
 7943SOL     OW24648   5.352   5.559   6.131
 7943SOL    HW124649   5.343   5.497   6.054
 7943SOL    HW224650   5.365   5.506   6.215
 7944SOL     OW24651   4.302   4.427   5.862
 7944SOL    HW124652   4.309   4.517   5.819
 7944SOL    HW224653   4.232   4.429   5.933
 7945SOL     OW24654   5.008   4.126   6.518
 7945SOL    HW124655   4.915   4.088   6.517
 7945SOL    HW224656   5.067   4.068   6.575
 7946SOL     OW24657   5.313   5.396   5.907
 7946SOL    HW124658   5.412   5.412   5.901
 7946SOL    HW224659   5.276   5.385   5.815
 7947SOL     OW24660   4.495   4.377   0.020
 7947SOL    HW124661   4.436   4.400   0.098
 7947SOL    HW224662   4.454   4.302   6.968
 7948SOL     OW24663   4.753   4.175   6.783
 7948SOL    HW124664   4.745   4.208   6.877
 7948SOL    HW224665   4.667   4.132   6.756
 7949SOL     OW24666   4.774   4.420   5.994
 7949SOL    HW124667   4.802   4.422   6.090
 7949SOL    HW224668   4.686   4.374   5.986
 7950SOL     OW24669   3.831   4.551   6.385
 7950SOL    HW124670   3.921   4.547   6.428
 7950SOL    HW224671   3.777   4.623   6.428
 7951SOL     OW24672   3.843   5.572   0.092
 7951SOL    HW124673   3.793   5.485   0.098
 7951SOL    HW224674   3.871   5.587   6.997
 7952SOL     OW24675   4.589   4.073   5.793
 7952SOL    HW124676   4.649   4.124   5.731
 7952SOL    HW224677   4.540   4.003   5.742
 7953SOL     OW24678   5.127   4.888   6.133
 7953SOL    HW124679   5.213   4.874   6.084
 7953SOL    HW224680   5.069   4.950   6.082
 7954SOL     OW24681   4.281   3.866   6.513
 7954SOL    HW124682   4.292   3.897   6.608
 7954SOL    HW224683   4.281   3.944   6.452
 7955SOL     OW24684   4.714   5.190   6.052
 7955SOL    HW124685   4.693   5.265   5.989
 7955SOL    HW224686   4.679   5.212   6.143
 7956SOL     OW24687   4.075   5.535   6.474
 7956SOL    HW124688   4.114   5.443   6.478
 7956SOL    HW224689   4.145   5.602   6.499
 7957SOL     OW24690   5.528   4.761   6.479
 7957SOL    HW124691   5.489   4.744   6.388
 7957SOL    HW224692   5.454   4.765   6.546
 7958SOL     OW24693   4.028   4.672   5.859
 7958SOL    HW124694   4.113   4.697   5.813
 7958SOL    HW224695   4.004   4.578   5.836
 7959SOL     OW24696   5.216   4.496   6.297
 7959SOL    HW124697   5.213   4.449   6.385
 7959SOL    HW224698   5.299   4.551   6.291
 7960SOL     OW24699   4.866   5.496   5.813
 7960SOL    HW124700   4.777   5.472   5.851
 7960SOL    HW224701   4.893   5.428   5.745
 7961SOL     OW24702   5.359   5.112   5.683
 7961SOL    HW124703   5.326   5.206   5.670
 7961SOL    HW224704   5.286   5.048   5.658
 7962SOL     OW24705   4.189   5.465   5.900
 7962SOL    HW124706   4.233   5.520   5.971
 7962SOL    HW224707   4.258   5.426   5.840
 7963SOL     OW24708   5.121   3.820   6.043
 7963SOL    HW124709   5.120   3.798   5.945
 7963SOL    HW224710   5.209   3.795   6.082
 7964SOL     OW24711   3.969   5.529   6.843
 7964SOL    HW124712   4.032   5.484   6.907
 7964SOL    HW224713   3.918   5.459   6.793
 7965SOL     OW24714   4.685   5.413   6.464
 7965SOL    HW124715   4.776   5.371   6.464
 7965SOL    HW224716   4.628   5.369   6.394
 7966SOL     OW24717   4.105   4.402   6.059
 7966SOL    HW124718   4.122   4.304   6.070
 7966SOL    HW224719   4.010   4.423   6.082
 7967SOL     OW24720   4.383   3.825   5.696
 7967SOL    HW124721   4.441   3.748   5.723
 7967SOL    HW224722   4.317   3.796   5.628
 7968SOL     OW24723   4.598   5.200   6.746
 7968SOL    HW124724   4.554   5.180   6.658
 7968SOL    HW224725   4.674   5.137   6.760
 7969SOL     OW24726   4.518   5.089   6.501
 7969SOL    HW124727   4.612   5.092   6.465
 7969SOL    HW224728   4.453   5.104   6.427
 7970SOL     OW24729   4.659   4.242   6.473
 7970SOL    HW124730   4.631   4.231   6.377
 7970SOL    HW224731   4.699   4.156   6.505
 7971SOL     OW24732   4.282   3.788   6.081
 7971SOL    HW124733   4.203   3.787   6.143
 7971SOL    HW224734   4.273   3.865   6.018
 7972SOL     OW24735   5.151   4.939   5.624
 7972SOL    HW124736   5.190   4.865   5.679
 7972SOL    HW224737   5.062   4.966   5.662
 7973SOL     OW24738   4.012   3.767   5.772
 7973SOL    HW124739   4.059   3.844   5.728
 7973SOL    HW224740   4.079   3.709   5.818
 7974SOL     OW24741   4.686   3.978   6.034
 7974SOL    HW124742   4.652   4.013   5.946
 7974SOL    HW224743   4.784   3.994   6.040
 7975SOL     OW24744   4.936   5.306   6.389
 7975SOL    HW124745   4.956   5.376   6.321
 7975SOL    HW224746   5.022   5.268   6.424
 7976SOL     OW24747   4.201   4.881   6.290
 7976SOL    HW124748   4.140   4.858   6.365
 7976SOL    HW224749   4.151   4.876   6.204
 7977SOL     OW24750   4.971   5.515   6.204
 7977SOL    HW124751   5.023   5.578   6.147
 7977SOL    HW224752   4.891   5.561   6.242
 7978SOL     OW24753   4.752   4.229   5.637
 7978SOL    HW124754   4.707   4.317   5.618
 7978SOL    HW224755   4.823   4.242   5.707
 7979SOL     OW24756   4.297   3.925   6.784
 7979SOL    HW124757   4.330   3.840   6.825
 7979SOL    HW224758   4.198   3.933   6.799
 7980SOL     OW24759   4.601   4.186   6.210
 7980SOL    HW124760   4.554   4.243   6.142
 7980SOL    HW224761   4.632   4.102   6.166
 7981SOL     OW24762   4.742   3.768   6.305
 7981SOL    HW124763   4.676   3.767   6.230
 7981SOL    HW224764   4.719   3.697   6.371
 7982SOL     OW24765   5.144   4.875   6.430
 7982SOL    HW124766   5.076   4.804   6.447
 7982SOL    HW224767   5.158   4.885   6.331
 7983SOL     OW24768   5.188   4.351   6.536
 7983SOL    HW124769   5.119   4.279   6.545
 7983SOL    HW224770   5.251   4.346   6.614
 7984SOL     OW24771   5.539   4.505   5.965
 7984SOL    HW124772   5.601   4.469   6.035
 7984SOL    HW224773   5.529   4.438   5.891
 7985SOL     OW24774   4.220   5.154   5.734
 7985SOL    HW124775   4.141   5.124   5.787
 7985SOL    HW224776   4.220   5.107   5.645
 7986SOL     OW24777   5.455   5.003   6.222
 7986SOL    HW124778   5.551   4.996   6.250
 7986SOL    HW224779   5.419   5.092   6.252
 7987SOL     OW24780   5.114   4.304   5.646
 7987SOL    HW124781   5.062   4.275   5.726
 7987SOL    HW224782   5.212   4.289   5.662
 7988SOL     OW24783   4.251   3.979   5.889
 7988SOL    HW124784   4.304   3.928   5.821
 7988SOL    HW224785   4.218   4.064   5.848
 7989SOL     OW24786   5.484   4.872   0.182
 7989SOL    HW124787   5.579   4.865   0.152
 7989SOL    HW224788   5.447   4.962   0.158
 7990SOL     OW24789   4.805   5.014   6.702
 7990SOL    HW124790   4.789   4.916   6.716
 7990SOL    HW224791   4.795   5.036   6.605
 7991SOL     OW24792   5.316   4.796   6.648
 7991SOL    HW124793   5.319   4.873   6.711
 7991SOL    HW224794   5.253   4.816   6.574
 7992SOL     OW24795   4.449   4.776   5.965
 7992SOL    HW124796   4.435   4.750   6.060
 7992SOL    HW224797   4.521   4.719   5.924
 7993SOL     OW24798   4.150   4.575   6.853
 7993SOL    HW124799   4.203   4.609   6.930
 7993SOL    HW224800   4.119   4.482   6.873
 7994SOL     OW24801   5.009   4.112   6.851
 7994SOL    HW124802   5.039   4.179   6.919
 7994SOL    HW224803   4.921   4.141   6.812
 7995SOL     OW24804   3.831   5.261   6.893
 7995SOL    HW124805   3.796   5.290   6.982
 7995SOL    HW224806   3.931   5.249   6.899
 7996SOL     OW24807   4.042   4.865   6.063
 7996SOL    HW124808   4.041   4.943   6.000
 7996SOL    HW224809   4.039   4.780   6.010
 7997SOL     OW24810   4.269   4.254   6.446
 7997SOL    HW124811   4.279   4.315   6.368
 7997SOL    HW224812   4.341   4.271   6.512
 7998SOL     OW24813   4.968   5.088   5.996
 7998SOL    HW124814   5.031   5.160   6.025
 7998SOL    HW224815   4.875   5.112   6.022
 7999SOL     OW24816   5.033   5.160   6.750
 7999SOL    HW124817   5.089   5.115   6.821
 7999SOL    HW224818   4.946   5.112   6.741
 8000SOL     OW24819   5.308   4.356   6.066
 8000SOL    HW124820   5.257   4.397   6.141
 8000SOL    HW224821   5.373   4.423   6.030
 8001SOL     OW24822   4.099   5.221   6.880
 8001SOL    HW124823   4.076   5.172   6.796
 8001SOL    HW224824   4.194   5.253   6.874
 8002SOL     OW24825   4.328   4.591   6.640
 8002SOL    HW124826   4.372   4.681   6.631
 8002SOL    HW224827   4.266   4.591   6.718
 8003SOL     OW24828   5.012   4.586   6.576
 8003SOL    HW124829   4.918   4.554   6.571
 8003SOL    HW224830   5.075   4.510   6.560
 8004SOL     OW24831   4.930   4.244   5.849
 8004SOL    HW124832   4.948   4.165   5.908
 8004SOL    HW224833   4.882   4.315   5.901
 8005SOL     OW24834   4.027   3.930   6.818
 8005SOL    HW124835   3.965   3.978   6.879
 8005SOL    HW224836   4.006   3.832   6.821
 8006SOL     OW24837   3.734   5.008   6.874
 8006SOL    HW124838   3.791   4.955   6.937
 8006SOL    HW224839   3.764   5.103   6.874
 8007SOL     OW24840   4.449   4.332   6.639
 8007SOL    HW124841   4.528   4.317   6.580
 8007SOL    HW224842   4.422   4.429   6.634
 8008SOL     OW24843   4.047   3.787   6.227
 8008SOL    HW124844   4.008   3.878   6.241
 8008SOL    HW224845   4.052   3.739   6.314
 8009SOL     OW24846   5.347   4.122   5.928
 8009SOL    HW124847   5.390   4.054   5.987
 8009SOL    HW224848   5.319   4.201   5.982
 8010SOL     OW24849   4.742   4.488   6.578
 8010SOL    HW124850   4.714   4.502   6.673
 8010SOL    HW224851   4.724   4.394   6.551
 8011SOL     OW24852   5.249   3.982   5.705
 8011SOL    HW124853   5.196   3.905   5.741
 8011SOL    HW224854   5.284   4.037   5.781
 8012SOL     OW24855   5.002   4.548   5.594
 8012SOL    HW124856   5.039   4.456   5.607
 8012SOL    HW224857   5.038   4.586   5.509
 8013SOL     OW24858   4.782   5.080   6.437
 8013SOL    HW124859   4.803   4.996   6.387
 8013SOL    HW224860   4.840   5.154   6.403
 8014SOL     OW24861   4.068   4.541   6.531
 8014SOL    HW124862   4.165   4.562   6.540
 8014SOL    HW224863   4.051   4.447   6.559
 8015SOL     OW24864   4.052   4.268   6.602
 8015SOL    HW124865   4.003   4.181   6.593
 8015SOL    HW224866   4.134   4.267   6.544
 8016SOL     OW24867   4.902   3.932   0.030
 8016SOL    HW124868   4.977   3.892   0.082
 8016SOL    HW224869   4.939   3.994   6.961
 8017SOL     OW24870   3.744   5.016   5.768
 8017SOL    HW124871   3.651   5.041   5.740
 8017SOL    HW224872   3.743   4.924   5.806
 8018SOL     OW24873   3.806   5.506   6.540
 8018SOL    HW124874   3.770   5.427   6.490
 8018SOL    HW224875   3.903   5.518   6.519
 8019SOL     OW24876   4.206   5.289   6.483
 8019SOL    HW124877   4.280   5.348   6.514
 8019SOL    HW224878   4.240   5.228   6.411
 8020SOL     OW24879   4.647   4.540   6.844
 8020SOL    HW124880   4.707   4.589   6.907
 8020SOL    HW224881   4.595   4.471   6.895
 8021SOL     OW24882   3.793   4.346   6.714
 8021SOL    HW124883   3.847   4.332   6.630
 8021SOL    HW224884   3.852   4.333   6.794
 8022SOL     OW24885   4.533   4.297   5.954
 8022SOL    HW124886   4.542   4.214   5.898
 8022SOL    HW224887   4.452   4.348   5.925
 8023SOL     OW24888   5.380   4.332   6.742
 8023SOL    HW124889   5.362   4.260   6.809
 8023SOL    HW224890   5.477   4.334   6.720
 8024SOL     OW24891   4.403   4.172   6.857
 8024SOL    HW124892   4.364   4.085   6.827
 8024SOL    HW224893   4.415   4.232   6.777
 8025SOL     OW24894   4.691   5.369   6.947
 8025SOL    HW124895   4.660   5.317   6.867
 8025SOL    HW224896   4.679   5.467   6.929
 8026SOL     OW24897   4.164   4.205   5.756
 8026SOL    HW124898   4.234   4.273   5.781
 8026SOL    HW224899   4.074   4.248   5.759
 8027SOL     OW24900   3.877   4.841   0.078
 8027SOL    HW124901   3.930   4.789   0.144
 8027SOL    HW224902   3.878   4.794   6.990
 8028SOL     OW24903   5.027   4.687   6.834
 8028SOL    HW124904   5.030   4.662   6.737
 8028SOL    HW224905   5.074   4.774   6.847
 8029SOL     OW24906   5.056   4.597   5.862
 8029SOL    HW124907   4.989   4.558   5.925
 8029SOL    HW224908   5.026   4.579   5.768
 8030SOL     OW24909   5.466   5.474   6.729
 8030SOL    HW124910   5.546   5.492   6.672
 8030SOL    HW224911   5.442   5.377   6.724
 8031SOL     OW24912   4.997   5.442   6.728
 8031SOL    HW124913   5.078   5.481   6.686
 8031SOL    HW224914   5.008   5.344   6.739
 8032SOL     OW24915   3.817   4.962   6.607
 8032SOL    HW124916   3.783   4.972   6.700
 8032SOL    HW224917   3.758   4.899   6.556
 8033SOL     OW24918   5.491   3.929   6.065
 8033SOL    HW124919   5.545   3.907   5.984
 8033SOL    HW224920   5.446   3.846   6.098
 8034SOL     OW24921   5.126   5.301   6.088
 8034SOL    HW124922   5.187   5.333   6.016
 8034SOL    HW224923   5.065   5.375   6.116
 8035SOL     OW24924   5.009   4.662   6.235
 8035SOL    HW124925   5.084   4.599   6.256
 8035SOL    HW224926   5.046   4.741   6.184
 8036SOL     OW24927   4.395   5.363   5.736
 8036SOL    HW124928   4.414   5.384   5.640
 8036SOL    HW224929   4.339   5.280   5.742
 8037SOL     OW24930   5.562   3.896   6.560
 8037SOL    HW124931   5.599   3.805   6.543
 8037SOL    HW224932   5.473   3.905   6.515
 8038SOL     OW24933   3.956   4.036   6.293
 8038SOL    HW124934   3.868   4.077   6.267
 8038SOL    HW224935   3.964   4.037   6.393
 8039SOL     OW24936   4.944   5.307   5.631
 8039SOL    HW124937   4.936   5.214   5.667
 8039SOL    HW224938   4.868   5.324   5.567
 8040SOL     OW24939   4.444   4.712   6.955
 8040SOL    HW124940   4.506   4.652   6.905
 8040SOL    HW224941   4.475   4.807   6.947
 8041SOL     OW24942   4.639   4.618   5.846
 8041SOL    HW124943   4.702   4.668   5.787
 8041SOL    HW224944   4.691   4.553   5.902
 8042SOL     OW24945   5.213   5.377   5.645
 8042SOL    HW124946   5.117   5.351   5.632
 8042SOL    HW224947   5.259   5.382   5.556
 8043SOL     OW24948   5.327   5.002   6.828
 8043SOL    HW124949   5.421   4.999   6.862
 8043SOL    HW224950   5.264   4.975   6.901
 8044SOL     OW24951   4.814   4.832   6.335
 8044SOL    HW124952   4.733   4.782   6.365
 8044SOL    HW224953   4.879   4.769   6.293
 8045SOL     OW24954   4.771   3.973   6.510
 8045SOL    HW124955   4.763   3.925   6.422
 8045SOL    HW224956   4.770   3.907   6.585
 8046SOL     OW24957   4.323   5.215   6.042
 8046SOL    HW124958   4.382   5.157   5.986
 8046SOL    HW224959   4.242   5.241   5.990
 8047SOL     OW24960   5.371   4.118   6.921
 8047SOL    HW124961   5.321   4.091   0.003
 8047SOL    HW224962   5.412   4.037   6.878
 8048SOL     OW24963   3.998   5.077   5.884
 8048SOL    HW124964   3.908   5.061   5.843
 8048SOL    HW224965   3.987   5.125   5.971
 8049SOL     OW24966   4.418   3.908   0.081
 8049SOL    HW124967   4.510   3.875   0.098
 8049SOL    HW224968   4.422   3.999   0.039
 8050SOL     OW24969   3.804   4.041   5.588
 8050SOL    HW124970   3.719   4.024   5.538
 8050SOL    HW224971   3.840   4.131   5.563
 8051SOL     OW24972   3.768   3.874   5.830
 8051SOL    HW124973   3.753   3.942   5.759
 8051SOL    HW224974   3.860   3.836   5.822
 8052SOL     OW24975   4.908   5.048   5.721
 8052SOL    HW124976   4.812   5.019   5.710
 8052SOL    HW224977   4.931   5.051   5.818
 8053SOL     OW24978   5.225   5.558   6.626
 8053SOL    HW124979   5.242   5.620   6.551
 8053SOL    HW224980   5.312   5.526   6.665
 8054SOL     OW24981   5.201   5.033   0.281
 8054SOL    HW124982   5.119   5.059   0.332
 8054SOL    HW224983   5.197   4.936   0.260
 8055SOL     OW24984   4.106   5.460   0.081
 8055SOL    HW124985   4.028   5.504   0.125
 8055SOL    HW224986   4.121   5.370   0.120
 8056SOL     OW24987   5.445   4.597   6.826
 8056SOL    HW124988   5.417   4.505   6.798
 8056SOL    HW224989   5.399   4.664   6.768
 8057SOL     OW24990   4.956   4.043   6.043
 8057SOL    HW124991   5.016   3.963   6.042
 8057SOL    HW224992   4.982   4.102   6.120
 8058SOL     OW24993   4.297   4.452   6.256
 8058SOL    HW124994   4.343   4.540   6.244
 8058SOL    HW224995   4.228   4.439   6.185
 8059SOL     OW24996   5.485   4.591   0.108
 8059SOL    HW124997   5.478   4.687   0.137
 8059SOL    HW224998   5.474   4.586   0.008
 8060SOL     OW24999   4.606   5.075   5.662
 8060SOL    HW125000   4.565   5.086   5.753
 8060SOL    HW225001   4.619   5.165   5.621
 8061SOL     OW25002   4.401   5.473   6.531
 8061SOL    HW125003   4.373   5.568   6.519
 8061SOL    HW225004   4.501   5.467   6.525
 8062SOL     OW25005   4.601   4.694   6.446
 8062SOL    HW125006   4.648   4.616   6.489
 8062SOL    HW225007   4.547   4.742   6.515
 8063SOL     OW25008   4.807   4.728   5.667
 8063SOL    HW125009   4.773   4.780   5.589
 8063SOL    HW225010   4.878   4.664   5.636
 8064SOL     OW25011   5.537   5.292   6.439
 8064SOL    HW125012   5.464   5.281   6.371
 8064SOL    HW225013   5.510   5.249   6.524
 8065SOL     OW25014   3.864   4.952   6.264
 8065SOL    HW125015   3.896   4.905   6.347
 8065SOL    HW225016   3.916   4.920   6.185
 8066SOL     OW25017   5.504   3.890   6.828
 8066SOL    HW125018   5.484   3.792   6.837
 8066SOL    HW225019   5.528   3.910   6.733
 8067SOL     OW25020   4.133   4.138   6.099
 8067SOL    HW125021   4.173   4.066   6.042
 8067SOL    HW225022   4.077   4.097   6.171
 8068SOL     OW25023   5.376   5.217   6.662
 8068SOL    HW125024   5.300   5.211   6.597
 8068SOL    HW225025   5.371   5.142   6.728
 8069SOL     OW25026   4.046   4.316   6.881
 8069SOL    HW125027   4.091   4.247   6.938
 8069SOL    HW225028   4.059   4.293   6.785
 8070SOL     OW25029   4.546   5.313   6.253
 8070SOL    HW125030   4.521   5.386   6.189
 8070SOL    HW225031   4.469   5.250   6.263
 8071SOL     OW25032   5.154   3.963   6.681
 8071SOL    HW125033   5.151   3.865   6.703
 8071SOL    HW225034   5.110   4.014   6.755
 8072SOL     OW25035   4.769   3.731   6.665
 8072SOL    HW125036   4.725   3.668   6.602
 8072SOL    HW225037   4.853   3.689   6.701
 8073SOL     OW25038   4.508   5.049   5.920
 8073SOL    HW125039   4.486   4.953   5.935
 8073SOL    HW225040   4.587   5.074   5.976
 8074SOL     OW25041   4.362   5.282   6.861
 8074SOL    HW125042   4.364   5.380   6.881
 8074SOL    HW225043   4.448   5.254   6.820
 8075SOL     OW25044   5.110   3.753   5.776
 8075SOL    HW125045   5.158   3.680   5.727
 8075SOL    HW225046   5.015   3.727   5.789
 8076SOL     OW25047   5.023   4.204   6.255
 8076SOL    HW125048   4.969   4.288   6.246
 8076SOL    HW225049   5.018   4.171   6.349
 8077SOL     OW25050   5.310   3.923   6.463
 8077SOL    HW125051   5.255   3.947   6.543
 8077SOL    HW225052   5.311   4.000   6.400
 8078SOL     OW25053   3.761   4.758   5.889
 8078SOL    HW125054   3.859   4.748   5.873
 8078SOL    HW225055   3.720   4.669   5.906
 8079SOL     OW25056   4.616   5.408   5.909
 8079SOL    HW125057   4.537   5.388   5.851
 8079SOL    HW225058   4.592   5.480   5.974
 8080SOL     OW25059   3.914   6.208   0.138
 8080SOL    HW125060   3.820   6.175   0.148
 8080SOL    HW225061   3.932   6.229   0.042
 8081SOL     OW25062   3.940   5.871   0.992
 8081SOL    HW125063   3.976   5.837   1.079
 8081SOL    HW225064   3.851   5.830   0.975
 8082SOL     OW25065   3.710   6.006   0.647
 8082SOL    HW125066   3.631   6.040   0.698
 8082SOL    HW225067   3.684   5.922   0.598
 8083SOL     OW25068   4.281   6.887   1.223
 8083SOL    HW125069   4.220   6.920   1.152
 8083SOL    HW225070   4.233   6.887   1.311
 8084SOL     OW25071   5.345   0.064   0.672
 8084SOL    HW125072   5.366   0.119   0.754
 8084SOL    HW225073   5.247   0.068   0.654
 8085SOL     OW25074   4.856   6.305   0.687
 8085SOL    HW125075   4.904   6.392   0.676
 8085SOL    HW225076   4.803   6.307   0.772
 8086SOL     OW25077   5.537   6.137   0.170
 8086SOL    HW125078   5.490   6.215   0.129
 8086SOL    HW225079   5.473   6.087   0.229
 8087SOL     OW25080   4.386   6.707   1.013
 8087SOL    HW125081   4.362   6.766   1.090
 8087SOL    HW225082   4.349   6.747   0.928
 8088SOL     OW25083   4.619   6.326   1.853
 8088SOL    HW125084   4.622   6.388   1.931
 8088SOL    HW225085   4.633   6.378   1.769
 8089SOL     OW25086   4.422   6.552   0.646
 8089SOL    HW125087   4.498   6.555   0.711
 8089SOL    HW225088   4.347   6.609   0.680
 8090SOL     OW25089   4.413   6.767   1.835
 8090SOL    HW125090   4.432   6.825   1.913
 8090SOL    HW225091   4.402   6.823   1.753
 8091SOL     OW25092   4.086   6.983   1.055
 8091SOL    HW125093   3.999   6.949   1.018
 8091SOL    HW225094   4.126   0.049   0.991
 8092SOL     OW25095   4.194   5.949   1.450
 8092SOL    HW125096   4.274   5.892   1.467
 8092SOL    HW225097   4.112   5.900   1.480
 8093SOL     OW25098   5.307   6.034   0.758
 8093SOL    HW125099   5.248   6.047   0.679
 8093SOL    HW225100   5.281   6.097   0.831
 8094SOL     OW25101   3.997   6.684   0.891
 8094SOL    HW125102   3.999   6.588   0.920
 8094SOL    HW225103   3.942   6.737   0.956
 8095SOL     OW25104   4.316   6.523   0.155
 8095SOL    HW125105   4.371   6.536   0.073
 8095SOL    HW225106   4.357   6.572   0.231
 8096SOL     OW25107   5.311   5.719   1.465
 8096SOL    HW125108   5.356   5.799   1.424
 8096SOL    HW225109   5.271   5.746   1.553
 8097SOL     OW25110   3.836   6.262   0.560
 8097SOL    HW125111   3.799   6.172   0.584
 8097SOL    HW225112   3.828   6.323   0.638
 8098SOL     OW25113   5.424   6.462   0.651
 8098SOL    HW125114   5.516   6.451   0.690
 8098SOL    HW225115   5.428   6.522   0.571
 8099SOL     OW25116   5.395   6.679   0.474
 8099SOL    HW125117   5.422   6.729   0.392
 8099SOL    HW225118   5.432   6.724   0.555
 8100SOL     OW25119   3.853   6.339   1.571
 8100SOL    HW125120   3.944   6.380   1.573
 8100SOL    HW225121   3.785   6.409   1.550
 8101SOL     OW25122   5.004   6.794   1.425
 8101SOL    HW125123   5.030   6.723   1.360
 8101SOL    HW225124   5.064   6.789   1.505
 8102SOL     OW25125   4.552   5.619   0.520
 8102SOL    HW125126   4.599   5.703   0.494
 8102SOL    HW225127   4.453   5.635   0.519
 8103SOL     OW25128   3.922   6.528   1.307
 8103SOL    HW125129   4.011   6.487   1.287
 8103SOL    HW225130   3.855   6.495   1.241
 8104SOL     OW25131   5.193   6.618   0.272
 8104SOL    HW125132   5.124   6.549   0.292
 8104SOL    HW225133   5.265   6.615   0.342
 8105SOL     OW25134   4.079   5.842   1.881
 8105SOL    HW125135   4.118   5.924   1.923
 8105SOL    HW225136   3.980   5.855   1.868
 8106SOL     OW25137   5.136   6.945   0.965
 8106SOL    HW125138   5.051   6.922   1.012
 8106SOL    HW225139   5.169   6.865   0.915
 8107SOL     OW25140   4.310   6.272   0.267
 8107SOL    HW125141   4.319   6.363   0.228
 8107SOL    HW225142   4.245   6.274   0.343
 8108SOL     OW25143   5.003   5.974   0.937
 8108SOL    HW125144   4.909   5.937   0.938
 8108SOL    HW225145   5.060   5.918   0.998
 8109SOL     OW25146   4.525   6.172   1.443
 8109SOL    HW125147   4.500   6.147   1.536
 8109SOL    HW225148   4.497   6.099   1.380
 8110SOL     OW25149   5.112   6.052   1.674
 8110SOL    HW125150   5.117   6.100   1.761
 8110SOL    HW225151   5.158   5.963   1.683
 8111SOL     OW25152   4.667   6.464   1.611
 8111SOL    HW125153   4.727   6.398   1.567
 8111SOL    HW225154   4.616   6.515   1.542
 8112SOL     OW25155   4.734   5.969   1.192
 8112SOL    HW125156   4.639   5.981   1.221
 8112SOL    HW225157   4.737   5.917   1.107
 8113SOL     OW25158   4.777   6.297   0.422
 8113SOL    HW125159   4.802   6.299   0.519
 8113SOL    HW225160   4.688   6.253   0.412
 8114SOL     OW25161   3.809   6.444   0.777
 8114SOL    HW125162   3.896   6.423   0.822
 8114SOL    HW225163   3.762   6.518   0.826
 8115SOL     OW25164   4.649   5.946   0.216
 8115SOL    HW125165   4.726   5.999   0.181
 8115SOL    HW225166   4.653   5.853   0.180
 8116SOL     OW25167   5.392   6.149   1.833
 8116SOL    HW125168   5.383   6.233   1.780
 8116SOL    HW225169   5.419   6.074   1.773
 8117SOL     OW25170   5.157   6.745   0.604
 8117SOL    HW125171   5.239   6.710   0.558
 8117SOL    HW225172   5.128   6.830   0.560
 8118SOL     OW25173   4.278   5.730   0.929
 8118SOL    HW125174   4.286   5.753   1.026
 8118SOL    HW225175   4.276   5.813   0.874
 8119SOL     OW25176   5.534   6.655   0.904
 8119SOL    HW125177   5.498   6.704   0.824
 8119SOL    HW225178   5.461   6.645   0.972
 8120SOL     OW25179   4.066   6.526   0.288
 8120SOL    HW125180   4.146   6.536   0.229
 8120SOL    HW225181   4.054   6.430   0.312
 8121SOL     OW25182   5.192   6.346   0.716
 8121SOL    HW125183   5.193   6.296   0.802
 8121SOL    HW225184   5.281   6.391   0.702
 8122SOL     OW25185   3.937   5.847   1.495
 8122SOL    HW125186   3.867   5.918   1.497
 8122SOL    HW225187   3.901   5.763   1.536
 8123SOL     OW25188   5.399   0.032   0.077
 8123SOL    HW125189   5.423   0.128   0.095
 8123SOL    HW225190   5.300   0.024   0.068
 8124SOL     OW25191   4.104   6.262   0.459
 8124SOL    HW125192   4.123   6.165   0.473
 8124SOL    HW225193   4.010   6.282   0.489
 8125SOL     OW25194   5.212   5.793   1.720
 8125SOL    HW125195   5.230   5.813   1.817
 8125SOL    HW225196   5.142   5.722   1.714
 8126SOL     OW25197   4.489   5.851   1.762
 8126SOL    HW125198   4.577   5.804   1.756
 8126SOL    HW225199   4.432   5.806   1.830
 8127SOL     OW25200   5.040   6.174   1.439
 8127SOL    HW125201   5.075   6.138   1.526
 8127SOL    HW225202   5.081   6.263   1.421
 8128SOL     OW25203   4.649   6.101   0.889
 8128SOL    HW125204   4.625   6.091   0.792
 8128SOL    HW225205   4.678   6.013   0.926
 8129SOL     OW25206   4.278   5.663   0.489
 8129SOL    HW125207   4.199   5.663   0.550
 8129SOL    HW225208   4.264   5.730   0.416
 8130SOL     OW25209   5.129   6.744   0.034
 8130SOL    HW125210   5.148   6.691   0.117
 8130SOL    HW225211   5.095   6.683   6.963
 8131SOL     OW25212   4.697   5.843   0.464
 8131SOL    HW125213   4.665   5.883   0.378
 8131SOL    HW225214   4.796   5.855   0.471
 8132SOL     OW25215   4.784   6.281   1.441
 8132SOL    HW125216   4.707   6.218   1.448
 8132SOL    HW225217   4.869   6.230   1.441
 8133SOL     OW25218   5.077   0.138   0.706
 8133SOL    HW125219   5.033   0.227   0.697
 8133SOL    HW225220   5.063   0.103   0.798
 8134SOL     OW25221   4.216   6.704   0.733
 8134SOL    HW125222   4.141   6.699   0.799
 8134SOL    HW225223   4.179   6.718   0.641
 8135SOL     OW25224   4.766   6.202   0.026
 8135SOL    HW125225   4.668   6.198   0.045
 8135SOL    HW225226   4.816   6.176   0.109
 8136SOL     OW25227   3.833   6.130   1.397
 8136SOL    HW125228   3.926   6.125   1.361
 8136SOL    HW225229   3.826   6.205   1.462
 8137SOL     OW25230   4.289   5.781   1.197
 8137SOL    HW125231   4.324   5.706   1.254
 8137SOL    HW225232   4.191   5.793   1.214
 8138SOL     OW25233   4.598   6.045   0.629
 8138SOL    HW125234   4.556   6.103   0.560
 8138SOL    HW225235   4.633   5.962   0.587
 8139SOL     OW25236   4.749   5.636   0.729
 8139SOL    HW125237   4.682   5.636   0.655
 8139SOL    HW225238   4.726   5.564   0.794
 8140SOL     OW25239   5.178   6.682   0.879
 8140SOL    HW125240   5.116   6.605   0.897
 8140SOL    HW225241   5.178   6.702   0.781
 8141SOL     OW25242   5.178   6.196   0.953
 8141SOL    HW125243   5.110   6.124   0.960
 8141SOL    HW225244   5.241   6.190   1.031
 8142SOL     OW25245   5.546   6.398   0.369
 8142SOL    HW125246   5.605   6.344   0.428
 8142SOL    HW225247   5.545   6.358   0.277
 8143SOL     OW25248   5.486   6.823   0.686
 8143SOL    HW125249   5.584   6.839   0.673
 8143SOL    HW225250   5.437   6.910   0.682
 8144SOL     OW25251   5.084   6.137   0.067
 8144SOL    HW125252   5.016   6.134   0.140
 8144SOL    HW225253   5.151   6.064   0.081
 8145SOL     OW25254   4.240   5.843   0.286
 8145SOL    HW125255   4.306   5.805   0.221
 8145SOL    HW225256   4.194   5.921   0.244
 8146SOL     OW25257   5.476   6.796   1.581
 8146SOL    HW125258   5.522   6.746   1.654
 8146SOL    HW225259   5.519   6.885   1.568
 8147SOL     OW25260   4.768   6.877   1.289
 8147SOL    HW125261   4.682   6.869   1.341
 8147SOL    HW225262   4.845   6.858   1.350
 8148SOL     OW25263   4.915   6.818   1.066
 8148SOL    HW125264   4.849   6.839   1.138
 8148SOL    HW225265   4.866   6.794   0.982
 8149SOL     OW25266   5.341   6.659   1.103
 8149SOL    HW125267   5.325   6.722   1.180
 8149SOL    HW225268   5.271   6.673   1.033
 8150SOL     OW25269   4.651   5.661   1.385
 8150SOL    HW125270   4.670   5.642   1.289
 8150SOL    HW225271   4.731   5.706   1.426
 8151SOL     OW25272   4.671   6.677   1.783
 8151SOL    HW125273   4.576   6.701   1.801
 8151SOL    HW225274   4.675   6.603   1.716
 8152SOL     OW25275   4.442   6.630   0.377
 8152SOL    HW125276   4.430   6.606   0.473
 8152SOL    HW225277   4.526   6.587   0.343
 8153SOL     OW25278   4.158   6.393   1.263
 8153SOL    HW125279   4.231   6.406   1.330
 8153SOL    HW225280   4.123   6.299   1.269
 8154SOL     OW25281   4.985   5.951   1.292
 8154SOL    HW125282   5.011   6.034   1.342
 8154SOL    HW225283   4.893   5.963   1.254
 8155SOL     OW25284   4.098   6.728   0.480
 8155SOL    HW125285   4.150   6.800   0.433
 8155SOL    HW225286   4.084   6.651   0.419
 8156SOL     OW25287   4.253   6.120   0.868
 8156SOL    HW125288   4.268   6.176   0.786
 8156SOL    HW225289   4.326   6.138   0.934
 8157SOL     OW25290   5.322   6.226   0.486
 8157SOL    HW125291   5.256   6.264   0.551
 8157SOL    HW225292   5.389   6.297   0.462
 8158SOL     OW25293   4.158   6.343   1.622
 8158SOL    HW125294   4.225   6.375   1.555
 8158SOL    HW225295   4.192   6.260   1.666
 8159SOL     OW25296   5.362   6.382   1.694
 8159SOL    HW125297   5.269   6.415   1.683
 8159SOL    HW225298   5.420   6.419   1.621
 8160SOL     OW25299   4.724   5.718   1.756
 8160SOL    HW125300   4.781   5.799   1.744
 8160SOL    HW225301   4.777   5.636   1.734
 8161SOL     OW25302   4.212   5.627   1.766
 8161SOL    HW125303   4.159   5.573   1.701
 8161SOL    HW225304   4.161   5.709   1.792
 8162SOL     OW25305   4.304   6.445   1.036
 8162SOL    HW125306   4.333   6.540   1.028
 8162SOL    HW225307   4.249   6.433   1.118
 8163SOL     OW25308   5.028   6.433   0.994
 8163SOL    HW125309   4.933   6.411   0.972
 8163SOL    HW225310   5.085   6.353   0.981
 8164SOL     OW25311   4.889   6.108   0.260
 8164SOL    HW125312   4.920   6.031   0.316
 8164SOL    HW225313   4.855   6.181   0.320
 8165SOL     OW25314   4.017   5.775   1.238
 8165SOL    HW125315   3.985   5.807   1.327
 8165SOL    HW225316   3.998   5.677   1.229
 8166SOL     OW25317   3.786   6.897   1.288
 8166SOL    HW125318   3.832   6.849   1.363
 8166SOL    HW225319   3.754   6.986   1.320
 8167SOL     OW25320   4.443   6.205   1.051
 8167SOL    HW125321   4.518   6.189   0.986
 8167SOL    HW225322   4.405   6.296   1.035
 8168SOL     OW25323   5.462   6.577   1.865
 8168SOL    HW125324   5.428   6.497   1.816
 8168SOL    HW225325   5.409   6.589   1.949
 8169SOL     OW25326   4.047   5.653   0.640
 8169SOL    HW125327   4.009   5.744   0.657
 8169SOL    HW225328   4.058   5.604   0.727
 8170SOL     OW25329   5.369   5.995   0.355
 8170SOL    HW125330   5.401   5.925   0.420
 8170SOL    HW225331   5.347   6.079   0.405
 8171SOL     OW25332   4.752   6.344   0.960
 8171SOL    HW125333   4.731   6.365   1.055
 8171SOL    HW225334   4.722   6.251   0.938
 8172SOL     OW25335   5.643   0.025   1.583
 8172SOL    HW125336   5.684   0.112   1.556
 8172SOL    HW225337   5.690   6.989   1.663
 8173SOL     OW25338   4.063   6.532   1.798
 8173SOL    HW125339   4.131   6.546   1.870
 8173SOL    HW225340   4.097   6.464   1.733
 8174SOL     OW25341   5.222   5.902   0.147
 8174SOL    HW125342   5.177   5.815   0.169
 8174SOL    HW225343   5.275   5.933   0.225
 8175SOL     OW25344   5.023   6.410   0.038
 8175SOL    HW125345   5.053   6.315   0.029
 8175SOL    HW225346   5.041   6.459   6.952
 8176SOL     OW25347   4.037   6.404   0.932
 8176SOL    HW125348   4.136   6.421   0.938
 8176SOL    HW225349   4.018   6.310   0.961
 8177SOL     OW25350   4.021   6.127   1.001
 8177SOL    HW125351   3.981   6.035   0.996
 8177SOL    HW225352   4.106   6.130   0.948
 8178SOL     OW25353   4.859   5.951   1.698
 8178SOL    HW125354   4.810   6.002   1.770
 8178SOL    HW225355   4.948   5.992   1.683
 8179SOL     OW25356   4.882   5.778   1.482
 8179SOL    HW125357   4.865   5.839   1.559
 8179SOL    HW225358   4.928   5.828   1.408
 8180SOL     OW25359   4.660   6.380   1.215
 8180SOL    HW125360   4.718   6.357   1.293
 8180SOL    HW225361   4.578   6.322   1.216
 8181SOL     OW25362   3.770   6.178   1.129
 8181SOL    HW125363   3.852   6.170   1.073
 8181SOL    HW225364   3.794   6.165   1.225
 8182SOL     OW25365   3.918   6.130   1.739
 8182SOL    HW125366   3.989   6.085   1.685
 8182SOL    HW225367   3.883   6.209   1.688
 8183SOL     OW25368   5.119   6.501   1.645
 8183SOL    HW125369   5.140   6.599   1.647
 8183SOL    HW225370   5.112   6.470   1.550
 8184SOL     OW25371   4.545   6.157   0.374
 8184SOL    HW125372   4.568   6.083   0.311
 8184SOL    HW225373   4.462   6.203   0.343
 8185SOL     OW25374   5.362   6.174   1.157
 8185SOL    HW125375   5.346   6.108   1.230
 8185SOL    HW225376   5.459   6.174   1.132
 8186SOL     OW25377   4.463   6.001   1.235
 8186SOL    HW125378   4.397   5.926   1.225
 8186SOL    HW225379   4.442   6.073   1.168
 8187SOL     OW25380   4.150   6.072   0.161
 8187SOL    HW125381   4.216   6.137   0.197
 8187SOL    HW225382   4.058   6.111   0.165
 8188SOL     OW25383   3.918   6.739   1.479
 8188SOL    HW125384   3.888   6.710   1.570
 8188SOL    HW225385   3.920   6.659   1.418
 8189SOL     OW25386   5.033   6.610   1.203
 8189SOL    HW125387   5.037   6.538   1.134
 8189SOL    HW225388   4.997   6.694   1.162
 8190SOL     OW25389   5.005   6.430   0.312
 8190SOL    HW125390   4.925   6.385   0.354
 8190SOL    HW225391   5.003   6.414   0.213
 8191SOL     OW25392   3.819   6.856   1.022
 8191SOL    HW125393   3.805   6.867   1.121
 8191SOL    HW225394   3.757   6.786   0.988
 8192SOL     OW25395   4.677   5.684   0.121
 8192SOL    HW125396   4.752   5.731   0.075
 8192SOL    HW225397   4.714   5.608   0.175
 8193SOL     OW25398   5.464   5.787   0.514
 8193SOL    HW125399   5.522   5.755   0.439
 8193SOL    HW225400   5.412   5.710   0.550
 8194SOL     OW25401   4.999   6.535   0.680
 8194SOL    HW125402   5.069   6.464   0.692
 8194SOL    HW225403   5.040   6.614   0.634
 8195SOL     OW25404   4.505   6.853   1.390
 8195SOL    HW125405   4.475   6.890   1.478
 8195SOL    HW225406   4.435   6.870   1.321
 8196SOL     OW25407   5.571   5.738   0.960
 8196SOL    HW125408   5.600   5.644   0.940
 8196SOL    HW225409   5.479   5.753   0.922
 8197SOL     OW25410   3.961   5.901   0.712
 8197SOL    HW125411   3.874   5.946   0.687
 8197SOL    HW225412   3.968   5.897   0.811
 8198SOL     OW25413   4.551   6.585   1.395
 8198SOL    HW125414   4.599   6.553   1.313
 8198SOL    HW225415   4.538   6.684   1.389
 8199SOL     OW25416   4.660   6.513   0.280
 8199SOL    HW125417   4.707   6.537   0.195
 8199SOL    HW225418   4.712   6.443   0.328
 8200SOL     OW25419   4.131   6.912   1.452
 8200SOL    HW125420   4.142   6.960   1.538
 8200SOL    HW225421   4.054   6.848   1.459
 8201SOL     OW25422   5.315   6.834   1.331
 8201SOL    HW125423   5.388   6.817   1.397
 8201SOL    HW225424   5.245   6.892   1.373
 8202SOL     OW25425   4.805   6.741   0.820
 8202SOL    HW125426   4.722   6.685   0.829
 8202SOL    HW225427   4.873   6.692   0.766
 8203SOL     OW25428   4.757   5.824   0.952
 8203SOL    HW125429   4.754   5.787   0.859
 8203SOL    HW225430   4.752   5.750   1.018
 8204SOL     OW25431   5.484   5.951   1.398
 8204SOL    HW125432   5.552   6.024   1.393
 8204SOL    HW225433   5.507   5.879   1.332
 8205SOL     OW25434   3.829   6.662   1.744
 8205SOL    HW125435   3.752   6.627   1.798
 8205SOL    HW225436   3.912   6.612   1.767
 8206SOL     OW25437   4.418   5.774   1.502
 8206SOL    HW125438   4.503   5.746   1.457
 8206SOL    HW225439   4.439   5.808   1.594
 8207SOL     OW25440   3.828   5.903   6.964
 8207SOL    HW125441   3.760   5.842   6.924
 8207SOL    HW225442   3.782   5.981   0.008
 8208SOL     OW25443   5.139   6.428   1.383
 8208SOL    HW125444   5.085   6.491   1.326
 8208SOL    HW225445   5.233   6.426   1.350
 8209SOL     OW25446   3.758   5.734   0.292
 8209SOL    HW125447   3.777   5.831   0.278
 8209SOL    HW225448   3.794   5.682   0.214
 8210SOL     OW25449   4.362   6.396   1.443
 8210SOL    HW125450   4.421   6.476   1.432
 8210SOL    HW225451   4.418   6.313   1.446
 8211SOL     OW25452   4.463   6.126   1.703
 8211SOL    HW125453   4.509   6.186   1.769
 8211SOL    HW225454   4.472   6.031   1.733
 8212SOL     OW25455   5.195   6.766   1.645
 8212SOL    HW125456   5.176   6.785   1.741
 8212SOL    HW225457   5.291   6.784   1.625
 8213SOL     OW25458   5.386   6.437   1.260
 8213SOL    HW125459   5.383   6.350   1.212
 8213SOL    HW225460   5.375   6.512   1.195
 8214SOL     OW25461   4.965   5.915   0.447
 8214SOL    HW125462   5.045   5.859   0.425
 8214SOL    HW225463   4.985   5.969   0.529
 8215SOL     OW25464   4.294   6.303   0.667
 8215SOL    HW125465   4.345   6.389   0.658
 8215SOL    HW225466   4.226   6.297   0.594
 8216SOL     OW25467   5.453   5.929   1.674
 8216SOL    HW125468   5.463   5.941   1.575
 8216SOL    HW225469   5.374   5.871   1.692
 8217SOL     OW25470   5.503   6.512   1.497
 8217SOL    HW125471   5.500   6.611   1.506
 8217SOL    HW225472   5.468   6.485   1.408
 8218SOL     OW25473   4.596   6.569   0.866
 8218SOL    HW125474   4.643   6.490   0.904
 8218SOL    HW225475   4.532   6.605   0.934
 8219SOL     OW25476   4.790   6.561   0.041
 8219SOL    HW125477   4.740   6.531   6.959
 8219SOL    HW225478   4.876   6.512   0.047
 8220SOL     OW25479   3.923   6.918   1.803
 8220SOL    HW125480   3.888   6.825   1.792
 8220SOL    HW225481   3.925   6.941   1.900
 8221SOL     OW25482   3.903   6.818   0.660
 8221SOL    HW125483   3.927   6.772   0.746
 8221SOL    HW225484   3.956   6.779   0.585
 8222SOL     OW25485   4.398   6.977   1.625
 8222SOL    HW125486   4.310   6.987   1.671
 8222SOL    HW225487   4.422   0.063   1.579
 8223SOL     OW25488   5.534   5.745   1.231
 8223SOL    HW125489   5.534   5.648   1.252
 8223SOL    HW225490   5.550   5.759   1.133
 8224SOL     OW25491   4.135   6.000   0.508
 8224SOL    HW125492   4.172   5.928   0.449
 8224SOL    HW225493   4.083   5.959   0.583
 8225SOL     OW25494   5.326   0.031   1.140
 8225SOL    HW125495   5.263   0.003   1.068
 8225SOL    HW225496   5.331   6.959   1.209
 8226SOL     OW25497   4.079   6.132   1.283
 8226SOL    HW125498   4.134   6.067   1.336
 8226SOL    HW225499   4.082   6.107   1.186
 8227SOL     OW25500   5.146   5.822   1.114
 8227SOL    HW125501   5.156   5.724   1.134
 8227SOL    HW225502   5.096   5.866   1.189
 8228SOL     OW25503   4.739   5.601   1.119
 8228SOL    HW125504   4.679   5.538   1.070
 8228SOL    HW225505   4.831   5.563   1.124
 8229SOL     OW25506   4.547   6.883   0.312
 8229SOL    HW125507   4.510   6.793   0.336
 8229SOL    HW225508   4.557   6.937   0.395
 8230SOL     OW25509   5.078   5.656   0.194
 8230SOL    HW125510   5.142   5.584   0.168
 8230SOL    HW225511   4.994   5.616   0.229
 8231SOL     OW25512   5.011   6.063   0.672
 8231SOL    HW125513   4.964   6.151   0.669
 8231SOL    HW225514   5.011   6.028   0.766
 8232SOL     OW25515   5.310   5.789   0.894
 8232SOL    HW125516   5.256   5.814   0.974
 8232SOL    HW225517   5.313   5.867   0.831
 8233SOL     OW25518   3.811   6.635   0.265
 8233SOL    HW125519   3.906   6.606   0.276
 8233SOL    HW225520   3.751   6.567   0.308
 8234SOL     OW25521   3.926   6.185   2.009
 8234SOL    HW125522   3.833   6.174   2.046
 8234SOL    HW225523   3.923   6.184   1.909
 8235SOL     OW25524   3.940   5.873   2.848
 8235SOL    HW125525   3.975   5.842   2.936
 8235SOL    HW225526   3.850   5.832   2.832
 8236SOL     OW25527   3.709   6.002   2.502
 8236SOL    HW125528   3.626   6.025   2.552
 8236SOL    HW225529   3.691   5.927   2.439
 8237SOL     OW25530   4.282   6.886   3.086
 8237SOL    HW125531   4.220   6.918   3.014
 8237SOL    HW225532   4.234   6.886   3.174
 8238SOL     OW25533   5.321   0.060   2.541
 8238SOL    HW125534   5.348   0.112   2.623
 8238SOL    HW225535   5.225   0.077   2.522
 8239SOL     OW25536   4.851   6.311   2.534
 8239SOL    HW125537   4.900   6.398   2.526
 8239SOL    HW225538   4.797   6.311   2.618
 8240SOL     OW25539   5.519   6.153   2.070
 8240SOL    HW125540   5.478   6.159   1.980
 8240SOL    HW225541   5.470   6.085   2.125
 8241SOL     OW25542   4.388   6.708   2.874
 8241SOL    HW125543   4.363   6.765   2.953
 8241SOL    HW225544   4.352   6.750   2.791
 8242SOL     OW25545   4.619   6.327   3.714
 8242SOL    HW125546   4.621   6.389   3.792
 8242SOL    HW225547   4.633   6.379   3.630
 8243SOL     OW25548   4.428   6.559   2.489
 8243SOL    HW125549   4.500   6.562   2.559
 8243SOL    HW225550   4.349   6.611   2.521
 8244SOL     OW25551   4.412   6.765   3.695
 8244SOL    HW125552   4.430   6.825   3.773
 8244SOL    HW225553   4.400   6.820   3.612
 8245SOL     OW25554   4.084   6.980   2.920
 8245SOL    HW125555   3.997   6.947   2.883
 8245SOL    HW225556   4.124   0.045   2.855
 8246SOL     OW25557   4.195   5.953   3.312
 8246SOL    HW125558   4.277   5.898   3.330
 8246SOL    HW225559   4.114   5.903   3.343
 8247SOL     OW25560   5.308   6.026   2.612
 8247SOL    HW125561   5.249   6.038   2.532
 8247SOL    HW225562   5.282   6.092   2.683
 8248SOL     OW25563   4.001   6.683   2.758
 8248SOL    HW125564   4.003   6.587   2.785
 8248SOL    HW225565   3.949   6.735   2.825
 8249SOL     OW25566   4.276   6.577   2.002
 8249SOL    HW125567   4.315   6.629   1.926
 8249SOL    HW225568   4.333   6.590   2.084
 8250SOL     OW25569   5.317   5.716   3.331
 8250SOL    HW125570   5.358   5.797   3.289
 8250SOL    HW225571   5.273   5.742   3.416
 8251SOL     OW25572   3.832   6.260   2.438
 8251SOL    HW125573   3.795   6.170   2.459
 8251SOL    HW225574   3.822   6.320   2.517
 8252SOL     OW25575   5.420   6.466   2.507
 8252SOL    HW125576   5.510   6.455   2.549
 8252SOL    HW225577   5.426   6.529   2.430
 8253SOL     OW25578   5.412   6.687   2.322
 8253SOL    HW125579   5.493   6.677   2.265
 8253SOL    HW225580   5.435   6.740   2.404
 8254SOL     OW25581   3.853   6.340   3.434
 8254SOL    HW125582   3.944   6.381   3.434
 8254SOL    HW225583   3.785   6.410   3.412
 8255SOL     OW25584   5.005   6.793   3.285
 8255SOL    HW125585   5.030   6.721   3.220
 8255SOL    HW225586   5.064   6.787   3.366
 8256SOL     OW25587   4.555   5.602   2.376
 8256SOL    HW125588   4.602   5.686   2.347
 8256SOL    HW225589   4.456   5.619   2.379
 8257SOL     OW25590   3.923   6.528   3.169
 8257SOL    HW125591   4.012   6.487   3.148
 8257SOL    HW225592   3.855   6.495   3.103
 8258SOL     OW25593   5.281   6.606   2.085
 8258SOL    HW125594   5.209   6.541   2.107
 8258SOL    HW225595   5.328   6.635   2.169
 8259SOL     OW25596   4.078   5.844   3.744
 8259SOL    HW125597   4.117   5.926   3.787
 8259SOL    HW225598   3.979   5.858   3.731
 8260SOL     OW25599   5.143   6.939   2.832
 8260SOL    HW125600   5.056   6.916   2.876
 8260SOL    HW225601   5.175   6.861   2.777
 8261SOL     OW25602   4.300   6.286   2.138
 8261SOL    HW125603   4.300   6.373   2.089
 8261SOL    HW225604   4.230   6.288   2.210
 8262SOL     OW25605   5.002   5.978   2.798
 8262SOL    HW125606   4.909   5.941   2.796
 8262SOL    HW225607   5.059   5.921   2.857
 8263SOL     OW25608   4.525   6.171   3.305
 8263SOL    HW125609   4.500   6.146   3.399
 8263SOL    HW225610   4.498   6.098   3.243
 8264SOL     OW25611   5.112   6.053   3.535
 8264SOL    HW125612   5.117   6.101   3.622
 8264SOL    HW225613   5.157   5.963   3.543
 8265SOL     OW25614   4.667   6.465   3.472
 8265SOL    HW125615   4.727   6.398   3.427
 8265SOL    HW225616   4.616   6.515   3.402
 8266SOL     OW25617   4.735   5.973   3.051
 8266SOL    HW125618   4.641   5.983   3.081
 8266SOL    HW225619   4.738   5.923   2.964
 8267SOL     OW25620   4.775   6.292   2.266
 8267SOL    HW125621   4.799   6.297   2.363
 8267SOL    HW225622   4.687   6.247   2.255
 8268SOL     OW25623   3.800   6.445   2.648
 8268SOL    HW125624   3.889   6.427   2.690
 8268SOL    HW225625   3.755   6.521   2.695
 8269SOL     OW25626   4.590   5.934   2.067
 8269SOL    HW125627   4.650   5.984   2.004
 8269SOL    HW225628   4.540   5.863   2.017
 8270SOL     OW25629   5.392   6.150   3.696
 8270SOL    HW125630   5.383   6.234   3.641
 8270SOL    HW225631   5.418   6.074   3.636
 8271SOL     OW25632   5.162   6.747   2.451
 8271SOL    HW125633   5.240   6.720   2.395
 8271SOL    HW225634   5.143   6.844   2.437
 8272SOL     OW25635   4.277   5.731   2.790
 8272SOL    HW125636   4.285   5.754   2.887
 8272SOL    HW225637   4.275   5.815   2.736
 8273SOL     OW25638   5.528   6.660   2.765
 8273SOL    HW125639   5.490   6.707   2.685
 8273SOL    HW225640   5.457   6.649   2.835
 8274SOL     OW25641   4.036   6.556   2.146
 8274SOL    HW125642   4.117   6.571   2.088
 8274SOL    HW225643   4.015   6.458   2.149
 8275SOL     OW25644   5.188   6.350   2.573
 8275SOL    HW125645   5.192   6.297   2.658
 8275SOL    HW225646   5.277   6.394   2.558
 8276SOL     OW25647   3.938   5.851   3.357
 8276SOL    HW125648   3.869   5.924   3.354
 8276SOL    HW225649   3.899   5.769   3.399
 8277SOL     OW25650   5.354   6.967   1.982
 8277SOL    HW125651   5.325   0.062   1.985
 8277SOL    HW225652   5.277   6.909   1.954
 8278SOL     OW25653   5.119   5.681   2.322
 8278SOL    HW125654   5.118   5.660   2.224
 8278SOL    HW225655   5.207   5.654   2.361
 8279SOL     OW25656   4.101   6.264   2.334
 8279SOL    HW125657   4.120   6.166   2.344
 8279SOL    HW225658   4.007   6.282   2.362
 8280SOL     OW25659   5.209   5.792   3.581
 8280SOL    HW125660   5.227   5.813   3.677
 8280SOL    HW225661   5.137   5.723   3.575
 8281SOL     OW25662   4.387   5.689   1.969
 8281SOL    HW125663   4.447   5.613   1.993
 8281SOL    HW225664   4.320   5.659   1.901
 8282SOL     OW25665   4.492   5.852   3.630
 8282SOL    HW125666   4.581   5.805   3.623
 8282SOL    HW225667   4.435   5.805   3.696
 8283SOL     OW25668   5.039   6.174   3.300
 8283SOL    HW125669   5.075   6.139   3.387
 8283SOL    HW225670   5.079   6.264   3.283
 8284SOL     OW25671   4.649   6.101   2.739
 8284SOL    HW125672   4.625   6.091   2.642
 8284SOL    HW225673   4.677   6.012   2.775
 8285SOL     OW25674   4.285   5.649   2.355
 8285SOL    HW125675   4.206   5.648   2.416
 8285SOL    HW225676   4.277   5.725   2.291
 8286SOL     OW25677   5.131   6.772   1.927
 8286SOL    HW125678   5.194   6.713   1.979
 8286SOL    HW225679   5.041   6.730   1.925
 8287SOL     OW25680   4.011   5.632   2.048
 8287SOL    HW125681   4.058   5.707   2.003
 8287SOL    HW225682   4.079   5.572   2.092
 8288SOL     OW25683   4.685   5.835   2.307
 8288SOL    HW125684   4.651   5.870   2.219
 8288SOL    HW225685   4.783   5.852   2.314
 8289SOL     OW25686   4.782   6.282   3.300
 8289SOL    HW125687   4.705   6.219   3.307
 8289SOL    HW225688   4.867   6.230   3.301
 8290SOL     OW25689   5.061   0.153   2.577
 8290SOL    HW125690   5.021   0.243   2.556
 8290SOL    HW225691   5.045   0.132   2.674
 8291SOL     OW25692   4.209   6.693   2.580
 8291SOL    HW125693   4.140   6.691   2.652
 8291SOL    HW225694   4.166   6.716   2.493
 8292SOL     OW25695   4.753   6.091   1.909
 8292SOL    HW125696   4.711   6.180   1.890
 8292SOL    HW225697   4.823   6.102   1.980
 8293SOL     OW25698   3.834   6.129   3.261
 8293SOL    HW125699   3.927   6.125   3.224
 8293SOL    HW225700   3.826   6.205   3.325
 8294SOL     OW25701   4.287   5.782   3.058
 8294SOL    HW125702   4.316   5.706   3.115
 8294SOL    HW225703   4.190   5.800   3.073
 8295SOL     OW25704   4.598   6.044   2.477
 8295SOL    HW125705   4.555   6.103   2.409
 8295SOL    HW225706   4.629   5.960   2.433
 8296SOL     OW25707   4.740   5.641   2.594
 8296SOL    HW125708   4.676   5.637   2.517
 8296SOL    HW225709   4.718   5.568   2.659
 8297SOL     OW25710   5.182   6.681   2.732
 8297SOL    HW125711   5.119   6.606   2.749
 8297SOL    HW225712   5.187   6.699   2.633
 8298SOL     OW25713   5.181   6.196   2.808
 8298SOL    HW125714   5.113   6.124   2.815
 8298SOL    HW225715   5.244   6.191   2.885
 8299SOL     OW25716   5.549   6.373   2.230
 8299SOL    HW125717   5.605   6.338   2.305
 8299SOL    HW225718   5.536   6.302   2.162
 8300SOL     OW25719   5.473   6.827   2.546
 8300SOL    HW125720   5.571   6.846   2.543
 8300SOL    HW225721   5.422   6.913   2.548
 8301SOL     OW25722   5.114   6.161   1.924
 8301SOL    HW125723   5.064   6.130   2.005
 8301SOL    HW225724   5.212   6.146   1.938
 8302SOL     OW25725   4.255   5.839   2.163
 8302SOL    HW125726   4.307   5.788   2.095
 8302SOL    HW225727   4.221   5.924   2.123
 8303SOL     OW25728   5.475   6.796   3.443
 8303SOL    HW125729   5.522   6.746   3.516
 8303SOL    HW225730   5.519   6.885   3.431
 8304SOL     OW25731   4.769   6.876   3.149
 8304SOL    HW125732   4.684   6.867   3.201
 8304SOL    HW225733   4.847   6.857   3.209
 8305SOL     OW25734   4.916   6.817   2.923
 8305SOL    HW125735   4.850   6.839   2.995
 8305SOL    HW225736   4.867   6.794   2.839
 8306SOL     OW25737   5.338   6.660   2.965
 8306SOL    HW125738   5.322   6.722   3.042
 8306SOL    HW225739   5.268   6.674   2.895
 8307SOL     OW25740   4.649   5.669   3.245
 8307SOL    HW125741   4.666   5.649   3.149
 8307SOL    HW225742   4.730   5.713   3.285
 8308SOL     OW25743   4.671   6.676   3.646
 8308SOL    HW125744   4.575   6.700   3.662
 8308SOL    HW225745   4.675   6.603   3.578
 8309SOL     OW25746   4.453   6.616   2.209
 8309SOL    HW125747   4.445   6.597   2.307
 8309SOL    HW225748   4.535   6.572   2.173
 8310SOL     OW25749   4.159   6.394   3.124
 8310SOL    HW125750   4.232   6.406   3.191
 8310SOL    HW225751   4.123   6.300   3.130
 8311SOL     OW25752   4.986   5.953   3.151
 8311SOL    HW125753   5.012   6.036   3.201
 8311SOL    HW225754   4.894   5.966   3.113
 8312SOL     OW25755   4.067   6.747   2.346
 8312SOL    HW125756   4.102   6.829   2.301
 8312SOL    HW225757   4.055   6.675   2.278
 8313SOL     OW25758   4.253   6.125   2.730
 8313SOL    HW125759   4.267   6.183   2.650
 8313SOL    HW225760   4.327   6.141   2.796
 8314SOL     OW25761   5.304   6.210   2.350
 8314SOL    HW125762   5.242   6.252   2.416
 8314SOL    HW225763   5.372   6.278   2.321
 8315SOL     OW25764   4.157   6.343   3.482
 8315SOL    HW125765   4.225   6.375   3.416
 8315SOL    HW225766   4.190   6.259   3.525
 8316SOL     OW25767   5.362   6.382   3.556
 8316SOL    HW125768   5.268   6.415   3.545
 8316SOL    HW225769   5.419   6.419   3.482
 8317SOL     OW25770   4.728   5.720   3.620
 8317SOL    HW125771   4.782   5.803   3.606
 8317SOL    HW225772   4.783   5.640   3.597
 8318SOL     OW25773   4.213   5.632   3.626
 8318SOL    HW125774   4.162   5.582   3.556
 8318SOL    HW225775   4.161   5.713   3.654
 8319SOL     OW25776   4.310   6.443   2.898
 8319SOL    HW125777   4.337   6.539   2.890
 8319SOL    HW225778   4.251   6.432   2.979
 8320SOL     OW25779   5.026   6.431   2.852
 8320SOL    HW125780   4.931   6.407   2.830
 8320SOL    HW225781   5.084   6.351   2.838
 8321SOL     OW25782   4.927   6.106   2.127
 8321SOL    HW125783   4.943   6.027   2.186
 8321SOL    HW225784   4.878   6.177   2.178
 8322SOL     OW25785   4.015   5.786   3.097
 8322SOL    HW125786   3.985   5.816   3.187
 8322SOL    HW225787   3.994   5.688   3.086
 8323SOL     OW25788   3.783   6.895   3.152
 8323SOL    HW125789   3.829   6.847   3.227
 8323SOL    HW225790   3.753   6.985   3.183
 8324SOL     OW25791   4.449   6.204   2.910
 8324SOL    HW125792   4.521   6.188   2.842
 8324SOL    HW225793   4.409   6.295   2.896
 8325SOL     OW25794   5.462   6.576   3.727
 8325SOL    HW125795   5.428   6.497   3.677
 8325SOL    HW225796   5.409   6.589   3.811
 8326SOL     OW25797   4.048   5.650   2.497
 8326SOL    HW125798   4.010   5.741   2.512
 8326SOL    HW225799   4.058   5.602   2.584
 8327SOL     OW25800   5.348   5.982   2.205
 8327SOL    HW125801   5.391   5.914   2.263
 8327SOL    HW225802   5.320   6.060   2.260
 8328SOL     OW25803   4.751   6.345   2.814
 8328SOL    HW125804   4.729   6.364   2.909
 8328SOL    HW225805   4.722   6.252   2.791
 8329SOL     OW25806   5.643   0.024   3.446
 8329SOL    HW125807   5.684   0.111   3.419
 8329SOL    HW225808   5.690   6.988   3.526
 8330SOL     OW25809   4.064   6.531   3.661
 8330SOL    HW125810   4.132   6.545   3.732
 8330SOL    HW225811   4.098   6.463   3.595
 8331SOL     OW25812   5.245   5.845   1.983
 8331SOL    HW125813   5.193   5.768   2.019
 8331SOL    HW225814   5.283   5.898   2.059
 8332SOL     OW25815   5.004   6.405   1.873
 8332SOL    HW125816   5.037   6.311   1.887
 8332SOL    HW225817   5.039   6.440   1.787
 8333SOL     OW25818   4.036   6.405   2.794
 8333SOL    HW125819   4.135   6.419   2.790
 8333SOL    HW225820   4.017   6.311   2.824
 8334SOL     OW25821   4.021   6.128   2.863
 8334SOL    HW125822   3.981   6.037   2.854
 8334SOL    HW225823   4.106   6.132   2.810
 8335SOL     OW25824   4.857   5.955   3.560
 8335SOL    HW125825   4.810   6.005   3.632
 8335SOL    HW225826   4.948   5.995   3.545
 8336SOL     OW25827   4.880   5.784   3.342
 8336SOL    HW125828   4.864   5.846   3.419
 8336SOL    HW225829   4.926   5.833   3.269
 8337SOL     OW25830   3.742   6.895   2.061
 8337SOL    HW125831   3.650   6.911   2.025
 8337SOL    HW225832   3.750   6.800   2.091
 8338SOL     OW25833   4.660   6.378   3.071
 8338SOL    HW125834   4.717   6.355   3.150
 8338SOL    HW225835   4.580   6.319   3.070
 8339SOL     OW25836   3.770   6.177   2.993
 8339SOL    HW125837   3.853   6.170   2.937
 8339SOL    HW225838   3.795   6.163   3.089
 8340SOL     OW25839   3.918   6.131   3.602
 8340SOL    HW125840   3.986   6.083   3.546
 8340SOL    HW225841   3.883   6.210   3.551
 8341SOL     OW25842   5.119   6.501   3.507
 8341SOL    HW125843   5.140   6.599   3.508
 8341SOL    HW225844   5.111   6.470   3.412
 8342SOL     OW25845   4.536   6.162   2.224
 8342SOL    HW125846   4.546   6.079   2.169
 8342SOL    HW225847   4.452   6.210   2.197
 8343SOL     OW25848   5.362   6.176   3.015
 8343SOL    HW125849   5.344   6.109   3.088
 8343SOL    HW225850   5.459   6.175   2.992
 8344SOL     OW25851   4.464   6.001   3.096
 8344SOL    HW125852   4.398   5.926   3.086
 8344SOL    HW225853   4.445   6.071   3.028
 8345SOL     OW25854   4.166   6.063   2.031
 8345SOL    HW125855   4.233   6.132   2.057
 8345SOL    HW225856   4.075   6.103   2.033
 8346SOL     OW25857   3.918   6.738   3.341
 8346SOL    HW125858   3.888   6.709   3.432
 8346SOL    HW225859   3.920   6.659   3.280
 8347SOL     OW25860   5.031   6.608   3.062
 8347SOL    HW125861   5.034   6.536   2.993
 8347SOL    HW225862   4.996   6.692   3.021
 8348SOL     OW25863   5.067   6.447   2.142
 8348SOL    HW125864   5.005   6.400   2.205
 8348SOL    HW225865   5.038   6.429   2.048
 8349SOL     OW25866   3.819   6.856   2.886
 8349SOL    HW125867   3.803   6.866   2.984
 8349SOL    HW225868   3.757   6.786   2.849
 8350SOL     OW25869   5.491   5.789   2.342
 8350SOL    HW125870   5.545   5.769   2.261
 8350SOL    HW225871   5.447   5.705   2.375
 8351SOL     OW25872   5.000   6.541   2.531
 8351SOL    HW125873   5.067   6.469   2.548
 8351SOL    HW225874   5.044   6.619   2.486
 8352SOL     OW25875   4.507   6.853   3.252
 8352SOL    HW125876   4.477   6.890   3.340
 8352SOL    HW225877   4.436   6.870   3.183
 8353SOL     OW25878   5.570   5.739   2.824
 8353SOL    HW125879   5.601   5.647   2.803
 8353SOL    HW225880   5.479   5.753   2.785
 8354SOL     OW25881   3.959   5.897   2.568
 8354SOL    HW125882   3.873   5.940   2.542
 8354SOL    HW225883   3.966   5.894   2.668
 8355SOL     OW25884   4.987   0.178   1.871
 8355SOL    HW125885   4.991   0.108   1.943
 8355SOL    HW225886   4.895   0.181   1.833
 8356SOL     OW25887   4.551   6.584   3.254
 8356SOL    HW125888   4.599   6.552   3.172
 8356SOL    HW225889   4.538   6.683   3.249
 8357SOL     OW25890   4.678   6.493   2.092
 8357SOL    HW125891   4.749   6.555   2.059
 8357SOL    HW225892   4.719   6.427   2.155
 8358SOL     OW25893   4.131   6.911   3.314
 8358SOL    HW125894   4.142   6.960   3.401
 8358SOL    HW225895   4.054   6.847   3.321
 8359SOL     OW25896   5.314   6.832   3.195
 8359SOL    HW125897   5.387   6.817   3.261
 8359SOL    HW225898   5.242   6.888   3.236
 8360SOL     OW25899   4.807   6.740   2.676
 8360SOL    HW125900   4.723   6.686   2.685
 8360SOL    HW225901   4.875   6.689   2.623
 8361SOL     OW25902   4.755   5.829   2.810
 8361SOL    HW125903   4.754   5.789   2.718
 8361SOL    HW225904   4.749   5.755   2.878
 8362SOL     OW25905   5.485   5.953   3.263
 8362SOL    HW125906   5.552   6.026   3.258
 8362SOL    HW225907   5.507   5.882   3.196
 8363SOL     OW25908   3.829   6.661   3.606
 8363SOL    HW125909   3.753   6.626   3.660
 8363SOL    HW225910   3.912   6.611   3.629
 8364SOL     OW25911   4.421   5.786   3.368
 8364SOL    HW125912   4.505   5.757   3.321
 8364SOL    HW225913   4.443   5.816   3.461
 8365SOL     OW25914   3.806   5.903   1.857
 8365SOL    HW125915   3.725   5.885   1.801
 8365SOL    HW225916   3.841   5.995   1.836
 8366SOL     OW25917   5.138   6.429   3.244
 8366SOL    HW125918   5.084   6.490   3.186
 8366SOL    HW225919   5.233   6.427   3.211
 8367SOL     OW25920   3.767   5.738   2.107
 8367SOL    HW125921   3.751   5.805   2.034
 8367SOL    HW225922   3.860   5.701   2.098
 8368SOL     OW25923   4.362   6.395   3.304
 8368SOL    HW125924   4.421   6.475   3.292
 8368SOL    HW225925   4.418   6.312   3.308
 8369SOL     OW25926   4.465   6.126   3.566
 8369SOL    HW125927   4.510   6.187   3.631
 8369SOL    HW225928   4.474   6.031   3.599
 8370SOL     OW25929   5.194   6.765   3.507
 8370SOL    HW125930   5.176   6.786   3.603
 8370SOL    HW225931   5.291   6.783   3.487
 8371SOL     OW25932   5.385   6.438   3.121
 8371SOL    HW125933   5.382   6.351   3.072
 8371SOL    HW225934   5.374   6.513   3.057
 8372SOL     OW25935   4.954   5.905   2.321
 8372SOL    HW125936   5.015   5.826   2.320
 8372SOL    HW225937   4.976   5.964   2.398
 8373SOL     OW25938   4.294   6.312   2.533
 8373SOL    HW125939   4.347   6.395   2.515
 8373SOL    HW225940   4.225   6.301   2.461
 8374SOL     OW25941   5.452   5.928   3.538
 8374SOL    HW125942   5.463   5.941   3.439
 8374SOL    HW225943   5.372   5.870   3.555
 8375SOL     OW25944   5.503   6.512   3.359
 8375SOL    HW125945   5.500   6.611   3.367
 8375SOL    HW225946   5.467   6.485   3.269
 8376SOL     OW25947   4.594   6.571   2.720
 8376SOL    HW125948   4.641   6.491   2.757
 8376SOL    HW225949   4.530   6.607   2.787
 8377SOL     OW25950   4.886   6.642   1.941
 8377SOL    HW125951   4.809   6.666   1.882
 8377SOL    HW225952   4.922   6.553   1.914
 8378SOL     OW25953   3.922   6.916   3.665
 8378SOL    HW125954   3.888   6.823   3.652
 8378SOL    HW225955   3.920   6.940   3.762
 8379SOL     OW25956   3.886   6.824   2.540
 8379SOL    HW125957   3.917   6.776   2.623
 8379SOL    HW225958   3.938   6.791   2.461
 8380SOL     OW25959   4.397   6.977   3.486
 8380SOL    HW125960   4.310   6.987   3.534
 8380SOL    HW225961   4.420   0.063   3.440
 8381SOL     OW25962   5.537   5.750   3.095
 8381SOL    HW125963   5.538   5.652   3.117
 8381SOL    HW225964   5.550   5.762   2.997
 8382SOL     OW25965   4.136   6.001   2.374
 8382SOL    HW125966   4.176   5.928   2.318
 8382SOL    HW225967   4.080   5.959   2.446
 8383SOL     OW25968   5.328   0.032   3.006
 8383SOL    HW125969   5.266   0.002   2.933
 8383SOL    HW225970   5.332   6.961   3.077
 8384SOL     OW25971   4.078   6.134   3.144
 8384SOL    HW125972   4.134   6.069   3.196
 8384SOL    HW225973   4.080   6.108   3.047
 8385SOL     OW25974   5.144   5.822   2.972
 8385SOL    HW125975   5.150   5.723   2.990
 8385SOL    HW225976   5.095   5.866   3.047
 8386SOL     OW25977   4.734   5.606   2.979
 8386SOL    HW125978   4.673   5.539   2.936
 8386SOL    HW225979   4.826   5.569   2.983
 8387SOL     OW25980   4.461   6.893   2.135
 8387SOL    HW125981   4.453   6.796   2.160
 8387SOL    HW225982   4.493   6.945   2.214
 8388SOL     OW25983   5.109   5.615   2.054
 8388SOL    HW125984   5.157   5.543   2.004
 8388SOL    HW225985   5.013   5.588   2.067
 8389SOL     OW25986   5.009   6.069   2.533
 8389SOL    HW125987   4.959   6.156   2.528
 8389SOL    HW225988   5.007   6.035   2.627
 8390SOL     OW25989   5.310   5.785   2.754
 8390SOL    HW125990   5.255   5.811   2.833
 8390SOL    HW225991   5.312   5.861   2.688
 8391SOL     OW25992   3.766   6.628   2.165
 8391SOL    HW125993   3.864   6.623   2.152
 8391SOL    HW225994   3.728   6.536   2.177
 8392SOL     OW25995   3.926   6.187   3.872
 8392SOL    HW125996   3.833   6.175   3.908
 8392SOL    HW225997   3.923   6.185   3.772
 8393SOL     OW25998   3.940   5.871   4.713
 8393SOL    HW125999   3.977   5.838   4.800
 8393SOL    HW226000   3.850   5.830   4.698
 8394SOL     OW26001   3.710   6.002   4.364
 8394SOL    HW126002   3.627   6.025   4.415
 8394SOL    HW226003   3.691   5.926   4.302
 8395SOL     OW26004   4.282   6.886   4.948
 8395SOL    HW126005   4.220   6.918   4.877
 8395SOL    HW226006   4.235   6.886   5.036
 8396SOL     OW26007   5.318   0.059   4.408
 8396SOL    HW126008   5.349   0.110   4.489
 8396SOL    HW226009   5.220   0.073   4.395
 8397SOL     OW26010   4.851   6.311   4.397
 8397SOL    HW126011   4.899   6.398   4.387
 8397SOL    HW226012   4.797   6.312   4.481
 8398SOL     OW26013   5.520   6.154   3.932
 8398SOL    HW126014   5.478   6.161   3.841
 8398SOL    HW226015   5.471   6.086   3.986
 8399SOL     OW26016   4.388   6.708   4.736
 8399SOL    HW126017   4.363   6.765   4.815
 8399SOL    HW226018   4.352   6.750   4.652
 8400SOL     OW26019   4.619   6.326   5.576
 8400SOL    HW126020   4.621   6.388   5.654
 8400SOL    HW226021   4.633   6.378   5.491
 8401SOL     OW26022   4.428   6.559   4.351
 8401SOL    HW126023   4.500   6.562   4.421
 8401SOL    HW226024   4.349   6.611   4.383
 8402SOL     OW26025   4.414   6.768   5.562
 8402SOL    HW126026   4.434   6.825   5.642
 8402SOL    HW226027   4.404   6.826   5.481
 8403SOL     OW26028   4.083   6.980   4.782
 8403SOL    HW126029   3.997   6.947   4.745
 8403SOL    HW226030   4.124   0.045   4.718
 8404SOL     OW26031   4.194   5.949   5.173
 8404SOL    HW126032   4.275   5.893   5.191
 8404SOL    HW226033   4.112   5.900   5.204
 8405SOL     OW26034   5.309   6.026   4.474
 8405SOL    HW126035   5.253   6.039   4.393
 8405SOL    HW226036   5.282   6.091   4.544
 8406SOL     OW26037   4.000   6.683   4.620
 8406SOL    HW126038   4.003   6.587   4.647
 8406SOL    HW226039   3.948   6.735   4.687
 8407SOL     OW26040   4.277   6.576   3.864
 8407SOL    HW126041   4.315   6.628   3.788
 8407SOL    HW226042   4.333   6.590   3.946
 8408SOL     OW26043   5.314   5.719   5.191
 8408SOL    HW126044   5.357   5.800   5.150
 8408SOL    HW226045   5.272   5.745   5.278
 8409SOL     OW26046   3.832   6.260   4.300
 8409SOL    HW126047   3.796   6.169   4.321
 8409SOL    HW226048   3.822   6.320   4.379
 8410SOL     OW26049   5.420   6.465   4.369
 8410SOL    HW126050   5.510   6.455   4.411
 8410SOL    HW226051   5.426   6.529   4.292
 8411SOL     OW26052   5.412   6.687   4.185
 8411SOL    HW126053   5.493   6.678   4.127
 8411SOL    HW226054   5.435   6.740   4.266
 8412SOL     OW26055   3.853   6.341   5.296
 8412SOL    HW126056   3.944   6.382   5.297
 8412SOL    HW226057   3.785   6.410   5.274
 8413SOL     OW26058   5.005   6.793   5.146
 8413SOL    HW126059   5.030   6.721   5.081
 8413SOL    HW226060   5.064   6.786   5.227
 8414SOL     OW26061   4.554   5.612   4.243
 8414SOL    HW126062   4.600   5.695   4.213
 8414SOL    HW226063   4.455   5.628   4.246
 8415SOL     OW26064   3.923   6.528   5.031
 8415SOL    HW126065   4.012   6.487   5.010
 8415SOL    HW226066   3.855   6.496   4.965
 8416SOL     OW26067   5.282   6.607   3.947
 8416SOL    HW126068   5.209   6.542   3.969
 8416SOL    HW226069   5.328   6.635   4.031
 8417SOL     OW26070   4.080   5.842   5.604
 8417SOL    HW126071   4.119   5.923   5.647
 8417SOL    HW226072   3.982   5.855   5.591
 8418SOL     OW26073   5.159   6.932   4.695
 8418SOL    HW126074   5.064   6.929   4.728
 8418SOL    HW226075   5.180   6.848   4.646
 8419SOL     OW26076   4.300   6.287   4.000
 8419SOL    HW126077   4.300   6.374   3.951
 8419SOL    HW226078   4.230   6.289   4.072
 8420SOL     OW26079   5.002   5.978   4.662
 8420SOL    HW126080   4.910   5.940   4.660
 8420SOL    HW226081   5.060   5.922   4.721
 8421SOL     OW26082   4.526   6.172   5.168
 8421SOL    HW126083   4.499   6.147   5.261
 8421SOL    HW226084   4.497   6.099   5.104
 8422SOL     OW26085   5.112   6.051   5.398
 8422SOL    HW126086   5.117   6.100   5.485
 8422SOL    HW226087   5.158   5.963   5.407
 8423SOL     OW26088   4.666   6.465   5.334
 8423SOL    HW126089   4.727   6.399   5.290
 8423SOL    HW226090   4.615   6.515   5.264
 8424SOL     OW26091   4.734   5.972   4.916
 8424SOL    HW126092   4.639   5.983   4.945
 8424SOL    HW226093   4.736   5.924   4.828
 8425SOL     OW26094   4.775   6.292   4.129
 8425SOL    HW126095   4.798   6.297   4.226
 8425SOL    HW226096   4.686   6.247   4.118
 8426SOL     OW26097   3.800   6.445   4.510
 8426SOL    HW126098   3.888   6.427   4.553
 8426SOL    HW226099   3.755   6.521   4.557
 8427SOL     OW26100   4.591   5.936   3.929
 8427SOL    HW126101   4.651   5.986   3.866
 8427SOL    HW226102   4.542   5.865   3.879
 8428SOL     OW26103   5.393   6.150   5.557
 8428SOL    HW126104   5.383   6.233   5.503
 8428SOL    HW226105   5.419   6.074   5.497
 8429SOL     OW26106   5.162   6.745   4.314
 8429SOL    HW126107   5.241   6.719   4.258
 8429SOL    HW226108   5.146   6.843   4.306
 8430SOL     OW26109   4.276   5.730   4.652
 8430SOL    HW126110   4.284   5.755   4.749
 8430SOL    HW226111   4.274   5.814   4.597
 8431SOL     OW26112   5.527   6.660   4.627
 8431SOL    HW126113   5.489   6.707   4.548
 8431SOL    HW226114   5.456   6.649   4.697
 8432SOL     OW26115   4.036   6.556   4.007
 8432SOL    HW126116   4.117   6.571   3.950
 8432SOL    HW226117   4.014   6.459   4.008
 8433SOL     OW26118   5.188   6.349   4.436
 8433SOL    HW126119   5.193   6.297   4.521
 8433SOL    HW226120   5.277   6.394   4.420
 8434SOL     OW26121   3.937   5.846   5.219
 8434SOL    HW126122   3.869   5.919   5.221
 8434SOL    HW226123   3.900   5.764   5.262
 8435SOL     OW26124   5.354   6.967   3.844
 8435SOL    HW126125   5.324   0.062   3.847
 8435SOL    HW226126   5.277   6.909   3.816
 8436SOL     OW26127   5.125   5.688   4.187
 8436SOL    HW126128   5.124   5.667   4.089
 8436SOL    HW226129   5.213   5.661   4.226
 8437SOL     OW26130   4.101   6.264   4.197
 8437SOL    HW126131   4.120   6.166   4.207
 8437SOL    HW226132   4.007   6.283   4.224
 8438SOL     OW26133   5.212   5.792   5.445
 8438SOL    HW126134   5.230   5.813   5.541
 8438SOL    HW226135   5.141   5.722   5.438
 8439SOL     OW26136   4.385   5.689   3.833
 8439SOL    HW126137   4.441   5.610   3.858
 8439SOL    HW226138   4.318   5.662   3.763
 8440SOL     OW26139   4.490   5.852   5.486
 8440SOL    HW126140   4.578   5.805   5.480
 8440SOL    HW226141   4.432   5.807   5.554
 8441SOL     OW26142   5.040   6.173   5.164
 8441SOL    HW126143   5.075   6.138   5.250
 8441SOL    HW226144   5.080   6.263   5.146
 8442SOL     OW26145   4.649   6.101   4.601
 8442SOL    HW126146   4.625   6.091   4.505
 8442SOL    HW226147   4.678   6.012   4.637
 8443SOL     OW26148   4.284   5.654   4.222
 8443SOL    HW126149   4.204   5.652   4.282
 8443SOL    HW226150   4.276   5.729   4.157
 8444SOL     OW26151   5.132   6.774   3.790
 8444SOL    HW126152   5.194   6.715   3.841
 8444SOL    HW226153   5.041   6.732   3.787
 8445SOL     OW26154   4.009   5.633   3.910
 8445SOL    HW126155   4.056   5.709   3.865
 8445SOL    HW226156   4.077   5.576   3.957
 8446SOL     OW26157   4.686   5.840   4.169
 8446SOL    HW126158   4.653   5.874   4.081
 8446SOL    HW226159   4.785   5.856   4.175
 8447SOL     OW26160   4.783   6.282   5.162
 8447SOL    HW126161   4.705   6.220   5.170
 8447SOL    HW226162   4.868   6.230   5.164
 8448SOL     OW26163   5.057   0.156   4.439
 8448SOL    HW126164   4.997   0.190   4.366
 8448SOL    HW226165   5.053   0.217   4.517
 8449SOL     OW26166   4.209   6.693   4.442
 8449SOL    HW126167   4.139   6.691   4.514
 8449SOL    HW226168   4.166   6.716   4.355
 8450SOL     OW26169   4.753   6.093   3.772
 8450SOL    HW126170   4.711   6.182   3.752
 8450SOL    HW226171   4.823   6.105   3.842
 8451SOL     OW26172   3.834   6.130   5.123
 8451SOL    HW126173   3.927   6.126   5.087
 8451SOL    HW226174   3.826   6.206   5.187
 8452SOL     OW26175   4.288   5.782   4.921
 8452SOL    HW126176   4.323   5.709   4.978
 8452SOL    HW226177   4.190   5.794   4.938
 8453SOL     OW26178   4.597   6.046   4.340
 8453SOL    HW126179   4.554   6.106   4.273
 8453SOL    HW226180   4.630   5.963   4.295
 8454SOL     OW26181   4.737   5.643   4.458
 8454SOL    HW126182   4.674   5.640   4.381
 8454SOL    HW226183   4.715   5.571   4.523
 8455SOL     OW26184   5.181   6.676   4.596
 8455SOL    HW126185   5.116   6.602   4.615
 8455SOL    HW226186   5.184   6.693   4.498
 8456SOL     OW26187   5.182   6.195   4.670
 8456SOL    HW126188   5.113   6.123   4.678
 8456SOL    HW226189   5.245   6.190   4.747
 8457SOL     OW26190   5.551   6.374   4.092
 8457SOL    HW126191   5.606   6.338   4.167
 8457SOL    HW226192   5.537   6.302   4.024
 8458SOL     OW26193   5.473   6.827   4.408
 8458SOL    HW126194   5.571   6.847   4.405
 8458SOL    HW226195   5.421   6.912   4.412
 8459SOL     OW26196   5.114   6.161   3.786
 8459SOL    HW126197   5.064   6.131   3.867
 8459SOL    HW226198   5.212   6.147   3.799
 8460SOL     OW26199   4.253   5.840   4.027
 8460SOL    HW126200   4.305   5.788   3.959
 8460SOL    HW226201   4.220   5.925   3.986
 8461SOL     OW26202   5.474   6.796   5.305
 8461SOL    HW126203   5.521   6.746   5.378
 8461SOL    HW226204   5.518   6.885   5.292
 8462SOL     OW26205   4.770   6.875   5.009
 8462SOL    HW126206   4.686   6.867   5.062
 8462SOL    HW226207   4.849   6.856   5.068
 8463SOL     OW26208   4.916   6.814   4.782
 8463SOL    HW126209   4.850   6.837   4.853
 8463SOL    HW226210   4.868   6.794   4.697
 8464SOL     OW26211   5.338   6.659   4.829
 8464SOL    HW126212   5.322   6.723   4.905
 8464SOL    HW226213   5.267   6.672   4.760
 8465SOL     OW26214   4.653   5.661   5.108
 8465SOL    HW126215   4.671   5.643   5.011
 8465SOL    HW226216   4.731   5.706   5.150
 8466SOL     OW26217   4.671   6.677   5.506
 8466SOL    HW126218   4.576   6.701   5.525
 8466SOL    HW226219   4.674   6.603   5.439
 8467SOL     OW26220   4.453   6.617   4.072
 8467SOL    HW126221   4.445   6.597   4.169
 8467SOL    HW226222   4.535   6.573   4.035
 8468SOL     OW26223   4.158   6.393   4.986
 8468SOL    HW126224   4.232   6.406   5.053
 8468SOL    HW226225   4.123   6.300   4.992
 8469SOL     OW26226   4.984   5.951   5.016
 8469SOL    HW126227   5.011   6.034   5.066
 8469SOL    HW226228   4.893   5.964   4.978
 8470SOL     OW26229   4.067   6.747   4.207
 8470SOL    HW126230   4.102   6.829   4.162
 8470SOL    HW226231   4.055   6.675   4.140
 8471SOL     OW26232   4.253   6.125   4.593
 8471SOL    HW126233   4.267   6.182   4.512
 8471SOL    HW226234   4.327   6.141   4.658
 8472SOL     OW26235   5.304   6.210   4.213
 8472SOL    HW126236   5.242   6.251   4.279
 8472SOL    HW226237   5.372   6.277   4.185
 8473SOL     OW26238   4.160   6.343   5.347
 8473SOL    HW126239   4.226   6.375   5.279
 8473SOL    HW226240   4.196   6.260   5.390
 8474SOL     OW26241   5.362   6.381   5.416
 8474SOL    HW126242   5.268   6.415   5.406
 8474SOL    HW226243   5.419   6.419   5.343
 8475SOL     OW26244   4.724   5.718   5.480
 8475SOL    HW126245   4.781   5.800   5.469
 8475SOL    HW226246   4.778   5.637   5.459
 8476SOL     OW26247   4.214   5.627   5.491
 8476SOL    HW126248   4.160   5.573   5.427
 8476SOL    HW226249   4.163   5.708   5.517
 8477SOL     OW26250   4.310   6.444   4.761
 8477SOL    HW126251   4.336   6.540   4.752
 8477SOL    HW226252   4.251   6.433   4.841
 8478SOL     OW26253   5.026   6.430   4.714
 8478SOL    HW126254   4.932   6.406   4.692
 8478SOL    HW226255   5.085   6.350   4.699
 8479SOL     OW26256   4.927   6.108   3.989
 8479SOL    HW126257   4.944   6.029   4.048
 8479SOL    HW226258   4.878   6.178   4.041
 8480SOL     OW26259   4.017   5.776   4.961
 8480SOL    HW126260   3.986   5.810   5.050
 8480SOL    HW226261   3.995   5.679   4.952
 8481SOL     OW26262   3.784   6.895   5.014
 8481SOL    HW126263   3.830   6.847   5.088
 8481SOL    HW226264   3.754   6.985   5.045
 8482SOL     OW26265   4.449   6.205   4.772
 8482SOL    HW126266   4.520   6.189   4.704
 8482SOL    HW226267   4.409   6.296   4.758
 8483SOL     OW26268   5.461   6.576   5.588
 8483SOL    HW126269   5.428   6.496   5.538
 8483SOL    HW226270   5.407   6.589   5.671
 8484SOL     OW26271   4.047   5.648   4.362
 8484SOL    HW126272   4.009   5.740   4.378
 8484SOL    HW226273   4.056   5.601   4.450
 8485SOL     OW26274   5.349   5.983   4.066
 8485SOL    HW126275   5.394   5.915   4.124
 8485SOL    HW226276   5.320   6.061   4.122
 8486SOL     OW26277   4.751   6.345   4.676
 8486SOL    HW126278   4.730   6.364   4.771
 8486SOL    HW226279   4.722   6.252   4.653
 8487SOL     OW26280   5.642   0.024   5.307
 8487SOL    HW126281   5.684   0.111   5.280
 8487SOL    HW226282   5.690   6.988   5.387
 8488SOL     OW26283   4.064   6.530   5.524
 8488SOL    HW126284   4.132   6.545   5.595
 8488SOL    HW226285   4.098   6.463   5.458
 8489SOL     OW26286   5.247   5.848   3.843
 8489SOL    HW126287   5.195   5.771   3.880
 8489SOL    HW226288   5.285   5.902   3.918
 8490SOL     OW26289   5.005   6.405   3.735
 8490SOL    HW126290   5.037   6.312   3.749
 8490SOL    HW226291   5.039   6.440   3.648
 8491SOL     OW26292   4.036   6.404   4.656
 8491SOL    HW126293   4.135   6.418   4.652
 8491SOL    HW226294   4.017   6.311   4.686
 8492SOL     OW26295   4.021   6.126   4.726
 8492SOL    HW126296   3.981   6.035   4.718
 8492SOL    HW226297   4.106   6.131   4.672
 8493SOL     OW26298   4.859   5.951   5.423
 8493SOL    HW126299   4.810   6.002   5.494
 8493SOL    HW226300   4.948   5.992   5.408
 8494SOL     OW26301   4.882   5.778   5.206
 8494SOL    HW126302   4.865   5.839   5.283
 8494SOL    HW226303   4.928   5.828   5.133
 8495SOL     OW26304   3.743   6.895   3.921
 8495SOL    HW126305   3.651   6.912   3.886
 8495SOL    HW226306   3.750   6.801   3.952
 8496SOL     OW26307   4.662   6.378   4.933
 8496SOL    HW126308   4.719   6.356   5.012
 8496SOL    HW226309   4.580   6.320   4.932
 8497SOL     OW26310   3.770   6.176   4.854
 8497SOL    HW126311   3.852   6.169   4.798
 8497SOL    HW226312   3.794   6.163   4.951
 8498SOL     OW26313   3.919   6.132   5.463
 8498SOL    HW126314   3.991   6.088   5.410
 8498SOL    HW226315   3.883   6.210   5.413
 8499SOL     OW26316   5.119   6.500   5.369
 8499SOL    HW126317   5.139   6.598   5.371
 8499SOL    HW226318   5.111   6.470   5.274
 8500SOL     OW26319   4.536   6.163   4.086
 8500SOL    HW126320   4.546   6.080   4.031
 8500SOL    HW226321   4.452   6.211   4.059
 8501SOL     OW26322   5.362   6.175   4.878
 8501SOL    HW126323   5.345   6.110   4.951
 8501SOL    HW226324   5.459   6.174   4.854
 8502SOL     OW26325   4.462   6.003   4.958
 8502SOL    HW126326   4.397   5.928   4.948
 8502SOL    HW226327   4.444   6.074   4.890
 8503SOL     OW26328   4.166   6.064   3.895
 8503SOL    HW126329   4.233   6.133   3.921
 8503SOL    HW226330   4.074   6.105   3.896
 8504SOL     OW26331   3.918   6.738   5.204
 8504SOL    HW126332   3.888   6.709   5.294
 8504SOL    HW226333   3.920   6.659   5.142
 8505SOL     OW26334   5.031   6.607   4.924
 8505SOL    HW126335   5.035   6.534   4.855
 8505SOL    HW226336   4.997   6.691   4.882
 8506SOL     OW26337   5.067   6.447   4.004
 8506SOL    HW126338   5.005   6.401   4.067
 8506SOL    HW226339   5.038   6.429   3.910
 8507SOL     OW26340   3.819   6.856   4.748
 8507SOL    HW126341   3.804   6.866   4.846
 8507SOL    HW226342   3.757   6.787   4.711
 8508SOL     OW26343   5.495   5.792   4.203
 8508SOL    HW126344   5.549   5.772   4.121
 8508SOL    HW226345   5.451   5.709   4.236
 8509SOL     OW26346   4.999   6.540   4.391
 8509SOL    HW126347   5.067   6.468   4.409
 8509SOL    HW226348   5.044   6.617   4.347
 8510SOL     OW26349   4.507   6.853   5.114
 8510SOL    HW126350   4.477   6.889   5.203
 8510SOL    HW226351   4.436   6.870   5.046
 8511SOL     OW26352   5.569   5.739   4.686
 8511SOL    HW126353   5.600   5.647   4.665
 8511SOL    HW226354   5.478   5.754   4.647
 8512SOL     OW26355   3.959   5.896   4.433
 8512SOL    HW126356   3.873   5.940   4.407
 8512SOL    HW226357   3.966   5.894   4.533
 8513SOL     OW26358   4.987   0.178   3.735
 8513SOL    HW126359   4.990   0.109   3.808
 8513SOL    HW226360   4.895   0.181   3.696
 8514SOL     OW26361   4.552   6.584   5.115
 8514SOL    HW126362   4.600   6.553   5.033
 8514SOL    HW226363   4.539   6.683   5.111
 8515SOL     OW26364   4.678   6.494   3.954
 8515SOL    HW126365   4.749   6.556   3.921
 8515SOL    HW226366   4.719   6.427   4.017
 8516SOL     OW26367   4.132   6.911   5.177
 8516SOL    HW126368   4.142   6.960   5.263
 8516SOL    HW226369   4.055   6.848   5.183
 8517SOL     OW26370   5.314   6.831   5.059
 8517SOL    HW126371   5.385   6.818   5.127
 8517SOL    HW226372   5.239   6.885   5.098
 8518SOL     OW26373   4.804   6.742   4.534
 8518SOL    HW126374   4.721   6.687   4.544
 8518SOL    HW226375   4.872   6.691   4.481
 8519SOL     OW26376   4.756   5.830   4.674
 8519SOL    HW126377   4.752   5.790   4.582
 8519SOL    HW226378   4.753   5.756   4.742
 8520SOL     OW26379   5.483   5.954   5.124
 8520SOL    HW126380   5.551   6.027   5.120
 8520SOL    HW226381   5.505   5.884   5.057
 8521SOL     OW26382   3.829   6.661   5.469
 8521SOL    HW126383   3.753   6.626   5.522
 8521SOL    HW226384   3.912   6.611   5.492
 8522SOL     OW26385   4.419   5.777   5.226
 8522SOL    HW126386   4.504   5.748   5.181
 8522SOL    HW226387   4.440   5.810   5.318
 8523SOL     OW26388   3.805   5.904   3.720
 8523SOL    HW126389   3.724   5.886   3.665
 8523SOL    HW226390   3.840   5.996   3.699
 8524SOL     OW26391   5.139   6.428   5.107
 8524SOL    HW126392   5.084   6.489   5.049
 8524SOL    HW226393   5.233   6.426   5.074
 8525SOL     OW26394   3.766   5.738   3.971
 8525SOL    HW126395   3.748   5.805   3.899
 8525SOL    HW226396   3.859   5.702   3.960
 8526SOL     OW26397   4.362   6.396   5.165
 8526SOL    HW126398   4.421   6.476   5.153
 8526SOL    HW226399   4.418   6.313   5.169
 8527SOL     OW26400   4.461   6.127   5.428
 8527SOL    HW126401   4.508   6.187   5.492
 8527SOL    HW226402   4.471   6.032   5.458
 8528SOL     OW26403   5.193   6.765   5.369
 8528SOL    HW126404   5.174   6.786   5.465
 8528SOL    HW226405   5.290   6.783   5.349
 8529SOL     OW26406   5.386   6.437   4.984
 8529SOL    HW126407   5.382   6.350   4.934
 8529SOL    HW226408   5.374   6.513   4.920
 8530SOL     OW26409   4.955   5.908   4.183
 8530SOL    HW126410   5.018   5.830   4.183
 8530SOL    HW226411   4.976   5.967   4.261
 8531SOL     OW26412   4.294   6.312   4.395
 8531SOL    HW126413   4.347   6.395   4.377
 8531SOL    HW226414   4.225   6.301   4.324
 8532SOL     OW26415   5.453   5.928   5.399
 8532SOL    HW126416   5.463   5.942   5.300
 8532SOL    HW226417   5.374   5.871   5.417
 8533SOL     OW26418   5.503   6.512   5.220
 8533SOL    HW126419   5.500   6.612   5.228
 8533SOL    HW226420   5.467   6.485   5.131
 8534SOL     OW26421   4.594   6.571   4.582
 8534SOL    HW126422   4.641   6.491   4.619
 8534SOL    HW226423   4.530   6.607   4.649
 8535SOL     OW26424   4.887   6.643   3.802
 8535SOL    HW126425   4.809   6.666   3.744
 8535SOL    HW226426   4.922   6.553   3.777
 8536SOL     OW26427   3.922   6.917   5.526
 8536SOL    HW126428   3.888   6.824   5.515
 8536SOL    HW226429   3.926   6.941   5.623
 8537SOL     OW26430   3.886   6.824   4.402
 8537SOL    HW126431   3.917   6.776   4.484
 8537SOL    HW226432   3.938   6.791   4.323
 8538SOL     OW26433   4.399   6.976   5.351
 8538SOL    HW126434   4.310   6.986   5.396
 8538SOL    HW226435   4.423   0.062   5.304
 8539SOL     OW26436   5.536   5.751   4.957
 8539SOL    HW126437   5.543   5.654   4.981
 8539SOL    HW226438   5.549   5.762   4.859
 8540SOL     OW26439   4.136   6.001   4.238
 8540SOL    HW126440   4.175   5.929   4.181
 8540SOL    HW226441   4.080   5.959   4.310
 8541SOL     OW26442   5.332   0.033   4.872
 8541SOL    HW126443   5.275   0.001   4.797
 8541SOL    HW226444   5.336   6.963   4.944
 8542SOL     OW26445   4.078   6.133   5.007
 8542SOL    HW126446   4.134   6.067   5.059
 8542SOL    HW226447   4.080   6.108   4.910
 8543SOL     OW26448   5.146   5.824   4.837
 8543SOL    HW126449   5.159   5.727   4.859
 8543SOL    HW226450   5.095   5.867   4.912
 8544SOL     OW26451   4.743   5.603   4.841
 8544SOL    HW126452   4.681   5.541   4.792
 8544SOL    HW226453   4.835   5.564   4.841
 8545SOL     OW26454   4.461   6.893   3.998
 8545SOL    HW126455   4.454   6.797   4.023
 8545SOL    HW226456   4.493   6.946   4.077
 8546SOL     OW26457   5.112   5.622   3.920
 8546SOL    HW126458   5.158   5.549   3.868
 8546SOL    HW226459   5.016   5.598   3.933
 8547SOL     OW26460   5.007   6.070   4.397
 8547SOL    HW126461   4.958   6.157   4.392
 8547SOL    HW226462   5.007   6.037   4.491
 8548SOL     OW26463   5.310   5.786   4.617
 8548SOL    HW126464   5.254   5.813   4.696
 8548SOL    HW226465   5.311   5.860   4.551
 8549SOL     OW26466   3.766   6.629   4.027
 8549SOL    HW126467   3.865   6.623   4.014
 8549SOL    HW226468   3.728   6.537   4.039
 8550SOL     OW26469   3.926   6.186   5.734
 8550SOL    HW126470   3.833   6.175   5.770
 8550SOL    HW226471   3.923   6.185   5.634
 8551SOL     OW26472   3.942   5.884   6.571
 8551SOL    HW126473   3.985   5.846   6.653
 8551SOL    HW226474   3.849   5.848   6.564
 8552SOL     OW26475   3.707   6.005   6.225
 8552SOL    HW126476   3.623   6.028   6.274
 8552SOL    HW226477   3.689   5.929   6.162
 8553SOL     OW26478   4.265   6.909   6.787
 8553SOL    HW126479   4.192   6.937   6.725
 8553SOL    HW226480   4.227   6.896   6.879
 8554SOL     OW26481   5.305   0.047   6.248
 8554SOL    HW126482   5.294   0.051   6.348
 8554SOL    HW226483   5.222   0.082   6.205
 8555SOL     OW26484   4.851   6.302   6.252
 8555SOL    HW126485   4.896   6.392   6.252
 8555SOL    HW226486   4.793   6.295   6.333
 8556SOL     OW26487   5.519   6.153   5.794
 8556SOL    HW126488   5.478   6.159   5.703
 8556SOL    HW226489   5.470   6.087   5.849
 8557SOL     OW26490   4.386   6.716   6.611
 8557SOL    HW126491   4.355   6.781   6.680
 8557SOL    HW226492   4.355   6.744   6.521
 8558SOL     OW26493   4.431   6.561   6.220
 8558SOL    HW126494   4.503   6.561   6.288
 8558SOL    HW226495   4.352   6.612   6.254
 8559SOL     OW26496   4.055   0.008   6.644
 8559SOL    HW126497   3.971   6.968   6.609
 8559SOL    HW226498   4.094   0.070   6.576
 8560SOL     OW26499   5.304   6.031   6.335
 8560SOL    HW126500   5.234   6.040   6.264
 8560SOL    HW226501   5.285   6.097   6.408
 8561SOL     OW26502   4.001   6.684   6.497
 8561SOL    HW126503   4.004   6.587   6.521
 8561SOL    HW226504   3.948   6.734   6.566
 8562SOL     OW26505   4.276   6.577   5.728
 8562SOL    HW126506   4.315   6.630   5.652
 8562SOL    HW226507   4.333   6.590   5.809
 8563SOL     OW26508   3.833   6.259   6.160
 8563SOL    HW126509   3.794   6.169   6.181
 8563SOL    HW226510   3.826   6.318   6.240
 8564SOL     OW26511   5.426   6.468   6.233
 8564SOL    HW126512   5.518   6.457   6.272
 8564SOL    HW226513   5.431   6.530   6.154
 8565SOL     OW26514   5.411   6.685   6.042
 8565SOL    HW126515   5.491   6.674   5.983
 8565SOL    HW226516   5.434   6.741   6.121
 8566SOL     OW26517   4.553   5.606   6.095
 8566SOL    HW126518   4.600   5.690   6.067
 8566SOL    HW226519   4.455   5.622   6.100
 8567SOL     OW26520   3.877   6.540   6.837
 8567SOL    HW126521   3.954   6.485   6.805
 8567SOL    HW226522   3.792   6.492   6.817
 8568SOL     OW26523   5.280   6.606   5.806
 8568SOL    HW126524   5.207   6.542   5.828
 8568SOL    HW226525   5.326   6.635   5.890
 8569SOL     OW26526   5.185   6.970   6.500
 8569SOL    HW126527   5.114   0.023   6.454
 8569SOL    HW226528   5.164   6.873   6.495
 8570SOL     OW26529   4.299   6.286   5.861
 8570SOL    HW126530   4.299   6.373   5.812
 8570SOL    HW226531   4.229   6.288   5.933
 8571SOL     OW26532   4.998   5.984   6.517
 8571SOL    HW126533   4.906   5.946   6.518
 8571SOL    HW226534   5.057   5.930   6.578
 8572SOL     OW26535   4.498   6.193   0.056
 8572SOL    HW126536   4.422   6.215   0.118
 8572SOL    HW226537   4.465   6.131   6.984
 8573SOL     OW26538   4.721   5.991   6.765
 8573SOL    HW126539   4.631   6.006   6.805
 8573SOL    HW226540   4.715   5.925   6.690
 8574SOL     OW26541   4.774   6.291   5.987
 8574SOL    HW126542   4.800   6.295   6.083
 8574SOL    HW226543   4.685   6.246   5.977
 8575SOL     OW26544   3.811   6.441   6.370
 8575SOL    HW126545   3.897   6.422   6.417
 8575SOL    HW226546   3.767   6.520   6.413
 8576SOL     OW26547   4.589   5.935   5.791
 8576SOL    HW126548   4.649   5.985   5.728
 8576SOL    HW226549   4.540   5.864   5.741
 8577SOL     OW26550   5.159   6.744   6.176
 8577SOL    HW126551   5.237   6.714   6.121
 8577SOL    HW226552   5.151   6.844   6.171
 8578SOL     OW26553   4.282   5.728   6.512
 8578SOL    HW126554   4.294   5.759   6.606
 8578SOL    HW226555   4.280   5.807   6.451
 8579SOL     OW26556   5.542   6.665   6.472
 8579SOL    HW126557   5.503   6.712   6.393
 8579SOL    HW226558   5.468   6.641   6.535
 8580SOL     OW26559   4.037   6.555   5.874
 8580SOL    HW126560   4.117   6.570   5.815
 8580SOL    HW226561   4.015   6.457   5.876
 8581SOL     OW26562   5.194   6.350   6.296
 8581SOL    HW126563   5.197   6.301   6.383
 8581SOL    HW226564   5.282   6.396   6.281
 8582SOL     OW26565   5.354   6.966   5.705
 8582SOL    HW126566   5.324   0.062   5.710
 8582SOL    HW226567   5.278   6.908   5.678
 8583SOL     OW26568   5.120   5.682   6.044
 8583SOL    HW126569   5.118   5.660   5.947
 8583SOL    HW226570   5.208   5.657   6.083
 8584SOL     OW26571   4.101   6.264   6.058
 8584SOL    HW126572   4.121   6.167   6.068
 8584SOL    HW226573   4.006   6.282   6.085
 8585SOL     OW26574   4.389   5.691   5.694
 8585SOL    HW126575   4.449   5.615   5.718
 8585SOL    HW226576   4.322   5.659   5.626
 8586SOL     OW26577   4.662   6.115   6.463
 8586SOL    HW126578   4.634   6.100   6.368
 8586SOL    HW226579   4.691   6.028   6.503
 8587SOL     OW26580   4.282   5.649   6.082
 8587SOL    HW126581   4.204   5.648   6.143
 8587SOL    HW226582   4.274   5.725   6.017
 8588SOL     OW26583   5.130   6.776   5.653
 8588SOL    HW126584   5.193   6.716   5.703
 8588SOL    HW226585   5.040   6.734   5.649
 8589SOL     OW26586   4.011   5.630   5.770
 8589SOL    HW126587   4.058   5.706   5.726
 8589SOL    HW226588   4.077   5.571   5.816
 8590SOL     OW26589   4.685   5.839   6.031
 8590SOL    HW126590   4.651   5.874   5.944
 8590SOL    HW226591   4.783   5.854   6.038
 8591SOL     OW26592   5.014   0.123   6.329
 8591SOL    HW126593   5.012   0.222   6.314
 8591SOL    HW226594   4.922   0.086   6.319
 8592SOL     OW26595   4.210   6.691   6.319
 8592SOL    HW126596   4.140   6.691   6.390
 8592SOL    HW226597   4.168   6.711   6.230
 8593SOL     OW26598   4.752   6.092   5.633
 8593SOL    HW126599   4.710   6.180   5.613
 8593SOL    HW226600   4.822   6.103   5.703
 8594SOL     OW26601   4.301   5.787   6.782
 8594SOL    HW126602   4.334   5.703   6.825
 8594SOL    HW226603   4.203   5.797   6.798
 8595SOL     OW26604   4.601   6.047   6.204
 8595SOL    HW126605   4.556   6.106   6.137
 8595SOL    HW226606   4.631   5.963   6.160
 8596SOL     OW26607   4.738   5.635   6.310
 8596SOL    HW126608   4.674   5.632   6.233
 8596SOL    HW226609   4.717   5.561   6.374
 8597SOL     OW26610   5.147   6.692   6.464
 8597SOL    HW126611   5.092   6.613   6.490
 8597SOL    HW226612   5.153   6.697   6.364
 8598SOL     OW26613   5.189   6.202   6.536
 8598SOL    HW126614   5.119   6.132   6.547
 8598SOL    HW226615   5.254   6.196   6.612
 8599SOL     OW26616   5.550   6.373   5.954
 8599SOL    HW126617   5.606   6.337   6.029
 8599SOL    HW226618   5.536   6.302   5.885
 8600SOL     OW26619   5.480   6.831   6.257
 8600SOL    HW126620   5.577   6.854   6.261
 8600SOL    HW226621   5.426   6.915   6.258
 8601SOL     OW26622   5.114   6.161   5.648
 8601SOL    HW126623   5.063   6.130   5.729
 8601SOL    HW226624   5.212   6.147   5.663
 8602SOL     OW26625   4.253   5.838   5.888
 8602SOL    HW126626   4.307   5.788   5.820
 8602SOL    HW226627   4.219   5.923   5.848
 8603SOL     OW26628   5.465   6.835   0.262
 8603SOL    HW126629   5.549   6.783   0.247
 8603SOL    HW226630   5.457   6.906   0.191
 8604SOL     OW26631   4.739   6.872   6.921
 8604SOL    HW126632   4.647   6.866   6.960
 8604SOL    HW226633   4.802   6.816   6.975
 8605SOL     OW26634   4.863   6.750   6.702
 8605SOL    HW126635   4.812   6.808   6.766
 8605SOL    HW226636   4.848   6.782   6.609
 8606SOL     OW26637   5.341   6.628   6.651
 8606SOL    HW126638   5.335   6.689   6.730
 8606SOL    HW226639   5.266   6.648   6.588
 8607SOL     OW26640   4.453   6.617   5.936
 8607SOL    HW126641   4.446   6.598   6.034
 8607SOL    HW226642   4.534   6.572   5.899
 8608SOL     OW26643   4.153   6.421   6.855
 8608SOL    HW126644   4.182   6.462   6.942
 8608SOL    HW226645   4.116   6.330   6.873
 8609SOL     OW26646   4.982   5.989   6.854
 8609SOL    HW126647   5.011   6.062   6.916
 8609SOL    HW226648   4.888   6.007   6.823
 8610SOL     OW26649   4.073   6.742   6.079
 8610SOL    HW126650   4.112   6.821   6.033
 8610SOL    HW226651   4.057   6.669   6.012
 8611SOL     OW26652   4.272   6.113   6.444
 8611SOL    HW126653   4.280   6.175   6.366
 8611SOL    HW226654   4.344   6.133   6.511
 8612SOL     OW26655   5.305   6.216   6.068
 8612SOL    HW126656   5.247   6.254   6.140
 8612SOL    HW226657   5.373   6.285   6.040
 8613SOL     OW26658   4.333   6.448   6.649
 8613SOL    HW126659   4.347   6.545   6.629
 8613SOL    HW226660   4.265   6.438   6.721
 8614SOL     OW26661   5.037   6.443   6.570
 8614SOL    HW126662   4.940   6.420   6.564
 8614SOL    HW226663   5.091   6.360   6.558
 8615SOL     OW26664   4.926   6.106   5.850
 8615SOL    HW126665   4.943   6.027   5.909
 8615SOL    HW226666   4.878   6.177   5.901
 8616SOL     OW26667   4.031   5.792   6.816
 8616SOL    HW126668   3.968   5.841   6.876
 8616SOL    HW226669   4.010   5.694   6.818
 8617SOL     OW26670   3.740   6.902   6.880
 8617SOL    HW126671   3.805   6.849   6.935
 8617SOL    HW226672   3.712   6.983   6.932
 8618SOL     OW26673   4.450   6.196   6.635
 8618SOL    HW126674   4.531   6.188   6.577
 8618SOL    HW226675   4.420   6.291   6.636
 8619SOL     OW26676   4.047   5.649   6.227
 8619SOL    HW126677   4.009   5.740   6.240
 8619SOL    HW226678   4.052   5.601   6.314
 8620SOL     OW26679   5.346   5.984   5.928
 8620SOL    HW126680   5.390   5.917   5.987
 8620SOL    HW226681   5.319   6.063   5.982
 8621SOL     OW26682   4.757   6.356   6.564
 8621SOL    HW126683   4.738   6.368   6.661
 8621SOL    HW226684   4.731   6.264   6.536
 8622SOL     OW26685   5.246   5.844   5.706
 8622SOL    HW126686   5.194   5.767   5.743
 8622SOL    HW226687   5.282   5.899   5.782
 8623SOL     OW26688   5.003   6.404   5.597
 8623SOL    HW126689   5.036   6.311   5.611
 8623SOL    HW226690   5.038   6.440   5.511
 8624SOL     OW26691   4.046   6.402   6.520
 8624SOL    HW126692   4.142   6.419   6.498
 8624SOL    HW226693   4.036   6.309   6.556
 8625SOL     OW26694   4.054   6.127   6.599
 8625SOL    HW126695   4.007   6.039   6.588
 8625SOL    HW226696   4.136   6.127   6.542
 8626SOL     OW26697   4.897   5.811   0.044
 8626SOL    HW126698   4.975   5.767   0.089
 8626SOL    HW226699   4.930   5.873   6.972
 8627SOL     OW26700   3.743   6.895   5.787
 8627SOL    HW126701   3.651   6.912   5.750
 8627SOL    HW226702   3.751   6.800   5.816
 8628SOL     OW26703   4.685   6.378   6.831
 8628SOL    HW126704   4.730   6.310   6.889
 8628SOL    HW226705   4.594   6.398   6.868
 8629SOL     OW26706   3.794   6.183   6.713
 8629SOL    HW126707   3.848   6.168   6.631
 8629SOL    HW226708   3.854   6.178   6.793
 8630SOL     OW26709   4.534   6.162   5.949
 8630SOL    HW126710   4.545   6.079   5.894
 8630SOL    HW226711   4.451   6.210   5.921
 8631SOL     OW26712   5.382   6.178   6.737
 8631SOL    HW126713   5.361   6.111   6.809
 8631SOL    HW226714   5.480   6.175   6.717
 8632SOL     OW26715   4.441   6.020   6.844
 8632SOL    HW126716   4.389   5.939   6.817
 8632SOL    HW226717   4.438   6.087   6.771
 8633SOL     OW26718   4.166   6.062   5.755
 8633SOL    HW126719   4.233   6.132   5.781
 8633SOL    HW226720   4.074   6.103   5.757
 8634SOL     OW26721   3.902   6.735   0.022
 8634SOL    HW126722   3.867   6.700   0.109
 8634SOL    HW226723   3.896   6.663   6.953
 8635SOL     OW26724   5.042   6.579   6.817
 8635SOL    HW126725   5.070   6.523   6.739
 8635SOL    HW226726   4.975   6.647   6.787
 8636SOL     OW26727   5.066   6.448   5.865
 8636SOL    HW126728   5.006   6.401   5.931
 8636SOL    HW226729   5.035   6.428   5.772
 8637SOL     OW26730   3.804   6.871   6.611
 8637SOL    HW126731   3.776   6.876   6.707
 8637SOL    HW226732   3.752   6.798   6.566
 8638SOL     OW26733   5.491   5.793   6.064
 8638SOL    HW126734   5.546   5.771   5.983
 8638SOL    HW226735   5.447   5.710   6.097
 8639SOL     OW26736   4.997   6.534   6.248
 8639SOL    HW126737   5.066   6.465   6.269
 8639SOL    HW226738   5.040   6.612   6.202
 8640SOL     OW26739   4.490   6.836   0.042
 8640SOL    HW126740   4.512   6.848   0.139
 8640SOL    HW226741   4.406   6.886   0.020
 8641SOL     OW26742   5.560   5.760   6.560
 8641SOL    HW126743   5.596   5.668   6.542
 8641SOL    HW226744   5.470   5.769   6.519
 8642SOL     OW26745   3.957   5.899   6.291
 8642SOL    HW126746   3.870   5.941   6.265
 8642SOL    HW226747   3.965   5.898   6.391
 8643SOL     OW26748   4.987   0.177   5.597
 8643SOL    HW126749   4.990   0.109   5.670
 8643SOL    HW226750   4.895   0.180   5.557
 8644SOL     OW26751   4.470   6.582   6.930
 8644SOL    HW126752   4.465   6.592   6.830
 8644SOL    HW226753   4.489   6.671   6.971
 8645SOL     OW26754   4.677   6.494   5.816
 8645SOL    HW126755   4.749   6.556   5.783
 8645SOL    HW226756   4.718   6.427   5.878
 8646SOL     OW26757   4.130   6.893   0.030
 8646SOL    HW126758   4.120   6.949   0.112
 8646SOL    HW226759   4.051   6.831   0.021
 8647SOL     OW26760   5.342   6.792   6.863
 8647SOL    HW126761   5.432   6.821   6.897
 8647SOL    HW226762   5.279   6.783   6.940
 8648SOL     OW26763   4.802   6.747   6.377
 8648SOL    HW126764   4.723   6.690   6.400
 8648SOL    HW226765   4.873   6.691   6.335
 8649SOL     OW26766   4.755   5.830   6.530
 8649SOL    HW126767   4.747   5.796   6.437
 8649SOL    HW226768   4.764   5.753   6.593
 8650SOL     OW26769   5.368   5.973   6.923
 8650SOL    HW126770   5.316   5.949   0.005
 8650SOL    HW226771   5.409   5.891   6.884
 8651SOL     OW26772   4.423   5.771   0.084
 8651SOL    HW126773   4.515   5.735   0.100
 8651SOL    HW226774   4.430   5.862   0.042
 8652SOL     OW26775   3.808   5.903   5.580
 8652SOL    HW126776   3.726   5.886   5.525
 8652SOL    HW226777   3.843   5.995   5.559
 8653SOL     OW26778   3.767   5.737   5.829
 8653SOL    HW126779   3.751   5.804   5.757
 8653SOL    HW226780   3.859   5.699   5.820
 8654SOL     OW26781   5.206   6.895   0.353
 8654SOL    HW126782   5.154   6.818   0.316
 8654SOL    HW226783   5.301   6.889   0.324
 8655SOL     OW26784   5.473   6.438   6.810
 8655SOL    HW126785   5.439   6.348   6.784
 8655SOL    HW226786   5.428   6.508   6.754
 8656SOL     OW26787   4.954   5.906   6.044
 8656SOL    HW126788   5.015   5.826   6.043
 8656SOL    HW226789   4.978   5.965   6.121
 8657SOL     OW26790   4.291   6.316   6.258
 8657SOL    HW126791   4.347   6.397   6.239
 8657SOL    HW226792   4.223   6.304   6.186
 8658SOL     OW26793   5.459   6.391   0.086
 8658SOL    HW126794   5.397   6.458   0.125
 8658SOL    HW226795   5.473   6.410   6.989
 8659SOL     OW26796   4.602   6.570   6.452
 8659SOL    HW126797   4.656   6.495   6.491
 8659SOL    HW226798   4.541   6.607   6.522
 8660SOL     OW26799   4.886   6.644   5.663
 8660SOL    HW126800   4.809   6.666   5.605
 8660SOL    HW226801   4.922   6.554   5.638
 8661SOL     OW26802   3.895   6.829   6.272
 8661SOL    HW126803   3.918   6.780   6.356
 8661SOL    HW226804   3.946   6.791   6.195
 8662SOL     OW26805   5.503   5.747   6.828
 8662SOL    HW126806   5.484   5.649   6.835
 8662SOL    HW226807   5.527   5.771   6.734
 8663SOL     OW26808   4.137   6.001   6.099
 8663SOL    HW126809   4.176   5.929   6.042
 8663SOL    HW226810   4.080   5.961   6.170
 8664SOL     OW26811   5.310   0.031   6.735
 8664SOL    HW126812   5.271   0.012   6.645
 8664SOL    HW226813   5.317   6.946   6.787
 8665SOL     OW26814   4.039   6.170   6.877
 8665SOL    HW126815   4.079   6.099   6.935
 8665SOL    HW226816   4.058   6.148   6.781
 8666SOL     OW26817   5.141   5.836   6.694
 8666SOL    HW126818   5.143   5.739   6.721
 8666SOL    HW226819   5.094   5.889   6.764
 8667SOL     OW26820   4.770   5.588   6.667
 8667SOL    HW126821   4.726   5.524   6.604
 8667SOL    HW226822   4.854   5.547   6.703
 8668SOL     OW26823   4.461   6.891   5.856
 8668SOL    HW126824   4.453   6.796   5.883
 8668SOL    HW226825   4.497   6.945   5.932
 8669SOL     OW26826   5.109   5.615   5.778
 8669SOL    HW126827   5.157   5.543   5.728
 8669SOL    HW226828   5.013   5.588   5.790
 8670SOL     OW26829   5.016   6.069   6.255
 8670SOL    HW126830   4.966   6.155   6.247
 8670SOL    HW226831   5.011   6.036   6.349
 8671SOL     OW26832   5.303   5.790   6.478
 8671SOL    HW126833   5.248   5.818   6.557
 8671SOL    HW226834   5.305   5.865   6.411
 8672SOL     OW26835   3.766   6.628   5.887
 8672SOL    HW126836   3.866   6.622   5.876
 8672SOL    HW226837   3.729   6.536   5.899
 8673SOL     OW26838   5.788   0.688   0.134
 8673SOL    HW126839   5.696   0.651   0.144
 8673SOL    HW226840   5.820   0.674   0.040
 8674SOL     OW26841   5.806   0.300   0.996
 8674SOL    HW126842   5.848   0.267   1.081
 8674SOL    HW226843   5.730   0.239   0.973
 8675SOL     OW26844   5.599   0.411   0.629
 8675SOL    HW126845   5.526   0.439   0.691
 8675SOL    HW226846   5.563   0.344   0.564
 8676SOL     OW26847   6.152   1.320   1.214
 8676SOL    HW126848   6.068   1.318   1.160
 8676SOL    HW226849   6.173   1.415   1.238
 8677SOL     OW26850   0.043   1.554   0.774
 8677SOL    HW126851   0.080   1.461   0.777
 8677SOL    HW226852   0.022   1.579   0.680
 8678SOL     OW26853   6.701   0.774   0.667
 8678SOL    HW126854   6.773   0.843   0.662
 8678SOL    HW226855   6.672   0.763   0.762
 8679SOL     OW26856   6.305   1.138   1.058
 8679SOL    HW126857   6.245   1.173   1.130
 8679SOL    HW226858   6.349   1.214   1.010
 8680SOL     OW26859   6.465   0.754   1.846
 8680SOL    HW126860   6.459   0.814   1.926
 8680SOL    HW226861   6.480   0.810   1.764
 8681SOL     OW26862   6.283   0.973   0.656
 8681SOL    HW126863   6.356   0.974   0.724
 8681SOL    HW226864   6.211   1.038   0.683
 8682SOL     OW26865   6.268   1.141   1.830
 8682SOL    HW126866   6.318   1.218   1.871
 8682SOL    HW226867   6.190   1.176   1.779
 8683SOL     OW26868   5.922   1.394   1.064
 8683SOL    HW126869   5.840   1.354   1.022
 8683SOL    HW226870   5.968   1.452   0.997
 8684SOL     OW26871   6.040   0.391   1.456
 8684SOL    HW126872   6.122   0.342   1.485
 8684SOL    HW226873   5.959   0.337   1.480
 8685SOL     OW26874   5.821   1.704   0.493
 8685SOL    HW126875   5.836   1.785   0.550
 8685SOL    HW226876   5.905   1.683   0.443
 8686SOL     OW26877   6.713   1.365   1.688
 8686SOL    HW126878   6.803   1.329   1.664
 8686SOL    HW226879   6.649   1.289   1.702
 8687SOL     OW26880   5.749   1.429   0.477
 8687SOL    HW126881   5.768   1.521   0.512
 8687SOL    HW226882   5.735   1.367   0.554
 8688SOL     OW26883   5.856   1.098   0.859
 8688SOL    HW126884   5.867   1.005   0.894
 8688SOL    HW226885   5.799   1.151   0.922
 8689SOL     OW26886   6.143   1.830   1.411
 8689SOL    HW126887   6.067   1.801   1.469
 8689SOL    HW226888   6.188   1.909   1.453
 8690SOL     OW26889   6.155   0.959   0.172
 8690SOL    HW126890   6.213   0.984   0.095
 8690SOL    HW226891   6.192   0.998   0.257
 8691SOL     OW26892   5.706   0.668   0.551
 8691SOL    HW126893   5.680   0.575   0.575
 8691SOL    HW226894   5.699   0.727   0.632
 8692SOL     OW26895   5.588   1.597   0.139
 8692SOL    HW126896   5.516   1.529   0.133
 8692SOL    HW226897   5.593   1.633   0.233
 8693SOL     OW26898   5.693   0.761   1.572
 8693SOL    HW126899   5.780   0.811   1.576
 8693SOL    HW226900   5.619   0.824   1.550
 8694SOL     OW26901   6.206   1.390   0.733
 8694SOL    HW126902   6.166   1.299   0.743
 8694SOL    HW226903   6.200   1.418   0.637
 8695SOL     OW26904   6.793   1.181   1.416
 8695SOL    HW126905   6.834   1.120   1.349
 8695SOL    HW226906   6.857   1.193   1.493
 8696SOL     OW26907   6.425   0.044   0.534
 8696SOL    HW126908   6.472   0.129   0.512
 8696SOL    HW226909   6.326   0.058   0.529
 8697SOL     OW26910   5.775   0.949   1.301
 8697SOL    HW126911   5.869   0.917   1.286
 8697SOL    HW226912   5.715   0.910   1.231
 8698SOL     OW26913   6.825   1.833   1.597
 8698SOL    HW126914   6.785   1.903   1.538
 8698SOL    HW226915   6.811   1.743   1.556
 8699SOL     OW26916   5.922   0.291   1.804
 8699SOL    HW126917   5.977   0.353   1.860
 8699SOL    HW226918   5.830   0.284   1.842
 8700SOL     OW26919   6.176   0.699   0.274
 8700SOL    HW126920   6.179   0.792   0.235
 8700SOL    HW226921   6.110   0.696   0.349
 8701SOL     OW26922   6.852   0.379   0.885
 8701SOL    HW126923   6.752   0.378   0.890
 8701SOL    HW226924   6.890   0.316   0.954
 8702SOL     OW26925   6.357   0.601   1.462
 8702SOL    HW126926   6.336   0.562   1.551
 8702SOL    HW226927   6.343   0.532   1.391
 8703SOL     OW26928   6.966   0.536   1.752
 8703SOL    HW126929   6.928   0.619   1.792
 8703SOL    HW226930   0.065   0.544   1.744
 8704SOL     OW26931   6.539   0.889   1.607
 8704SOL    HW126932   6.588   0.810   1.569
 8704SOL    HW226933   6.490   0.937   1.534
 8705SOL     OW26934   6.624   0.394   1.204
 8705SOL    HW126935   6.532   0.415   1.237
 8705SOL    HW226936   6.620   0.362   1.110
 8706SOL     OW26937   6.652   0.710   0.406
 8706SOL    HW126938   6.672   0.732   0.502
 8706SOL    HW226939   6.564   0.663   0.401
 8707SOL     OW26940   5.680   0.840   0.772
 8707SOL    HW126941   5.771   0.827   0.812
 8707SOL    HW226942   5.629   0.907   0.825
 8708SOL     OW26943   5.694   1.890   1.597
 8708SOL    HW126944   5.703   1.858   1.692
 8708SOL    HW226945   5.605   1.861   1.561
 8709SOL     OW26946   6.474   0.364   0.218
 8709SOL    HW126947   6.463   0.430   0.144
 8709SOL    HW226948   6.481   0.272   0.179
 8710SOL     OW26949   0.003   1.178   0.542
 8710SOL    HW126950   0.036   1.127   0.462
 8710SOL    HW226951   6.939   1.249   0.512
 8711SOL     OW26952   6.095   0.192   0.932
 8711SOL    HW126953   6.135   0.215   1.021
 8711SOL    HW226954   6.107   0.268   0.869
 8712SOL     OW26955   6.575   1.429   0.469
 8712SOL    HW126956   6.536   1.515   0.437
 8712SOL    HW226957   6.552   1.415   0.566
 8713SOL     OW26958   5.942   1.808   0.885
 8713SOL    HW126959   5.984   1.718   0.888
 8713SOL    HW226960   6.010   1.877   0.911
 8714SOL     OW26961   6.805   1.576   1.490
 8714SOL    HW126962   6.769   1.504   1.549
 8714SOL    HW226963   6.780   1.558   1.395
 8715SOL     OW26964   5.882   0.937   0.240
 8715SOL    HW126965   5.977   0.948   0.213
 8715SOL    HW226966   5.848   0.847   0.211
 8716SOL     OW26967   6.047   1.283   1.736
 8716SOL    HW126968   6.022   1.290   1.639
 8716SOL    HW226969   5.964   1.278   1.791
 8717SOL     OW26970   6.670   1.764   0.263
 8717SOL    HW126971   6.596   1.714   0.307
 8717SOL    HW226972   6.699   1.715   0.181
 8718SOL     OW26973   5.801   0.269   1.544
 8718SOL    HW126974   5.737   0.346   1.531
 8718SOL    HW226975   5.839   0.274   1.636
 8719SOL     OW26976   0.297   1.326   0.022
 8719SOL    HW126977   0.221   1.390   0.025
 8719SOL    HW226978   0.262   1.234   0.006
 8720SOL     OW26979   6.077   1.695   0.377
 8720SOL    HW126980   6.098   1.782   0.421
 8720SOL    HW226981   6.138   1.681   0.300
 8721SOL     OW26982   5.825   1.788   1.205
 8721SOL    HW126983   5.874   1.708   1.239
 8721SOL    HW226984   5.789   1.770   1.114
 8722SOL     OW26985   6.531   1.700   0.893
 8722SOL    HW126986   6.624   1.662   0.895
 8722SOL    HW226987   6.478   1.653   0.822
 8723SOL     OW26988   5.981   0.670   0.467
 8723SOL    HW126989   5.994   0.572   0.482
 8723SOL    HW226990   5.885   0.694   0.486
 8724SOL     OW26991   6.233   0.161   0.081
 8724SOL    HW126992   6.330   0.139   0.092
 8724SOL    HW226993   6.214   0.179   6.985
 8725SOL     OW26994   6.372   0.252   1.799
 8725SOL    HW126995   6.460   0.207   1.784
 8725SOL    HW226996   6.312   0.190   1.849
 8726SOL     OW26997   6.446   1.528   1.194
 8726SOL    HW126998   6.420   1.495   1.103
 8726SOL    HW226999   6.511   1.464   1.236
 8727SOL     OW27000   6.391   1.381   0.951
 8727SOL    HW127001   6.484   1.378   0.914
 8727SOL    HW227002   6.325   1.389   0.876
 8728SOL     OW27003   6.502   0.536   0.888
 8728SOL    HW127004   6.481   0.526   0.790
 8728SOL    HW227005   6.523   0.446   0.926
 8729SOL     OW27006   6.159   0.092   0.486
 8729SOL    HW127007   6.073   0.070   0.531
 8729SOL    HW227008   6.142   0.151   0.407
 8730SOL     OW27009   5.906   0.039   0.288
 8730SOL    HW127010   5.961   0.120   0.268
 8730SOL    HW227011   5.896   0.029   0.387
 8731SOL     OW27012   6.561   0.271   0.462
 8731SOL    HW127013   6.525   0.305   0.375
 8731SOL    HW227014   6.660   0.284   0.465
 8732SOL     OW27015   6.621   0.660   1.478
 8732SOL    HW127016   6.524   0.636   1.471
 8732SOL    HW227017   6.668   0.590   1.532
 8733SOL     OW27018   6.770   1.598   0.783
 8733SOL    HW127019   6.762   1.662   0.707
 8733SOL    HW227020   6.867   1.582   0.803
 8734SOL     OW27021   6.080   1.150   0.714
 8734SOL    HW127022   6.002   1.132   0.774
 8734SOL    HW227023   6.050   1.146   0.619
 8735SOL     OW27024   6.761   1.798   0.574
 8735SOL    HW127025   6.733   1.814   0.479
 8735SOL    HW227026   6.712   1.861   0.634
 8736SOL     OW27027   6.697   0.596   0.032
 8736SOL    HW127028   6.597   0.595   0.039
 8736SOL    HW227029   6.737   0.569   0.120
 8737SOL     OW27030   5.702   0.549   1.400
 8737SOL    HW127031   5.795   0.554   1.363
 8737SOL    HW227032   5.688   0.624   1.465
 8738SOL     OW27033   6.170   0.237   1.198
 8738SOL    HW127034   6.219   0.167   1.250
 8738SOL    HW227035   6.073   0.236   1.224
 8739SOL     OW27036   6.459   0.468   0.631
 8739SOL    HW127037   6.421   0.531   0.563
 8739SOL    HW227038   6.494   0.387   0.584
 8740SOL     OW27039   6.567   6.997   0.780
 8740SOL    HW127040   6.511   0.007   0.698
 8740SOL    HW227041   6.598   6.902   0.786
 8741SOL     OW27042   6.041   1.477   0.141
 8741SOL    HW127043   5.994   1.412   0.202
 8741SOL    HW227044   6.010   1.462   0.047
 8742SOL     OW27045   6.071   0.260   0.270
 8742SOL    HW127046   6.136   0.221   0.204
 8742SOL    HW227047   6.039   0.349   0.236
 8743SOL     OW27048   6.594   1.327   1.311
 8743SOL    HW127049   6.506   1.308   1.355
 8743SOL    HW227050   6.666   1.277   1.359
 8744SOL     OW27051   6.758   1.277   1.091
 8744SOL    HW127052   6.694   1.290   1.167
 8744SOL    HW227053   6.715   1.304   1.005
 8745SOL     OW27054   6.453   0.169   1.365
 8745SOL    HW127055   6.473   0.139   1.272
 8745SOL    HW227056   6.537   0.194   1.412
 8746SOL     OW27057   6.559   1.131   1.735
 8746SOL    HW127058   6.466   1.154   1.766
 8746SOL    HW227059   6.555   1.050   1.677
 8747SOL     OW27060   6.309   1.041   0.386
 8747SOL    HW127061   6.299   1.017   0.482
 8747SOL    HW227062   6.384   0.989   0.345
 8748SOL     OW27063   6.023   0.834   1.264
 8748SOL    HW127064   6.093   0.847   1.334
 8748SOL    HW227065   5.990   0.740   1.266
 8749SOL     OW27066   6.875   0.339   1.302
 8749SOL    HW127067   6.931   0.417   1.330
 8749SOL    HW227068   6.786   0.371   1.271
 8750SOL     OW27069   5.654   1.561   1.354
 8750SOL    HW127070   5.614   1.632   1.296
 8750SOL    HW227071   5.753   1.563   1.347
 8751SOL     OW27072   5.992   1.125   0.460
 8751SOL    HW127073   5.963   1.198   0.398
 8751SOL    HW227074   5.967   1.037   0.420
 8752SOL     OW27075   6.129   0.536   0.873
 8752SOL    HW127076   6.141   0.592   0.791
 8752SOL    HW227077   6.199   0.559   0.940
 8753SOL     OW27078   6.851   1.387   0.443
 8753SOL    HW127079   6.892   1.474   0.470
 8753SOL    HW227080   6.751   1.394   0.448
 8754SOL     OW27081   6.847   1.533   1.195
 8754SOL    HW127082   6.933   1.526   1.246
 8754SOL    HW227083   6.827   1.444   1.153
 8755SOL     OW27084   5.923   1.537   1.294
 8755SOL    HW127085   5.914   1.479   1.212
 8755SOL    HW227086   6.020   1.560   1.307
 8756SOL     OW27087   6.035   0.724   1.625
 8756SOL    HW127088   6.089   0.781   1.563
 8756SOL    HW227089   6.077   0.634   1.634
 8757SOL     OW27090   6.605   0.104   1.737
 8757SOL    HW127091   6.639   0.147   1.653
 8757SOL    HW227092   6.596   0.006   1.722
 8758SOL     OW27093   6.016   0.034   1.740
 8758SOL    HW127094   5.936   6.979   1.767
 8758SOL    HW227095   5.996   0.131   1.754
 8759SOL     OW27096   6.170   0.888   1.036
 8759SOL    HW127097   6.214   0.978   1.036
 8759SOL    HW227098   6.115   0.878   1.119
 8760SOL     OW27099   6.907   0.828   1.004
 8760SOL    HW127100   6.813   0.799   0.983
 8760SOL    HW227101   6.955   0.754   1.052
 8761SOL     OW27102   6.802   0.520   0.270
 8761SOL    HW127103   6.816   0.442   0.330
 8761SOL    HW227104   6.756   0.593   0.320
 8762SOL     OW27105   5.896   0.192   1.240
 8762SOL    HW127106   5.851   0.183   1.329
 8762SOL    HW227107   5.905   0.101   1.198
 8763SOL     OW27108   5.644   1.302   1.258
 8763SOL    HW127109   5.672   1.240   1.333
 8763SOL    HW227110   5.637   1.395   1.293
 8764SOL     OW27111   6.312   0.648   1.054
 8764SOL    HW127112   6.382   0.630   0.985
 8764SOL    HW227113   6.270   0.737   1.036
 8765SOL     OW27114   5.891   0.052   0.566
 8765SOL    HW127115   5.872   0.135   0.618
 8765SOL    HW227116   5.843   6.975   0.608
 8766SOL     OW27117   0.197   0.414   0.377
 8766SOL    HW127118   0.290   0.393   0.408
 8766SOL    HW227119   0.163   0.495   0.425
 8767SOL     OW27120   6.629   0.766   0.960
 8767SOL    HW127121   6.611   0.778   1.057
 8767SOL    HW227122   6.592   0.678   0.930
 8768SOL     OW27123   6.547   1.601   1.684
 8768SOL    HW127124   6.531   1.634   1.590
 8768SOL    HW227125   6.589   1.510   1.681
 8769SOL     OW27126   5.938   0.905   1.808
 8769SOL    HW127127   6.009   0.929   1.874
 8769SOL    HW227128   5.973   0.837   1.744
 8770SOL     OW27129   6.884   0.845   0.010
 8770SOL    HW127130   6.910   0.753   6.982
 8770SOL    HW227131   6.899   0.908   6.934
 8771SOL     OW27132   6.644   1.364   0.857
 8771SOL    HW127133   6.660   1.283   0.800
 8771SOL    HW227134   6.692   1.442   0.818
 8772SOL     OW27135   5.911   0.827   0.928
 8772SOL    HW127136   6.008   0.849   0.940
 8772SOL    HW227137   5.895   0.733   0.957
 8773SOL     OW27138   5.892   0.552   0.998
 8773SOL    HW127139   5.849   0.462   0.992
 8773SOL    HW227140   5.978   0.551   0.947
 8774SOL     OW27141   6.717   0.466   1.656
 8774SOL    HW127142   6.662   0.475   1.739
 8774SOL    HW227143   6.813   0.481   1.679
 8775SOL     OW27144   6.682   0.241   1.505
 8775SOL    HW127145   6.688   0.325   1.560
 8775SOL    HW227146   6.753   0.243   1.435
 8776SOL     OW27147   5.683   1.759   0.957
 8776SOL    HW127148   5.645   1.679   0.910
 8776SOL    HW227149   5.774   1.779   0.920
 8777SOL     OW27150   6.071   1.563   0.903
 8777SOL    HW127151   6.142   1.624   0.935
 8777SOL    HW227152   6.109   1.499   0.836
 8778SOL     OW27153   6.548   0.772   1.222
 8778SOL    HW127154   6.597   0.742   1.304
 8778SOL    HW227155   6.459   0.727   1.218
 8779SOL     OW27156   5.634   0.598   1.131
 8779SOL    HW127157   5.715   0.591   1.072
 8779SOL    HW227158   5.661   0.580   1.226
 8780SOL     OW27159   5.765   0.566   1.756
 8780SOL    HW127160   5.857   0.549   1.721
 8780SOL    HW227161   5.719   0.635   1.700
 8781SOL     OW27162   6.409   0.584   0.379
 8781SOL    HW127163   6.421   0.500   0.326
 8781SOL    HW227164   6.325   0.630   0.349
 8782SOL     OW27165   5.815   1.538   1.720
 8782SOL    HW127166   5.795   1.607   1.789
 8782SOL    HW227167   5.820   1.448   1.763
 8783SOL     OW27168   6.345   0.448   1.236
 8783SOL    HW127169   6.282   0.372   1.223
 8783SOL    HW227170   6.326   0.520   1.169
 8784SOL     OW27171   6.489   1.688   1.433
 8784SOL    HW127172   6.474   1.635   1.350
 8784SOL    HW227173   6.486   1.785   1.412
 8785SOL     OW27174   6.006   0.509   0.164
 8785SOL    HW127175   6.083   0.564   0.196
 8785SOL    HW227176   5.920   0.559   0.180
 8786SOL     OW27177   5.715   1.141   1.480
 8786SOL    HW127178   5.719   1.106   1.573
 8786SOL    HW227179   5.738   1.068   1.416
 8787SOL     OW27180   6.874   1.040   1.190
 8787SOL    HW127181   6.885   0.967   1.122
 8787SOL    HW227182   6.835   1.121   1.146
 8788SOL     OW27183   6.869   0.864   0.288
 8788SOL    HW127184   6.796   0.809   0.328
 8788SOL    HW227185   6.871   0.849   0.189
 8789SOL     OW27186   6.878   1.790   1.099
 8789SOL    HW127187   6.961   1.781   1.043
 8789SOL    HW227188   6.856   1.701   1.140
 8790SOL     OW27189   5.675   1.267   0.991
 8790SOL    HW127190   5.657   1.280   1.088
 8790SOL    HW227191   5.614   1.196   0.955
 8791SOL     OW27192   6.298   1.681   1.767
 8791SOL    HW127193   6.255   1.757   1.718
 8791SOL    HW227194   6.391   1.668   1.734
 8792SOL     OW27195   6.497   0.099   0.131
 8792SOL    HW127196   6.555   0.062   0.057
 8792SOL    HW227197   6.476   0.027   0.196
 8793SOL     OW27198   6.972   1.627   0.522
 8793SOL    HW127199   0.054   1.670   0.486
 8793SOL    HW227200   6.901   1.697   0.535
 8794SOL     OW27201   5.727   1.785   1.845
 8794SOL    HW127202   5.675   1.712   1.888
 8794SOL    HW227203   5.779   1.834   1.915
 8795SOL     OW27204   6.894   0.966   0.675
 8795SOL    HW127205   6.968   0.909   0.709
 8795SOL    HW227206   6.933   1.043   0.624
 8796SOL     OW27207   6.343   1.278   1.413
 8796SOL    HW127208   6.321   1.332   1.494
 8796SOL    HW227209   6.269   1.286   1.347
 8797SOL     OW27210   6.270   1.622   0.192
 8797SOL    HW127211   6.339   1.628   0.119
 8797SOL    HW227212   6.199   1.557   0.165
 8798SOL     OW27213   5.837   0.286   0.706
 8798SOL    HW127214   5.753   0.334   0.680
 8798SOL    HW227215   5.848   0.288   0.805
 8799SOL     OW27216   6.750   1.622   0.027
 8799SOL    HW127217   6.832   1.599   0.079
 8799SOL    HW227218   6.763   1.594   6.931
 8800SOL     OW27219   6.419   1.016   1.398
 8800SOL    HW127220   6.472   1.002   1.314
 8800SOL    HW227221   6.394   1.112   1.406
 8801SOL     OW27222   6.504   0.901   0.262
 8801SOL    HW127223   6.551   0.929   0.179
 8801SOL    HW227224   6.563   0.841   0.316
 8802SOL     OW27225   5.941   1.312   1.488
 8802SOL    HW127226   5.936   1.390   1.425
 8802SOL    HW227227   5.861   1.254   1.477
 8803SOL     OW27228   6.672   1.126   0.734
 8803SOL    HW127229   6.595   1.071   0.768
 8803SOL    HW227230   6.747   1.066   0.709
 8804SOL     OW27231   6.583   0.274   0.950
 8804SOL    HW127232   6.570   0.238   0.858
 8804SOL    HW227233   6.564   0.203   1.017
 8805SOL     OW27234   6.205   1.466   0.478
 8805SOL    HW127235   6.246   1.412   0.405
 8805SOL    HW227236   6.147   1.537   0.438
 8806SOL     OW27237   5.876   1.303   0.277
 8806SOL    HW127238   5.812   1.262   0.212
 8806SOL    HW227239   5.826   1.352   0.348
 8807SOL     OW27240   5.711   1.043   1.738
 8807SOL    HW127241   5.628   1.018   1.788
 8807SOL    HW227242   5.788   0.988   1.770
 8808SOL     OW27243   6.260   0.246   1.538
 8808SOL    HW127244   6.332   0.228   1.471
 8808SOL    HW227245   6.301   0.269   1.626
 8809SOL     OW27246   5.686   0.286   0.024
 8809SOL    HW127247   5.620   0.257   6.955
 8809SOL    HW227248   5.675   0.385   0.040
 8810SOL     OW27249   5.648   0.151   0.266
 8810SOL    HW127250   5.658   0.205   0.183
 8810SOL    HW227251   5.730   0.095   0.280
 8811SOL     OW27252   6.220   0.836   1.450
 8811SOL    HW127253   6.283   0.912   1.437
 8811SOL    HW227254   6.271   0.750   1.454
 8812SOL     OW27255   6.321   0.527   1.722
 8812SOL    HW127256   6.360   0.602   1.776
 8812SOL    HW227257   6.343   0.440   1.765
 8813SOL     OW27258   6.957   1.241   1.637
 8813SOL    HW127259   6.968   1.198   1.726
 8813SOL    HW227260   0.039   1.225   1.581
 8814SOL     OW27261   5.939   1.755   1.583
 8814SOL    HW127262   5.854   1.806   1.569
 8814SOL    HW227263   5.917   1.663   1.618
 8815SOL     OW27264   6.829   0.316   0.452
 8815SOL    HW127265   6.896   0.267   0.396
 8815SOL    HW227266   6.875   0.353   0.533
 8816SOL     OW27267   6.163   0.721   0.674
 8816SOL    HW127268   6.210   0.808   0.664
 8816SOL    HW227269   6.098   0.710   0.598
 8817SOL     OW27270   6.388   1.334   0.035
 8817SOL    HW127271   6.372   1.309   0.130
 8817SOL    HW227272   6.427   1.426   0.030
 8818SOL     OW27273   6.257   1.752   0.954
 8818SOL    HW127274   6.231   1.848   0.940
 8818SOL    HW227275   6.356   1.743   0.947
 8819SOL     OW27276   6.468   0.983   0.866
 8819SOL    HW127277   6.524   0.908   0.901
 8819SOL    HW227278   6.418   1.025   0.942
 8820SOL     OW27279   6.638   0.967   0.025
 8820SOL    HW127280   6.670   1.061   0.026
 8820SOL    HW227281   6.716   0.905   0.028
 8821SOL     OW27282   5.791   1.285   1.839
 8821SOL    HW127283   5.765   1.201   1.791
 8821SOL    HW227284   5.731   1.300   1.917
 8822SOL     OW27285   5.702   1.206   0.643
 8822SOL    HW127286   5.759   1.168   0.715
 8822SOL    HW227287   5.702   1.145   0.564
 8823SOL     OW27288   6.263   1.425   1.631
 8823SOL    HW127289   6.186   1.378   1.673
 8823SOL    HW227290   6.273   1.516   1.671
 8824SOL     OW27291   5.997   0.406   0.507
 8824SOL    HW127292   6.028   0.338   0.440
 8824SOL    HW227293   5.951   0.359   0.582
 8825SOL     OW27294   5.943   0.573   1.277
 8825SOL    HW127295   5.993   0.506   1.331
 8825SOL    HW227296   5.945   0.546   1.180
 8826SOL     OW27297   6.410   1.579   0.683
 8826SOL    HW127298   6.404   1.611   0.588
 8826SOL    HW227299   6.335   1.515   0.702
 8827SOL     OW27300   6.935   0.186   1.073
 8827SOL    HW127301   6.965   0.095   1.100
 8827SOL    HW227302   6.909   0.238   1.154
 8828SOL     OW27303   6.522   0.060   1.109
 8828SOL    HW127304   6.481   0.016   1.029
 8828SOL    HW227305   6.567   6.991   1.166
 8829SOL     OW27306   6.367   1.301   0.312
 8829SOL    HW127307   6.340   1.209   0.339
 8829SOL    HW227308   6.451   1.327   0.360
 8830SOL     OW27309   6.193   1.588   1.286
 8830SOL    HW127310   6.185   1.678   1.330
 8830SOL    HW227311   6.286   1.576   1.252
 8831SOL     OW27312   5.688   1.027   0.429
 8831SOL    HW127313   5.761   1.000   0.367
 8831SOL    HW227314   5.613   0.960   0.425
 8832SOL     OW27315   6.449   1.665   0.399
 8832SOL    HW127316   6.380   1.646   0.330
 8832SOL    HW227317   6.430   1.754   0.442
 8833SOL     OW27318   5.786   0.639   2.022
 8833SOL    HW127319   5.697   0.616   2.061
 8833SOL    HW227320   5.781   0.633   1.922
 8834SOL     OW27321   5.805   0.298   2.863
 8834SOL    HW127322   5.847   0.265   2.947
 8834SOL    HW227323   5.729   0.238   2.838
 8835SOL     OW27324   5.600   0.417   2.491
 8835SOL    HW127325   5.521   0.438   2.549
 8835SOL    HW227326   5.571   0.359   2.415
 8836SOL     OW27327   6.154   1.322   3.076
 8836SOL    HW127328   6.069   1.320   3.023
 8836SOL    HW227329   6.175   1.416   3.103
 8837SOL     OW27330   0.049   1.538   2.640
 8837SOL    HW127331   0.096   1.450   2.635
 8837SOL    HW227332   0.032   1.572   2.547
 8838SOL     OW27333   6.692   0.780   2.536
 8838SOL    HW127334   6.768   0.844   2.528
 8838SOL    HW227335   6.667   0.769   2.632
 8839SOL     OW27336   6.303   1.140   2.915
 8839SOL    HW127337   6.244   1.175   2.989
 8839SOL    HW227338   6.346   1.216   2.868
 8840SOL     OW27339   6.465   0.754   3.708
 8840SOL    HW127340   6.460   0.814   3.788
 8840SOL    HW227341   6.480   0.809   3.626
 8841SOL     OW27342   6.286   0.982   2.500
 8841SOL    HW127343   6.354   0.981   2.573
 8841SOL    HW227344   6.212   1.044   2.524
 8842SOL     OW27345   6.269   1.141   3.692
 8842SOL    HW127346   6.318   1.218   3.733
 8842SOL    HW227347   6.191   1.176   3.640
 8843SOL     OW27348   5.925   1.396   2.929
 8843SOL    HW127349   5.847   1.347   2.892
 8843SOL    HW227350   5.968   1.451   2.857
 8844SOL     OW27351   6.039   0.392   3.320
 8844SOL    HW127352   6.122   0.343   3.348
 8844SOL    HW227353   5.959   0.338   3.343
 8845SOL     OW27354   5.806   1.736   2.331
 8845SOL    HW127355   5.831   1.809   2.396
 8845SOL    HW227356   5.882   1.722   2.267
 8846SOL     OW27357   6.711   1.364   3.548
 8846SOL    HW127358   6.801   1.328   3.524
 8846SOL    HW227359   6.648   1.289   3.563
 8847SOL     OW27360   5.831   1.465   2.397
 8847SOL    HW127361   5.806   1.562   2.401
 8847SOL    HW227362   5.785   1.415   2.470
 8848SOL     OW27363   5.886   1.094   2.742
 8848SOL    HW127364   5.892   0.997   2.768
 8848SOL    HW227365   5.826   1.142   2.806
 8849SOL     OW27366   6.143   1.831   3.274
 8849SOL    HW127367   6.067   1.801   3.331
 8849SOL    HW227368   6.188   1.910   3.316
 8850SOL     OW27369   6.148   0.980   2.024
 8850SOL    HW127370   6.189   1.026   1.945
 8850SOL    HW227371   6.196   1.007   2.108
 8851SOL     OW27372   5.707   0.678   2.434
 8851SOL    HW127373   5.681   0.584   2.456
 8851SOL    HW227374   5.702   0.734   2.516
 8852SOL     OW27375   5.627   1.573   1.977
 8852SOL    HW127376   5.604   1.477   1.994
 8852SOL    HW227377   5.605   1.628   2.058
 8853SOL     OW27378   5.693   0.761   3.435
 8853SOL    HW127379   5.779   0.811   3.438
 8853SOL    HW227380   5.619   0.825   3.412
 8854SOL     OW27381   6.205   1.393   2.578
 8854SOL    HW127382   6.164   1.302   2.584
 8854SOL    HW227383   6.192   1.430   2.486
 8855SOL     OW27384   6.793   1.181   3.274
 8855SOL    HW127385   6.835   1.122   3.205
 8855SOL    HW227386   6.856   1.192   3.351
 8856SOL     OW27387   6.431   0.049   2.383
 8856SOL    HW127388   6.476   0.134   2.355
 8856SOL    HW227389   6.332   0.062   2.385
 8857SOL     OW27390   5.776   0.948   3.166
 8857SOL    HW127391   5.869   0.917   3.149
 8857SOL    HW227392   5.715   0.910   3.096
 8858SOL     OW27393   6.826   1.834   3.457
 8858SOL    HW127394   6.785   1.904   3.399
 8858SOL    HW227395   6.811   1.744   3.417
 8859SOL     OW27396   5.922   0.291   3.666
 8859SOL    HW127397   5.977   0.353   3.722
 8859SOL    HW227398   5.830   0.283   3.705
 8860SOL     OW27399   6.158   0.703   2.127
 8860SOL    HW127400   6.159   0.794   2.085
 8860SOL    HW227401   6.091   0.701   2.201
 8861SOL     OW27402   6.857   0.383   2.737
 8861SOL    HW127403   6.758   0.388   2.741
 8861SOL    HW227404   6.891   0.320   2.806
 8862SOL     OW27405   6.356   0.601   3.323
 8862SOL    HW127406   6.336   0.561   3.413
 8862SOL    HW227407   6.343   0.532   3.252
 8863SOL     OW27408   6.966   0.536   3.614
 8863SOL    HW127409   6.928   0.619   3.654
 8863SOL    HW227410   0.065   0.544   3.606
 8864SOL     OW27411   6.540   0.888   3.469
 8864SOL    HW127412   6.588   0.810   3.431
 8864SOL    HW227413   6.491   0.936   3.396
 8865SOL     OW27414   6.625   0.394   3.061
 8865SOL    HW127415   6.533   0.415   3.094
 8865SOL    HW227416   6.620   0.361   2.967
 8866SOL     OW27417   6.620   0.727   2.279
 8866SOL    HW127418   6.641   0.742   2.376
 8866SOL    HW227419   6.534   0.678   2.271
 8867SOL     OW27420   5.681   0.849   2.649
 8867SOL    HW127421   5.770   0.836   2.693
 8867SOL    HW227422   5.629   0.918   2.700
 8868SOL     OW27423   5.692   1.891   3.461
 8868SOL    HW127424   5.704   1.858   3.555
 8868SOL    HW227425   5.601   1.863   3.428
 8869SOL     OW27426   6.451   0.366   2.067
 8869SOL    HW127427   6.511   0.417   2.005
 8869SOL    HW227428   6.394   0.304   2.013
 8870SOL     OW27429   6.996   1.178   2.395
 8870SOL    HW127430   0.024   1.134   2.310
 8870SOL    HW227431   6.931   1.251   2.375
 8871SOL     OW27432   6.094   0.183   2.795
 8871SOL    HW127433   6.134   0.213   2.881
 8871SOL    HW227434   6.105   0.254   2.726
 8872SOL     OW27435   6.576   1.478   2.337
 8872SOL    HW127436   6.551   1.551   2.274
 8872SOL    HW227437   6.537   1.497   2.427
 8873SOL     OW27438   5.944   1.806   2.743
 8873SOL    HW127439   5.986   1.715   2.746
 8873SOL    HW227440   6.011   1.874   2.771
 8874SOL     OW27441   6.804   1.578   3.351
 8874SOL    HW127442   6.768   1.504   3.408
 8874SOL    HW227443   6.782   1.559   3.255
 8875SOL     OW27444   5.884   0.938   2.130
 8875SOL    HW127445   5.972   0.961   2.089
 8875SOL    HW227446   5.858   0.845   2.103
 8876SOL     OW27447   6.047   1.283   3.598
 8876SOL    HW127448   6.023   1.290   3.501
 8876SOL    HW227449   5.964   1.278   3.653
 8877SOL     OW27450   6.718   1.770   2.091
 8877SOL    HW127451   6.628   1.753   2.131
 8877SOL    HW227452   6.739   1.698   2.025
 8878SOL     OW27453   5.801   0.269   3.408
 8878SOL    HW127454   5.735   0.343   3.395
 8878SOL    HW227455   5.840   0.274   3.499
 8879SOL     OW27456   6.044   1.749   2.181
 8879SOL    HW127457   6.090   1.803   2.251
 8879SOL    HW227458   6.112   1.703   2.124
 8880SOL     OW27459   5.818   1.791   3.071
 8880SOL    HW127460   5.870   1.711   3.102
 8880SOL    HW227461   5.783   1.774   2.979
 8881SOL     OW27462   6.537   1.699   2.752
 8881SOL    HW127463   6.629   1.660   2.751
 8881SOL    HW227464   6.481   1.652   2.683
 8882SOL     OW27465   5.977   0.671   2.335
 8882SOL    HW127466   5.989   0.572   2.345
 8882SOL    HW227467   5.883   0.696   2.357
 8883SOL     OW27468   6.215   0.087   1.961
 8883SOL    HW127469   6.252   0.017   2.023
 8883SOL    HW227470   6.137   0.050   1.911
 8884SOL     OW27471   6.373   0.252   3.661
 8884SOL    HW127472   6.461   0.207   3.645
 8884SOL    HW227473   6.312   0.190   3.710
 8885SOL     OW27474   6.445   1.527   3.052
 8885SOL    HW127475   6.419   1.494   2.961
 8885SOL    HW227476   6.509   1.463   3.094
 8886SOL     OW27477   6.389   1.380   2.804
 8886SOL    HW127478   6.482   1.376   2.769
 8886SOL    HW227479   6.324   1.387   2.728
 8887SOL     OW27480   6.503   0.533   2.738
 8887SOL    HW127481   6.485   0.524   2.640
 8887SOL    HW227482   6.522   0.443   2.776
 8888SOL     OW27483   6.160   0.089   2.356
 8888SOL    HW127484   6.079   0.066   2.410
 8888SOL    HW227485   6.133   0.148   2.279
 8889SOL     OW27486   6.982   1.112   1.883
 8889SOL    HW127487   0.026   1.096   1.971
 8889SOL    HW227488   6.886   1.086   1.888
 8890SOL     OW27489   5.902   0.030   2.069
 8890SOL    HW127490   5.951   0.110   2.105
 8890SOL    HW227491   5.814   0.022   2.116
 8891SOL     OW27492   6.572   0.274   2.299
 8891SOL    HW127493   6.528   0.304   2.215
 8891SOL    HW227494   6.670   0.294   2.295
 8892SOL     OW27495   6.621   0.659   3.339
 8892SOL    HW127496   6.524   0.636   3.332
 8892SOL    HW227497   6.668   0.590   3.393
 8893SOL     OW27498   6.776   1.596   2.642
 8893SOL    HW127499   6.774   1.661   2.566
 8893SOL    HW227500   6.871   1.573   2.663
 8894SOL     OW27501   6.073   1.152   2.554
 8894SOL    HW127502   6.013   1.131   2.631
 8894SOL    HW227503   6.021   1.148   2.469
 8895SOL     OW27504   6.777   1.803   2.438
 8895SOL    HW127505   6.756   1.825   2.343
 8895SOL    HW227506   6.726   1.863   2.499
 8896SOL     OW27507   6.601   0.524   1.899
 8896SOL    HW127508   6.554   0.611   1.882
 8896SOL    HW227509   6.668   0.536   1.972
 8897SOL     OW27510   5.701   0.552   3.260
 8897SOL    HW127511   5.794   0.556   3.224
 8897SOL    HW227512   5.687   0.626   3.325
 8898SOL     OW27513   6.170   0.239   3.060
 8898SOL    HW127514   6.220   0.170   3.112
 8898SOL    HW227515   6.073   0.237   3.086
 8899SOL     OW27516   6.466   0.467   2.476
 8899SOL    HW127517   6.414   0.524   2.413
 8899SOL    HW227518   6.506   0.390   2.426
 8900SOL     OW27519   6.571   6.997   2.627
 8900SOL    HW127520   6.513   0.007   2.546
 8900SOL    HW227521   6.599   6.902   2.637
 8901SOL     OW27522   6.082   1.422   2.027
 8901SOL    HW127523   5.998   1.392   2.072
 8901SOL    HW227524   6.094   1.371   1.943
 8902SOL     OW27525   6.075   0.246   2.139
 8902SOL    HW127526   6.134   0.197   2.075
 8902SOL    HW227527   6.050   0.335   2.101
 8903SOL     OW27528   6.593   1.326   3.170
 8903SOL    HW127529   6.505   1.308   3.215
 8903SOL    HW227530   6.665   1.276   3.217
 8904SOL     OW27531   6.760   1.284   2.950
 8904SOL    HW127532   6.694   1.293   3.025
 8904SOL    HW227533   6.716   1.307   2.864
 8905SOL     OW27534   6.453   0.171   3.228
 8905SOL    HW127535   6.474   0.141   3.135
 8905SOL    HW227536   6.538   0.195   3.275
 8906SOL     OW27537   6.558   1.131   3.597
 8906SOL    HW127538   6.465   1.152   3.628
 8906SOL    HW227539   6.555   1.049   3.539
 8907SOL     OW27540   6.326   1.049   2.229
 8907SOL    HW127541   6.317   1.019   2.324
 8907SOL    HW227542   6.400   0.999   2.185
 8908SOL     OW27543   6.024   0.835   3.126
 8908SOL    HW127544   6.094   0.847   3.197
 8908SOL    HW227545   5.990   0.740   3.129
 8909SOL     OW27546   6.874   0.340   3.163
 8909SOL    HW127547   6.930   0.419   3.192
 8909SOL    HW227548   6.785   0.372   3.131
 8910SOL     OW27549   5.653   1.564   3.218
 8910SOL    HW127550   5.614   1.635   3.160
 8910SOL    HW227551   5.753   1.567   3.211
 8911SOL     OW27552   5.903   1.134   2.334
 8911SOL    HW127553   5.898   1.211   2.271
 8911SOL    HW227554   5.897   1.048   2.283
 8912SOL     OW27555   6.127   0.544   2.733
 8912SOL    HW127556   6.141   0.600   2.651
 8912SOL    HW227557   6.199   0.564   2.799
 8913SOL     OW27558   6.844   1.400   2.320
 8913SOL    HW127559   6.893   1.483   2.349
 8913SOL    HW227560   6.746   1.416   2.326
 8914SOL     OW27561   6.847   1.535   3.060
 8914SOL    HW127562   6.934   1.528   3.110
 8914SOL    HW227563   6.827   1.447   3.017
 8915SOL     OW27564   5.923   1.541   3.157
 8915SOL    HW127565   5.915   1.484   3.075
 8915SOL    HW227566   6.019   1.564   3.171
 8916SOL     OW27567   6.034   0.724   3.486
 8916SOL    HW127568   6.090   0.781   3.426
 8916SOL    HW227569   6.074   0.633   3.493
 8917SOL     OW27570   6.605   0.104   3.598
 8917SOL    HW127571   6.639   0.147   3.515
 8917SOL    HW227572   6.595   0.006   3.583
 8918SOL     OW27573   6.016   0.033   3.604
 8918SOL    HW127574   5.936   6.979   3.631
 8918SOL    HW227575   5.996   0.130   3.618
 8919SOL     OW27576   6.175   0.886   2.901
 8919SOL    HW127577   6.216   0.977   2.899
 8919SOL    HW227578   6.119   0.876   2.983
 8920SOL     OW27579   6.905   0.827   2.861
 8920SOL    HW127580   6.810   0.798   2.844
 8920SOL    HW227581   6.953   0.755   2.911
 8921SOL     OW27582   6.757   0.554   2.118
 8921SOL    HW127583   6.794   0.477   2.170
 8921SOL    HW227584   6.711   0.617   2.180
 8922SOL     OW27585   5.897   0.190   3.103
 8922SOL    HW127586   5.852   0.182   3.192
 8922SOL    HW227587   5.906   0.100   3.062
 8923SOL     OW27588   5.643   1.304   3.130
 8923SOL    HW127589   5.671   1.243   3.204
 8923SOL    HW227590   5.639   1.398   3.163
 8924SOL     OW27591   6.317   0.647   2.911
 8924SOL    HW127592   6.384   0.628   2.840
 8924SOL    HW227593   6.275   0.736   2.896
 8925SOL     OW27594   5.911   0.053   2.471
 8925SOL    HW127595   5.883   0.140   2.512
 8925SOL    HW227596   5.849   6.981   2.503
 8926SOL     OW27597   0.174   0.494   2.184
 8926SOL    HW127598   0.133   0.403   2.184
 8926SOL    HW227599   0.160   0.536   2.274
 8927SOL     OW27600   6.625   0.764   2.818
 8927SOL    HW127601   6.608   0.776   2.916
 8927SOL    HW227602   6.590   0.676   2.788
 8928SOL     OW27603   6.547   1.601   3.545
 8928SOL    HW127604   6.531   1.634   3.452
 8928SOL    HW227605   6.589   1.510   3.542
 8929SOL     OW27606   5.939   0.905   3.671
 8929SOL    HW127607   6.010   0.928   3.736
 8929SOL    HW227608   5.973   0.837   3.607
 8930SOL     OW27609   6.943   0.791   1.859
 8930SOL    HW127610   0.015   0.760   1.921
 8930SOL    HW227611   6.984   0.847   1.786
 8931SOL     OW27612   6.643   1.363   2.713
 8931SOL    HW127613   6.658   1.281   2.657
 8931SOL    HW227614   6.693   1.440   2.674
 8932SOL     OW27615   5.916   0.822   2.797
 8932SOL    HW127616   6.014   0.841   2.808
 8932SOL    HW227617   5.897   0.728   2.824
 8933SOL     OW27618   5.893   0.549   2.863
 8933SOL    HW127619   5.851   0.459   2.858
 8933SOL    HW227620   5.978   0.549   2.810
 8934SOL     OW27621   6.717   0.466   3.518
 8934SOL    HW127622   6.662   0.475   3.601
 8934SOL    HW227623   6.813   0.482   3.540
 8935SOL     OW27624   6.683   0.242   3.367
 8935SOL    HW127625   6.689   0.325   3.422
 8935SOL    HW227626   6.754   0.244   3.297
 8936SOL     OW27627   5.602   1.290   2.044
 8936SOL    HW127628   5.510   1.316   2.016
 8936SOL    HW227629   5.601   1.197   2.081
 8937SOL     OW27630   5.687   1.760   2.823
 8937SOL    HW127631   5.642   1.687   2.773
 8937SOL    HW227632   5.778   1.778   2.783
 8938SOL     OW27633   6.071   1.560   2.757
 8938SOL    HW127634   6.144   1.621   2.789
 8938SOL    HW227635   6.107   1.497   2.689
 8939SOL     OW27636   6.549   0.769   3.081
 8939SOL    HW127637   6.597   0.740   3.164
 8939SOL    HW227638   6.460   0.725   3.077
 8940SOL     OW27639   5.632   0.596   2.992
 8940SOL    HW127640   5.713   0.588   2.934
 8940SOL    HW227641   5.658   0.580   3.087
 8941SOL     OW27642   5.764   0.565   3.618
 8941SOL    HW127643   5.856   0.549   3.583
 8941SOL    HW227644   5.719   0.635   3.561
 8942SOL     OW27645   6.389   0.586   2.228
 8942SOL    HW127646   6.404   0.504   2.173
 8942SOL    HW227647   6.306   0.632   2.197
 8943SOL     OW27648   5.816   1.538   3.580
 8943SOL    HW127649   5.796   1.608   3.648
 8943SOL    HW227650   5.821   1.448   3.624
 8944SOL     OW27651   6.347   0.449   3.096
 8944SOL    HW127652   6.283   0.373   3.084
 8944SOL    HW227653   6.328   0.520   3.028
 8945SOL     OW27654   6.488   1.688   3.295
 8945SOL    HW127655   6.475   1.635   3.211
 8945SOL    HW227656   6.486   1.785   3.273
 8946SOL     OW27657   6.017   0.484   2.010
 8946SOL    HW127658   6.090   0.547   2.036
 8946SOL    HW227659   5.928   0.528   2.024
 8947SOL     OW27660   5.717   1.141   3.345
 8947SOL    HW127661   5.721   1.105   3.438
 8947SOL    HW227662   5.740   1.067   3.280
 8948SOL     OW27663   6.878   1.044   3.045
 8948SOL    HW127664   6.887   0.971   2.977
 8948SOL    HW227665   6.843   1.126   3.001
 8949SOL     OW27666   6.876   0.855   2.164
 8949SOL    HW127667   6.811   0.823   2.233
 8949SOL    HW227668   6.871   0.795   2.084
 8950SOL     OW27669   6.880   1.790   2.960
 8950SOL    HW127670   6.961   1.780   2.903
 8950SOL    HW227671   6.857   1.702   3.002
 8951SOL     OW27672   5.699   1.240   2.873
 8951SOL    HW127673   5.672   1.263   2.966
 8951SOL    HW227674   5.627   1.184   2.831
 8952SOL     OW27675   6.298   1.681   3.629
 8952SOL    HW127676   6.256   1.756   3.578
 8952SOL    HW227677   6.392   1.668   3.596
 8953SOL     OW27678   6.986   1.627   2.390
 8953SOL    HW127679   0.072   1.663   2.354
 8953SOL    HW227680   6.920   1.701   2.399
 8954SOL     OW27681   5.730   1.783   3.706
 8954SOL    HW127682   5.677   1.710   3.749
 8954SOL    HW227683   5.783   1.831   3.776
 8955SOL     OW27684   6.894   0.962   2.527
 8955SOL    HW127685   6.968   0.907   2.564
 8955SOL    HW227686   6.932   1.042   2.480
 8956SOL     OW27687   6.344   1.278   3.276
 8956SOL    HW127688   6.321   1.332   3.357
 8956SOL    HW227689   6.269   1.285   3.209
 8957SOL     OW27690   6.250   1.637   2.030
 8957SOL    HW127691   6.267   1.656   1.933
 8957SOL    HW227692   6.197   1.552   2.038
 8958SOL     OW27693   5.837   0.297   2.578
 8958SOL    HW127694   5.753   0.343   2.549
 8958SOL    HW227695   5.842   0.298   2.678
 8959SOL     OW27696   6.743   1.576   1.888
 8959SOL    HW127697   6.748   1.482   1.854
 8959SOL    HW227698   6.683   1.629   1.829
 8960SOL     OW27699   6.420   1.016   3.260
 8960SOL    HW127700   6.473   1.003   3.177
 8960SOL    HW227701   6.394   1.112   3.269
 8961SOL     OW27702   6.530   0.912   2.091
 8961SOL    HW127703   6.605   0.958   2.045
 8961SOL    HW227704   6.566   0.849   2.159
 8962SOL     OW27705   5.943   1.313   3.350
 8962SOL    HW127706   5.936   1.390   3.287
 8962SOL    HW227707   5.863   1.254   3.339
 8963SOL     OW27708   6.671   1.122   2.593
 8963SOL    HW127709   6.594   1.069   2.627
 8963SOL    HW227710   6.746   1.061   2.569
 8964SOL     OW27711   6.583   0.272   2.807
 8964SOL    HW127712   6.574   0.233   2.716
 8964SOL    HW227713   6.562   0.202   2.876
 8965SOL     OW27714   6.190   1.486   2.326
 8965SOL    HW127715   6.251   1.431   2.269
 8965SOL    HW227716   6.103   1.499   2.278
 8966SOL     OW27717   5.853   1.345   2.161
 8966SOL    HW127718   5.762   1.333   2.121
 8966SOL    HW227719   5.846   1.397   2.246
 8967SOL     OW27720   5.712   1.043   3.601
 8967SOL    HW127721   5.629   1.018   3.651
 8967SOL    HW227722   5.788   0.988   3.634
 8968SOL     OW27723   6.260   0.246   3.400
 8968SOL    HW127724   6.332   0.229   3.333
 8968SOL    HW227725   6.301   0.269   3.488
 8969SOL     OW27726   5.657   0.323   1.874
 8969SOL    HW127727   5.580   0.301   1.814
 8969SOL    HW227728   5.683   0.419   1.861
 8970SOL     OW27729   5.618   0.158   2.131
 8970SOL    HW127730   5.634   0.219   2.053
 8970SOL    HW227731   5.612   0.064   2.098
 8971SOL     OW27732   6.220   0.836   3.313
 8971SOL    HW127733   6.284   0.912   3.300
 8971SOL    HW227734   6.271   0.750   3.316
 8972SOL     OW27735   6.322   0.527   3.583
 8972SOL    HW127736   6.360   0.601   3.638
 8972SOL    HW227737   6.344   0.439   3.626
 8973SOL     OW27738   6.956   1.240   3.496
 8973SOL    HW127739   6.967   1.198   3.587
 8973SOL    HW227740   0.038   1.223   3.442
 8974SOL     OW27741   5.938   1.756   3.444
 8974SOL    HW127742   5.853   1.806   3.430
 8974SOL    HW227743   5.917   1.664   3.478
 8975SOL     OW27744   6.843   0.344   2.280
 8975SOL    HW127745   6.911   0.299   2.221
 8975SOL    HW227746   6.886   0.369   2.366
 8976SOL     OW27747   6.167   0.727   2.531
 8976SOL    HW127748   6.214   0.814   2.516
 8976SOL    HW227749   6.100   0.712   2.459
 8977SOL     OW27750   6.400   1.354   1.928
 8977SOL    HW127751   6.392   1.351   2.028
 8977SOL    HW227752   6.428   1.446   1.900
 8978SOL     OW27753   6.259   1.750   2.804
 8978SOL    HW127754   6.232   1.846   2.798
 8978SOL    HW227755   6.359   1.743   2.806
 8979SOL     OW27756   6.462   0.984   2.722
 8979SOL    HW127757   6.516   0.908   2.758
 8979SOL    HW227758   6.412   1.027   2.797
 8980SOL     OW27759   6.730   1.005   1.907
 8980SOL    HW127760   6.667   1.050   1.845
 8980SOL    HW227761   6.757   0.916   1.869
 8981SOL     OW27762   5.792   1.286   3.700
 8981SOL    HW127763   5.766   1.201   3.654
 8981SOL    HW227764   5.731   1.300   3.779
 8982SOL     OW27765   5.729   1.234   2.534
 8982SOL    HW127766   5.762   1.194   2.620
 8982SOL    HW227767   5.779   1.195   2.457
 8983SOL     OW27768   6.263   1.426   3.493
 8983SOL    HW127769   6.186   1.378   3.536
 8983SOL    HW227770   6.273   1.516   3.534
 8984SOL     OW27771   5.992   0.405   2.369
 8984SOL    HW127772   6.022   0.334   2.305
 8984SOL    HW227773   5.947   0.362   2.448
 8985SOL     OW27774   5.944   0.574   3.140
 8985SOL    HW127775   5.993   0.506   3.195
 8985SOL    HW227776   5.945   0.546   3.044
 8986SOL     OW27777   6.405   1.587   2.540
 8986SOL    HW127778   6.366   1.652   2.474
 8986SOL    HW227779   6.338   1.515   2.558
 8987SOL     OW27780   6.934   0.192   2.932
 8987SOL    HW127781   6.964   0.100   2.959
 8987SOL    HW227782   6.908   0.244   3.013
 8988SOL     OW27783   6.520   0.062   2.972
 8988SOL    HW127784   6.467   0.017   2.900
 8988SOL    HW227785   6.567   6.994   3.028
 8989SOL     OW27786   6.377   1.325   2.201
 8989SOL    HW127787   6.359   1.227   2.213
 8989SOL    HW227788   6.459   1.350   2.253
 8990SOL     OW27789   6.194   1.589   3.149
 8990SOL    HW127790   6.187   1.679   3.194
 8990SOL    HW227791   6.287   1.577   3.114
 8991SOL     OW27792   5.620   1.032   2.166
 8991SOL    HW127793   5.718   1.018   2.147
 8991SOL    HW227794   5.578   0.944   2.186
 8992SOL     OW27795   6.471   1.696   2.196
 8992SOL    HW127796   6.390   1.669   2.143
 8992SOL    HW227797   6.446   1.768   2.261
 8993SOL     OW27798   5.786   0.638   3.884
 8993SOL    HW127799   5.697   0.615   3.923
 8993SOL    HW227800   5.781   0.632   3.784
 8994SOL     OW27801   5.806   0.298   4.725
 8994SOL    HW127802   5.848   0.265   4.809
 8994SOL    HW227803   5.730   0.238   4.700
 8995SOL     OW27804   5.601   0.418   4.353
 8995SOL    HW127805   5.521   0.438   4.411
 8995SOL    HW227806   5.572   0.360   4.276
 8996SOL     OW27807   6.154   1.322   4.938
 8996SOL    HW127808   6.070   1.320   4.885
 8996SOL    HW227809   6.175   1.416   4.964
 8997SOL     OW27810   0.049   1.538   4.502
 8997SOL    HW127811   0.096   1.450   4.497
 8997SOL    HW227812   0.032   1.572   4.409
 8998SOL     OW27813   6.692   0.780   4.398
 8998SOL    HW127814   6.768   0.844   4.390
 8998SOL    HW227815   6.667   0.769   4.494
 8999SOL     OW27816   6.303   1.140   4.777
 8999SOL    HW127817   6.245   1.175   4.850
 8999SOL    HW227818   6.346   1.216   4.729
 9000SOL     OW27819   6.465   0.754   5.570
 9000SOL    HW127820   6.459   0.814   5.651
 9000SOL    HW227821   6.480   0.810   5.489
 9001SOL     OW27822   6.286   0.982   4.362
 9001SOL    HW127823   6.354   0.981   4.435
 9001SOL    HW227824   6.212   1.044   4.386
 9002SOL     OW27825   6.269   1.141   5.553
 9002SOL    HW127826   6.318   1.218   5.594
 9002SOL    HW227827   6.190   1.175   5.502
 9003SOL     OW27828   5.925   1.396   4.791
 9003SOL    HW127829   5.847   1.347   4.754
 9003SOL    HW227830   5.968   1.451   4.719
 9004SOL     OW27831   6.040   0.391   5.182
 9004SOL    HW127832   6.122   0.342   5.210
 9004SOL    HW227833   5.959   0.337   5.205
 9005SOL     OW27834   5.806   1.736   4.193
 9005SOL    HW127835   5.830   1.808   4.257
 9005SOL    HW227836   5.882   1.721   4.129
 9006SOL     OW27837   6.712   1.366   5.411
 9006SOL    HW127838   6.802   1.330   5.387
 9006SOL    HW227839   6.648   1.290   5.426
 9007SOL     OW27840   5.829   1.465   4.259
 9007SOL    HW127841   5.805   1.562   4.264
 9007SOL    HW227842   5.783   1.416   4.333
 9008SOL     OW27843   5.885   1.094   4.604
 9008SOL    HW127844   5.891   0.998   4.630
 9008SOL    HW227845   5.825   1.142   4.668
 9009SOL     OW27846   6.144   1.831   5.135
 9009SOL    HW127847   6.068   1.801   5.193
 9009SOL    HW227848   6.189   1.909   5.177
 9010SOL     OW27849   6.148   0.980   3.886
 9010SOL    HW127850   6.190   1.026   3.807
 9010SOL    HW227851   6.197   1.007   3.969
 9011SOL     OW27852   5.707   0.679   4.296
 9011SOL    HW127853   5.681   0.584   4.318
 9011SOL    HW227854   5.702   0.735   4.379
 9012SOL     OW27855   5.626   1.572   3.837
 9012SOL    HW127856   5.603   1.476   3.854
 9012SOL    HW227857   5.605   1.626   3.918
 9013SOL     OW27858   5.692   0.762   5.297
 9013SOL    HW127859   5.778   0.812   5.301
 9013SOL    HW227860   5.618   0.825   5.273
 9014SOL     OW27861   6.204   1.393   4.440
 9014SOL    HW127862   6.164   1.302   4.446
 9014SOL    HW227863   6.192   1.430   4.348
 9015SOL     OW27864   6.793   1.181   5.136
 9015SOL    HW127865   6.836   1.122   5.067
 9015SOL    HW227866   6.856   1.193   5.212
 9016SOL     OW27867   6.431   0.049   4.245
 9016SOL    HW127868   6.476   0.134   4.217
 9016SOL    HW227869   6.332   0.062   4.248
 9017SOL     OW27870   5.776   0.948   5.028
 9017SOL    HW127871   5.870   0.917   5.012
 9017SOL    HW227872   5.715   0.910   4.959
 9018SOL     OW27873   6.826   1.834   5.320
 9018SOL    HW127874   6.785   1.904   5.261
 9018SOL    HW227875   6.811   1.744   5.280
 9019SOL     OW27876   5.923   0.290   5.528
 9019SOL    HW127877   5.977   0.353   5.584
 9019SOL    HW227878   5.831   0.283   5.567
 9020SOL     OW27879   6.158   0.703   3.989
 9020SOL    HW127880   6.159   0.794   3.947
 9020SOL    HW227881   6.091   0.701   4.063
 9021SOL     OW27882   6.857   0.383   4.598
 9021SOL    HW127883   6.758   0.388   4.603
 9021SOL    HW227884   6.891   0.320   4.668
 9022SOL     OW27885   6.357   0.601   5.185
 9022SOL    HW127886   6.336   0.562   5.275
 9022SOL    HW227887   6.344   0.532   5.114
 9023SOL     OW27888   6.967   0.536   5.475
 9023SOL    HW127889   6.930   0.619   5.515
 9023SOL    HW227890   0.066   0.544   5.468
 9024SOL     OW27891   6.540   0.889   5.331
 9024SOL    HW127892   6.588   0.810   5.293
 9024SOL    HW227893   6.491   0.937   5.258
 9025SOL     OW27894   6.625   0.394   4.923
 9025SOL    HW127895   6.533   0.415   4.956
 9025SOL    HW227896   6.620   0.361   4.829
 9026SOL     OW27897   6.620   0.727   4.141
 9026SOL    HW127898   6.640   0.742   4.238
 9026SOL    HW227899   6.533   0.678   4.133
 9027SOL     OW27900   5.681   0.849   4.512
 9027SOL    HW127901   5.770   0.836   4.555
 9027SOL    HW227902   5.629   0.918   4.563
 9028SOL     OW27903   5.694   1.890   5.323
 9028SOL    HW127904   5.705   1.858   5.417
 9028SOL    HW227905   5.604   1.863   5.289
 9029SOL     OW27906   6.451   0.365   3.929
 9029SOL    HW127907   6.511   0.417   3.867
 9029SOL    HW227908   6.394   0.303   3.875
 9030SOL     OW27909   6.996   1.178   4.257
 9030SOL    HW127910   0.024   1.134   4.172
 9030SOL    HW227911   6.930   1.251   4.237
 9031SOL     OW27912   6.094   0.182   4.657
 9031SOL    HW127913   6.134   0.213   4.743
 9031SOL    HW227914   6.105   0.254   4.588
 9032SOL     OW27915   6.576   1.478   4.199
 9032SOL    HW127916   6.551   1.551   4.136
 9032SOL    HW227917   6.536   1.498   4.289
 9033SOL     OW27918   5.944   1.806   4.604
 9033SOL    HW127919   5.985   1.715   4.607
 9033SOL    HW227920   6.010   1.874   4.633
 9034SOL     OW27921   6.805   1.577   5.214
 9034SOL    HW127922   6.768   1.505   5.272
 9034SOL    HW227923   6.781   1.559   5.119
 9035SOL     OW27924   5.885   0.938   3.993
 9035SOL    HW127925   5.972   0.962   3.951
 9035SOL    HW227926   5.859   0.845   3.965
 9036SOL     OW27927   6.047   1.282   5.458
 9036SOL    HW127928   6.022   1.289   5.362
 9036SOL    HW227929   5.964   1.278   5.514
 9037SOL     OW27930   6.717   1.771   3.951
 9037SOL    HW127931   6.628   1.754   3.992
 9037SOL    HW227932   6.737   1.699   3.885
 9038SOL     OW27933   5.800   0.269   5.269
 9038SOL    HW127934   5.735   0.344   5.257
 9038SOL    HW227935   5.840   0.274   5.361
 9039SOL     OW27936   6.045   1.749   4.044
 9039SOL    HW127937   6.091   1.803   4.114
 9039SOL    HW227938   6.114   1.703   3.987
 9040SOL     OW27939   5.821   1.790   4.931
 9040SOL    HW127940   5.872   1.710   4.963
 9040SOL    HW227941   5.785   1.772   4.839
 9041SOL     OW27942   6.537   1.698   4.614
 9041SOL    HW127943   6.629   1.660   4.614
 9041SOL    HW227944   6.481   1.652   4.546
 9042SOL     OW27945   5.977   0.671   4.197
 9042SOL    HW127946   5.989   0.573   4.207
 9042SOL    HW227947   5.883   0.696   4.219
 9043SOL     OW27948   6.216   0.087   3.824
 9043SOL    HW127949   6.252   0.017   3.885
 9043SOL    HW227950   6.137   0.050   3.774
 9044SOL     OW27951   6.372   0.253   5.524
 9044SOL    HW127952   6.460   0.207   5.508
 9044SOL    HW227953   6.311   0.191   5.573
 9045SOL     OW27954   6.445   1.527   4.914
 9045SOL    HW127955   6.419   1.494   4.823
 9045SOL    HW227956   6.509   1.463   4.955
 9046SOL     OW27957   6.389   1.380   4.666
 9046SOL    HW127958   6.482   1.376   4.631
 9046SOL    HW227959   6.324   1.387   4.590
 9047SOL     OW27960   6.503   0.533   4.600
 9047SOL    HW127961   6.485   0.524   4.502
 9047SOL    HW227962   6.522   0.443   4.638
 9048SOL     OW27963   6.160   0.089   4.218
 9048SOL    HW127964   6.079   0.066   4.272
 9048SOL    HW227965   6.134   0.148   4.142
 9049SOL     OW27966   6.983   1.113   3.744
 9049SOL    HW127967   0.027   1.097   3.832
 9049SOL    HW227968   6.887   1.087   3.749
 9050SOL     OW27969   5.903   0.030   3.933
 9050SOL    HW127970   5.951   0.111   3.969
 9050SOL    HW227971   5.815   0.022   3.979
 9051SOL     OW27972   6.572   0.274   4.161
 9051SOL    HW127973   6.528   0.304   4.077
 9051SOL    HW227974   6.670   0.294   4.157
 9052SOL     OW27975   6.621   0.660   5.201
 9052SOL    HW127976   6.524   0.636   5.194
 9052SOL    HW227977   6.668   0.590   5.256
 9053SOL     OW27978   6.776   1.596   4.504
 9053SOL    HW127979   6.774   1.662   4.429
 9053SOL    HW227980   6.871   1.573   4.525
 9054SOL     OW27981   6.073   1.152   4.416
 9054SOL    HW127982   6.012   1.131   4.493
 9054SOL    HW227983   6.021   1.148   4.331
 9055SOL     OW27984   6.778   1.804   4.302
 9055SOL    HW127985   6.758   1.828   4.207
 9055SOL    HW227986   6.727   1.864   4.363
 9056SOL     OW27987   6.601   0.524   3.761
 9056SOL    HW127988   6.554   0.611   3.744
 9056SOL    HW227989   6.668   0.536   3.834
 9057SOL     OW27990   5.701   0.553   5.122
 9057SOL    HW127991   5.794   0.557   5.086
 9057SOL    HW227992   5.687   0.627   5.187
 9058SOL     OW27993   6.170   0.239   4.922
 9058SOL    HW127994   6.219   0.169   4.973
 9058SOL    HW227995   6.073   0.237   4.948
 9059SOL     OW27996   6.465   0.467   4.338
 9059SOL    HW127997   6.414   0.524   4.275
 9059SOL    HW227998   6.506   0.390   4.288
 9060SOL     OW27999   6.571   6.997   4.490
 9060SOL    HW128000   6.513   0.008   4.408
 9060SOL    HW228001   6.599   6.902   4.499
 9061SOL     OW28002   6.082   1.423   3.890
 9061SOL    HW128003   5.997   1.393   3.935
 9061SOL    HW228004   6.095   1.371   3.806
 9062SOL     OW28005   6.076   0.247   4.002
 9062SOL    HW128006   6.134   0.197   3.938
 9062SOL    HW228007   6.051   0.335   3.963
 9063SOL     OW28008   6.593   1.326   5.032
 9063SOL    HW128009   6.505   1.308   5.077
 9063SOL    HW228010   6.665   1.276   5.079
 9064SOL     OW28011   6.760   1.284   4.812
 9064SOL    HW128012   6.694   1.292   4.887
 9064SOL    HW228013   6.716   1.307   4.726
 9065SOL     OW28014   6.453   0.171   5.090
 9065SOL    HW128015   6.474   0.141   4.997
 9065SOL    HW228016   6.538   0.195   5.137
 9066SOL     OW28017   6.559   1.131   5.459
 9066SOL    HW128018   6.467   1.153   5.491
 9066SOL    HW228019   6.556   1.049   5.401
 9067SOL     OW28020   6.327   1.049   4.091
 9067SOL    HW128021   6.317   1.019   4.186
 9067SOL    HW228022   6.401   0.998   4.047
 9068SOL     OW28023   6.024   0.835   4.989
 9068SOL    HW128024   6.094   0.847   5.059
 9068SOL    HW228025   5.990   0.740   4.991
 9069SOL     OW28026   6.874   0.340   5.025
 9069SOL    HW128027   6.929   0.418   5.054
 9069SOL    HW228028   6.785   0.372   4.993
 9070SOL     OW28029   5.655   1.564   5.081
 9070SOL    HW128030   5.614   1.634   5.023
 9070SOL    HW228031   5.754   1.567   5.073
 9071SOL     OW28032   5.903   1.134   4.196
 9071SOL    HW128033   5.898   1.211   4.133
 9071SOL    HW228034   5.898   1.049   4.145
 9072SOL     OW28035   6.127   0.544   4.595
 9072SOL    HW128036   6.141   0.600   4.513
 9072SOL    HW228037   6.199   0.564   4.661
 9073SOL     OW28038   6.844   1.400   4.183
 9073SOL    HW128039   6.892   1.483   4.211
 9073SOL    HW228040   6.745   1.416   4.188
 9074SOL     OW28041   6.847   1.535   4.921
 9074SOL    HW128042   6.933   1.528   4.971
 9074SOL    HW228043   6.826   1.446   4.878
 9075SOL     OW28044   5.924   1.541   5.019
 9075SOL    HW128045   5.915   1.483   4.937
 9075SOL    HW228046   6.020   1.564   5.033
 9076SOL     OW28047   6.035   0.724   5.349
 9076SOL    HW128048   6.090   0.781   5.288
 9076SOL    HW228049   6.077   0.633   5.357
 9077SOL     OW28050   6.604   0.105   5.461
 9077SOL    HW128051   6.639   0.148   5.377
 9077SOL    HW228052   6.594   0.007   5.446
 9078SOL     OW28053   6.016   0.033   5.464
 9078SOL    HW128054   5.936   6.979   5.491
 9078SOL    HW228055   5.996   0.130   5.479
 9079SOL     OW28056   6.175   0.886   4.763
 9079SOL    HW128057   6.216   0.977   4.761
 9079SOL    HW228058   6.119   0.876   4.845
 9080SOL     OW28059   6.905   0.826   4.723
 9080SOL    HW128060   6.811   0.798   4.706
 9080SOL    HW228061   6.953   0.754   4.773
 9081SOL     OW28062   6.757   0.554   3.980
 9081SOL    HW128063   6.794   0.477   4.032
 9081SOL    HW228064   6.711   0.617   4.042
 9082SOL     OW28065   5.897   0.190   4.965
 9082SOL    HW128066   5.851   0.182   5.053
 9082SOL    HW228067   5.906   0.100   4.924
 9083SOL     OW28068   5.643   1.304   4.992
 9083SOL    HW128069   5.670   1.243   5.066
 9083SOL    HW228070   5.639   1.398   5.025
 9084SOL     OW28071   6.317   0.647   4.774
 9084SOL    HW128072   6.384   0.629   4.702
 9084SOL    HW228073   6.274   0.736   4.758
 9085SOL     OW28074   5.911   0.053   4.333
 9085SOL    HW128075   5.883   0.140   4.374
 9085SOL    HW228076   5.849   6.981   4.365
 9086SOL     OW28077   0.174   0.494   4.046
 9086SOL    HW128078   0.133   0.402   4.046
 9086SOL    HW228079   0.160   0.536   4.136
 9087SOL     OW28080   6.625   0.764   4.680
 9087SOL    HW128081   6.608   0.776   4.778
 9087SOL    HW228082   6.590   0.676   4.650
 9088SOL     OW28083   6.548   1.603   5.408
 9088SOL    HW128084   6.532   1.635   5.314
 9088SOL    HW228085   6.589   1.512   5.405
 9089SOL     OW28086   5.938   0.905   5.533
 9089SOL    HW128087   6.009   0.929   5.598
 9089SOL    HW228088   5.973   0.836   5.469
 9090SOL     OW28089   6.943   0.792   3.720
 9090SOL    HW128090   0.015   0.760   3.782
 9090SOL    HW228091   6.984   0.847   3.647
 9091SOL     OW28092   6.643   1.362   4.575
 9091SOL    HW128093   6.658   1.281   4.519
 9091SOL    HW228094   6.693   1.440   4.536
 9092SOL     OW28095   5.916   0.822   4.659
 9092SOL    HW128096   6.014   0.841   4.670
 9092SOL    HW228097   5.897   0.728   4.686
 9093SOL     OW28098   5.893   0.550   4.725
 9093SOL    HW128099   5.851   0.459   4.720
 9093SOL    HW228100   5.978   0.550   4.672
 9094SOL     OW28101   6.718   0.467   5.380
 9094SOL    HW128102   6.663   0.476   5.463
 9094SOL    HW228103   6.814   0.482   5.402
 9095SOL     OW28104   6.683   0.242   5.229
 9095SOL    HW128105   6.689   0.325   5.285
 9095SOL    HW228106   6.754   0.244   5.159
 9096SOL     OW28107   5.602   1.290   3.906
 9096SOL    HW128108   5.510   1.316   3.878
 9096SOL    HW228109   5.601   1.197   3.942
 9097SOL     OW28110   5.687   1.759   4.684
 9097SOL    HW128111   5.642   1.686   4.634
 9097SOL    HW228112   5.777   1.778   4.644
 9098SOL     OW28113   6.071   1.560   4.619
 9098SOL    HW128114   6.144   1.621   4.650
 9098SOL    HW228115   6.107   1.497   4.550
 9099SOL     OW28116   6.549   0.769   4.943
 9099SOL    HW128117   6.598   0.740   5.026
 9099SOL    HW228118   6.460   0.725   4.940
 9100SOL     OW28119   5.632   0.597   4.854
 9100SOL    HW128120   5.713   0.589   4.796
 9100SOL    HW228121   5.658   0.581   4.949
 9101SOL     OW28122   5.764   0.565   5.478
 9101SOL    HW128123   5.857   0.550   5.443
 9101SOL    HW228124   5.718   0.634   5.423
 9102SOL     OW28125   6.389   0.586   4.090
 9102SOL    HW128126   6.404   0.504   4.035
 9102SOL    HW228127   6.306   0.632   4.059
 9103SOL     OW28128   5.816   1.538   5.443
 9103SOL    HW128129   5.796   1.609   5.510
 9103SOL    HW228130   5.821   1.449   5.488
 9104SOL     OW28131   6.347   0.449   4.958
 9104SOL    HW128132   6.283   0.373   4.946
 9104SOL    HW228133   6.328   0.519   4.890
 9105SOL     OW28134   6.490   1.687   5.156
 9105SOL    HW128135   6.476   1.634   5.073
 9105SOL    HW228136   6.487   1.785   5.134
 9106SOL     OW28137   6.017   0.484   3.872
 9106SOL    HW128138   6.090   0.547   3.898
 9106SOL    HW228139   5.928   0.528   3.886
 9107SOL     OW28140   5.716   1.141   5.207
 9107SOL    HW128141   5.720   1.106   5.300
 9107SOL    HW228142   5.739   1.068   5.143
 9108SOL     OW28143   6.879   1.044   4.907
 9108SOL    HW128144   6.888   0.971   4.839
 9108SOL    HW228145   6.844   1.126   4.863
 9109SOL     OW28146   6.877   0.855   4.026
 9109SOL    HW128147   6.812   0.824   4.096
 9109SOL    HW228148   6.871   0.794   3.947
 9110SOL     OW28149   6.880   1.790   4.822
 9110SOL    HW128150   6.962   1.780   4.765
 9110SOL    HW228151   6.857   1.702   4.864
 9111SOL     OW28152   5.698   1.240   4.735
 9111SOL    HW128153   5.671   1.263   4.829
 9111SOL    HW228154   5.627   1.183   4.693
 9112SOL     OW28155   6.297   1.681   5.491
 9112SOL    HW128156   6.254   1.757   5.444
 9112SOL    HW228157   6.391   1.669   5.458
 9113SOL     OW28158   6.986   1.627   4.252
 9113SOL    HW128159   0.072   1.663   4.216
 9113SOL    HW228160   6.920   1.701   4.262
 9114SOL     OW28161   5.730   1.782   5.569
 9114SOL    HW128162   5.676   1.711   5.613
 9114SOL    HW228163   5.781   1.832   5.639
 9115SOL     OW28164   6.894   0.962   4.389
 9115SOL    HW128165   6.968   0.906   4.426
 9115SOL    HW228166   6.932   1.041   4.342
 9116SOL     OW28167   6.344   1.278   5.138
 9116SOL    HW128168   6.321   1.332   5.219
 9116SOL    HW228169   6.270   1.285   5.071
 9117SOL     OW28170   6.250   1.637   3.892
 9117SOL    HW128171   6.267   1.656   3.795
 9117SOL    HW228172   6.197   1.553   3.900
 9118SOL     OW28173   5.837   0.297   4.440
 9118SOL    HW128174   5.753   0.344   4.411
 9118SOL    HW228175   5.843   0.299   4.540
 9119SOL     OW28176   6.743   1.575   3.749
 9119SOL    HW128177   6.749   1.481   3.716
 9119SOL    HW228178   6.682   1.628   3.690
 9120SOL     OW28179   6.420   1.016   5.122
 9120SOL    HW128180   6.473   1.003   5.039
 9120SOL    HW228181   6.394   1.112   5.131
 9121SOL     OW28182   6.530   0.912   3.953
 9121SOL    HW128183   6.606   0.959   3.907
 9121SOL    HW228184   6.566   0.849   4.021
 9122SOL     OW28185   5.943   1.312   5.211
 9122SOL    HW128186   5.936   1.390   5.149
 9122SOL    HW228187   5.862   1.254   5.201
 9123SOL     OW28188   6.671   1.122   4.455
 9123SOL    HW128189   6.594   1.069   4.489
 9123SOL    HW228190   6.746   1.061   4.430
 9124SOL     OW28191   6.583   0.272   4.669
 9124SOL    HW128192   6.574   0.233   4.578
 9124SOL    HW228193   6.562   0.202   4.738
 9125SOL     OW28194   6.190   1.486   4.187
 9125SOL    HW128195   6.251   1.430   4.131
 9125SOL    HW228196   6.103   1.499   4.139
 9126SOL     OW28197   5.853   1.346   4.023
 9126SOL    HW128198   5.762   1.333   3.983
 9126SOL    HW228199   5.845   1.397   4.108
 9127SOL     OW28200   5.711   1.044   5.464
 9127SOL    HW128201   5.628   1.019   5.513
 9127SOL    HW228202   5.788   0.988   5.496
 9128SOL     OW28203   6.260   0.246   5.263
 9128SOL    HW128204   6.332   0.229   5.196
 9128SOL    HW228205   6.301   0.269   5.351
 9129SOL     OW28206   5.657   0.323   3.737
 9129SOL    HW128207   5.580   0.300   3.677
 9129SOL    HW228208   5.683   0.419   3.723
 9130SOL     OW28209   5.617   0.159   3.994
 9130SOL    HW128210   5.633   0.220   3.917
 9130SOL    HW228211   5.612   0.064   3.961
 9131SOL     OW28212   6.220   0.836   5.175
 9131SOL    HW128213   6.284   0.912   5.162
 9131SOL    HW228214   6.272   0.750   5.178
 9132SOL     OW28215   6.322   0.527   5.445
 9132SOL    HW128216   6.360   0.602   5.500
 9132SOL    HW228217   6.343   0.440   5.488
 9133SOL     OW28218   6.956   1.241   5.358
 9133SOL    HW128219   6.966   1.198   5.448
 9133SOL    HW228220   0.038   1.224   5.303
 9134SOL     OW28221   5.939   1.755   5.307
 9134SOL    HW128222   5.855   1.806   5.293
 9134SOL    HW228223   5.918   1.664   5.341
 9135SOL     OW28224   6.843   0.344   4.142
 9135SOL    HW128225   6.910   0.299   4.083
 9135SOL    HW228226   6.886   0.369   4.228
 9136SOL     OW28227   6.167   0.727   4.393
 9136SOL    HW128228   6.214   0.814   4.378
 9136SOL    HW228229   6.100   0.712   4.321
 9137SOL     OW28230   6.399   1.355   3.791
 9137SOL    HW128231   6.391   1.351   3.890
 9137SOL    HW228232   6.429   1.446   3.763
 9138SOL     OW28233   6.259   1.750   4.665
 9138SOL    HW128234   6.231   1.846   4.659
 9138SOL    HW228235   6.358   1.744   4.668
 9139SOL     OW28236   6.462   0.984   4.584
 9139SOL    HW128237   6.516   0.908   4.620
 9139SOL    HW228238   6.412   1.027   4.659
 9140SOL     OW28239   6.731   1.006   3.769
 9140SOL    HW128240   6.667   1.050   3.707
 9140SOL    HW228241   6.759   0.917   3.731
 9141SOL     OW28242   5.793   1.286   5.564
 9141SOL    HW128243   5.767   1.202   5.517
 9141SOL    HW228244   5.732   1.301   5.641
 9142SOL     OW28245   5.727   1.233   4.396
 9142SOL    HW128246   5.761   1.193   4.481
 9142SOL    HW228247   5.778   1.195   4.319
 9143SOL     OW28248   6.263   1.426   5.355
 9143SOL    HW128249   6.186   1.378   5.397
 9143SOL    HW228250   6.272   1.516   5.396
 9144SOL     OW28251   5.992   0.405   4.231
 9144SOL    HW128252   6.022   0.334   4.167
 9144SOL    HW228253   5.947   0.362   4.310
 9145SOL     OW28254   5.944   0.574   5.002
 9145SOL    HW128255   5.993   0.506   5.057
 9145SOL    HW228256   5.944   0.546   4.906
 9146SOL     OW28257   6.405   1.587   4.402
 9146SOL    HW128258   6.366   1.653   4.337
 9146SOL    HW228259   6.338   1.516   4.420
 9147SOL     OW28260   6.934   0.192   4.793
 9147SOL    HW128261   6.964   0.100   4.820
 9147SOL    HW228262   6.908   0.244   4.875
 9148SOL     OW28263   6.520   0.062   4.835
 9148SOL    HW128264   6.467   0.017   4.763
 9148SOL    HW228265   6.567   6.994   4.890
 9149SOL     OW28266   6.378   1.324   4.063
 9149SOL    HW128267   6.359   1.227   4.075
 9149SOL    HW228268   6.459   1.350   4.116
 9150SOL     OW28269   6.195   1.589   5.011
 9150SOL    HW128270   6.188   1.679   5.055
 9150SOL    HW228271   6.287   1.577   4.975
 9151SOL     OW28272   5.621   1.032   4.028
 9151SOL    HW128273   5.718   1.018   4.009
 9151SOL    HW228274   5.578   0.944   4.048
 9152SOL     OW28275   6.472   1.696   4.058
 9152SOL    HW128276   6.391   1.670   4.005
 9152SOL    HW228277   6.447   1.768   4.123
 9153SOL     OW28278   5.786   0.635   5.744
 9153SOL    HW128279   5.697   0.613   5.784
 9153SOL    HW228280   5.781   0.630   5.645
 9154SOL     OW28281   5.781   0.338   6.602
 9154SOL    HW128282   5.834   0.302   6.678
 9154SOL    HW228283   5.710   0.272   6.577
 9155SOL     OW28284   5.593   0.416   6.212
 9155SOL    HW128285   5.516   0.441   6.271
 9155SOL    HW228286   5.561   0.354   6.140
 9156SOL     OW28287   6.136   1.252   6.775
 9156SOL    HW128288   6.061   1.284   6.717
 9156SOL    HW228289   6.140   1.307   6.859
 9157SOL     OW28290   0.045   1.543   6.351
 9157SOL    HW128291   0.092   1.455   6.349
 9157SOL    HW228292   0.028   1.574   6.258
 9158SOL     OW28293   6.698   0.773   6.265
 9158SOL    HW128294   6.775   0.837   6.260
 9158SOL    HW228295   6.671   0.760   6.360
 9159SOL     OW28296   6.313   1.116   6.622
 9159SOL    HW128297   6.247   1.146   6.691
 9159SOL    HW228298   6.352   1.195   6.576
 9160SOL     OW28299   6.282   0.979   6.223
 9160SOL    HW128300   6.352   0.975   6.295
 9160SOL    HW228301   6.208   1.040   6.252
 9161SOL     OW28302   5.925   1.374   6.637
 9161SOL    HW128303   5.837   1.340   6.606
 9161SOL    HW228304   5.960   1.441   6.571
 9162SOL     OW28305   5.807   1.735   6.059
 9162SOL    HW128306   5.830   1.808   6.124
 9162SOL    HW228307   5.883   1.723   5.994
 9163SOL     OW28308   5.824   1.464   6.124
 9163SOL    HW128309   5.804   1.562   6.128
 9163SOL    HW228310   5.780   1.418   6.202
 9164SOL     OW28311   5.872   1.090   6.472
 9164SOL    HW128312   5.886   0.995   6.499
 9164SOL    HW228313   5.817   1.137   6.540
 9165SOL     OW28314   6.177   1.864   6.948
 9165SOL    HW128315   6.102   1.817   6.993
 9165SOL    HW228316   6.226   1.922   0.014
 9166SOL     OW28317   6.148   0.980   5.748
 9166SOL    HW128318   6.190   1.026   5.669
 9166SOL    HW228319   6.196   1.007   5.831
 9167SOL     OW28320   5.704   0.676   6.156
 9167SOL    HW128321   5.677   0.582   6.176
 9167SOL    HW228322   5.705   0.730   6.240
 9168SOL     OW28323   5.624   1.574   5.702
 9168SOL    HW128324   5.602   1.478   5.720
 9168SOL    HW228325   5.604   1.628   5.784
 9169SOL     OW28326   6.201   1.388   6.303
 9169SOL    HW128327   6.158   1.297   6.311
 9169SOL    HW228328   6.187   1.423   6.211
 9170SOL     OW28329   6.804   1.190   0.014
 9170SOL    HW128330   6.860   1.151   6.940
 9170SOL    HW228331   6.864   1.229   0.084
 9171SOL     OW28332   6.423   0.046   6.080
 9171SOL    HW128333   6.469   0.133   6.062
 9171SOL    HW228334   6.325   0.061   6.093
 9172SOL     OW28335   5.742   0.980   6.857
 9172SOL    HW128336   5.827   0.939   6.827
 9172SOL    HW228337   5.665   0.930   6.818
 9173SOL     OW28338   6.158   0.704   5.850
 9173SOL    HW128339   6.159   0.795   5.809
 9173SOL    HW228340   6.090   0.701   5.923
 9174SOL     OW28341   6.847   0.342   6.459
 9174SOL    HW128342   6.748   0.338   6.466
 9174SOL    HW228343   6.887   0.327   6.550
 9175SOL     OW28344   6.422   0.582   0.045
 9175SOL    HW128345   6.366   0.646   0.097
 9175SOL    HW228346   6.366   0.537   6.976
 9176SOL     OW28347   6.529   0.340   6.784
 9176SOL    HW128348   6.442   0.382   6.809
 9176SOL    HW228349   6.514   0.245   6.757
 9177SOL     OW28350   6.621   0.728   6.008
 9177SOL    HW128351   6.643   0.740   6.104
 9177SOL    HW228352   6.534   0.678   5.999
 9178SOL     OW28353   5.692   0.838   6.376
 9178SOL    HW128354   5.779   0.826   6.424
 9178SOL    HW228355   5.638   0.907   6.423
 9179SOL     OW28356   5.697   1.847   0.091
 9179SOL    HW128357   5.652   1.758   0.099
 9179SOL    HW228358   5.731   1.858   6.998
 9180SOL     OW28359   6.450   0.368   5.790
 9180SOL    HW128360   6.510   0.420   5.729
 9180SOL    HW228361   6.393   0.307   5.736
 9181SOL     OW28362   6.994   1.171   6.116
 9181SOL    HW128363   0.021   1.128   6.030
 9181SOL    HW228364   6.929   1.244   6.097
 9182SOL     OW28365   6.052   0.197   6.493
 9182SOL    HW128366   6.109   0.273   6.523
 9182SOL    HW228367   6.042   0.201   6.393
 9183SOL     OW28368   6.576   1.475   6.055
 9183SOL    HW128369   6.552   1.549   5.992
 9183SOL    HW228370   6.535   1.493   6.144
 9184SOL     OW28371   5.937   1.810   6.474
 9184SOL    HW128372   5.976   1.717   6.476
 9184SOL    HW228373   6.007   1.875   6.502
 9185SOL     OW28374   5.885   0.940   5.855
 9185SOL    HW128375   5.973   0.964   5.813
 9185SOL    HW228376   5.860   0.847   5.828
 9186SOL     OW28377   6.719   1.769   5.819
 9186SOL    HW128378   6.627   1.753   5.856
 9186SOL    HW228379   6.741   1.698   5.752
 9187SOL     OW28380   6.044   1.748   5.906
 9187SOL    HW128381   6.089   1.803   5.977
 9187SOL    HW228382   6.113   1.703   5.850
 9188SOL     OW28383   5.825   1.817   6.846
 9188SOL    HW128384   5.894   1.776   6.906
 9188SOL    HW228385   5.779   1.745   6.795
 9189SOL     OW28386   6.529   1.693   6.465
 9189SOL    HW128387   6.622   1.657   6.470
 9189SOL    HW228388   6.478   1.645   6.394
 9190SOL     OW28389   5.973   0.672   6.053
 9190SOL    HW128390   5.984   0.573   6.064
 9190SOL    HW228391   5.879   0.697   6.077
 9191SOL     OW28392   6.214   0.088   5.685
 9191SOL    HW128393   6.251   0.017   5.745
 9191SOL    HW228394   6.137   0.050   5.634
 9192SOL     OW28395   6.408   1.466   6.772
 9192SOL    HW128396   6.402   1.434   6.677
 9192SOL    HW228397   6.396   1.389   6.834
 9193SOL     OW28398   6.392   1.356   6.517
 9193SOL    HW128399   6.485   1.361   6.483
 9193SOL    HW228400   6.328   1.370   6.442
 9194SOL     OW28401   6.509   0.521   6.472
 9194SOL    HW128402   6.489   0.517   6.375
 9194SOL    HW228403   6.534   0.429   6.505
 9195SOL     OW28404   6.152   0.090   6.083
 9195SOL    HW128405   6.070   0.071   6.138
 9195SOL    HW228406   6.126   0.147   6.005
 9196SOL     OW28407   6.981   1.112   5.604
 9196SOL    HW128408   0.025   1.096   5.692
 9196SOL    HW228409   6.885   1.086   5.610
 9197SOL     OW28410   5.901   0.028   5.791
 9197SOL    HW128411   5.948   0.109   5.826
 9197SOL    HW228412   5.812   0.019   5.837
 9198SOL     OW28413   6.568   0.277   6.024
 9198SOL    HW128414   6.525   0.308   5.939
 9198SOL    HW228415   6.666   0.296   6.020
 9199SOL     OW28416   6.772   1.590   6.357
 9199SOL    HW128417   6.767   1.656   6.281
 9199SOL    HW228418   6.868   1.570   6.377
 9200SOL     OW28419   6.067   1.148   6.286
 9200SOL    HW128420   6.005   1.128   6.362
 9200SOL    HW228421   6.016   1.144   6.200
 9201SOL     OW28422   6.776   1.796   6.148
 9201SOL    HW128423   6.754   1.817   6.053
 9201SOL    HW228424   6.721   1.854   6.208
 9202SOL     OW28425   6.602   0.525   5.623
 9202SOL    HW128426   6.555   0.612   5.606
 9202SOL    HW228427   6.669   0.537   5.697
 9203SOL     OW28428   6.164   0.202   6.816
 9203SOL    HW128429   6.178   0.107   6.786
 9203SOL    HW228430   6.066   0.222   6.819
 9204SOL     OW28431   6.464   0.471   6.206
 9204SOL    HW128432   6.412   0.528   6.143
 9204SOL    HW228433   6.503   0.394   6.156
 9205SOL     OW28434   6.581   0.000   6.312
 9205SOL    HW128435   6.517   0.004   6.235
 9205SOL    HW228436   6.602   6.905   6.333
 9206SOL     OW28437   6.080   1.422   5.752
 9206SOL    HW128438   5.995   1.393   5.798
 9206SOL    HW228439   6.092   1.369   5.669
 9207SOL     OW28440   6.071   0.245   5.864
 9207SOL    HW128441   6.131   0.196   5.800
 9207SOL    HW228442   6.048   0.334   5.826
 9208SOL     OW28443   0.249   1.586   0.176
 9208SOL    HW128444   0.287   1.670   0.138
 9208SOL    HW228445   0.324   1.522   0.197
 9209SOL     OW28446   6.746   1.261   6.684
 9209SOL    HW128447   6.671   1.236   6.746
 9209SOL    HW228448   6.708   1.292   6.596
 9210SOL     OW28449   6.325   1.048   5.954
 9210SOL    HW128450   6.314   1.018   6.048
 9210SOL    HW228451   6.400   0.997   5.911
 9211SOL     OW28452   6.011   0.863   6.861
 9211SOL    HW128453   6.054   0.902   6.942
 9211SOL    HW228454   5.982   0.769   6.880
 9212SOL     OW28455   6.778   0.415   6.848
 9212SOL    HW128456   6.767   0.495   6.907
 9212SOL    HW228457   6.688   0.387   6.813
 9213SOL     OW28458   5.691   1.543   6.893
 9213SOL    HW128459   5.657   1.568   6.983
 9213SOL    HW228460   5.790   1.525   6.898
 9214SOL     OW28461   5.904   1.135   6.060
 9214SOL    HW128462   5.898   1.213   5.998
 9214SOL    HW228463   5.899   1.050   6.007
 9215SOL     OW28464   6.137   0.521   6.440
 9215SOL    HW128465   6.145   0.580   6.360
 9215SOL    HW228466   6.208   0.545   6.506
 9216SOL     OW28467   6.843   1.395   6.042
 9216SOL    HW128468   6.892   1.479   6.068
 9216SOL    HW228469   6.745   1.411   6.047
 9217SOL     OW28470   6.837   1.522   6.776
 9217SOL    HW128471   6.932   1.514   6.807
 9217SOL    HW228472   6.805   1.433   6.742
 9218SOL     OW28473   5.955   1.479   6.882
 9218SOL    HW128474   5.933   1.432   6.796
 9218SOL    HW228475   6.036   1.536   6.869
 9219SOL     OW28476   6.181   0.869   6.640
 9219SOL    HW128477   6.232   0.955   6.631
 9219SOL    HW228478   6.123   0.873   6.722
 9220SOL     OW28479   6.915   0.805   6.589
 9220SOL    HW128480   6.819   0.781   6.576
 9220SOL    HW228481   6.959   0.740   6.651
 9221SOL     OW28482   6.756   0.555   5.844
 9221SOL    HW128483   6.792   0.477   5.896
 9221SOL    HW228484   6.710   0.618   5.907
 9222SOL     OW28485   5.890   0.222   6.828
 9222SOL    HW128486   5.832   0.228   6.909
 9222SOL    HW228487   5.883   0.130   6.790
 9223SOL     OW28488   5.596   1.288   6.876
 9223SOL    HW128489   5.653   1.237   6.939
 9223SOL    HW228490   5.625   1.384   6.874
 9224SOL     OW28491   6.302   0.616   6.636
 9224SOL    HW128492   6.384   0.603   6.580
 9224SOL    HW228493   6.273   0.711   6.632
 9225SOL     OW28494   5.911   0.061   6.213
 9225SOL    HW128495   5.871   0.147   6.245
 9225SOL    HW228496   5.852   6.985   6.239
 9226SOL     OW28497   0.172   0.493   5.909
 9226SOL    HW128498   0.132   0.402   5.907
 9226SOL    HW228499   0.159   0.534   5.999
 9227SOL     OW28500   6.628   0.756   6.546
 9227SOL    HW128501   6.607   0.776   6.642
 9227SOL    HW228502   6.592   0.666   6.522
 9228SOL     OW28503   6.944   0.791   5.582
 9228SOL    HW128504   0.015   0.760   5.644
 9228SOL    HW228505   6.985   0.848   5.510
 9229SOL     OW28506   6.652   1.354   6.441
 9229SOL    HW128507   6.667   1.274   6.384
 9229SOL    HW228508   6.698   1.433   6.400
 9230SOL     OW28509   5.924   0.820   6.534
 9230SOL    HW128510   6.020   0.844   6.545
 9230SOL    HW228511   5.909   0.727   6.567
 9231SOL     OW28512   5.946   0.552   6.627
 9231SOL    HW128513   5.881   0.478   6.610
 9231SOL    HW228514   6.020   0.548   6.560
 9232SOL     OW28515   6.857   0.228   0.034
 9232SOL    HW128516   6.821   0.240   0.127
 9232SOL    HW228517   6.816   0.296   6.973
 9233SOL     OW28518   5.601   1.291   5.767
 9233SOL    HW128519   5.509   1.317   5.739
 9233SOL    HW228520   5.600   1.198   5.804
 9234SOL     OW28521   5.669   1.784   6.540
 9234SOL    HW128522   5.633   1.704   6.491
 9234SOL    HW228523   5.766   1.794   6.519
 9235SOL     OW28524   6.065   1.561   6.479
 9235SOL    HW128525   6.138   1.622   6.512
 9235SOL    HW228526   6.103   1.497   6.412
 9236SOL     OW28527   6.562   0.795   6.808
 9236SOL    HW128528   6.596   0.864   6.872
 9236SOL    HW228529   6.524   0.718   6.859
 9237SOL     OW28530   5.649   0.577   6.678
 9237SOL    HW128531   5.678   0.489   6.639
 9237SOL    HW228532   5.719   0.611   6.740
 9238SOL     OW28533   6.390   0.588   5.953
 9238SOL    HW128534   6.404   0.505   5.898
 9238SOL    HW228535   6.307   0.634   5.922
 9239SOL     OW28536   6.285   0.450   6.850
 9239SOL    HW128537   6.233   0.366   6.833
 9239SOL    HW228538   6.278   0.510   6.770
 9240SOL     OW28539   6.475   1.602   0.005
 9240SOL    HW128540   6.457   1.580   6.909
 9240SOL    HW228541   6.573   1.619   0.017
 9241SOL     OW28542   6.017   0.483   5.735
 9241SOL    HW128543   6.091   0.547   5.760
 9241SOL    HW228544   5.929   0.528   5.748
 9242SOL     OW28545   5.739   1.121   0.085
 9242SOL    HW128546   5.793   1.068   0.151
 9242SOL    HW228547   5.739   1.075   6.997
 9243SOL     OW28548   6.873   1.014   6.783
 9243SOL    HW128549   6.902   0.952   6.710
 9243SOL    HW228550   6.851   1.103   6.744
 9244SOL     OW28551   6.876   0.852   5.889
 9244SOL    HW128552   6.811   0.824   5.960
 9244SOL    HW228553   6.869   0.790   5.811
 9245SOL     OW28554   6.887   1.782   6.679
 9245SOL    HW128555   6.964   1.772   6.616
 9245SOL    HW228556   6.863   1.692   6.716
 9246SOL     OW28557   5.681   1.235   6.610
 9246SOL    HW128558   5.646   1.247   6.703
 9246SOL    HW228559   5.620   1.175   6.559
 9247SOL     OW28560   6.985   1.624   6.100
 9247SOL    HW128561   0.071   1.662   6.067
 9247SOL    HW228562   6.918   1.697   6.110
 9248SOL     OW28563   6.901   0.956   6.257
 9248SOL    HW128564   6.976   0.902   6.294
 9248SOL    HW228565   6.937   1.034   6.206
 9249SOL     OW28566   6.248   1.636   5.754
 9249SOL    HW128567   6.265   1.655   5.657
 9249SOL    HW228568   6.194   1.552   5.762
 9250SOL     OW28569   5.827   0.305   6.308
 9250SOL    HW128570   5.744   0.348   6.274
 9250SOL    HW228571   5.834   0.320   6.407
 9251SOL     OW28572   6.744   1.577   5.613
 9251SOL    HW128573   6.748   1.483   5.579
 9251SOL    HW228574   6.684   1.630   5.553
 9252SOL     OW28575   6.339   1.042   6.987
 9252SOL    HW128576   6.430   1.001   6.979
 9252SOL    HW228577   6.347   1.142   6.984
 9253SOL     OW28578   6.530   0.911   5.817
 9253SOL    HW128579   6.606   0.957   5.772
 9253SOL    HW228580   6.566   0.848   5.887
 9254SOL     OW28581   6.678   1.114   6.320
 9254SOL    HW128582   6.599   1.060   6.350
 9254SOL    HW228583   6.752   1.053   6.294
 9255SOL     OW28584   6.588   0.243   6.484
 9255SOL    HW128585   6.566   0.185   6.406
 9255SOL    HW228586   6.571   0.193   6.569
 9256SOL     OW28587   6.186   1.481   6.050
 9256SOL    HW128588   6.247   1.426   5.993
 9256SOL    HW228589   6.100   1.496   6.001
 9257SOL     OW28590   5.851   1.347   5.887
 9257SOL    HW128591   5.761   1.334   5.846
 9257SOL    HW228592   5.842   1.398   5.973
 9258SOL     OW28593   5.657   0.323   5.598
 9258SOL    HW128594   5.581   0.300   5.538
 9258SOL    HW228595   5.683   0.418   5.585
 9259SOL     OW28596   5.617   0.158   5.856
 9259SOL    HW128597   5.634   0.219   5.779
 9259SOL    HW228598   5.611   0.063   5.823
 9260SOL     OW28599   5.969   1.739   0.073
 9260SOL    HW128600   5.897   1.778   0.130
 9260SOL    HW228601   5.995   1.649   0.110
 9261SOL     OW28602   6.841   0.342   6.003
 9261SOL    HW128603   6.909   0.298   5.945
 9261SOL    HW228604   6.883   0.366   6.091
 9262SOL     OW28605   6.166   0.720   6.248
 9262SOL    HW128606   6.212   0.808   6.237
 9262SOL    HW228607   6.097   0.709   6.176
 9263SOL     OW28608   6.400   1.354   5.651
 9263SOL    HW128609   6.391   1.351   5.751
 9263SOL    HW228610   6.426   1.447   5.623
 9264SOL     OW28611   6.258   1.748   6.528
 9264SOL    HW128612   6.232   1.845   6.522
 9264SOL    HW228613   6.357   1.740   6.520
 9265SOL     OW28614   6.467   0.971   6.438
 9265SOL    HW128615   6.519   0.894   6.475
 9265SOL    HW228616   6.413   1.014   6.511
 9266SOL     OW28617   6.730   1.004   5.632
 9266SOL    HW128618   6.666   1.049   5.570
 9266SOL    HW228619   6.757   0.916   5.594
 9267SOL     OW28620   5.727   1.225   6.262
 9267SOL    HW128621   5.761   1.180   6.345
 9267SOL    HW228622   5.778   1.192   6.183
 9268SOL     OW28623   5.984   0.406   6.092
 9268SOL    HW128624   6.015   0.333   6.031
 9268SOL    HW228625   5.939   0.366   6.172
 9269SOL     OW28626   5.920   0.604   6.897
 9269SOL    HW128627   5.965   0.539   6.959
 9269SOL    HW228628   5.939   0.579   6.802
 9270SOL     OW28629   6.401   1.576   6.255
 9270SOL    HW128630   6.361   1.639   6.188
 9270SOL    HW228631   6.335   1.506   6.279
 9271SOL     OW28632   6.949   0.264   6.702
 9271SOL    HW128633   6.958   0.174   6.746
 9271SOL    HW228634   6.893   0.324   6.759
 9272SOL     OW28635   6.518   0.078   6.701
 9272SOL    HW128636   6.450   0.019   6.658
 9272SOL    HW228637   6.555   0.033   6.782
 9273SOL     OW28638   6.375   1.323   5.923
 9273SOL    HW128639   6.357   1.226   5.936
 9273SOL    HW228640   6.457   1.349   5.974
 9274SOL     OW28641   6.181   1.609   6.841
 9274SOL    HW128642   6.198   1.705   6.863
 9274SOL    HW228643   6.264   1.570   6.801
 9275SOL     OW28644   5.620   1.033   5.889
 9275SOL    HW128645   5.718   1.021   5.871
 9275SOL    HW228646   5.578   0.945   5.908
 9276SOL     OW28647   6.470   1.695   5.916
 9276SOL    HW128648   6.389   1.668   5.864
 9276SOL    HW228649   6.445   1.768   5.980
 9277SOL     OW28650   5.794   2.536   0.136
 9277SOL    HW128651   5.705   2.497   0.157
 9277SOL    HW228652   5.813   2.524   0.038
 9278SOL     OW28653   5.802   2.150   0.995
 9278SOL    HW128654   5.840   2.115   1.080
 9278SOL    HW228655   5.713   2.107   0.977
 9279SOL     OW28656   5.571   2.278   0.647
 9279SOL    HW128657   5.493   2.313   0.699
 9279SOL    HW228658   5.545   2.195   0.598
 9280SOL     OW28659   6.152   3.181   1.214
 9280SOL    HW128660   6.068   3.179   1.159
 9280SOL    HW228661   6.173   3.276   1.239
 9281SOL     OW28662   0.043   3.414   0.775
 9281SOL    HW128663   0.078   3.320   0.776
 9281SOL    HW228664   0.023   3.440   0.680
 9282SOL     OW28665   6.703   2.633   0.670
 9282SOL    HW128666   6.774   2.703   0.666
 9282SOL    HW228667   6.672   2.622   0.764
 9283SOL     OW28668   6.303   2.994   1.059
 9283SOL    HW128669   6.243   3.030   1.130
 9283SOL    HW228670   6.347   3.070   1.011
 9284SOL     OW28671   6.470   2.609   1.842
 9284SOL    HW128672   6.461   2.669   1.921
 9284SOL    HW228673   6.485   2.664   1.760
 9285SOL     OW28674   6.283   2.836   0.655
 9285SOL    HW128675   6.356   2.835   0.724
 9285SOL    HW228676   6.212   2.900   0.683
 9286SOL     OW28677   6.273   3.006   1.827
 9286SOL    HW128678   6.321   3.083   1.868
 9286SOL    HW228679   6.193   3.040   1.777
 9287SOL     OW28680   5.923   3.254   1.064
 9287SOL    HW128681   5.842   3.211   1.023
 9287SOL    HW228682   5.967   3.312   0.997
 9288SOL     OW28683   6.055   2.231   1.452
 9288SOL    HW128684   6.134   2.173   1.466
 9288SOL    HW228685   5.972   2.182   1.480
 9289SOL     OW28686   5.820   3.566   0.494
 9289SOL    HW128687   5.835   3.648   0.550
 9289SOL    HW228688   5.904   3.545   0.443
 9290SOL     OW28689   6.713   3.225   1.689
 9290SOL    HW128690   6.803   3.189   1.665
 9290SOL    HW228691   6.649   3.148   1.702
 9291SOL     OW28692   5.750   3.290   0.480
 9291SOL    HW128693   5.769   3.382   0.515
 9291SOL    HW228694   5.735   3.228   0.557
 9292SOL     OW28695   5.858   2.954   0.859
 9292SOL    HW128696   5.869   2.861   0.894
 9292SOL    HW228697   5.802   3.007   0.922
 9293SOL     OW28698   6.144   3.693   1.409
 9293SOL    HW128699   6.067   3.664   1.467
 9293SOL    HW228700   6.189   3.771   1.451
 9294SOL     OW28701   6.152   2.821   0.175
 9294SOL    HW128702   6.205   2.848   0.095
 9294SOL    HW228703   6.192   2.861   0.257
 9295SOL     OW28704   5.694   2.527   0.553
 9295SOL    HW128705   5.659   2.437   0.578
 9295SOL    HW228706   5.692   2.587   0.633
 9296SOL     OW28707   5.589   3.460   0.139
 9296SOL    HW128708   5.517   3.391   0.133
 9296SOL    HW228709   5.593   3.496   0.233
 9297SOL     OW28710   5.709   2.613   1.573
 9297SOL    HW128711   5.798   2.657   1.573
 9297SOL    HW228712   5.638   2.680   1.554
 9298SOL     OW28713   6.206   3.251   0.733
 9298SOL    HW128714   6.166   3.160   0.743
 9298SOL    HW228715   6.200   3.280   0.638
 9299SOL     OW28716   6.794   3.044   1.417
 9299SOL    HW128717   6.834   2.983   1.349
 9299SOL    HW228718   6.858   3.056   1.493
 9300SOL     OW28719   6.394   1.903   0.522
 9300SOL    HW128720   6.437   1.987   0.490
 9300SOL    HW228721   6.294   1.914   0.521
 9301SOL     OW28722   5.778   2.806   1.299
 9301SOL    HW128723   5.871   2.770   1.285
 9301SOL    HW228724   5.718   2.773   1.227
 9302SOL     OW28725   6.824   3.695   1.599
 9302SOL    HW128726   6.785   3.765   1.539
 9302SOL    HW228727   6.810   3.605   1.557
 9303SOL     OW28728   5.937   2.124   1.881
 9303SOL    HW128729   5.976   2.206   1.923
 9303SOL    HW228730   5.839   2.136   1.870
 9304SOL     OW28731   6.168   2.563   0.282
 9304SOL    HW128732   6.171   2.654   0.241
 9304SOL    HW228733   6.099   2.562   0.355
 9305SOL     OW28734   6.858   2.160   0.858
 9305SOL    HW128735   6.759   2.156   0.875
 9305SOL    HW228736   6.906   2.125   0.939
 9306SOL     OW28737   6.368   2.454   1.443
 9306SOL    HW128738   6.341   2.424   1.535
 9306SOL    HW228739   6.349   2.381   1.378
 9307SOL     OW28740   6.951   2.369   1.743
 9307SOL    HW128741   6.918   2.455   1.782
 9307SOL    HW228742   0.050   2.375   1.729
 9308SOL     OW28743   6.540   2.747   1.604
 9308SOL    HW128744   6.590   2.671   1.563
 9308SOL    HW228745   6.489   2.796   1.533
 9309SOL     OW28746   6.619   2.261   1.198
 9309SOL    HW128747   6.524   2.269   1.228
 9309SOL    HW228748   6.623   2.216   1.109
 9310SOL     OW28749   6.648   2.579   0.408
 9310SOL    HW128750   6.671   2.598   0.504
 9310SOL    HW228751   6.558   2.536   0.403
 9311SOL     OW28752   5.680   2.699   0.772
 9311SOL    HW128753   5.770   2.685   0.813
 9311SOL    HW228754   5.630   2.767   0.825
 9312SOL     OW28755   5.693   3.752   1.599
 9312SOL    HW128756   5.703   3.719   1.693
 9312SOL    HW228757   5.604   3.726   1.563
 9313SOL     OW28758   6.469   2.252   0.198
 9313SOL    HW128759   6.490   2.320   0.127
 9313SOL    HW228760   6.511   2.165   0.173
 9314SOL     OW28761   0.005   3.033   0.532
 9314SOL    HW128762   0.041   2.988   0.450
 9314SOL    HW228763   6.942   3.106   0.505
 9315SOL     OW28764   6.140   2.006   0.930
 9315SOL    HW128765   6.149   2.032   1.026
 9315SOL    HW228766   6.141   2.088   0.872
 9316SOL     OW28767   6.576   3.291   0.471
 9316SOL    HW128768   6.537   3.377   0.437
 9316SOL    HW228769   6.552   3.278   0.567
 9317SOL     OW28770   5.943   3.671   0.885
 9317SOL    HW128771   5.985   3.580   0.888
 9317SOL    HW228772   6.010   3.739   0.911
 9318SOL     OW28773   6.805   3.438   1.490
 9318SOL    HW128774   6.770   3.365   1.549
 9318SOL    HW228775   6.779   3.420   1.396
 9319SOL     OW28776   5.880   2.797   0.239
 9319SOL    HW128777   5.976   2.808   0.213
 9319SOL    HW228778   5.849   2.706   0.213
 9320SOL     OW28779   6.047   3.146   1.737
 9320SOL    HW128780   6.022   3.152   1.640
 9320SOL    HW228781   5.964   3.141   1.792
 9321SOL     OW28782   6.671   3.626   0.263
 9321SOL    HW128783   6.597   3.577   0.308
 9321SOL    HW228784   6.699   3.577   0.181
 9322SOL     OW28785   5.800   2.123   1.494
 9322SOL    HW128786   5.727   2.191   1.490
 9322SOL    HW228787   5.765   2.039   1.536
 9323SOL     OW28788   0.293   3.181   0.026
 9323SOL    HW128789   0.227   3.254   0.009
 9323SOL    HW228790   0.249   3.093   0.013
 9324SOL     OW28791   6.076   3.556   0.378
 9324SOL    HW128792   6.097   3.644   0.421
 9324SOL    HW228793   6.137   3.542   0.300
 9325SOL     OW28794   5.823   3.650   1.206
 9325SOL    HW128795   5.874   3.570   1.238
 9325SOL    HW228796   5.789   3.633   1.113
 9326SOL     OW28797   6.531   3.561   0.893
 9326SOL    HW128798   6.624   3.524   0.895
 9326SOL    HW228799   6.478   3.515   0.822
 9327SOL     OW28800   5.970   2.539   0.473
 9327SOL    HW128801   5.987   2.442   0.488
 9327SOL    HW228802   5.873   2.559   0.489
 9328SOL     OW28803   6.359   2.120   1.757
 9328SOL    HW128804   6.447   2.073   1.753
 9328SOL    HW228805   6.301   2.075   1.824
 9329SOL     OW28806   6.446   3.389   1.194
 9329SOL    HW128807   6.419   3.355   1.104
 9329SOL    HW228808   6.510   3.325   1.236
 9330SOL     OW28809   6.390   3.238   0.952
 9330SOL    HW128810   6.483   3.237   0.915
 9330SOL    HW228811   6.324   3.247   0.878
 9331SOL     OW28812   6.508   2.377   0.891
 9331SOL    HW128813   6.484   2.370   0.794
 9331SOL    HW228814   6.536   2.287   0.925
 9332SOL     OW28815   6.123   1.938   0.491
 9332SOL    HW128816   6.044   1.936   0.552
 9332SOL    HW228817   6.109   2.008   0.420
 9333SOL     OW28818   6.518   2.130   0.448
 9333SOL    HW128819   6.491   2.172   0.361
 9333SOL    HW228820   6.617   2.141   0.461
 9334SOL     OW28821   6.629   2.528   1.462
 9334SOL    HW128822   6.534   2.495   1.458
 9334SOL    HW228823   6.690   2.452   1.480
 9335SOL     OW28824   6.770   3.459   0.783
 9335SOL    HW128825   6.762   3.523   0.707
 9335SOL    HW228826   6.867   3.443   0.802
 9336SOL     OW28827   6.081   3.011   0.714
 9336SOL    HW128828   6.003   2.991   0.774
 9336SOL    HW228829   6.051   3.008   0.619
 9337SOL     OW28830   6.761   3.659   0.574
 9337SOL    HW128831   6.733   3.675   0.479
 9337SOL    HW228832   6.712   3.722   0.634
 9338SOL     OW28833   6.739   2.466   0.021
 9338SOL    HW128834   6.641   2.470   0.005
 9338SOL    HW228835   6.756   2.434   0.114
 9339SOL     OW28836   5.697   2.406   1.395
 9339SOL    HW128837   5.791   2.404   1.360
 9339SOL    HW228838   5.688   2.480   1.461
 9340SOL     OW28839   6.157   2.062   1.197
 9340SOL    HW128840   6.193   1.987   1.251
 9340SOL    HW228841   6.059   2.072   1.215
 9341SOL     OW28842   6.451   2.329   0.632
 9341SOL    HW128843   6.416   2.398   0.568
 9341SOL    HW228844   6.470   2.244   0.582
 9342SOL     OW28845   6.565   1.927   0.740
 9342SOL    HW128846   6.498   1.921   0.666
 9342SOL    HW228847   6.554   1.848   0.801
 9343SOL     OW28848   6.040   3.339   0.141
 9343SOL    HW128849   5.994   3.274   0.202
 9343SOL    HW228850   6.009   3.323   0.047
 9344SOL     OW28851   6.085   2.122   0.292
 9344SOL    HW128852   6.150   2.076   0.232
 9344SOL    HW228853   6.049   2.203   0.245
 9345SOL     OW28854   6.593   3.189   1.313
 9345SOL    HW128855   6.505   3.169   1.356
 9345SOL    HW228856   6.666   3.139   1.361
 9346SOL     OW28857   6.757   3.140   1.092
 9346SOL    HW128858   6.692   3.153   1.168
 9346SOL    HW228859   6.714   3.167   1.006
 9347SOL     OW28860   6.503   1.957   1.358
 9347SOL    HW128861   6.529   1.934   1.265
 9347SOL    HW228862   6.581   1.999   1.405
 9348SOL     OW28863   6.558   2.990   1.734
 9348SOL    HW128864   6.465   3.010   1.764
 9348SOL    HW228865   6.556   2.909   1.675
 9349SOL     OW28866   6.308   2.905   0.386
 9349SOL    HW128867   6.299   2.879   0.482
 9349SOL    HW228868   6.382   2.852   0.344
 9350SOL     OW28869   6.021   2.681   1.263
 9350SOL    HW128870   6.093   2.695   1.331
 9350SOL    HW228871   5.988   2.586   1.268
 9351SOL     OW28872   6.875   2.225   1.303
 9351SOL    HW128873   6.936   2.302   1.322
 9351SOL    HW228874   6.789   2.259   1.264
 9352SOL     OW28875   5.654   3.421   1.351
 9352SOL    HW128876   5.614   3.493   1.294
 9352SOL    HW228877   5.754   3.424   1.344
 9353SOL     OW28878   5.993   2.987   0.460
 9353SOL    HW128879   5.963   3.060   0.398
 9353SOL    HW228880   5.968   2.898   0.421
 9354SOL     OW28881   6.118   2.401   0.874
 9354SOL    HW128882   6.131   2.458   0.793
 9354SOL    HW228883   6.192   2.418   0.939
 9355SOL     OW28884   6.851   3.246   0.446
 9355SOL    HW128885   6.893   3.333   0.473
 9355SOL    HW228886   6.752   3.254   0.451
 9356SOL     OW28887   6.847   3.395   1.195
 9356SOL    HW128888   6.933   3.388   1.246
 9356SOL    HW228889   6.826   3.306   1.153
 9357SOL     OW28890   5.924   3.398   1.293
 9357SOL    HW128891   5.915   3.341   1.212
 9357SOL    HW228892   6.020   3.422   1.306
 9358SOL     OW28893   6.021   2.612   1.617
 9358SOL    HW128894   6.087   2.654   1.555
 9358SOL    HW228895   6.054   2.522   1.644
 9359SOL     OW28896   6.597   1.986   1.752
 9359SOL    HW128897   6.653   2.068   1.743
 9359SOL    HW228898   6.651   1.906   1.727
 9360SOL     OW28899   6.079   1.913   1.767
 9360SOL    HW128900   6.029   1.853   1.705
 9360SOL    HW228901   6.022   1.992   1.790
 9361SOL     OW28902   6.178   2.736   1.040
 9361SOL    HW128903   6.218   2.828   1.040
 9361SOL    HW228904   6.119   2.725   1.120
 9362SOL     OW28905   6.899   2.692   1.006
 9362SOL    HW128906   6.807   2.660   0.984
 9362SOL    HW228907   6.951   2.619   1.049
 9363SOL     OW28908   6.763   2.367   0.274
 9363SOL    HW128909   6.775   2.296   0.343
 9363SOL    HW228910   6.729   2.451   0.318
 9364SOL     OW28911   5.885   2.051   1.238
 9364SOL    HW128912   5.852   2.083   1.327
 9364SOL    HW228913   5.865   1.953   1.228
 9365SOL     OW28914   5.644   3.161   1.259
 9365SOL    HW128915   5.672   3.101   1.333
 9365SOL    HW228916   5.638   3.255   1.292
 9366SOL     OW28917   6.311   2.489   1.055
 9366SOL    HW128918   6.384   2.468   0.989
 9366SOL    HW228919   6.275   2.580   1.037
 9367SOL     OW28920   5.896   1.924   0.644
 9367SOL    HW128921   5.861   2.017   0.661
 9367SOL    HW228922   5.911   1.878   0.731
 9368SOL     OW28923   0.176   2.336   0.362
 9368SOL    HW128924   0.264   2.302   0.396
 9368SOL    HW228925   0.140   2.404   0.426
 9369SOL     OW28926   6.625   2.617   0.955
 9369SOL    HW128927   6.603   2.634   1.052
 9369SOL    HW228928   6.593   2.526   0.929
 9370SOL     OW28929   6.547   3.461   1.685
 9370SOL    HW128930   6.531   3.494   1.592
 9370SOL    HW228931   6.588   3.370   1.682
 9371SOL     OW28932   5.941   2.783   1.815
 9371SOL    HW128933   6.017   2.802   1.878
 9371SOL    HW228934   5.971   2.720   1.744
 9372SOL     OW28935   6.877   2.705   0.017
 9372SOL    HW128936   6.845   2.613   6.994
 9372SOL    HW228937   6.899   2.755   6.933
 9373SOL     OW28938   6.643   3.225   0.857
 9373SOL    HW128939   6.659   3.144   0.801
 9373SOL    HW228940   6.691   3.304   0.818
 9374SOL     OW28941   5.911   2.683   0.930
 9374SOL    HW128942   6.010   2.700   0.935
 9374SOL    HW228943   5.892   2.590   0.962
 9375SOL     OW28944   5.885   2.405   1.005
 9375SOL    HW128945   5.845   2.314   0.999
 9375SOL    HW228946   5.970   2.407   0.952
 9376SOL     OW28947   6.720   2.230   1.697
 9376SOL    HW128948   6.659   2.275   1.762
 9376SOL    HW228949   6.811   2.270   1.703
 9377SOL     OW28950   6.729   2.065   1.473
 9377SOL    HW128951   6.718   2.123   1.554
 9377SOL    HW228952   6.786   2.112   1.406
 9378SOL     OW28953   5.684   3.622   0.956
 9378SOL    HW128954   5.644   3.544   0.906
 9378SOL    HW228955   5.774   3.642   0.919
 9379SOL     OW28956   6.071   3.424   0.903
 9379SOL    HW128957   6.142   3.486   0.935
 9379SOL    HW228958   6.109   3.361   0.836
 9380SOL     OW28959   6.537   2.639   1.214
 9380SOL    HW128960   6.589   2.615   1.295
 9380SOL    HW228961   6.451   2.588   1.213
 9381SOL     OW28962   5.631   2.459   1.130
 9381SOL    HW128963   5.712   2.451   1.072
 9381SOL    HW228964   5.656   2.442   1.225
 9382SOL     OW28965   5.780   2.408   1.744
 9382SOL    HW128966   5.847   2.358   1.689
 9382SOL    HW228967   5.744   2.485   1.691
 9383SOL     OW28968   6.405   2.455   0.378
 9383SOL    HW128969   6.419   2.375   0.319
 9383SOL    HW228970   6.320   2.500   0.353
 9384SOL     OW28971   5.816   3.401   1.717
 9384SOL    HW128972   5.796   3.473   1.784
 9384SOL    HW228973   5.821   3.313   1.763
 9385SOL     OW28974   6.338   2.280   1.233
 9385SOL    HW128975   6.274   2.204   1.222
 9385SOL    HW228976   6.317   2.351   1.166
 9386SOL     OW28977   6.488   3.549   1.435
 9386SOL    HW128978   6.473   3.496   1.351
 9386SOL    HW228979   6.486   3.647   1.413
 9387SOL     OW28980   6.015   2.362   0.167
 9387SOL    HW128981   6.086   2.423   0.202
 9387SOL    HW228982   5.926   2.408   0.173
 9388SOL     OW28983   5.716   3.000   1.477
 9388SOL    HW128984   5.721   2.966   1.571
 9388SOL    HW228985   5.741   2.926   1.414
 9389SOL     OW28986   6.873   2.904   1.190
 9389SOL    HW128987   6.881   2.831   1.123
 9389SOL    HW228988   6.834   2.985   1.147
 9390SOL     OW28989   6.881   2.723   0.293
 9390SOL    HW128990   6.806   2.672   0.336
 9390SOL    HW228991   6.878   2.708   0.194
 9391SOL     OW28992   6.878   3.652   1.099
 9391SOL    HW128993   6.961   3.643   1.043
 9391SOL    HW228994   6.856   3.563   1.140
 9392SOL     OW28995   5.680   3.120   0.994
 9392SOL    HW128996   5.661   3.134   1.091
 9392SOL    HW228997   5.617   3.051   0.957
 9393SOL     OW28998   6.297   3.545   1.766
 9393SOL    HW128999   6.253   3.621   1.717
 9393SOL    HW229000   6.390   3.533   1.732
 9394SOL     OW29001   6.568   1.996   0.152
 9394SOL    HW129002   6.647   2.044   0.114
 9394SOL    HW229003   6.597   1.911   0.196
 9395SOL     OW29004   6.972   3.488   0.522
 9395SOL    HW129005   0.055   3.531   0.486
 9395SOL    HW229006   6.901   3.557   0.535
 9396SOL     OW29007   5.728   3.643   1.845
 9396SOL    HW129008   5.675   3.571   1.889
 9396SOL    HW229009   5.781   3.692   1.915
 9397SOL     OW29010   6.893   2.829   0.675
 9397SOL    HW129011   6.967   2.775   0.713
 9397SOL    HW229012   6.932   2.903   0.619
 9398SOL     OW29013   6.342   3.138   1.414
 9398SOL    HW129014   6.320   3.193   1.495
 9398SOL    HW229015   6.269   3.146   1.347
 9399SOL     OW29016   6.270   3.484   0.192
 9399SOL    HW129017   6.339   3.489   0.119
 9399SOL    HW229018   6.199   3.419   0.165
 9400SOL     OW29019   5.821   2.176   0.715
 9400SOL    HW129020   5.735   2.221   0.690
 9400SOL    HW229021   5.830   2.174   0.814
 9401SOL     OW29022   6.750   3.485   0.027
 9401SOL    HW129023   6.833   3.463   0.079
 9401SOL    HW229024   6.763   3.456   6.932
 9402SOL     OW29025   6.416   2.875   1.398
 9402SOL    HW129026   6.464   2.861   1.311
 9402SOL    HW229027   6.391   2.971   1.407
 9403SOL     OW29028   6.501   2.765   0.259
 9403SOL    HW129029   6.546   2.796   0.176
 9403SOL    HW229030   6.563   2.708   0.312
 9404SOL     OW29031   5.942   3.173   1.489
 9404SOL    HW129032   5.937   3.251   1.426
 9404SOL    HW229033   5.862   3.114   1.476
 9405SOL     OW29034   6.671   2.987   0.735
 9405SOL    HW129035   6.595   2.932   0.770
 9405SOL    HW229036   6.747   2.928   0.711
 9406SOL     OW29037   6.595   2.108   0.952
 9406SOL    HW129038   6.575   2.066   0.864
 9406SOL    HW229039   6.599   2.036   1.022
 9407SOL     OW29040   6.205   3.329   0.478
 9407SOL    HW129041   6.246   3.274   0.405
 9407SOL    HW229042   6.147   3.400   0.439
 9408SOL     OW29043   5.876   3.165   0.278
 9408SOL    HW129044   5.812   3.124   0.214
 9408SOL    HW229045   5.826   3.214   0.350
 9409SOL     OW29046   5.711   2.909   1.736
 9409SOL    HW129047   5.628   2.883   1.786
 9409SOL    HW229048   5.789   2.857   1.771
 9410SOL     OW29049   6.277   2.056   1.497
 9410SOL    HW129050   6.359   2.030   1.446
 9410SOL    HW229051   6.303   2.084   1.589
 9411SOL     OW29052   5.677   2.193   6.976
 9411SOL    HW129053   5.613   2.130   6.931
 9411SOL    HW229054   5.625   2.267   0.019
 9412SOL     OW29055   5.618   2.010   0.291
 9412SOL    HW129056   5.643   2.106   0.278
 9412SOL    HW229057   5.650   1.957   0.212
 9413SOL     OW29058   6.223   2.687   1.444
 9413SOL    HW129059   6.285   2.765   1.434
 9413SOL    HW229060   6.275   2.602   1.444
 9414SOL     OW29061   6.315   2.395   1.702
 9414SOL    HW129062   6.359   2.458   1.766
 9414SOL    HW229063   6.332   2.301   1.731
 9415SOL     OW29064   6.958   3.102   1.637
 9415SOL    HW129065   6.969   3.057   1.726
 9415SOL    HW229066   0.040   3.085   1.582
 9416SOL     OW29067   5.939   3.618   1.582
 9416SOL    HW129068   5.854   3.670   1.568
 9416SOL    HW229069   5.917   3.527   1.615
 9417SOL     OW29070   6.782   2.187   0.480
 9417SOL    HW129071   6.867   2.143   0.453
 9417SOL    HW229072   6.795   2.235   0.567
 9418SOL     OW29073   6.155   2.588   0.678
 9418SOL    HW129074   6.205   2.674   0.666
 9418SOL    HW229075   6.089   2.578   0.603
 9419SOL     OW29076   6.389   3.194   0.035
 9419SOL    HW129077   6.373   3.170   0.131
 9419SOL    HW229078   6.427   3.286   0.029
 9420SOL     OW29079   6.257   3.614   0.954
 9420SOL    HW129080   6.232   3.710   0.940
 9420SOL    HW229081   6.356   3.605   0.947
 9421SOL     OW29082   6.469   2.842   0.866
 9421SOL    HW129083   6.521   2.763   0.899
 9421SOL    HW229084   6.417   2.882   0.942
 9422SOL     OW29085   6.640   2.837   0.030
 9422SOL    HW129086   6.664   2.934   0.027
 9422SOL    HW229087   6.724   2.782   0.035
 9423SOL     OW29088   5.791   3.150   1.839
 9423SOL    HW129089   5.765   3.067   1.790
 9423SOL    HW229090   5.730   3.163   1.917
 9424SOL     OW29091   5.699   3.066   0.645
 9424SOL    HW129092   5.757   3.027   0.716
 9424SOL    HW229093   5.700   3.006   0.565
 9425SOL     OW29094   6.262   3.288   1.630
 9425SOL    HW129095   6.185   3.241   1.674
 9425SOL    HW229096   6.273   3.379   1.670
 9426SOL     OW29097   5.996   2.277   0.515
 9426SOL    HW129098   6.026   2.207   0.450
 9426SOL    HW229099   5.943   2.234   0.588
 9427SOL     OW29100   5.945   2.418   1.284
 9427SOL    HW129101   5.998   2.351   1.336
 9427SOL    HW229102   5.946   2.392   1.187
 9428SOL     OW29103   6.411   3.440   0.683
 9428SOL    HW129104   6.403   3.472   0.589
 9428SOL    HW229105   6.336   3.376   0.703
 9429SOL     OW29106   6.957   2.061   1.094
 9429SOL    HW129107   6.931   1.965   1.107
 9429SOL    HW229108   6.932   2.113   1.175
 9430SOL     OW29109   6.612   1.878   1.109
 9430SOL    HW129110   6.564   1.807   1.057
 9430SOL    HW229111   6.709   1.855   1.115
 9431SOL     OW29112   6.368   3.164   0.312
 9431SOL    HW129113   6.341   3.072   0.340
 9431SOL    HW229114   6.451   3.190   0.361
 9432SOL     OW29115   6.193   3.450   1.286
 9432SOL    HW129116   6.185   3.540   1.330
 9432SOL    HW229117   6.286   3.438   1.252
 9433SOL     OW29118   5.688   2.892   0.427
 9433SOL    HW129119   5.762   2.865   0.365
 9433SOL    HW229120   5.614   2.825   0.421
 9434SOL     OW29121   6.450   3.527   0.399
 9434SOL    HW129122   6.381   3.507   0.329
 9434SOL    HW229123   6.430   3.615   0.441
 9435SOL     OW29124   5.789   2.482   2.011
 9435SOL    HW129125   5.698   2.459   2.046
 9435SOL    HW229126   5.789   2.474   1.912
 9436SOL     OW29127   5.804   2.150   2.856
 9436SOL    HW129128   5.844   2.116   2.941
 9436SOL    HW229129   5.714   2.108   2.842
 9437SOL     OW29130   5.573   2.273   2.499
 9437SOL    HW129131   5.488   2.296   2.546
 9437SOL    HW229132   5.556   2.197   2.436
 9438SOL     OW29133   6.153   3.181   3.073
 9438SOL    HW129134   6.068   3.180   3.019
 9438SOL    HW229135   6.175   3.276   3.097
 9439SOL     OW29136   0.048   3.401   2.640
 9439SOL    HW129137   0.095   3.313   2.634
 9439SOL    HW229138   0.031   3.435   2.547
 9440SOL     OW29139   6.689   2.640   2.533
 9440SOL    HW129140   6.766   2.704   2.528
 9440SOL    HW229141   6.664   2.626   2.629
 9441SOL     OW29142   6.301   2.995   2.915
 9441SOL    HW129143   6.243   3.031   2.988
 9441SOL    HW229144   6.345   3.071   2.867
 9442SOL     OW29145   6.470   2.609   3.705
 9442SOL    HW129146   6.463   2.669   3.784
 9442SOL    HW229147   6.485   2.664   3.623
 9443SOL     OW29148   6.281   2.847   2.502
 9443SOL    HW129149   6.350   2.844   2.574
 9443SOL    HW229150   6.207   2.908   2.528
 9444SOL     OW29151   6.275   3.005   3.689
 9444SOL    HW129152   6.322   3.083   3.731
 9444SOL    HW229153   6.195   3.038   3.639
 9445SOL     OW29154   5.923   3.259   2.922
 9445SOL    HW129155   5.840   3.221   2.881
 9445SOL    HW229156   5.971   3.317   2.856
 9446SOL     OW29157   6.053   2.232   3.314
 9446SOL    HW129158   6.133   2.173   3.329
 9446SOL    HW229159   5.970   2.182   3.342
 9447SOL     OW29160   5.813   3.597   2.333
 9447SOL    HW129161   5.840   3.665   2.401
 9447SOL    HW229162   5.887   3.584   2.267
 9448SOL     OW29163   6.711   3.224   3.547
 9448SOL    HW129164   6.801   3.188   3.522
 9448SOL    HW229165   6.648   3.148   3.561
 9449SOL     OW29166   5.821   3.327   2.401
 9449SOL    HW129167   5.806   3.426   2.400
 9449SOL    HW229168   5.774   3.287   2.479
 9450SOL     OW29169   5.865   2.958   2.742
 9450SOL    HW129170   5.877   2.863   2.771
 9450SOL    HW229171   5.809   3.007   2.810
 9451SOL     OW29172   6.142   3.692   3.269
 9451SOL    HW129173   6.067   3.662   3.328
 9451SOL    HW229174   6.189   3.770   3.312
 9452SOL     OW29175   6.155   2.845   2.023
 9452SOL    HW129176   6.197   2.891   1.944
 9452SOL    HW229177   6.204   2.872   2.106
 9453SOL     OW29178   5.693   2.534   2.440
 9453SOL    HW129179   5.662   2.441   2.460
 9453SOL    HW229180   5.687   2.589   2.523
 9454SOL     OW29181   5.625   3.433   1.979
 9454SOL    HW129182   5.605   3.337   1.999
 9454SOL    HW229183   5.608   3.488   2.061
 9455SOL     OW29184   5.720   2.608   3.438
 9455SOL    HW129185   5.809   2.651   3.445
 9455SOL    HW229186   5.650   2.678   3.425
 9456SOL     OW29187   6.200   3.255   2.578
 9456SOL    HW129188   6.158   3.165   2.585
 9456SOL    HW229189   6.188   3.290   2.485
 9457SOL     OW29190   6.794   3.042   3.273
 9457SOL    HW129191   6.835   2.983   3.203
 9457SOL    HW229192   6.857   3.053   3.349
 9458SOL     OW29193   6.417   1.899   2.375
 9458SOL    HW129194   6.464   1.982   2.344
 9458SOL    HW229195   6.318   1.916   2.377
 9459SOL     OW29196   5.773   2.801   3.156
 9459SOL    HW129197   5.866   2.768   3.143
 9459SOL    HW229198   5.710   2.749   3.099
 9460SOL     OW29199   6.825   3.696   3.459
 9460SOL    HW129200   6.784   3.766   3.400
 9460SOL    HW229201   6.810   3.606   3.418
 9461SOL     OW29202   5.932   2.125   3.741
 9461SOL    HW129203   5.971   2.207   3.784
 9461SOL    HW229204   5.833   2.137   3.729
 9462SOL     OW29205   6.163   2.569   2.137
 9462SOL    HW129206   6.166   2.658   2.092
 9462SOL    HW229207   6.093   2.570   2.209
 9463SOL     OW29208   6.853   2.187   2.743
 9463SOL    HW129209   6.754   2.173   2.754
 9463SOL    HW229210   6.901   2.143   2.819
 9464SOL     OW29211   6.369   2.455   3.304
 9464SOL    HW129212   6.342   2.425   3.396
 9464SOL    HW229213   6.349   2.382   3.238
 9465SOL     OW29214   6.951   2.370   3.605
 9465SOL    HW129215   6.918   2.456   3.644
 9465SOL    HW229216   0.050   2.375   3.592
 9466SOL     OW29217   6.540   2.746   3.466
 9466SOL    HW129218   6.591   2.670   3.426
 9466SOL    HW229219   6.489   2.795   3.395
 9467SOL     OW29220   6.619   2.263   3.057
 9467SOL    HW129221   6.524   2.270   3.088
 9467SOL    HW229222   6.621   2.218   2.967
 9468SOL     OW29223   6.624   2.585   2.275
 9468SOL    HW129224   6.644   2.601   2.372
 9468SOL    HW229225   6.538   2.534   2.267
 9469SOL     OW29226   5.670   2.711   2.656
 9469SOL    HW129227   5.762   2.698   2.692
 9469SOL    HW229228   5.620   2.775   2.714
 9470SOL     OW29229   5.695   3.746   3.458
 9470SOL    HW129230   5.703   3.715   3.553
 9470SOL    HW229231   5.602   3.728   3.426
 9471SOL     OW29232   6.440   2.212   2.066
 9471SOL    HW129233   6.495   2.261   1.998
 9471SOL    HW229234   6.386   2.142   2.020
 9472SOL     OW29235   6.995   3.038   2.396
 9472SOL    HW129236   0.023   2.994   2.311
 9472SOL    HW229237   6.930   3.112   2.376
 9473SOL     OW29238   6.141   2.003   2.793
 9473SOL    HW129239   6.150   2.030   2.889
 9473SOL    HW229240   6.141   2.085   2.735
 9474SOL     OW29241   6.577   3.339   2.338
 9474SOL    HW129242   6.553   3.413   2.275
 9474SOL    HW229243   6.537   3.359   2.428
 9475SOL     OW29244   5.937   3.668   2.772
 9475SOL    HW129245   5.981   3.579   2.763
 9475SOL    HW229246   6.006   3.738   2.787
 9476SOL     OW29247   6.802   3.441   3.350
 9476SOL    HW129248   6.766   3.366   3.405
 9476SOL    HW229249   6.784   3.422   3.253
 9477SOL     OW29250   5.896   2.803   2.133
 9477SOL    HW129251   5.983   2.827   2.089
 9477SOL    HW229252   5.870   2.711   2.104
 9478SOL     OW29253   6.051   3.144   3.597
 9478SOL    HW129254   6.025   3.150   3.500
 9478SOL    HW229255   5.968   3.140   3.653
 9479SOL     OW29256   6.718   3.631   2.090
 9479SOL    HW129257   6.629   3.614   2.131
 9479SOL    HW229258   6.739   3.559   2.024
 9480SOL     OW29259   5.797   2.125   3.357
 9480SOL    HW129260   5.724   2.194   3.356
 9480SOL    HW229261   5.763   2.041   3.399
 9481SOL     OW29262   6.047   3.609   2.179
 9481SOL    HW129263   6.094   3.664   2.249
 9481SOL    HW229264   6.115   3.564   2.121
 9482SOL     OW29265   5.840   3.647   3.057
 9482SOL    HW129266   5.881   3.568   3.104
 9482SOL    HW229267   5.857   3.641   2.959
 9483SOL     OW29268   6.536   3.560   2.752
 9483SOL    HW129269   6.628   3.522   2.751
 9483SOL    HW229270   6.480   3.513   2.683
 9484SOL     OW29271   5.969   2.540   2.337
 9484SOL    HW129272   5.985   2.442   2.348
 9484SOL    HW229273   5.874   2.561   2.358
 9485SOL     OW29274   6.248   1.969   1.971
 9485SOL    HW129275   6.300   1.889   2.002
 9485SOL    HW229276   6.183   1.941   1.901
 9486SOL     OW29277   6.359   2.120   3.618
 9486SOL    HW129278   6.447   2.073   3.614
 9486SOL    HW229279   6.300   2.075   3.686
 9487SOL     OW29280   6.444   3.387   3.051
 9487SOL    HW129281   6.419   3.353   2.960
 9487SOL    HW229282   6.508   3.323   3.094
 9488SOL     OW29283   6.386   3.237   2.804
 9488SOL    HW129284   6.480   3.235   2.769
 9488SOL    HW229285   6.322   3.246   2.727
 9489SOL     OW29286   6.504   2.375   2.741
 9489SOL    HW129287   6.485   2.367   2.643
 9489SOL    HW229288   6.530   2.286   2.777
 9490SOL     OW29289   6.146   1.934   2.357
 9490SOL    HW129290   6.066   1.931   2.418
 9490SOL    HW229291   6.134   2.009   2.291
 9491SOL     OW29292   6.982   2.970   1.882
 9491SOL    HW129293   0.025   2.955   1.971
 9491SOL    HW229294   6.886   2.943   1.887
 9492SOL     OW29295   5.869   1.910   2.044
 9492SOL    HW129296   5.917   1.984   1.999
 9492SOL    HW229297   5.935   1.852   2.092
 9493SOL     OW29298   6.561   2.121   2.296
 9493SOL    HW129299   6.519   2.155   2.212
 9493SOL    HW229300   6.659   2.140   2.295
 9494SOL     OW29301   6.630   2.528   3.324
 9494SOL    HW129302   6.536   2.495   3.319
 9494SOL    HW229303   6.691   2.451   3.345
 9495SOL     OW29304   6.775   3.458   2.641
 9495SOL    HW129305   6.773   3.524   2.566
 9495SOL    HW229306   6.870   3.435   2.663
 9496SOL     OW29307   6.065   3.015   2.562
 9496SOL    HW129308   6.001   2.995   2.636
 9496SOL    HW229309   6.016   3.010   2.474
 9497SOL     OW29310   6.778   3.666   2.440
 9497SOL    HW129311   6.759   3.691   2.345
 9497SOL    HW229312   6.727   3.727   2.501
 9498SOL     OW29313   6.593   2.370   1.897
 9498SOL    HW129314   6.552   2.459   1.876
 9498SOL    HW229315   6.659   2.381   1.971
 9499SOL     OW29316   5.697   2.417   3.247
 9499SOL    HW129317   5.790   2.410   3.213
 9499SOL    HW229318   5.692   2.486   3.318
 9500SOL     OW29319   6.157   2.063   3.060
 9500SOL    HW129320   6.195   1.990   3.116
 9500SOL    HW229321   6.059   2.072   3.077
 9501SOL     OW29322   6.461   2.316   2.477
 9501SOL    HW129323   6.416   2.376   2.411
 9501SOL    HW229324   6.500   2.237   2.429
 9502SOL     OW29325   6.577   1.926   2.600
 9502SOL    HW129326   6.514   1.919   2.523
 9502SOL    HW229327   6.564   1.847   2.661
 9503SOL     OW29328   6.082   3.284   2.027
 9503SOL    HW129329   5.998   3.255   2.073
 9503SOL    HW229330   6.093   3.234   1.941
 9504SOL     OW29331   6.111   2.120   2.162
 9504SOL    HW129332   6.162   2.068   2.094
 9504SOL    HW229333   6.078   2.205   2.122
 9505SOL     OW29334   6.592   3.187   3.171
 9505SOL    HW129335   6.504   3.167   3.215
 9505SOL    HW229336   6.664   3.137   3.218
 9506SOL     OW29337   6.759   3.147   2.951
 9506SOL    HW129338   6.693   3.155   3.026
 9506SOL    HW229339   6.715   3.170   2.865
 9507SOL     OW29340   6.503   1.957   3.218
 9507SOL    HW129341   6.530   1.934   3.125
 9507SOL    HW229342   6.580   1.999   3.266
 9508SOL     OW29343   6.557   2.988   3.596
 9508SOL    HW129344   6.464   3.008   3.627
 9508SOL    HW229345   6.557   2.907   3.538
 9509SOL     OW29346   6.328   2.913   2.231
 9509SOL    HW129347   6.317   2.882   2.326
 9509SOL    HW229348   6.403   2.861   2.189
 9510SOL     OW29349   6.020   2.681   3.125
 9510SOL    HW129350   6.092   2.695   3.194
 9510SOL    HW229351   5.989   2.586   3.129
 9511SOL     OW29352   6.873   2.226   3.165
 9511SOL    HW129353   6.935   2.303   3.185
 9511SOL    HW229354   6.789   2.260   3.125
 9512SOL     OW29355   5.658   3.429   3.208
 9512SOL    HW129356   5.623   3.501   3.148
 9512SOL    HW229357   5.758   3.426   3.202
 9513SOL     OW29358   5.905   2.997   2.335
 9513SOL    HW129359   5.900   3.075   2.273
 9513SOL    HW229360   5.904   2.912   2.283
 9514SOL     OW29361   6.117   2.405   2.730
 9514SOL    HW129362   6.131   2.463   2.650
 9514SOL    HW229363   6.192   2.420   2.796
 9515SOL     OW29364   6.845   3.261   2.322
 9515SOL    HW129365   6.893   3.344   2.350
 9515SOL    HW229366   6.746   3.277   2.327
 9516SOL     OW29367   6.847   3.396   3.062
 9516SOL    HW129368   6.934   3.389   3.111
 9516SOL    HW229369   6.826   3.309   3.019
 9517SOL     OW29370   5.927   3.395   3.157
 9517SOL    HW129371   5.916   3.340   3.075
 9517SOL    HW229372   6.023   3.418   3.170
 9518SOL     OW29373   6.021   2.616   3.482
 9518SOL    HW129374   6.087   2.656   3.419
 9518SOL    HW229375   6.053   2.525   3.511
 9519SOL     OW29376   6.596   1.987   3.614
 9519SOL    HW129377   6.653   2.069   3.604
 9519SOL    HW229378   6.651   1.906   3.590
 9520SOL     OW29379   6.077   1.915   3.628
 9520SOL    HW129380   6.027   1.854   3.566
 9520SOL    HW229381   6.019   1.993   3.651
 9521SOL     OW29382   6.179   2.735   2.903
 9521SOL    HW129383   6.218   2.827   2.903
 9521SOL    HW229384   6.120   2.724   2.982
 9522SOL     OW29385   6.899   2.690   2.857
 9522SOL    HW129386   6.805   2.657   2.840
 9522SOL    HW229387   6.950   2.619   2.905
 9523SOL     OW29388   6.749   2.398   2.117
 9523SOL    HW129389   6.785   2.322   2.171
 9523SOL    HW229390   6.709   2.466   2.177
 9524SOL     OW29391   5.885   2.052   3.101
 9524SOL    HW129392   5.851   2.086   3.189
 9524SOL    HW229393   5.863   1.955   3.092
 9525SOL     OW29394   5.651   3.166   3.118
 9525SOL    HW129395   5.675   3.105   3.193
 9525SOL    HW229396   5.643   3.260   3.153
 9526SOL     OW29397   6.312   2.487   2.911
 9526SOL    HW129398   6.383   2.467   2.844
 9526SOL    HW229399   6.276   2.579   2.896
 9527SOL     OW29400   5.911   1.926   2.500
 9527SOL    HW129401   5.873   2.016   2.518
 9527SOL    HW229402   5.921   1.876   2.587
 9528SOL     OW29403   0.173   2.343   2.184
 9528SOL    HW129404   0.129   2.253   2.181
 9528SOL    HW229405   0.157   2.384   2.274
 9529SOL     OW29406   6.620   2.616   2.813
 9529SOL    HW129407   6.599   2.631   2.909
 9529SOL    HW229408   6.589   2.525   2.786
 9530SOL     OW29409   6.547   3.461   3.547
 9530SOL    HW129410   6.530   3.494   3.454
 9530SOL    HW229411   6.589   3.370   3.543
 9531SOL     OW29412   5.945   2.788   3.682
 9531SOL    HW129413   6.019   2.803   3.748
 9531SOL    HW229414   5.976   2.724   3.611
 9532SOL     OW29415   6.941   2.637   1.852
 9532SOL    HW129416   0.014   2.597   1.907
 9532SOL    HW229417   6.981   2.696   1.782
 9533SOL     OW29418   6.642   3.225   2.713
 9533SOL    HW129419   6.658   3.142   2.659
 9533SOL    HW229420   6.692   3.301   2.674
 9534SOL     OW29421   5.912   2.685   2.795
 9534SOL    HW129422   6.011   2.701   2.799
 9534SOL    HW229423   5.892   2.591   2.822
 9535SOL     OW29424   5.884   2.407   2.860
 9535SOL    HW129425   5.845   2.315   2.856
 9535SOL    HW229426   5.969   2.409   2.807
 9536SOL     OW29427   6.719   2.230   3.559
 9536SOL    HW129428   6.659   2.276   3.624
 9536SOL    HW229429   6.811   2.270   3.565
 9537SOL     OW29430   6.727   2.065   3.334
 9537SOL    HW129431   6.717   2.123   3.415
 9537SOL    HW229432   6.785   2.113   3.267
 9538SOL     OW29433   5.604   3.152   2.046
 9538SOL    HW129434   5.510   3.176   2.021
 9538SOL    HW229435   5.607   3.058   2.079
 9539SOL     OW29436   5.664   3.633   2.790
 9539SOL    HW129437   5.645   3.541   2.757
 9539SOL    HW229438   5.761   3.654   2.776
 9540SOL     OW29439   6.072   3.426   2.758
 9540SOL    HW129440   6.145   3.487   2.787
 9540SOL    HW229441   6.106   3.362   2.689
 9541SOL     OW29442   6.538   2.636   3.074
 9541SOL    HW129443   6.593   2.613   3.155
 9541SOL    HW229444   6.452   2.585   3.076
 9542SOL     OW29445   5.639   2.484   2.981
 9542SOL    HW129446   5.720   2.464   2.925
 9542SOL    HW229447   5.659   2.461   3.077
 9543SOL     OW29448   5.782   2.396   3.601
 9543SOL    HW129449   5.850   2.347   3.547
 9543SOL    HW229450   5.748   2.475   3.549
 9544SOL     OW29451   6.393   2.440   2.228
 9544SOL    HW129452   6.403   2.357   2.172
 9544SOL    HW229453   6.311   2.489   2.200
 9545SOL     OW29454   5.821   3.401   3.582
 9545SOL    HW129455   5.800   3.469   3.652
 9545SOL    HW229456   5.824   3.310   3.623
 9546SOL     OW29457   6.338   2.281   3.093
 9546SOL    HW129458   6.274   2.205   3.083
 9546SOL    HW229459   6.318   2.351   3.025
 9547SOL     OW29460   6.484   3.550   3.298
 9547SOL    HW129461   6.473   3.496   3.215
 9547SOL    HW229462   6.485   3.647   3.276
 9548SOL     OW29463   6.025   2.347   2.032
 9548SOL    HW129464   6.095   2.414   2.056
 9548SOL    HW229465   5.935   2.389   2.035
 9549SOL     OW29466   5.719   2.999   3.334
 9549SOL    HW129467   5.726   2.965   3.428
 9549SOL    HW229468   5.740   2.925   3.270
 9550SOL     OW29469   6.877   2.906   3.042
 9550SOL    HW129470   6.884   2.833   2.974
 9550SOL    HW229471   6.842   2.989   3.000
 9551SOL     OW29472   6.878   2.710   2.156
 9551SOL    HW129473   6.810   2.675   2.219
 9551SOL    HW229474   6.877   2.657   2.072
 9552SOL     OW29475   6.879   3.651   2.961
 9552SOL    HW129476   6.961   3.641   2.904
 9552SOL    HW229477   6.857   3.564   3.004
 9553SOL     OW29478   5.670   3.135   2.852
 9553SOL    HW129479   5.658   3.148   2.950
 9553SOL    HW229480   5.606   3.065   2.819
 9554SOL     OW29481   6.298   3.546   3.629
 9554SOL    HW129482   6.255   3.621   3.580
 9554SOL    HW229483   6.391   3.533   3.595
 9555SOL     OW29484   6.985   3.489   2.390
 9555SOL    HW129485   0.071   3.525   2.354
 9555SOL    HW229486   6.919   3.563   2.399
 9556SOL     OW29487   5.730   3.650   3.707
 9556SOL    HW129488   5.679   3.575   3.750
 9556SOL    HW229489   5.786   3.696   3.777
 9557SOL     OW29490   6.892   2.822   2.529
 9557SOL    HW129491   6.967   2.766   2.564
 9557SOL    HW229492   6.930   2.902   2.481
 9558SOL     OW29493   6.342   3.137   3.275
 9558SOL    HW129494   6.320   3.193   3.355
 9558SOL    HW229495   6.268   3.145   3.208
 9559SOL     OW29496   6.252   3.498   2.029
 9559SOL    HW129497   6.268   3.518   1.932
 9559SOL    HW229498   6.199   3.413   2.036
 9560SOL     OW29499   5.822   2.172   2.574
 9560SOL    HW129500   5.735   2.213   2.547
 9560SOL    HW229501   5.828   2.170   2.674
 9561SOL     OW29502   6.744   3.436   1.888
 9561SOL    HW129503   6.749   3.342   1.854
 9561SOL    HW229504   6.684   3.489   1.829
 9562SOL     OW29505   6.416   2.874   3.260
 9562SOL    HW129506   6.466   2.861   3.174
 9562SOL    HW229507   6.391   2.970   3.269
 9563SOL     OW29508   6.531   2.774   2.094
 9563SOL    HW129509   6.606   2.820   2.046
 9563SOL    HW229510   6.568   2.709   2.160
 9564SOL     OW29511   5.944   3.172   3.349
 9564SOL    HW129512   5.939   3.250   3.287
 9564SOL    HW229513   5.865   3.112   3.335
 9565SOL     OW29514   6.671   2.983   2.597
 9565SOL    HW129515   6.593   2.929   2.629
 9565SOL    HW229516   6.746   2.922   2.572
 9566SOL     OW29517   6.593   2.109   2.813
 9566SOL    HW129518   6.580   2.067   2.723
 9566SOL    HW229519   6.596   2.037   2.883
 9567SOL     OW29520   6.189   3.346   2.324
 9567SOL    HW129521   6.253   3.291   2.270
 9567SOL    HW229522   6.106   3.362   2.271
 9568SOL     OW29523   5.854   3.210   2.164
 9568SOL    HW129524   5.765   3.195   2.122
 9568SOL    HW229525   5.843   3.260   2.250
 9569SOL     OW29526   5.718   2.910   3.593
 9569SOL    HW129527   5.635   2.885   3.643
 9569SOL    HW229528   5.796   2.860   3.631
 9570SOL     OW29529   6.277   2.057   3.358
 9570SOL    HW129530   6.359   2.031   3.307
 9570SOL    HW229531   6.302   2.085   3.451
 9571SOL     OW29532   5.665   2.184   1.861
 9571SOL    HW129533   5.584   2.165   1.805
 9571SOL    HW229534   5.700   2.275   1.839
 9572SOL     OW29535   5.625   2.014   2.104
 9572SOL    HW129536   5.609   2.082   2.032
 9572SOL    HW229537   5.718   1.978   2.095
 9573SOL     OW29538   6.222   2.687   3.306
 9573SOL    HW129539   6.284   2.765   3.296
 9573SOL    HW229540   6.275   2.602   3.306
 9574SOL     OW29541   6.317   2.396   3.562
 9574SOL    HW129542   6.360   2.458   3.627
 9574SOL    HW229543   6.332   2.301   3.592
 9575SOL     OW29544   6.956   3.100   3.495
 9575SOL    HW129545   6.968   3.058   3.585
 9575SOL    HW229546   0.039   3.084   3.441
 9576SOL     OW29547   5.940   3.616   3.442
 9576SOL    HW129548   5.854   3.666   3.430
 9576SOL    HW229549   5.921   3.525   3.478
 9577SOL     OW29550   6.833   2.192   2.286
 9577SOL    HW129551   6.907   2.144   2.239
 9577SOL    HW229552   6.865   2.223   2.375
 9578SOL     OW29553   6.155   2.595   2.537
 9578SOL    HW129554   6.206   2.680   2.520
 9578SOL    HW229555   6.090   2.581   2.463
 9579SOL     OW29556   6.401   3.219   1.928
 9579SOL    HW129557   6.393   3.216   2.028
 9579SOL    HW229558   6.431   3.311   1.900
 9580SOL     OW29559   6.258   3.615   2.803
 9580SOL    HW129560   6.232   3.712   2.796
 9580SOL    HW229561   6.358   3.608   2.805
 9581SOL     OW29562   6.460   2.842   2.721
 9581SOL    HW129563   6.512   2.762   2.753
 9581SOL    HW229564   6.410   2.883   2.797
 9582SOL     OW29565   6.730   2.862   1.905
 9582SOL    HW129566   6.666   2.910   1.844
 9582SOL    HW229567   6.752   2.773   1.866
 9583SOL     OW29568   5.795   3.150   3.700
 9583SOL    HW129569   5.770   3.067   3.651
 9583SOL    HW229570   5.734   3.162   3.778
 9584SOL     OW29571   5.712   3.081   2.527
 9584SOL    HW129572   5.750   3.042   2.611
 9584SOL    HW229573   5.768   3.052   2.449
 9585SOL     OW29574   6.263   3.289   3.490
 9585SOL    HW129575   6.188   3.241   3.534
 9585SOL    HW229576   6.274   3.379   3.532
 9586SOL     OW29577   5.996   2.277   2.378
 9586SOL    HW129578   6.034   2.206   2.318
 9586SOL    HW229579   5.942   2.234   2.450
 9587SOL     OW29580   5.947   2.416   3.142
 9587SOL    HW129581   5.998   2.350   3.196
 9587SOL    HW229582   5.950   2.389   3.045
 9588SOL     OW29583   6.403   3.448   2.540
 9588SOL    HW129584   6.367   3.514   2.474
 9588SOL    HW229585   6.335   3.377   2.557
 9589SOL     OW29586   6.958   2.060   2.960
 9589SOL    HW129587   6.932   1.964   2.971
 9589SOL    HW229588   6.933   2.111   3.042
 9590SOL     OW29589   6.613   1.877   2.969
 9590SOL    HW129590   6.567   1.806   2.916
 9590SOL    HW229591   6.711   1.856   2.976
 9591SOL     OW29592   6.379   3.187   2.201
 9591SOL    HW129593   6.361   3.090   2.213
 9591SOL    HW229594   6.460   3.213   2.253
 9592SOL     OW29595   6.194   3.450   3.145
 9592SOL    HW129596   6.187   3.540   3.189
 9592SOL    HW229597   6.287   3.437   3.111
 9593SOL     OW29598   6.913   1.946   1.987
 9593SOL    HW129599   6.971   1.881   1.937
 9593SOL    HW229600   6.834   1.898   2.024
 9594SOL     OW29601   5.633   2.893   2.159
 9594SOL    HW129602   5.731   2.881   2.143
 9594SOL    HW229603   5.591   2.804   2.175
 9595SOL     OW29604   6.472   3.556   2.196
 9595SOL    HW129605   6.392   3.531   2.142
 9595SOL    HW229606   6.448   3.629   2.260
 9596SOL     OW29607   5.789   2.476   3.867
 9596SOL    HW129608   5.697   2.462   3.903
 9596SOL    HW229609   5.788   2.464   3.767
 9597SOL     OW29610   5.805   2.146   4.715
 9597SOL    HW129611   5.843   2.113   4.801
 9597SOL    HW229612   5.715   2.104   4.700
 9598SOL     OW29613   5.576   2.264   4.356
 9598SOL    HW129614   5.492   2.282   4.407
 9598SOL    HW229615   5.558   2.193   4.288
 9599SOL     OW29616   6.154   3.182   4.937
 9599SOL    HW129617   6.070   3.180   4.884
 9599SOL    HW229618   6.175   3.276   4.962
 9600SOL     OW29619   0.048   3.401   4.502
 9600SOL    HW129620   0.095   3.313   4.496
 9600SOL    HW229621   0.031   3.435   4.409
 9601SOL     OW29622   6.689   2.640   4.395
 9601SOL    HW129623   6.766   2.704   4.390
 9601SOL    HW229624   6.663   2.626   4.490
 9602SOL     OW29625   6.301   2.995   4.777
 9602SOL    HW129626   6.243   3.030   4.850
 9602SOL    HW229627   6.345   3.071   4.729
 9603SOL     OW29628   6.470   2.609   5.567
 9603SOL    HW129629   6.462   2.669   5.646
 9603SOL    HW229630   6.484   2.664   5.485
 9604SOL     OW29631   6.283   2.846   4.362
 9604SOL    HW129632   6.351   2.843   4.435
 9604SOL    HW229633   6.209   2.908   4.388
 9605SOL     OW29634   6.274   3.005   5.551
 9605SOL    HW129635   6.321   3.082   5.592
 9605SOL    HW229636   6.194   3.037   5.501
 9606SOL     OW29637   5.925   3.258   4.788
 9606SOL    HW129638   5.851   3.208   4.743
 9606SOL    HW229639   5.973   3.314   4.721
 9607SOL     OW29640   6.054   2.231   5.175
 9607SOL    HW129641   6.135   2.173   5.190
 9607SOL    HW229642   5.972   2.182   5.204
 9608SOL     OW29643   5.819   3.599   4.196
 9608SOL    HW129644   5.842   3.671   4.261
 9608SOL    HW229645   5.895   3.586   4.132
 9609SOL     OW29646   6.711   3.225   5.410
 9609SOL    HW129647   6.801   3.189   5.386
 9609SOL    HW229648   6.647   3.149   5.425
 9610SOL     OW29649   5.832   3.330   4.256
 9610SOL    HW129650   5.816   3.429   4.257
 9610SOL    HW229651   5.783   3.287   4.332
 9611SOL     OW29652   5.896   2.949   4.622
 9611SOL    HW129653   5.898   2.851   4.642
 9611SOL    HW229654   5.826   2.993   4.678
 9612SOL     OW29655   6.141   3.691   5.135
 9612SOL    HW129656   6.065   3.663   5.192
 9612SOL    HW229657   6.188   3.769   5.177
 9613SOL     OW29658   6.154   2.846   3.885
 9613SOL    HW129659   6.197   2.891   3.807
 9613SOL    HW229660   6.203   2.872   3.969
 9614SOL     OW29661   5.696   2.530   4.303
 9614SOL    HW129662   5.661   2.439   4.320
 9614SOL    HW229663   5.688   2.585   4.387
 9615SOL     OW29664   5.633   3.436   3.837
 9615SOL    HW129665   5.607   3.341   3.853
 9615SOL    HW229666   5.617   3.490   3.921
 9616SOL     OW29667   5.714   2.611   5.298
 9616SOL    HW129668   5.804   2.655   5.304
 9616SOL    HW229669   5.645   2.681   5.282
 9617SOL     OW29670   6.203   3.255   4.440
 9617SOL    HW129671   6.162   3.164   4.447
 9617SOL    HW229672   6.192   3.290   4.347
 9618SOL     OW29673   6.794   3.043   5.134
 9618SOL    HW129674   6.836   2.984   5.065
 9618SOL    HW229675   6.857   3.054   5.211
 9619SOL     OW29676   6.416   1.899   4.237
 9619SOL    HW129677   6.464   1.982   4.207
 9619SOL    HW229678   6.318   1.916   4.239
 9620SOL     OW29679   5.775   2.803   5.018
 9620SOL    HW129680   5.869   2.770   5.005
 9620SOL    HW229681   5.712   2.749   4.962
 9621SOL     OW29682   6.826   3.696   5.320
 9621SOL    HW129683   6.785   3.766   5.261
 9621SOL    HW229684   6.811   3.606   5.279
 9622SOL     OW29685   5.938   2.124   5.604
 9622SOL    HW129686   5.976   2.206   5.647
 9622SOL    HW229687   5.839   2.135   5.594
 9623SOL     OW29688   6.161   2.569   4.001
 9623SOL    HW129689   6.163   2.658   3.956
 9623SOL    HW229690   6.092   2.569   4.072
 9624SOL     OW29691   6.852   2.187   4.605
 9624SOL    HW129692   6.754   2.174   4.617
 9624SOL    HW229693   6.901   2.144   4.682
 9625SOL     OW29694   6.368   2.455   5.166
 9625SOL    HW129695   6.342   2.425   5.258
 9625SOL    HW229696   6.349   2.382   5.101
 9626SOL     OW29697   6.951   2.369   5.467
 9626SOL    HW129698   6.918   2.455   5.506
 9626SOL    HW229699   0.050   2.374   5.453
 9627SOL     OW29700   6.540   2.747   5.329
 9627SOL    HW129701   6.591   2.671   5.288
 9627SOL    HW229702   6.489   2.795   5.258
 9628SOL     OW29703   6.619   2.262   4.919
 9628SOL    HW129704   6.524   2.270   4.950
 9628SOL    HW229705   6.621   2.218   4.830
 9629SOL     OW29706   6.623   2.585   4.137
 9629SOL    HW129707   6.643   2.601   4.234
 9629SOL    HW229708   6.537   2.534   4.129
 9630SOL     OW29709   5.671   2.709   4.518
 9630SOL    HW129710   5.763   2.696   4.557
 9630SOL    HW229711   5.618   2.768   4.579
 9631SOL     OW29712   5.687   3.752   5.326
 9631SOL    HW129713   5.702   3.718   5.419
 9631SOL    HW229714   5.592   3.735   5.300
 9632SOL     OW29715   6.440   2.212   3.928
 9632SOL    HW129716   6.495   2.261   3.860
 9632SOL    HW229717   6.385   2.142   3.883
 9633SOL     OW29718   6.995   3.038   4.258
 9633SOL    HW129719   0.023   2.993   4.172
 9633SOL    HW229720   6.931   3.111   4.238
 9634SOL     OW29721   6.140   2.003   4.655
 9634SOL    HW129722   6.150   2.030   4.751
 9634SOL    HW229723   6.139   2.085   4.598
 9635SOL     OW29724   6.577   3.338   4.201
 9635SOL    HW129725   6.553   3.412   4.137
 9635SOL    HW229726   6.537   3.358   4.290
 9636SOL     OW29727   5.940   3.666   4.613
 9636SOL    HW129728   5.985   3.576   4.615
 9636SOL    HW229729   6.006   3.736   4.640
 9637SOL     OW29730   6.804   3.439   5.213
 9637SOL    HW129731   6.767   3.366   5.271
 9637SOL    HW229732   6.782   3.421   5.117
 9638SOL     OW29733   5.892   2.815   4.003
 9638SOL    HW129734   5.978   2.839   3.959
 9638SOL    HW229735   5.865   2.723   3.975
 9639SOL     OW29736   6.049   3.142   5.458
 9639SOL    HW129737   6.024   3.148   5.361
 9639SOL    HW229738   5.966   3.138   5.514
 9640SOL     OW29739   6.717   3.634   3.948
 9640SOL    HW129740   6.629   3.616   3.992
 9640SOL    HW229741   6.737   3.561   3.882
 9641SOL     OW29742   5.800   2.123   5.218
 9641SOL    HW129743   5.728   2.193   5.217
 9641SOL    HW229744   5.765   2.040   5.261
 9642SOL     OW29745   6.053   3.607   4.045
 9642SOL    HW129746   6.099   3.664   4.114
 9642SOL    HW229747   6.122   3.563   3.988
 9643SOL     OW29748   5.810   3.648   4.934
 9643SOL    HW129749   5.866   3.572   4.968
 9643SOL    HW229750   5.784   3.630   4.839
 9644SOL     OW29751   6.536   3.559   4.615
 9644SOL    HW129752   6.628   3.521   4.615
 9644SOL    HW229753   6.481   3.513   4.546
 9645SOL     OW29754   5.969   2.539   4.201
 9645SOL    HW129755   5.987   2.441   4.211
 9645SOL    HW229756   5.874   2.558   4.225
 9646SOL     OW29757   6.248   1.969   3.831
 9646SOL    HW129758   6.298   1.888   3.863
 9646SOL    HW229759   6.182   1.941   3.761
 9647SOL     OW29760   6.359   2.120   5.480
 9647SOL    HW129761   6.447   2.073   5.476
 9647SOL    HW229762   6.300   2.076   5.548
 9648SOL     OW29763   6.444   3.388   4.913
 9648SOL    HW129764   6.418   3.354   4.823
 9648SOL    HW229765   6.508   3.324   4.956
 9649SOL     OW29766   6.387   3.238   4.667
 9649SOL    HW129767   6.481   3.235   4.632
 9649SOL    HW229768   6.323   3.245   4.590
 9650SOL     OW29769   6.504   2.375   4.603
 9650SOL    HW129770   6.485   2.367   4.505
 9650SOL    HW229771   6.531   2.286   4.639
 9651SOL     OW29772   6.146   1.935   4.219
 9651SOL    HW129773   6.067   1.931   4.280
 9651SOL    HW229774   6.134   2.009   4.153
 9652SOL     OW29775   6.984   2.973   3.743
 9652SOL    HW129776   0.027   2.956   3.832
 9652SOL    HW229777   6.888   2.946   3.747
 9653SOL     OW29778   5.871   1.908   3.905
 9653SOL    HW129779   5.919   1.984   3.860
 9653SOL    HW229780   5.937   1.851   3.954
 9654SOL     OW29781   6.561   2.121   4.158
 9654SOL    HW129782   6.519   2.154   4.074
 9654SOL    HW229783   6.659   2.140   4.157
 9655SOL     OW29784   6.629   2.528   5.186
 9655SOL    HW129785   6.535   2.495   5.181
 9655SOL    HW229786   6.691   2.452   5.207
 9656SOL     OW29787   6.775   3.458   4.504
 9656SOL    HW129788   6.774   3.524   4.430
 9656SOL    HW229789   6.870   3.434   4.525
 9657SOL     OW29790   6.070   3.015   4.424
 9657SOL    HW129791   6.015   2.991   4.504
 9657SOL    HW229792   6.012   3.013   4.343
 9658SOL     OW29793   6.780   3.669   4.305
 9658SOL    HW129794   6.764   3.698   4.211
 9658SOL    HW229795   6.728   3.727   4.367
 9659SOL     OW29796   6.593   2.370   3.760
 9659SOL    HW129797   6.552   2.458   3.739
 9659SOL    HW229798   6.659   2.380   3.833
 9660SOL     OW29799   5.700   2.406   5.120
 9660SOL    HW129800   5.793   2.404   5.085
 9660SOL    HW229801   5.691   2.480   5.187
 9661SOL     OW29802   6.157   2.063   4.921
 9661SOL    HW129803   6.194   1.989   4.979
 9661SOL    HW229804   6.059   2.073   4.939
 9662SOL     OW29805   6.461   2.316   4.339
 9662SOL    HW129806   6.416   2.376   4.273
 9662SOL    HW229807   6.500   2.237   4.291
 9663SOL     OW29808   6.577   1.925   4.463
 9663SOL    HW129809   6.514   1.918   4.386
 9663SOL    HW229810   6.564   1.847   4.524
 9664SOL     OW29811   6.086   3.283   3.889
 9664SOL    HW129812   6.002   3.252   3.933
 9664SOL    HW229813   6.100   3.232   3.804
 9665SOL     OW29814   6.110   2.118   4.023
 9665SOL    HW129815   6.162   2.067   3.954
 9665SOL    HW229816   6.077   2.204   3.982
 9666SOL     OW29817   6.592   3.188   5.033
 9666SOL    HW129818   6.504   3.168   5.078
 9666SOL    HW229819   6.665   3.138   5.080
 9667SOL     OW29820   6.759   3.146   4.813
 9667SOL    HW129821   6.693   3.155   4.888
 9667SOL    HW229822   6.714   3.170   4.727
 9668SOL     OW29823   6.504   1.956   5.080
 9668SOL    HW129824   6.530   1.934   4.987
 9668SOL    HW229825   6.581   1.999   5.128
 9669SOL     OW29826   6.557   2.989   5.458
 9669SOL    HW129827   6.464   3.009   5.489
 9669SOL    HW229828   6.556   2.908   5.400
 9670SOL     OW29829   6.328   2.912   4.092
 9670SOL    HW129830   6.317   2.881   4.187
 9670SOL    HW229831   6.403   2.860   4.049
 9671SOL     OW29832   6.021   2.681   4.987
 9671SOL    HW129833   6.093   2.695   5.056
 9671SOL    HW229834   5.989   2.586   4.992
 9672SOL     OW29835   6.874   2.226   5.027
 9672SOL    HW129836   6.935   2.303   5.047
 9672SOL    HW229837   6.789   2.260   4.987
 9673SOL     OW29838   5.656   3.422   5.076
 9673SOL    HW129839   5.622   3.502   5.027
 9673SOL    HW229840   5.756   3.421   5.073
 9674SOL     OW29841   5.887   3.005   4.215
 9674SOL    HW129842   5.888   3.080   4.149
 9674SOL    HW229843   5.887   2.917   4.166
 9675SOL     OW29844   6.118   2.405   4.595
 9675SOL    HW129845   6.131   2.463   4.515
 9675SOL    HW229846   6.193   2.420   4.659
 9676SOL     OW29847   6.845   3.261   4.184
 9676SOL    HW129848   6.893   3.344   4.212
 9676SOL    HW229849   6.746   3.276   4.189
 9677SOL     OW29850   6.847   3.396   4.922
 9677SOL    HW129851   6.934   3.389   4.972
 9677SOL    HW229852   6.826   3.308   4.879
 9678SOL     OW29853   5.924   3.399   5.019
 9678SOL    HW129854   5.915   3.343   4.937
 9678SOL    HW229855   6.021   3.423   5.033
 9679SOL     OW29856   6.019   2.616   5.343
 9679SOL    HW129857   6.086   2.656   5.280
 9679SOL    HW229858   6.051   2.526   5.373
 9680SOL     OW29859   6.597   1.986   5.475
 9680SOL    HW129860   6.653   2.068   5.466
 9680SOL    HW229861   6.651   1.906   5.450
 9681SOL     OW29862   6.080   1.913   5.490
 9681SOL    HW129863   6.030   1.852   5.428
 9681SOL    HW229864   6.023   1.992   5.514
 9682SOL     OW29865   6.180   2.733   4.765
 9682SOL    HW129866   6.217   2.826   4.763
 9682SOL    HW229867   6.120   2.723   4.844
 9683SOL     OW29868   6.899   2.690   4.719
 9683SOL    HW129869   6.805   2.657   4.702
 9683SOL    HW229870   6.950   2.619   4.767
 9684SOL     OW29871   6.750   2.398   3.979
 9684SOL    HW129872   6.786   2.322   4.034
 9684SOL    HW229873   6.708   2.466   4.040
 9685SOL     OW29874   5.885   2.052   4.962
 9685SOL    HW129875   5.852   2.085   5.050
 9685SOL    HW229876   5.864   1.955   4.952
 9686SOL     OW29877   5.653   3.165   4.976
 9686SOL    HW129878   5.677   3.102   5.050
 9686SOL    HW229879   5.644   3.258   5.013
 9687SOL     OW29880   6.313   2.486   4.774
 9687SOL    HW129881   6.384   2.467   4.706
 9687SOL    HW229882   6.277   2.578   4.759
 9688SOL     OW29883   5.911   1.925   4.362
 9688SOL    HW129884   5.873   2.016   4.379
 9688SOL    HW229885   5.920   1.876   4.448
 9689SOL     OW29886   0.173   2.342   4.046
 9689SOL    HW129887   0.128   2.252   4.043
 9689SOL    HW229888   0.157   2.384   4.136
 9690SOL     OW29889   6.620   2.616   4.674
 9690SOL    HW129890   6.599   2.631   4.771
 9690SOL    HW229891   6.589   2.525   4.647
 9691SOL     OW29892   6.547   3.463   5.409
 9691SOL    HW129893   6.531   3.495   5.316
 9691SOL    HW229894   6.588   3.372   5.406
 9692SOL     OW29895   5.939   2.790   5.539
 9692SOL    HW129896   6.012   2.806   5.605
 9692SOL    HW229897   5.970   2.725   5.469
 9693SOL     OW29898   6.941   2.638   3.712
 9693SOL    HW129899   0.013   2.598   3.769
 9693SOL    HW229900   6.982   2.697   3.642
 9694SOL     OW29901   6.642   3.224   4.575
 9694SOL    HW129902   6.657   3.142   4.520
 9694SOL    HW229903   6.692   3.301   4.536
 9695SOL     OW29904   5.913   2.675   4.657
 9695SOL    HW129905   6.012   2.688   4.659
 9695SOL    HW229906   5.892   2.581   4.686
 9696SOL     OW29907   5.887   2.401   4.727
 9696SOL    HW129908   5.846   2.310   4.720
 9696SOL    HW229909   5.971   2.404   4.674
 9697SOL     OW29910   6.719   2.230   5.421
 9697SOL    HW129911   6.659   2.276   5.486
 9697SOL    HW229912   6.811   2.270   5.427
 9698SOL     OW29913   6.728   2.065   5.196
 9698SOL    HW129914   6.717   2.123   5.277
 9698SOL    HW229915   6.785   2.113   5.129
 9699SOL     OW29916   5.607   3.154   3.907
 9699SOL    HW129917   5.515   3.182   3.879
 9699SOL    HW229918   5.604   3.062   3.944
 9700SOL     OW29919   5.680   3.612   4.678
 9700SOL    HW129920   5.650   3.524   4.640
 9700SOL    HW229921   5.771   3.634   4.642
 9701SOL     OW29922   6.072   3.422   4.620
 9701SOL    HW129923   6.144   3.483   4.650
 9701SOL    HW229924   6.108   3.359   4.551
 9702SOL     OW29925   6.538   2.636   4.936
 9702SOL    HW129926   6.592   2.613   5.017
 9702SOL    HW229927   6.452   2.586   4.937
 9703SOL     OW29928   5.640   2.471   4.855
 9703SOL    HW129929   5.720   2.453   4.797
 9703SOL    HW229930   5.663   2.448   4.950
 9704SOL     OW29931   5.780   2.405   5.469
 9704SOL    HW129932   5.846   2.354   5.415
 9704SOL    HW229933   5.745   2.482   5.416
 9705SOL     OW29934   6.392   2.440   4.090
 9705SOL    HW129935   6.402   2.357   4.034
 9705SOL    HW229936   6.310   2.489   4.062
 9706SOL     OW29937   5.817   3.401   5.441
 9706SOL    HW129938   5.798   3.472   5.509
 9706SOL    HW229939   5.822   3.312   5.486
 9707SOL     OW29940   6.338   2.281   4.956
 9707SOL    HW129941   6.274   2.204   4.946
 9707SOL    HW229942   6.318   2.350   4.887
 9708SOL     OW29943   6.488   3.549   5.158
 9708SOL    HW129944   6.475   3.496   5.074
 9708SOL    HW229945   6.486   3.647   5.136
 9709SOL     OW29946   6.026   2.346   3.893
 9709SOL    HW129947   6.095   2.413   3.919
 9709SOL    HW229948   5.935   2.388   3.893
 9710SOL     OW29949   5.719   2.999   5.196
 9710SOL    HW129950   5.723   2.965   5.290
 9710SOL    HW229951   5.741   2.925   5.132
 9711SOL     OW29952   6.878   2.906   4.904
 9711SOL    HW129953   6.884   2.833   4.836
 9711SOL    HW229954   6.842   2.989   4.862
 9712SOL     OW29955   6.878   2.710   4.019
 9712SOL    HW129956   6.810   2.676   4.084
 9712SOL    HW229957   6.877   2.654   3.936
 9713SOL     OW29958   6.880   3.652   4.822
 9713SOL    HW129959   6.961   3.642   4.765
 9713SOL    HW229960   6.857   3.564   4.865
 9714SOL     OW29961   5.685   3.098   4.716
 9714SOL    HW129962   5.673   3.124   4.812
 9714SOL    HW229963   5.613   3.034   4.689
 9715SOL     OW29964   6.296   3.543   5.491
 9715SOL    HW129965   6.253   3.620   5.444
 9715SOL    HW229966   6.390   3.532   5.458
 9716SOL     OW29967   6.985   3.489   4.252
 9716SOL    HW129968   0.071   3.525   4.216
 9716SOL    HW229969   6.919   3.563   4.263
 9717SOL     OW29970   5.733   3.642   5.570
 9717SOL    HW129971   5.678   3.571   5.614
 9717SOL    HW229972   5.784   3.693   5.639
 9718SOL     OW29973   6.893   2.822   4.391
 9718SOL    HW129974   6.967   2.766   4.427
 9718SOL    HW229975   6.931   2.901   4.343
 9719SOL     OW29976   6.343   3.138   5.138
 9719SOL    HW129977   6.320   3.192   5.218
 9719SOL    HW229978   6.269   3.145   5.071
 9720SOL     OW29979   6.254   3.497   3.891
 9720SOL    HW129980   6.270   3.518   3.795
 9720SOL    HW229981   6.202   3.412   3.899
 9721SOL     OW29982   5.823   2.171   4.435
 9721SOL    HW129983   5.735   2.209   4.406
 9721SOL    HW229984   5.829   2.169   4.534
 9722SOL     OW29985   6.744   3.436   3.749
 9722SOL    HW129986   6.752   3.342   3.717
 9722SOL    HW229987   6.683   3.487   3.689
 9723SOL     OW29988   6.416   2.874   5.122
 9723SOL    HW129989   6.465   2.861   5.036
 9723SOL    HW229990   6.391   2.971   5.131
 9724SOL     OW29991   6.531   2.773   3.953
 9724SOL    HW129992   6.607   2.820   3.908
 9724SOL    HW229993   6.567   2.708   4.020
 9725SOL     OW29994   5.945   3.170   5.210
 9725SOL    HW129995   5.939   3.249   5.149
 9725SOL    HW229996   5.865   3.112   5.196
 9726SOL     OW29997   6.671   2.983   4.458
 9726SOL    HW129998   6.593   2.929   4.491
 9726SOL    HW229999   6.746   2.921   4.433
 9727SOL     OW30000   6.592   2.109   4.675
 9727SOL    HW130001   6.580   2.067   4.585
 9727SOL    HW230002   6.596   2.037   4.745
 9728SOL     OW30003   6.191   3.346   4.187
 9728SOL    HW130004   6.253   3.291   4.132
 9728SOL    HW230005   6.107   3.362   4.136
 9729SOL     OW30006   5.858   3.206   4.023
 9729SOL    HW130007   5.767   3.194   3.981
 9729SOL    HW230008   5.849   3.261   4.106
 9730SOL     OW30009   5.707   2.910   5.456
 9730SOL    HW130010   5.625   2.885   5.507
 9730SOL    HW230011   5.786   2.860   5.493
 9731SOL     OW30012   6.278   2.056   5.220
 9731SOL    HW130013   6.360   2.031   5.169
 9731SOL    HW230014   6.303   2.085   5.312
 9732SOL     OW30015   5.654   2.178   3.715
 9732SOL    HW130016   5.572   2.161   3.660
 9732SOL    HW230017   5.690   2.269   3.692
 9733SOL     OW30018   5.626   2.011   3.956
 9733SOL    HW130019   5.611   2.078   3.884
 9733SOL    HW230020   5.719   1.975   3.950
 9734SOL     OW30021   6.222   2.687   5.169
 9734SOL    HW130022   6.284   2.765   5.158
 9734SOL    HW230023   6.275   2.602   5.169
 9735SOL     OW30024   6.317   2.396   5.425
 9735SOL    HW130025   6.359   2.458   5.490
 9735SOL    HW230026   6.332   2.301   5.454
 9736SOL     OW30027   6.956   3.101   5.357
 9736SOL    HW130028   6.967   3.058   5.447
 9736SOL    HW230029   0.038   3.085   5.302
 9737SOL     OW30030   5.934   3.619   5.304
 9737SOL    HW130031   5.849   3.670   5.293
 9737SOL    HW230032   5.915   3.528   5.339
 9738SOL     OW30033   6.834   2.191   4.148
 9738SOL    HW130034   6.908   2.143   4.101
 9738SOL    HW230035   6.865   2.222   4.237
 9739SOL     OW30036   6.155   2.595   4.400
 9739SOL    HW130037   6.206   2.680   4.383
 9739SOL    HW230038   6.089   2.580   4.327
 9740SOL     OW30039   6.400   3.220   3.790
 9740SOL    HW130040   6.393   3.216   3.890
 9740SOL    HW230041   6.433   3.310   3.763
 9741SOL     OW30042   6.258   3.613   4.666
 9741SOL    HW130043   6.231   3.709   4.660
 9741SOL    HW230044   6.357   3.606   4.669
 9742SOL     OW30045   6.460   2.842   4.582
 9742SOL    HW130046   6.511   2.763   4.615
 9742SOL    HW230047   6.410   2.883   4.658
 9743SOL     OW30048   6.733   2.864   3.766
 9743SOL    HW130049   6.667   2.910   3.706
 9743SOL    HW230050   6.755   2.774   3.729
 9744SOL     OW30051   5.793   3.150   5.561
 9744SOL    HW130052   5.765   3.067   5.512
 9744SOL    HW230053   5.733   3.163   5.640
 9745SOL     OW30054   5.712   3.124   4.414
 9745SOL    HW130055   5.734   3.083   4.503
 9745SOL    HW230056   5.764   3.077   4.342
 9746SOL     OW30057   6.261   3.288   5.353
 9746SOL    HW130058   6.186   3.240   5.396
 9746SOL    HW230059   6.272   3.379   5.395
 9747SOL     OW30060   5.999   2.276   4.240
 9747SOL    HW130061   6.034   2.204   4.179
 9747SOL    HW230062   5.943   2.234   4.311
 9748SOL     OW30063   5.947   2.417   5.006
 9748SOL    HW130064   5.999   2.351   5.059
 9748SOL    HW230065   5.947   2.391   4.910
 9749SOL     OW30066   6.404   3.448   4.402
 9749SOL    HW130067   6.368   3.513   4.336
 9749SOL    HW230068   6.337   3.377   4.420
 9750SOL     OW30069   6.958   2.060   4.822
 9750SOL    HW130070   6.932   1.964   4.833
 9750SOL    HW230071   6.933   2.111   4.904
 9751SOL     OW30072   6.613   1.877   4.831
 9751SOL    HW130073   6.568   1.806   4.778
 9751SOL    HW230074   6.711   1.856   4.838
 9752SOL     OW30075   6.379   3.186   4.062
 9752SOL    HW130076   6.361   3.089   4.075
 9752SOL    HW230077   6.460   3.212   4.115
 9753SOL     OW30078   6.194   3.451   5.008
 9753SOL    HW130079   6.186   3.540   5.054
 9753SOL    HW230080   6.287   3.438   4.974
 9754SOL     OW30081   6.914   1.945   3.848
 9754SOL    HW130082   6.971   1.880   3.798
 9754SOL    HW230083   6.834   1.898   3.885
 9755SOL     OW30084   5.626   2.900   4.026
 9755SOL    HW130085   5.725   2.894   4.011
 9755SOL    HW230086   5.589   2.809   4.044
 9756SOL     OW30087   6.474   3.557   4.059
 9756SOL    HW130088   6.394   3.531   4.005
 9756SOL    HW230089   6.449   3.629   4.123
 9757SOL     OW30090   5.788   2.481   5.736
 9757SOL    HW130091   5.696   2.463   5.772
 9757SOL    HW230092   5.786   2.471   5.636
 9758SOL     OW30093   5.796   2.166   6.571
 9758SOL    HW130094   5.837   2.132   6.655
 9758SOL    HW230095   5.705   2.128   6.559
 9759SOL     OW30096   5.565   2.280   6.223
 9759SOL    HW130097   5.481   2.305   6.271
 9759SOL    HW230098   5.548   2.203   6.162
 9760SOL     OW30099   6.136   3.116   6.774
 9760SOL    HW130100   6.061   3.148   6.716
 9760SOL    HW230101   6.137   3.169   6.859
 9761SOL     OW30102   0.046   3.405   6.350
 9761SOL    HW130103   0.092   3.316   6.347
 9761SOL    HW230104   0.028   3.437   6.257
 9762SOL     OW30105   6.694   2.633   6.259
 9762SOL    HW130106   6.771   2.698   6.256
 9762SOL    HW230107   6.667   2.618   6.354
 9763SOL     OW30108   6.314   2.976   6.627
 9763SOL    HW130109   6.246   3.007   6.693
 9763SOL    HW230110   6.353   3.054   6.579
 9764SOL     OW30111   6.283   2.843   6.223
 9764SOL    HW130112   6.352   2.838   6.295
 9764SOL    HW230113   6.208   2.904   6.252
 9765SOL     OW30114   5.925   3.236   6.636
 9765SOL    HW130115   5.837   3.199   6.605
 9765SOL    HW230116   5.958   3.303   6.570
 9766SOL     OW30117   5.807   3.597   6.059
 9766SOL    HW130118   5.830   3.670   6.124
 9766SOL    HW230119   5.883   3.585   5.995
 9767SOL     OW30120   5.826   3.326   6.124
 9767SOL    HW130121   5.804   3.423   6.129
 9767SOL    HW230122   5.782   3.278   6.201
 9768SOL     OW30123   5.875   2.947   6.472
 9768SOL    HW130124   5.889   2.852   6.500
 9768SOL    HW230125   5.818   2.993   6.540
 9769SOL     OW30126   6.177   3.726   6.947
 9769SOL    HW130127   6.102   3.679   6.993
 9769SOL    HW230128   6.226   3.783   0.013
 9770SOL     OW30129   6.150   2.846   5.746
 9770SOL    HW130130   6.194   2.890   5.668
 9770SOL    HW230131   6.198   2.872   5.830
 9771SOL     OW30132   0.209   2.052   0.086
 9771SOL    HW130133   0.166   2.138   0.058
 9771SOL    HW230134   0.146   2.000   0.143
 9772SOL     OW30135   5.691   2.532   6.161
 9772SOL    HW130136   5.655   2.440   6.179
 9772SOL    HW230137   5.697   2.583   6.247
 9773SOL     OW30138   5.624   3.436   5.702
 9773SOL    HW130139   5.602   3.340   5.719
 9773SOL    HW230140   5.604   3.490   5.784
 9774SOL     OW30141   6.201   3.249   6.304
 9774SOL    HW130142   6.158   3.159   6.312
 9774SOL    HW230143   6.187   3.285   6.212
 9775SOL     OW30144   6.804   3.060   0.008
 9775SOL    HW130145   6.861   3.011   6.942
 9775SOL    HW230146   6.862   3.100   0.079
 9776SOL     OW30147   6.412   1.900   6.089
 9776SOL    HW130148   6.458   1.985   6.063
 9776SOL    HW230149   6.313   1.917   6.096
 9777SOL     OW30150   5.738   2.833   6.856
 9777SOL    HW130151   5.822   2.790   6.822
 9777SOL    HW230152   5.658   2.783   6.823
 9778SOL     OW30153   6.161   2.570   5.861
 9778SOL    HW130154   6.162   2.659   5.817
 9778SOL    HW230155   6.091   2.569   5.933
 9779SOL     OW30156   6.859   2.194   6.475
 9779SOL    HW130157   6.761   2.178   6.477
 9779SOL    HW230158   6.903   2.143   6.548
 9780SOL     OW30159   6.458   2.466   0.005
 9780SOL    HW130160   6.397   2.521   0.063
 9780SOL    HW230161   6.403   2.407   6.947
 9781SOL     OW30162   6.586   2.238   6.760
 9781SOL    HW130163   6.494   2.253   6.796
 9781SOL    HW230164   6.580   2.186   6.675
 9782SOL     OW30165   6.624   2.585   6.000
 9782SOL    HW130166   6.645   2.599   6.097
 9782SOL    HW230167   6.538   2.535   5.992
 9783SOL     OW30168   5.692   2.688   6.384
 9783SOL    HW130169   5.782   2.684   6.428
 9783SOL    HW230170   5.637   2.760   6.427
 9784SOL     OW30171   5.697   3.709   0.091
 9784SOL    HW130172   5.652   3.620   0.100
 9784SOL    HW230173   5.731   3.721   6.998
 9785SOL     OW30174   6.438   2.214   5.789
 9785SOL    HW130175   6.493   2.262   5.721
 9785SOL    HW230176   6.384   2.143   5.744
 9786SOL     OW30177   6.992   3.031   6.115
 9786SOL    HW130178   0.019   2.988   6.029
 9786SOL    HW230179   6.928   3.105   6.097
 9787SOL     OW30180   6.143   2.005   6.519
 9787SOL    HW130181   6.150   2.038   6.613
 9787SOL    HW230182   6.143   2.084   6.457
 9788SOL     OW30183   6.576   3.337   6.055
 9788SOL    HW130184   6.553   3.411   5.992
 9788SOL    HW230185   6.534   3.356   6.145
 9789SOL     OW30186   5.937   3.672   6.473
 9789SOL    HW130187   5.975   3.579   6.476
 9789SOL    HW230188   6.007   3.737   6.502
 9790SOL     OW30189   5.888   2.807   5.859
 9790SOL    HW130190   5.974   2.831   5.815
 9790SOL    HW230191   5.862   2.713   5.835
 9791SOL     OW30192   6.718   3.632   5.817
 9791SOL    HW130193   6.627   3.616   5.855
 9791SOL    HW230194   6.740   3.560   5.750
 9792SOL     OW30195   6.043   3.611   5.906
 9792SOL    HW130196   6.089   3.666   5.977
 9792SOL    HW230197   6.112   3.565   5.850
 9793SOL     OW30198   5.825   3.679   6.846
 9793SOL    HW130199   5.894   3.638   6.907
 9793SOL    HW230200   5.778   3.607   6.795
 9794SOL     OW30201   6.529   3.555   6.466
 9794SOL    HW130202   6.622   3.519   6.470
 9794SOL    HW230203   6.478   3.506   6.395
 9795SOL     OW30204   5.967   2.541   6.060
 9795SOL    HW130205   5.983   2.443   6.071
 9795SOL    HW230206   5.872   2.561   6.082
 9796SOL     OW30207   6.249   1.970   5.695
 9796SOL    HW130208   6.300   1.890   5.728
 9796SOL    HW230209   6.184   1.941   5.625
 9797SOL     OW30210   6.408   3.327   6.772
 9797SOL    HW130211   6.401   3.294   6.677
 9797SOL    HW230212   6.394   3.250   6.835
 9798SOL     OW30213   6.392   3.215   6.518
 9798SOL    HW130214   6.486   3.221   6.483
 9798SOL    HW230215   6.328   3.230   6.443
 9799SOL     OW30216   6.516   2.388   6.465
 9799SOL    HW130217   6.493   2.381   6.368
 9799SOL    HW230218   6.545   2.299   6.499
 9800SOL     OW30219   6.141   1.935   6.083
 9800SOL    HW130220   6.062   1.932   6.145
 9800SOL    HW230221   6.129   2.009   6.017
 9801SOL     OW30222   6.983   2.972   5.604
 9801SOL    HW130223   0.026   2.955   5.692
 9801SOL    HW230224   6.886   2.946   5.608
 9802SOL     OW30225   5.870   1.909   5.768
 9802SOL    HW130226   5.918   1.984   5.724
 9802SOL    HW230227   5.935   1.851   5.816
 9803SOL     OW30228   6.557   2.125   6.021
 9803SOL    HW130229   6.517   2.158   5.936
 9803SOL    HW230230   6.656   2.142   6.020
 9804SOL     OW30231   6.773   3.453   6.358
 9804SOL    HW130232   6.767   3.518   6.282
 9804SOL    HW230233   6.869   3.432   6.377
 9805SOL     OW30234   6.067   3.010   6.287
 9805SOL    HW130235   6.006   2.988   6.363
 9805SOL    HW230236   6.016   3.007   6.201
 9806SOL     OW30237   6.776   3.659   6.149
 9806SOL    HW130238   6.756   3.682   6.054
 9806SOL    HW230239   6.722   3.717   6.210
 9807SOL     OW30240   6.592   2.370   5.620
 9807SOL    HW130241   6.551   2.458   5.600
 9807SOL    HW230242   6.659   2.381   5.695
 9808SOL     OW30243   6.148   2.083   6.784
 9808SOL    HW130244   6.174   2.000   6.833
 9808SOL    HW230245   6.050   2.099   6.795
 9809SOL     OW30246   6.465   2.324   6.203
 9809SOL    HW130247   6.416   2.383   6.139
 9809SOL    HW230248   6.500   2.244   6.154
 9810SOL     OW30249   6.579   1.916   6.309
 9810SOL    HW130250   6.512   1.909   6.235
 9810SOL    HW230251   6.562   1.843   6.375
 9811SOL     OW30252   6.080   3.284   5.754
 9811SOL    HW130253   5.995   3.256   5.798
 9811SOL    HW230254   6.094   3.230   5.671
 9812SOL     OW30255   6.109   2.119   5.886
 9812SOL    HW130256   6.161   2.068   5.817
 9812SOL    HW230257   6.076   2.204   5.846
 9813SOL     OW30258   0.252   3.447   0.172
 9813SOL    HW130259   0.289   3.533   0.136
 9813SOL    HW230260   0.327   3.384   0.191
 9814SOL     OW30261   6.746   3.121   6.685
 9814SOL    HW130262   6.673   3.106   6.751
 9814SOL    HW230263   6.708   3.152   6.598
 9815SOL     OW30264   6.326   2.911   5.954
 9815SOL    HW130265   6.314   2.881   6.048
 9815SOL    HW230266   6.400   2.860   5.911
 9816SOL     OW30267   6.010   2.710   6.858
 9816SOL    HW130268   6.045   2.749   6.943
 9816SOL    HW230269   5.975   2.618   6.874
 9817SOL     OW30270   6.841   2.286   6.842
 9817SOL    HW130271   6.823   2.366   6.901
 9817SOL    HW230272   6.756   2.259   6.797
 9818SOL     OW30273   5.691   3.405   6.892
 9818SOL    HW130274   5.657   3.430   6.983
 9818SOL    HW230275   5.790   3.387   6.898
 9819SOL     OW30276   5.904   3.000   6.062
 9819SOL    HW130277   5.898   3.078   6.000
 9819SOL    HW230278   5.900   2.915   6.010
 9820SOL     OW30279   6.132   2.391   6.445
 9820SOL    HW130280   6.143   2.451   6.366
 9820SOL    HW230281   6.203   2.410   6.512
 9821SOL     OW30282   6.843   3.257   6.043
 9821SOL    HW130283   6.892   3.341   6.068
 9821SOL    HW230284   6.745   3.273   6.048
 9822SOL     OW30285   6.838   3.384   6.776
 9822SOL    HW130286   6.933   3.376   6.809
 9822SOL    HW230287   6.807   3.295   6.743
 9823SOL     OW30288   5.954   3.341   6.881
 9823SOL    HW130289   5.933   3.294   6.796
 9823SOL    HW230290   6.036   3.397   6.869
 9824SOL     OW30291   6.184   2.727   6.641
 9824SOL    HW130292   6.231   2.815   6.633
 9824SOL    HW230293   6.124   2.728   6.722
 9825SOL     OW30294   6.905   2.679   6.585
 9825SOL    HW130295   6.808   2.663   6.568
 9825SOL    HW230296   6.945   2.599   6.629
 9826SOL     OW30297   6.749   2.399   5.840
 9826SOL    HW130298   6.784   2.323   5.894
 9826SOL    HW230299   6.708   2.467   5.901
 9827SOL     OW30300   5.876   2.085   6.819
 9827SOL    HW130301   5.814   2.131   6.883
 9827SOL    HW230302   5.861   1.986   6.823
 9828SOL     OW30303   5.598   3.149   6.875
 9828SOL    HW130304   5.656   3.098   6.939
 9828SOL    HW230305   5.626   3.245   6.873
 9829SOL     OW30306   6.311   2.478   6.635
 9829SOL    HW130307   6.387   2.467   6.571
 9829SOL    HW230308   6.277   2.572   6.630
 9830SOL     OW30309   5.907   1.927   6.229
 9830SOL    HW130310   5.867   2.018   6.243
 9830SOL    HW230311   5.914   1.880   6.316
 9831SOL     OW30312   0.173   2.342   5.907
 9831SOL    HW130313   0.129   2.252   5.904
 9831SOL    HW230314   0.158   2.384   5.997
 9832SOL     OW30315   6.625   2.625   6.553
 9832SOL    HW130316   6.602   2.643   6.649
 9832SOL    HW230317   6.592   2.534   6.528
 9833SOL     OW30318   6.941   2.637   5.575
 9833SOL    HW130319   0.014   2.597   5.631
 9833SOL    HW230320   6.981   2.697   5.505
 9834SOL     OW30321   6.652   3.217   6.443
 9834SOL    HW130322   6.667   3.136   6.386
 9834SOL    HW230323   6.698   3.296   6.401
 9835SOL     OW30324   5.927   2.678   6.532
 9835SOL    HW130325   6.024   2.700   6.546
 9835SOL    HW230326   5.911   2.583   6.559
 9836SOL     OW30327   5.915   2.406   6.602
 9836SOL    HW130328   5.864   2.320   6.591
 9836SOL    HW230329   5.997   2.404   6.544
 9837SOL     OW30330   6.775   2.154   0.084
 9837SOL    HW130331   6.789   2.226   0.152
 9837SOL    HW230332   6.805   2.186   6.994
 9838SOL     OW30333   5.602   3.153   5.766
 9838SOL    HW130334   5.510   3.178   5.737
 9838SOL    HW230335   5.601   3.060   5.802
 9839SOL     OW30336   5.669   3.646   6.541
 9839SOL    HW130337   5.632   3.567   6.492
 9839SOL    HW230338   5.766   3.656   6.519
 9840SOL     OW30339   6.065   3.423   6.479
 9840SOL    HW130340   6.137   3.484   6.512
 9840SOL    HW230341   6.103   3.359   6.413
 9841SOL     OW30342   6.555   2.670   6.819
 9841SOL    HW130343   6.590   2.738   6.883
 9841SOL    HW230344   6.514   2.594   6.870
 9842SOL     OW30345   5.651   2.475   6.716
 9842SOL    HW130346   5.702   2.462   6.631
 9842SOL    HW230347   5.712   2.464   6.794
 9843SOL     OW30348   6.394   2.443   5.950
 9843SOL    HW130349   6.402   2.359   5.895
 9843SOL    HW230350   6.310   2.491   5.924
 9844SOL     OW30351   6.321   2.297   6.836
 9844SOL    HW130352   6.259   2.220   6.823
 9844SOL    HW230353   6.308   2.363   6.762
 9845SOL     OW30354   6.475   3.463   0.005
 9845SOL    HW130355   6.457   3.442   6.909
 9845SOL    HW230356   6.572   3.481   0.018
 9846SOL     OW30357   6.025   2.347   5.755
 9846SOL    HW130358   6.094   2.414   5.781
 9846SOL    HW230359   5.934   2.389   5.758
 9847SOL     OW30360   5.740   2.982   0.081
 9847SOL    HW130361   5.792   2.928   0.147
 9847SOL    HW230362   5.737   2.933   6.993
 9848SOL     OW30363   6.872   2.875   6.785
 9848SOL    HW130364   6.893   2.811   6.711
 9848SOL    HW230365   6.846   2.964   6.746
 9849SOL     OW30366   6.877   2.708   5.880
 9849SOL    HW130367   6.808   2.674   5.944
 9849SOL    HW230368   6.876   2.652   5.797
 9850SOL     OW30369   6.887   3.644   6.679
 9850SOL    HW130370   6.965   3.635   6.617
 9850SOL    HW230371   6.863   3.554   6.716
 9851SOL     OW30372   5.683   3.090   6.610
 9851SOL    HW130373   5.648   3.104   6.702
 9851SOL    HW230374   5.621   3.031   6.559
 9852SOL     OW30375   6.985   3.486   6.100
 9852SOL    HW130376   0.071   3.525   6.066
 9852SOL    HW230377   6.917   3.559   6.110
 9853SOL     OW30378   6.898   2.817   6.257
 9853SOL    HW130379   6.974   2.763   6.292
 9853SOL    HW230380   6.933   2.895   6.205
 9854SOL     OW30381   6.248   3.498   5.754
 9854SOL    HW130382   6.265   3.518   5.657
 9854SOL    HW230383   6.194   3.414   5.763
 9855SOL     OW30384   5.815   2.177   6.291
 9855SOL    HW130385   5.728   2.218   6.264
 9855SOL    HW230386   5.823   2.178   6.391
 9856SOL     OW30387   6.744   3.438   5.612
 9856SOL    HW130388   6.750   3.343   5.579
 9856SOL    HW230389   6.684   3.490   5.553
 9857SOL     OW30390   6.318   2.906   6.975
 9857SOL    HW130391   6.389   2.861   6.921
 9857SOL    HW230392   6.339   3.003   6.985
 9858SOL     OW30393   6.531   2.774   5.817
 9858SOL    HW130394   6.607   2.820   5.771
 9858SOL    HW230395   6.567   2.709   5.884
 9859SOL     OW30396   6.677   2.977   6.322
 9859SOL    HW130397   6.598   2.923   6.352
 9859SOL    HW230398   6.751   2.915   6.295
 9860SOL     OW30399   6.596   2.109   6.513
 9860SOL    HW130400   6.578   2.071   6.422
 9860SOL    HW230401   6.612   2.035   6.577
 9861SOL     OW30402   6.185   3.343   6.051
 9861SOL    HW130403   6.247   3.289   5.993
 9861SOL    HW230404   6.099   3.358   6.003
 9862SOL     OW30405   5.850   3.210   5.886
 9862SOL    HW130406   5.760   3.196   5.846
 9862SOL    HW230407   5.841   3.260   5.972
 9863SOL     OW30408   6.293   2.035   0.123
 9863SOL    HW130409   6.384   1.995   0.135
 9863SOL    HW230410   6.302   2.134   0.111
 9864SOL     OW30411   5.664   2.179   5.584
 9864SOL    HW130412   5.585   2.160   5.527
 9864SOL    HW230413   5.697   2.272   5.564
 9865SOL     OW30414   5.626   2.013   5.830
 9865SOL    HW130415   5.609   2.080   5.758
 9865SOL    HW230416   5.719   1.976   5.819
 9866SOL     OW30417   5.969   3.601   0.073
 9866SOL    HW130418   5.897   3.640   0.130
 9866SOL    HW230419   5.994   3.511   0.110
 9867SOL     OW30420   6.832   2.193   6.010
 9867SOL    HW130421   6.907   2.145   5.965
 9867SOL    HW230422   6.862   2.226   6.099
 9868SOL     OW30423   6.164   2.587   6.252
 9868SOL    HW130424   6.211   2.674   6.239
 9868SOL    HW230425   6.092   2.576   6.183
 9869SOL     OW30426   6.399   3.220   5.652
 9869SOL    HW130427   6.390   3.215   5.751
 9869SOL    HW230428   6.427   3.312   5.625
 9870SOL     OW30429   6.258   3.610   6.527
 9870SOL    HW130430   6.231   3.707   6.522
 9870SOL    HW230431   6.357   3.602   6.521
 9871SOL     OW30432   6.466   2.834   6.439
 9871SOL    HW130433   6.519   2.758   6.477
 9871SOL    HW230434   6.411   2.876   6.512
 9872SOL     OW30435   6.732   2.865   5.629
 9872SOL    HW130436   6.666   2.911   5.569
 9872SOL    HW230437   6.752   2.774   5.592
 9873SOL     OW30438   5.729   3.090   6.264
 9873SOL    HW130439   5.760   3.044   6.347
 9873SOL    HW230440   5.780   3.056   6.186
 9874SOL     OW30441   5.995   2.277   6.099
 9874SOL    HW130442   6.032   2.205   6.041
 9874SOL    HW230443   5.938   2.237   6.171
 9875SOL     OW30444   5.902   2.453   6.880
 9875SOL    HW130445   5.941   2.380   6.936
 9875SOL    HW230446   5.917   2.432   6.783
 9876SOL     OW30447   6.402   3.438   6.256
 9876SOL    HW130448   6.361   3.501   6.190
 9876SOL    HW230449   6.335   3.367   6.280
 9877SOL     OW30450   6.959   2.058   6.690
 9877SOL    HW130451   6.936   1.961   6.698
 9877SOL    HW230452   6.922   2.109   6.767
 9878SOL     OW30453   6.639   1.898   6.672
 9878SOL    HW130454   6.572   1.823   6.670
 9878SOL    HW230455   6.731   1.860   6.679
 9879SOL     OW30456   6.375   3.186   5.923
 9879SOL    HW130457   6.357   3.088   5.936
 9879SOL    HW230458   6.457   3.212   5.974
 9880SOL     OW30459   6.181   3.471   6.841
 9880SOL    HW130460   6.198   3.567   6.863
 9880SOL    HW230461   6.264   3.431   6.801
 9881SOL     OW30462   6.914   1.946   5.712
 9881SOL    HW130463   6.971   1.881   5.662
 9881SOL    HW230464   6.834   1.898   5.750
 9882SOL     OW30465   5.621   2.896   5.887
 9882SOL    HW130466   5.719   2.885   5.872
 9882SOL    HW230467   5.580   2.806   5.905
 9883SOL     OW30468   6.470   3.557   5.916
 9883SOL    HW130469   6.390   3.530   5.864
 9883SOL    HW230470   6.446   3.630   5.980
 9884SOL     OW30471   5.795   4.398   0.136
 9884SOL    HW130472   5.705   4.359   0.158
 9884SOL    HW230473   5.813   4.386   0.038
 9885SOL     OW30474   5.802   4.012   0.995
 9885SOL    HW130475   5.840   3.977   1.080
 9885SOL    HW230476   5.713   3.970   0.977
 9886SOL     OW30477   5.570   4.140   0.647
 9886SOL    HW130478   5.492   4.175   0.699
 9886SOL    HW230479   5.544   4.057   0.598
 9887SOL     OW30480   6.152   5.043   1.214
 9887SOL    HW130481   6.068   5.041   1.160
 9887SOL    HW230482   6.173   5.138   1.239
 9888SOL     OW30483   0.044   5.276   0.775
 9888SOL    HW130484   0.078   5.182   0.777
 9888SOL    HW230485   0.024   5.302   0.680
 9889SOL     OW30486   6.703   4.495   0.670
 9889SOL    HW130487   6.774   4.565   0.666
 9889SOL    HW230488   6.672   4.484   0.764
 9890SOL     OW30489   6.303   4.856   1.059
 9890SOL    HW130490   6.243   4.891   1.130
 9890SOL    HW230491   6.347   4.932   1.011
 9891SOL     OW30492   6.470   4.471   1.842
 9891SOL    HW130493   6.462   4.531   1.922
 9891SOL    HW230494   6.484   4.526   1.760
 9892SOL     OW30495   6.283   4.697   0.655
 9892SOL    HW130496   6.356   4.697   0.724
 9892SOL    HW230497   6.212   4.762   0.683
 9893SOL     OW30498   6.272   4.868   1.827
 9893SOL    HW130499   6.321   4.945   1.869
 9893SOL    HW230500   6.193   4.901   1.777
 9894SOL     OW30501   5.922   5.116   1.064
 9894SOL    HW130502   5.841   5.074   1.024
 9894SOL    HW230503   5.967   5.175   0.997
 9895SOL     OW30504   6.055   4.093   1.451
 9895SOL    HW130505   6.135   4.034   1.465
 9895SOL    HW230506   5.972   4.044   1.480
 9896SOL     OW30507   5.820   5.429   0.493
 9896SOL    HW130508   5.835   5.510   0.550
 9896SOL    HW230509   5.904   5.407   0.443
 9897SOL     OW30510   6.713   5.087   1.688
 9897SOL    HW130511   6.803   5.051   1.665
 9897SOL    HW230512   6.649   5.012   1.702
 9898SOL     OW30513   5.751   5.153   0.480
 9898SOL    HW130514   5.769   5.245   0.514
 9898SOL    HW230515   5.736   5.091   0.557
 9899SOL     OW30516   5.858   4.816   0.860
 9899SOL    HW130517   5.869   4.723   0.895
 9899SOL    HW230518   5.802   4.870   0.922
 9900SOL     OW30519   6.143   5.554   1.409
 9900SOL    HW130520   6.067   5.525   1.467
 9900SOL    HW230521   6.189   5.632   1.452
 9901SOL     OW30522   6.152   4.683   0.175
 9901SOL    HW130523   6.205   4.709   0.095
 9901SOL    HW230524   6.193   4.723   0.257
 9902SOL     OW30525   5.694   4.389   0.553
 9902SOL    HW130526   5.658   4.299   0.578
 9902SOL    HW230527   5.691   4.449   0.633
 9903SOL     OW30528   5.589   5.322   0.139
 9903SOL    HW130529   5.517   5.253   0.133
 9903SOL    HW230530   5.593   5.358   0.232
 9904SOL     OW30531   5.710   4.475   1.573
 9904SOL    HW130532   5.800   4.519   1.575
 9904SOL    HW230533   5.640   4.543   1.552
 9905SOL     OW30534   6.206   5.113   0.733
 9905SOL    HW130535   6.166   5.022   0.743
 9905SOL    HW230536   6.200   5.142   0.638
 9906SOL     OW30537   6.794   4.905   1.417
 9906SOL    HW130538   6.835   4.845   1.348
 9906SOL    HW230539   6.858   4.918   1.493
 9907SOL     OW30540   6.394   3.764   0.522
 9907SOL    HW130541   6.437   3.848   0.490
 9907SOL    HW230542   6.294   3.776   0.521
 9908SOL     OW30543   5.779   4.670   1.300
 9908SOL    HW130544   5.871   4.634   1.286
 9908SOL    HW230545   5.718   4.637   1.228
 9909SOL     OW30546   6.826   5.557   1.598
 9909SOL    HW130547   6.786   5.628   1.539
 9909SOL    HW230548   6.812   5.467   1.557
 9910SOL     OW30549   5.937   3.985   1.881
 9910SOL    HW130550   5.977   4.067   1.924
 9910SOL    HW230551   5.839   3.998   1.870
 9911SOL     OW30552   6.168   4.425   0.282
 9911SOL    HW130553   6.171   4.516   0.241
 9911SOL    HW230554   6.099   4.424   0.355
 9912SOL     OW30555   6.858   4.021   0.859
 9912SOL    HW130556   6.759   4.018   0.875
 9912SOL    HW230557   6.906   3.987   0.939
 9913SOL     OW30558   6.368   4.317   1.443
 9913SOL    HW130559   6.341   4.287   1.534
 9913SOL    HW230560   6.349   4.244   1.377
 9914SOL     OW30561   6.950   4.232   1.741
 9914SOL    HW130562   6.918   4.319   1.779
 9914SOL    HW230563   0.049   4.237   1.727
 9915SOL     OW30564   6.539   4.610   1.605
 9915SOL    HW130565   6.590   4.534   1.564
 9915SOL    HW230566   6.488   4.658   1.534
 9916SOL     OW30567   6.619   4.123   1.198
 9916SOL    HW130568   6.523   4.131   1.228
 9916SOL    HW230569   6.622   4.078   1.109
 9917SOL     OW30570   6.649   4.440   0.408
 9917SOL    HW130571   6.671   4.460   0.503
 9917SOL    HW230572   6.559   4.397   0.403
 9918SOL     OW30573   5.680   4.562   0.772
 9918SOL    HW130574   5.770   4.548   0.813
 9918SOL    HW230575   5.629   4.630   0.825
 9919SOL     OW30576   5.693   5.614   1.597
 9919SOL    HW130577   5.704   5.583   1.692
 9919SOL    HW230578   5.604   5.585   1.563
 9920SOL     OW30579   6.469   4.114   0.198
 9920SOL    HW130580   6.490   4.182   0.127
 9920SOL    HW230581   6.511   4.026   0.173
 9921SOL     OW30582   0.005   4.895   0.532
 9921SOL    HW130583   0.041   4.850   0.450
 9921SOL    HW230584   6.942   4.968   0.505
 9922SOL     OW30585   6.140   3.868   0.929
 9922SOL    HW130586   6.149   3.894   1.025
 9922SOL    HW230587   6.141   3.950   0.872
 9923SOL     OW30588   6.576   5.152   0.471
 9923SOL    HW130589   6.537   5.238   0.438
 9923SOL    HW230590   6.552   5.140   0.567
 9924SOL     OW30591   5.942   5.532   0.886
 9924SOL    HW130592   5.984   5.441   0.889
 9924SOL    HW230593   6.010   5.601   0.912
 9925SOL     OW30594   6.806   5.299   1.491
 9925SOL    HW130595   6.771   5.228   1.553
 9925SOL    HW230596   6.773   5.282   1.399
 9926SOL     OW30597   5.880   4.659   0.239
 9926SOL    HW130598   5.976   4.670   0.213
 9926SOL    HW230599   5.849   4.568   0.213
 9927SOL     OW30600   6.047   5.007   1.737
 9927SOL    HW130601   6.022   5.014   1.640
 9927SOL    HW230602   5.963   5.001   1.792
 9928SOL     OW30603   6.670   5.488   0.263
 9928SOL    HW130604   6.596   5.438   0.308
 9928SOL    HW230605   6.699   5.439   0.181
 9929SOL     OW30606   5.800   3.985   1.494
 9929SOL    HW130607   5.729   4.055   1.492
 9929SOL    HW230608   5.764   3.902   1.537
 9930SOL     OW30609   0.293   5.043   0.026
 9930SOL    HW130610   0.227   5.116   0.012
 9930SOL    HW230611   0.248   4.954   0.013
 9931SOL     OW30612   6.076   5.418   0.378
 9931SOL    HW130613   6.098   5.504   0.423
 9931SOL    HW230614   6.137   5.404   0.300
 9932SOL     OW30615   5.823   5.512   1.206
 9932SOL    HW130616   5.873   5.432   1.239
 9932SOL    HW230617   5.789   5.494   1.114
 9933SOL     OW30618   6.532   5.423   0.893
 9933SOL    HW130619   6.624   5.385   0.896
 9933SOL    HW230620   6.479   5.376   0.823
 9934SOL     OW30621   5.970   4.401   0.473
 9934SOL    HW130622   5.987   4.304   0.488
 9934SOL    HW230623   5.873   4.421   0.489
 9935SOL     OW30624   6.359   3.983   1.757
 9935SOL    HW130625   6.448   3.935   1.753
 9935SOL    HW230626   6.301   3.938   1.824
 9936SOL     OW30627   6.446   5.250   1.193
 9936SOL    HW130628   6.419   5.216   1.103
 9936SOL    HW230629   6.510   5.187   1.236
 9937SOL     OW30630   6.390   5.100   0.952
 9937SOL    HW130631   6.483   5.099   0.915
 9937SOL    HW230632   6.324   5.109   0.877
 9938SOL     OW30633   6.508   4.239   0.891
 9938SOL    HW130634   6.484   4.232   0.794
 9938SOL    HW230635   6.535   4.149   0.925
 9939SOL     OW30636   6.123   3.800   0.491
 9939SOL    HW130637   6.044   3.798   0.552
 9939SOL    HW230638   6.109   3.869   0.421
 9940SOL     OW30639   6.518   3.992   0.448
 9940SOL    HW130640   6.491   4.033   0.361
 9940SOL    HW230641   6.617   4.003   0.460
 9941SOL     OW30642   6.629   4.391   1.463
 9941SOL    HW130643   6.535   4.357   1.458
 9941SOL    HW230644   6.691   4.315   1.482
 9942SOL     OW30645   6.771   5.321   0.783
 9942SOL    HW130646   6.762   5.385   0.707
 9942SOL    HW230647   6.867   5.304   0.803
 9943SOL     OW30648   6.081   4.873   0.714
 9943SOL    HW130649   6.003   4.853   0.774
 9943SOL    HW230650   6.051   4.869   0.619
 9944SOL     OW30651   6.761   5.521   0.574
 9944SOL    HW130652   6.733   5.537   0.480
 9944SOL    HW230653   6.713   5.583   0.635
 9945SOL     OW30654   6.740   4.328   0.020
 9945SOL    HW130655   6.641   4.333   0.005
 9945SOL    HW230656   6.757   4.296   0.114
 9946SOL     OW30657   5.698   4.268   1.395
 9946SOL    HW130658   5.792   4.267   1.360
 9946SOL    HW230659   5.688   4.343   1.461
 9947SOL     OW30660   6.157   3.924   1.197
 9947SOL    HW130661   6.192   3.848   1.251
 9947SOL    HW230662   6.059   3.934   1.214
 9948SOL     OW30663   6.451   4.191   0.631
 9948SOL    HW130664   6.417   4.259   0.568
 9948SOL    HW230665   6.470   4.106   0.582
 9949SOL     OW30666   6.565   3.788   0.740
 9949SOL    HW130667   6.498   3.782   0.666
 9949SOL    HW230668   6.554   3.710   0.801
 9950SOL     OW30669   6.040   5.200   0.141
 9950SOL    HW130670   5.994   5.136   0.202
 9950SOL    HW230671   6.009   5.185   0.047
 9951SOL     OW30672   6.085   3.983   0.292
 9951SOL    HW130673   6.150   3.937   0.232
 9951SOL    HW230674   6.049   4.065   0.246
 9952SOL     OW30675   6.594   5.051   1.313
 9952SOL    HW130676   6.505   5.031   1.356
 9952SOL    HW230677   6.666   5.001   1.361
 9953SOL     OW30678   6.757   5.001   1.092
 9953SOL    HW130679   6.693   5.014   1.168
 9953SOL    HW230680   6.713   5.028   1.006
 9954SOL     OW30681   6.504   3.818   1.359
 9954SOL    HW130682   6.530   3.796   1.265
 9954SOL    HW230683   6.581   3.860   1.406
 9955SOL     OW30684   6.558   4.852   1.734
 9955SOL    HW130685   6.466   4.874   1.765
 9955SOL    HW230686   6.556   4.771   1.676
 9956SOL     OW30687   6.309   4.766   0.386
 9956SOL    HW130688   6.299   4.741   0.482
 9956SOL    HW230689   6.382   4.713   0.344
 9957SOL     OW30690   6.021   4.543   1.263
 9957SOL    HW130691   6.093   4.557   1.331
 9957SOL    HW230692   5.988   4.449   1.269
 9958SOL     OW30693   6.875   4.087   1.303
 9958SOL    HW130694   6.935   4.164   1.323
 9958SOL    HW230695   6.789   4.121   1.264
 9959SOL     OW30696   5.653   5.283   1.353
 9959SOL    HW130697   5.614   5.355   1.295
 9959SOL    HW230698   5.753   5.286   1.346
 9960SOL     OW30699   5.993   4.849   0.460
 9960SOL    HW130700   5.963   4.922   0.398
 9960SOL    HW230701   5.969   4.760   0.421
 9961SOL     OW30702   6.119   4.262   0.873
 9961SOL    HW130703   6.132   4.319   0.792
 9961SOL    HW230704   6.192   4.280   0.939
 9962SOL     OW30705   6.851   5.108   0.446
 9962SOL    HW130706   6.893   5.195   0.473
 9962SOL    HW230707   6.752   5.116   0.451
 9963SOL     OW30708   6.847   5.257   1.190
 9963SOL    HW130709   6.931   5.250   1.244
 9963SOL    HW230710   6.826   5.168   1.151
 9964SOL     OW30711   5.923   5.260   1.294
 9964SOL    HW130712   5.914   5.203   1.212
 9964SOL    HW230713   6.020   5.284   1.307
 9965SOL     OW30714   6.021   4.475   1.618
 9965SOL    HW130715   6.086   4.517   1.555
 9965SOL    HW230716   6.056   4.386   1.647
 9966SOL     OW30717   6.597   3.848   1.753
 9966SOL    HW130718   6.653   3.931   1.744
 9966SOL    HW230719   6.652   3.768   1.728
 9967SOL     OW30720   6.079   3.774   1.767
 9967SOL    HW130721   6.029   3.715   1.704
 9967SOL    HW230722   6.022   3.854   1.789
 9968SOL     OW30723   6.178   4.598   1.040
 9968SOL    HW130724   6.217   4.689   1.040
 9968SOL    HW230725   6.119   4.587   1.120
 9969SOL     OW30726   6.899   4.553   1.005
 9969SOL    HW130727   6.807   4.521   0.984
 9969SOL    HW230728   6.951   4.480   1.049
 9970SOL     OW30729   6.763   4.229   0.274
 9970SOL    HW130730   6.775   4.157   0.343
 9970SOL    HW230731   6.729   4.312   0.318
 9971SOL     OW30732   5.884   3.913   1.238
 9971SOL    HW130733   5.852   3.945   1.327
 9971SOL    HW230734   5.864   3.815   1.228
 9972SOL     OW30735   5.644   5.023   1.259
 9972SOL    HW130736   5.671   4.963   1.334
 9972SOL    HW230737   5.637   5.117   1.293
 9973SOL     OW30738   6.310   4.350   1.054
 9973SOL    HW130739   6.384   4.330   0.989
 9973SOL    HW230740   6.274   4.442   1.037
 9974SOL     OW30741   5.896   3.786   0.644
 9974SOL    HW130742   5.861   3.879   0.661
 9974SOL    HW230743   5.911   3.740   0.731
 9975SOL     OW30744   0.176   4.197   0.363
 9975SOL    HW130745   0.264   4.163   0.396
 9975SOL    HW230746   0.140   4.266   0.426
 9976SOL     OW30747   6.625   4.479   0.955
 9976SOL    HW130748   6.603   4.496   1.052
 9976SOL    HW230749   6.593   4.388   0.929
 9977SOL     OW30750   6.547   5.325   1.683
 9977SOL    HW130751   6.532   5.357   1.589
 9977SOL    HW230752   6.587   5.233   1.680
 9978SOL     OW30753   5.938   4.645   1.817
 9978SOL    HW130754   6.013   4.664   1.880
 9978SOL    HW230755   5.969   4.582   1.746
 9979SOL     OW30756   6.878   4.567   0.017
 9979SOL    HW130757   6.846   4.475   6.994
 9979SOL    HW230758   6.899   4.617   6.932
 9980SOL     OW30759   6.643   5.087   0.857
 9980SOL    HW130760   6.659   5.006   0.801
 9980SOL    HW230761   6.692   5.165   0.818
 9981SOL     OW30762   5.911   4.545   0.930
 9981SOL    HW130763   6.009   4.562   0.935
 9981SOL    HW230764   5.892   4.452   0.962
 9982SOL     OW30765   5.886   4.267   1.004
 9982SOL    HW130766   5.845   4.176   0.999
 9982SOL    HW230767   5.971   4.269   0.951
 9983SOL     OW30768   6.719   4.092   1.698
 9983SOL    HW130769   6.658   4.138   1.763
 9983SOL    HW230770   6.810   4.132   1.703
 9984SOL     OW30771   6.729   3.927   1.474
 9984SOL    HW130772   6.718   3.985   1.554
 9984SOL    HW230773   6.786   3.974   1.407
 9985SOL     OW30774   5.683   5.483   0.957
 9985SOL    HW130775   5.644   5.405   0.908
 9985SOL    HW230776   5.773   5.504   0.920
 9986SOL     OW30777   6.070   5.286   0.902
 9986SOL    HW130778   6.142   5.348   0.935
 9986SOL    HW230779   6.109   5.222   0.836
 9987SOL     OW30780   6.537   4.501   1.214
 9987SOL    HW130781   6.591   4.477   1.295
 9987SOL    HW230782   6.451   4.451   1.215
 9988SOL     OW30783   5.632   4.321   1.129
 9988SOL    HW130784   5.713   4.313   1.072
 9988SOL    HW230785   5.657   4.305   1.225
 9989SOL     OW30786   5.776   4.269   1.744
 9989SOL    HW130787   5.846   4.222   1.691
 9989SOL    HW230788   5.741   4.347   1.692
 9990SOL     OW30789   6.406   4.316   0.378
 9990SOL    HW130790   6.419   4.237   0.319
 9990SOL    HW230791   6.320   4.362   0.354
 9991SOL     OW30792   5.816   5.263   1.718
 9991SOL    HW130793   5.797   5.333   1.788
 9991SOL    HW230794   5.820   5.173   1.762
 9992SOL     OW30795   6.337   4.142   1.233
 9992SOL    HW130796   6.273   4.066   1.222
 9992SOL    HW230797   6.317   4.213   1.166
 9993SOL     OW30798   6.492   5.410   1.431
 9993SOL    HW130799   6.476   5.358   1.347
 9993SOL    HW230800   6.489   5.508   1.411
 9994SOL     OW30801   6.015   4.224   0.167
 9994SOL    HW130802   6.086   4.284   0.203
 9994SOL    HW230803   5.926   4.269   0.173
 9995SOL     OW30804   5.715   4.862   1.479
 9995SOL    HW130805   5.719   4.828   1.573
 9995SOL    HW230806   5.740   4.789   1.416
 9996SOL     OW30807   6.874   4.765   1.190
 9996SOL    HW130808   6.882   4.692   1.122
 9996SOL    HW230809   6.834   4.846   1.147
 9997SOL     OW30810   6.881   4.585   0.293
 9997SOL    HW130811   6.807   4.534   0.336
 9997SOL    HW230812   6.879   4.569   0.194
 9998SOL     OW30813   6.878   5.515   1.098
 9998SOL    HW130814   6.961   5.507   1.043
 9998SOL    HW230815   6.856   5.426   1.138
 9999SOL     OW30816   5.680   4.983   0.993
 9999SOL    HW130817   5.660   4.997   1.091
 9999SOL    HW230818   5.617   4.915   0.957
10000SOL     OW30819   6.297   5.405   1.767
10000SOL    HW130820   6.254   5.482   1.720
10000SOL    HW230821   6.391   5.394   1.733
10001SOL     OW30822   6.568   3.858   0.152
10001SOL    HW130823   6.647   3.905   0.114
10001SOL    HW230824   6.597   3.773   0.196
10002SOL     OW30825   6.972   5.350   0.522
10002SOL    HW130826   0.055   5.393   0.485
10002SOL    HW230827   6.902   5.419   0.536
10003SOL     OW30828   5.730   5.510   1.845
10003SOL    HW130829   5.676   5.437   1.888
10003SOL    HW230830   5.782   5.559   1.915
10004SOL     OW30831   6.893   4.691   0.674
10004SOL    HW130832   6.967   4.636   0.713
10004SOL    HW230833   6.931   4.764   0.618
10005SOL     OW30834   6.343   5.001   1.414
10005SOL    HW130835   6.320   5.055   1.495
10005SOL    HW230836   6.269   5.009   1.347
10006SOL     OW30837   6.270   5.346   0.192
10006SOL    HW130838   6.339   5.351   0.119
10006SOL    HW230839   6.199   5.281   0.165
10007SOL     OW30840   5.820   4.038   0.714
10007SOL    HW130841   5.734   4.083   0.690
10007SOL    HW230842   5.829   4.036   0.814
10008SOL     OW30843   6.750   5.347   0.027
10008SOL    HW130844   6.833   5.325   0.079
10008SOL    HW230845   6.763   5.318   6.932
10009SOL     OW30846   6.415   4.737   1.398
10009SOL    HW130847   6.464   4.724   1.311
10009SOL    HW230848   6.390   4.834   1.407
10010SOL     OW30849   6.500   4.626   0.259
10010SOL    HW130850   6.546   4.658   0.176
10010SOL    HW230851   6.563   4.569   0.312
10011SOL     OW30852   5.942   5.035   1.489
10011SOL    HW130853   5.936   5.113   1.426
10011SOL    HW230854   5.861   4.977   1.477
10012SOL     OW30855   6.671   4.849   0.735
10012SOL    HW130856   6.595   4.794   0.770
10012SOL    HW230857   6.747   4.789   0.710
10013SOL     OW30858   6.594   3.970   0.952
10013SOL    HW130859   6.575   3.928   0.864
10013SOL    HW230860   6.599   3.898   1.022
10014SOL     OW30861   6.205   5.190   0.478
10014SOL    HW130862   6.246   5.136   0.405
10014SOL    HW230863   6.146   5.261   0.439
10015SOL     OW30864   5.876   5.027   0.278
10015SOL    HW130865   5.811   4.986   0.214
10015SOL    HW230866   5.827   5.076   0.350
10016SOL     OW30867   5.706   4.769   1.738
10016SOL    HW130868   5.623   4.743   1.788
10016SOL    HW230869   5.784   4.718   1.774
10017SOL     OW30870   6.277   3.917   1.497
10017SOL    HW130871   6.359   3.892   1.446
10017SOL    HW230872   6.303   3.947   1.589
10018SOL     OW30873   5.676   4.054   6.976
10018SOL    HW130874   5.613   3.992   6.932
10018SOL    HW230875   5.625   4.129   0.020
10019SOL     OW30876   5.618   3.872   0.291
10019SOL    HW130877   5.642   3.968   0.279
10019SOL    HW230878   5.651   3.819   0.213
10020SOL     OW30879   6.222   4.550   1.444
10020SOL    HW130880   6.284   4.628   1.434
10020SOL    HW230881   6.275   4.465   1.444
10021SOL     OW30882   6.316   4.258   1.701
10021SOL    HW130883   6.359   4.321   1.765
10021SOL    HW230884   6.332   4.164   1.731
10022SOL     OW30885   6.958   4.964   1.637
10022SOL    HW130886   6.968   4.919   1.726
10022SOL    HW230887   0.040   4.948   1.582
10023SOL     OW30888   5.939   5.479   1.582
10023SOL    HW130889   5.855   5.531   1.568
10023SOL    HW230890   5.917   5.388   1.616
10024SOL     OW30891   6.782   4.049   0.480
10024SOL    HW130892   6.868   4.004   0.453
10024SOL    HW230893   6.795   4.097   0.567
10025SOL     OW30894   6.156   4.449   0.677
10025SOL    HW130895   6.206   4.535   0.666
10025SOL    HW230896   6.089   4.440   0.603
10026SOL     OW30897   6.389   5.056   0.035
10026SOL    HW130898   6.373   5.032   0.130
10026SOL    HW230899   6.427   5.148   0.029
10027SOL     OW30900   6.257   5.475   0.953
10027SOL    HW130901   6.231   5.571   0.940
10027SOL    HW230902   6.356   5.466   0.947
10028SOL     OW30903   6.469   4.704   0.866
10028SOL    HW130904   6.521   4.625   0.899
10028SOL    HW230905   6.417   4.744   0.941
10029SOL     OW30906   6.641   4.699   0.031
10029SOL    HW130907   6.664   4.796   0.028
10029SOL    HW230908   6.725   4.645   0.035
10030SOL     OW30909   5.790   5.011   1.837
10030SOL    HW130910   5.763   4.927   1.790
10030SOL    HW230911   5.729   5.027   1.914
10031SOL     OW30912   5.702   4.929   0.645
10031SOL    HW130913   5.759   4.889   0.716
10031SOL    HW230914   5.702   4.869   0.565
10032SOL     OW30915   6.262   5.150   1.631
10032SOL    HW130916   6.185   5.103   1.674
10032SOL    HW230917   6.273   5.241   1.671
10033SOL     OW30918   5.995   4.139   0.515
10033SOL    HW130919   6.025   4.069   0.450
10033SOL    HW230920   5.942   4.096   0.588
10034SOL     OW30921   5.945   4.280   1.283
10034SOL    HW130922   5.999   4.213   1.335
10034SOL    HW230923   5.946   4.255   1.186
10035SOL     OW30924   6.411   5.301   0.684
10035SOL    HW130925   6.403   5.333   0.589
10035SOL    HW230926   6.336   5.238   0.704
10036SOL     OW30927   6.957   3.923   1.094
10036SOL    HW130928   6.931   3.827   1.107
10036SOL    HW230929   6.932   3.976   1.175
10037SOL     OW30930   6.612   3.740   1.109
10037SOL    HW130931   6.564   3.669   1.057
10037SOL    HW230932   6.709   3.717   1.115
10038SOL     OW30933   6.368   5.025   0.312
10038SOL    HW130934   6.341   4.933   0.339
10038SOL    HW230935   6.451   5.052   0.361
10039SOL     OW30936   6.193   5.312   1.286
10039SOL    HW130937   6.185   5.401   1.330
10039SOL    HW230938   6.286   5.299   1.252
10040SOL     OW30939   5.689   4.754   0.428
10040SOL    HW130940   5.762   4.727   0.365
10040SOL    HW230941   5.614   4.688   0.421
10041SOL     OW30942   6.450   5.388   0.399
10041SOL    HW130943   6.381   5.368   0.329
10041SOL    HW230944   6.431   5.476   0.441
10042SOL     OW30945   5.786   4.333   2.014
10042SOL    HW130946   5.693   4.323   2.051
10042SOL    HW230947   5.782   4.328   1.914
10043SOL     OW30948   5.799   4.001   2.850
10043SOL    HW130949   5.832   3.969   2.939
10043SOL    HW230950   5.706   3.966   2.834
10044SOL     OW30951   5.607   4.137   2.502
10044SOL    HW130952   5.543   4.149   2.578
10044SOL    HW230953   5.574   4.065   2.441
10045SOL     OW30954   6.155   5.045   3.076
10045SOL    HW130955   6.071   5.043   3.021
10045SOL    HW230956   6.176   5.139   3.102
10046SOL     OW30957   0.049   5.263   2.639
10046SOL    HW130958   0.095   5.175   2.634
10046SOL    HW230959   0.031   5.297   2.547
10047SOL     OW30960   6.690   4.501   2.533
10047SOL    HW130961   6.766   4.565   2.527
10047SOL    HW230962   6.664   4.488   2.629
10048SOL     OW30963   6.301   4.857   2.915
10048SOL    HW130964   6.242   4.892   2.988
10048SOL    HW230965   6.345   4.933   2.868
10049SOL     OW30966   6.468   4.470   3.703
10049SOL    HW130967   6.461   4.530   3.782
10049SOL    HW230968   6.483   4.526   3.621
10050SOL     OW30969   6.286   4.706   2.501
10050SOL    HW130970   6.354   4.705   2.574
10050SOL    HW230971   6.212   4.769   2.525
10051SOL     OW30972   6.277   4.866   3.687
10051SOL    HW130973   6.323   4.945   3.729
10051SOL    HW230974   6.199   4.898   3.634
10052SOL     OW30975   5.928   5.120   2.927
10052SOL    HW130976   5.850   5.070   2.890
10052SOL    HW230977   5.970   5.176   2.856
10053SOL     OW30978   6.050   4.091   3.310
10053SOL    HW130979   6.130   4.033   3.326
10053SOL    HW230980   5.968   4.045   3.342
10054SOL     OW30981   5.806   5.460   2.332
10054SOL    HW130982   5.830   5.533   2.396
10054SOL    HW230983   5.882   5.446   2.267
10055SOL     OW30984   6.712   5.087   3.548
10055SOL    HW130985   6.802   5.051   3.523
10055SOL    HW230986   6.649   5.010   3.562
10056SOL     OW30987   5.833   5.191   2.398
10056SOL    HW130988   5.808   5.287   2.402
10056SOL    HW230989   5.785   5.141   2.471
10057SOL     OW30990   5.892   4.808   2.747
10057SOL    HW130991   5.894   4.711   2.773
10057SOL    HW230992   5.832   4.858   2.809
10058SOL     OW30993   6.143   5.555   3.272
10058SOL    HW130994   6.067   5.525   3.329
10058SOL    HW230995   6.189   5.633   3.315
10059SOL     OW30996   6.154   4.707   2.022
10059SOL    HW130997   6.196   4.753   1.944
10059SOL    HW230998   6.202   4.733   2.106
10060SOL     OW30999   5.709   4.397   2.431
10060SOL    HW131000   5.681   4.303   2.451
10060SOL    HW231001   5.704   4.452   2.515
10061SOL     OW31002   5.627   5.301   1.978
10061SOL    HW131003   5.608   5.205   1.996
10061SOL    HW231004   5.604   5.356   2.059
10062SOL     OW31005   5.752   4.485   3.459
10062SOL    HW131006   5.851   4.488   3.457
10062SOL    HW231007   5.716   4.576   3.479
10063SOL     OW31008   6.205   5.117   2.579
10063SOL    HW131009   6.164   5.026   2.585
10063SOL    HW231010   6.192   5.153   2.486
10064SOL     OW31011   6.794   4.902   3.274
10064SOL    HW131012   6.836   4.844   3.204
10064SOL    HW231013   6.858   4.915   3.350
10065SOL     OW31014   6.418   3.760   2.374
10065SOL    HW131015   6.465   3.843   2.344
10065SOL    HW231016   6.319   3.777   2.376
10066SOL     OW31017   5.752   4.668   3.177
10066SOL    HW131018   5.835   4.626   3.139
10066SOL    HW231019   5.672   4.637   3.125
10067SOL     OW31020   6.825   5.558   3.460
10067SOL    HW131021   6.785   5.629   3.402
10067SOL    HW231022   6.811   5.468   3.419
10068SOL     OW31023   5.939   3.984   3.742
10068SOL    HW131024   5.979   4.067   3.783
10068SOL    HW231025   5.840   3.994   3.736
10069SOL     OW31026   6.166   4.431   2.132
10069SOL    HW131027   6.167   4.521   2.087
10069SOL    HW231028   6.098   4.432   2.205
10070SOL     OW31029   6.852   4.048   2.744
10070SOL    HW131030   6.753   4.035   2.756
10070SOL    HW231031   6.900   4.005   2.820
10071SOL     OW31032   6.365   4.318   3.303
10071SOL    HW131033   6.337   4.289   3.395
10071SOL    HW231034   6.346   4.245   3.238
10072SOL     OW31035   6.951   4.232   3.602
10072SOL    HW131036   6.918   4.319   3.640
10072SOL    HW231037   0.050   4.237   3.589
10073SOL     OW31038   6.537   4.609   3.465
10073SOL    HW131039   6.588   4.533   3.423
10073SOL    HW231040   6.485   4.657   3.394
10074SOL     OW31041   6.618   4.123   3.058
10074SOL    HW131042   6.523   4.131   3.089
10074SOL    HW231043   6.620   4.080   2.968
10075SOL     OW31044   6.624   4.446   2.275
10075SOL    HW131045   6.643   4.463   2.372
10075SOL    HW231046   6.538   4.395   2.267
10076SOL     OW31047   5.683   4.562   2.648
10076SOL    HW131048   5.771   4.550   2.694
10076SOL    HW231049   5.633   4.637   2.692
10077SOL     OW31050   5.692   5.614   3.459
10077SOL    HW131051   5.704   5.583   3.553
10077SOL    HW231052   5.601   5.591   3.427
10078SOL     OW31053   6.441   4.074   2.066
10078SOL    HW131054   6.495   4.123   1.998
10078SOL    HW231055   6.386   4.004   2.020
10079SOL     OW31056   6.995   4.900   2.396
10079SOL    HW131057   0.022   4.856   2.311
10079SOL    HW231058   6.930   4.973   2.377
10080SOL     OW31059   6.136   3.867   2.792
10080SOL    HW131060   6.147   3.894   2.888
10080SOL    HW231061   6.137   3.948   2.734
10081SOL     OW31062   6.575   5.201   2.337
10081SOL    HW131063   6.551   5.275   2.274
10081SOL    HW231064   6.536   5.221   2.427
10082SOL     OW31065   5.944   5.532   2.742
10082SOL    HW131066   5.986   5.441   2.745
10082SOL    HW231067   6.011   5.600   2.770
10083SOL     OW31068   6.804   5.302   3.351
10083SOL    HW131069   6.767   5.229   3.407
10083SOL    HW231070   6.783   5.285   3.255
10084SOL     OW31071   5.894   4.677   2.136
10084SOL    HW131072   5.981   4.696   2.091
10084SOL    HW231073   5.862   4.586   2.110
10085SOL     OW31074   6.053   4.999   3.587
10085SOL    HW131075   6.026   5.008   3.491
10085SOL    HW231076   5.972   4.995   3.645
10086SOL     OW31077   6.717   5.494   2.088
10086SOL    HW131078   6.628   5.478   2.130
10086SOL    HW231079   6.737   5.422   2.023
10087SOL     OW31080   5.797   3.981   3.360
10087SOL    HW131081   5.713   4.032   3.341
10087SOL    HW231082   5.773   3.894   3.403
10088SOL     OW31083   6.044   5.471   2.181
10088SOL    HW131084   6.090   5.526   2.252
10088SOL    HW231085   6.113   5.426   2.124
10089SOL     OW31086   5.822   5.514   3.068
10089SOL    HW131087   5.873   5.434   3.100
10089SOL    HW231088   5.789   5.497   2.976
10090SOL     OW31089   6.537   5.421   2.754
10090SOL    HW131090   6.630   5.383   2.753
10090SOL    HW231091   6.482   5.375   2.685
10091SOL     OW31092   5.978   4.402   2.333
10091SOL    HW131093   5.996   4.305   2.346
10091SOL    HW231094   5.882   4.422   2.355
10092SOL     OW31095   6.249   3.830   1.970
10092SOL    HW131096   6.303   3.751   1.999
10092SOL    HW231097   6.183   3.802   1.900
10093SOL     OW31098   6.357   3.985   3.616
10093SOL    HW131099   6.445   3.938   3.612
10093SOL    HW231100   6.299   3.941   3.684
10094SOL     OW31101   6.445   5.249   3.052
10094SOL    HW131102   6.418   5.215   2.962
10094SOL    HW231103   6.509   5.186   3.094
10095SOL     OW31104   6.388   5.099   2.805
10095SOL    HW131105   6.482   5.097   2.770
10095SOL    HW231106   6.324   5.108   2.729
10096SOL     OW31107   6.504   4.237   2.741
10096SOL    HW131108   6.484   4.229   2.643
10096SOL    HW231109   6.530   4.148   2.777
10097SOL     OW31110   6.147   3.793   2.357
10097SOL    HW131111   6.070   3.788   2.420
10097SOL    HW231112   6.133   3.868   2.293
10098SOL     OW31113   6.982   4.832   1.882
10098SOL    HW131114   0.025   4.818   1.971
10098SOL    HW231115   6.886   4.805   1.887
10099SOL     OW31116   5.871   3.769   2.043
10099SOL    HW131117   5.918   3.845   1.997
10099SOL    HW231118   5.938   3.712   2.089
10100SOL     OW31119   6.561   3.982   2.296
10100SOL    HW131120   6.520   4.016   2.212
10100SOL    HW231121   6.659   4.001   2.295
10101SOL     OW31122   6.627   4.390   3.323
10101SOL    HW131123   6.533   4.358   3.318
10101SOL    HW231124   6.688   4.313   3.343
10102SOL     OW31125   6.776   5.320   2.642
10102SOL    HW131126   6.773   5.386   2.567
10102SOL    HW231127   6.871   5.297   2.662
10103SOL     OW31128   6.075   4.876   2.559
10103SOL    HW131129   6.016   4.851   2.635
10103SOL    HW231130   6.021   4.874   2.474
10104SOL     OW31131   6.778   5.529   2.440
10104SOL    HW131132   6.760   5.555   2.346
10104SOL    HW231133   6.727   5.588   2.502
10105SOL     OW31134   6.592   4.232   1.898
10105SOL    HW131135   6.551   4.321   1.877
10105SOL    HW231136   6.659   4.243   1.972
10106SOL     OW31137   5.694   4.307   3.253
10106SOL    HW131138   5.788   4.296   3.219
10106SOL    HW231139   5.691   4.378   3.323
10107SOL     OW31140   6.154   3.925   3.059
10107SOL    HW131141   6.189   3.851   3.117
10107SOL    HW231142   6.056   3.937   3.076
10108SOL     OW31143   6.459   4.176   2.477
10108SOL    HW131144   6.415   4.237   2.411
10108SOL    HW231145   6.500   4.098   2.429
10109SOL     OW31146   6.576   3.787   2.602
10109SOL    HW131147   6.514   3.781   2.524
10109SOL    HW231148   6.563   3.709   2.662
10110SOL     OW31149   6.082   5.145   2.025
10110SOL    HW131150   5.998   5.116   2.071
10110SOL    HW231151   6.093   5.094   1.939
10111SOL     OW31152   6.112   3.980   2.162
10111SOL    HW131153   6.164   3.929   2.094
10111SOL    HW231154   6.079   4.065   2.122
10112SOL     OW31155   6.593   5.049   3.171
10112SOL    HW131156   6.505   5.029   3.215
10112SOL    HW231157   6.665   4.998   3.218
10113SOL     OW31158   6.760   5.008   2.951
10113SOL    HW131159   6.694   5.017   3.026
10113SOL    HW231160   6.716   5.031   2.865
10114SOL     OW31161   6.504   3.817   3.219
10114SOL    HW131162   6.530   3.795   3.126
10114SOL    HW231163   6.581   3.860   3.267
10115SOL     OW31164   6.559   4.850   3.596
10115SOL    HW131165   6.466   4.870   3.627
10115SOL    HW231166   6.558   4.769   3.536
10116SOL     OW31167   6.328   4.773   2.230
10116SOL    HW131168   6.317   4.743   2.325
10116SOL    HW231169   6.402   4.722   2.187
10117SOL     OW31170   6.006   4.546   3.121
10117SOL    HW131171   6.077   4.564   3.189
10117SOL    HW231172   5.977   4.451   3.127
10118SOL     OW31173   6.873   4.087   3.166
10118SOL    HW131174   6.934   4.164   3.185
10118SOL    HW231175   6.788   4.122   3.126
10119SOL     OW31176   5.655   5.287   3.217
10119SOL    HW131177   5.616   5.360   3.160
10119SOL    HW231178   5.755   5.290   3.209
10120SOL     OW31179   5.904   4.866   2.340
10120SOL    HW131180   5.900   4.944   2.278
10120SOL    HW231181   5.902   4.781   2.287
10121SOL     OW31182   6.115   4.265   2.733
10121SOL    HW131183   6.128   4.324   2.654
10121SOL    HW231184   6.190   4.281   2.799
10122SOL     OW31185   6.844   5.123   2.322
10122SOL    HW131186   6.892   5.206   2.350
10122SOL    HW231187   6.745   5.139   2.327
10123SOL     OW31188   6.847   5.258   3.061
10123SOL    HW131189   6.934   5.251   3.110
10123SOL    HW231190   6.826   5.171   3.017
10124SOL     OW31191   5.924   5.263   3.156
10124SOL    HW131192   5.916   5.206   3.074
10124SOL    HW231193   6.021   5.287   3.170
10125SOL     OW31194   6.031   4.466   3.486
10125SOL    HW131195   6.090   4.509   3.418
10125SOL    HW231196   6.072   4.380   3.516
10126SOL     OW31197   6.595   3.850   3.615
10126SOL    HW131198   6.651   3.932   3.606
10126SOL    HW231199   6.649   3.769   3.592
10127SOL     OW31200   6.081   3.774   3.626
10127SOL    HW131201   6.030   3.714   3.564
10127SOL    HW231202   6.024   3.853   3.649
10128SOL     OW31203   6.180   4.594   2.906
10128SOL    HW131204   6.217   4.687   2.903
10128SOL    HW231205   6.114   4.587   2.981
10129SOL     OW31206   6.899   4.551   2.856
10129SOL    HW131207   6.806   4.519   2.840
10129SOL    HW231208   6.950   4.480   2.905
10130SOL     OW31209   6.749   4.259   2.118
10130SOL    HW131210   6.785   4.183   2.172
10130SOL    HW231211   6.709   4.327   2.178
10131SOL     OW31212   5.879   3.913   3.099
10131SOL    HW131213   5.849   3.945   3.188
10131SOL    HW231214   5.862   3.815   3.090
10132SOL     OW31215   5.649   5.027   3.127
10132SOL    HW131216   5.670   4.966   3.204
10132SOL    HW231217   5.643   5.121   3.160
10133SOL     OW31218   6.311   4.347   2.912
10133SOL    HW131219   6.382   4.329   2.844
10133SOL    HW231220   6.275   4.439   2.900
10134SOL     OW31221   5.919   3.775   2.513
10134SOL    HW131222   5.889   3.869   2.526
10134SOL    HW231223   5.924   3.728   2.601
10135SOL     OW31224   0.173   4.204   2.185
10135SOL    HW131225   0.129   4.114   2.181
10135SOL    HW231226   0.158   4.245   2.274
10136SOL     OW31227   6.620   4.477   2.812
10136SOL    HW131228   6.599   4.493   2.909
10136SOL    HW231229   6.589   4.387   2.785
10137SOL     OW31230   6.547   5.324   3.548
10137SOL    HW131231   6.530   5.357   3.455
10137SOL    HW231232   6.588   5.233   3.544
10138SOL     OW31233   5.948   4.641   3.685
10138SOL    HW131234   6.022   4.663   3.748
10138SOL    HW231235   5.982   4.577   3.615
10139SOL     OW31236   6.941   4.499   1.850
10139SOL    HW131237   0.013   4.459   1.906
10139SOL    HW231238   6.982   4.560   1.781
10140SOL     OW31239   6.643   5.086   2.714
10140SOL    HW131240   6.658   5.004   2.658
10140SOL    HW231241   6.693   5.163   2.674
10141SOL     OW31242   5.915   4.532   2.796
10141SOL    HW131243   6.014   4.546   2.797
10141SOL    HW231244   5.894   4.441   2.830
10142SOL     OW31245   5.885   4.256   2.869
10142SOL    HW131246   5.846   4.164   2.860
10142SOL    HW231247   5.969   4.261   2.814
10143SOL     OW31248   6.719   4.093   3.560
10143SOL    HW131249   6.659   4.139   3.625
10143SOL    HW231250   6.810   4.133   3.565
10144SOL     OW31251   6.727   3.927   3.336
10144SOL    HW131252   6.716   3.985   3.416
10144SOL    HW231253   6.785   3.974   3.268
10145SOL     OW31254   5.602   5.024   2.042
10145SOL    HW131255   5.509   5.049   2.014
10145SOL    HW231256   5.602   4.931   2.079
10146SOL     OW31257   5.687   5.488   2.820
10146SOL    HW131258   5.644   5.413   2.770
10146SOL    HW231259   5.777   5.506   2.781
10147SOL     OW31260   6.071   5.286   2.756
10147SOL    HW131261   6.144   5.347   2.787
10147SOL    HW231262   6.108   5.222   2.687
10148SOL     OW31263   6.538   4.499   3.073
10148SOL    HW131264   6.591   4.475   3.154
10148SOL    HW231265   6.450   4.450   3.075
10149SOL     OW31266   5.620   4.288   2.988
10149SOL    HW131267   5.702   4.289   2.932
10149SOL    HW231268   5.645   4.299   3.084
10150SOL     OW31269   5.770   4.255   3.606
10150SOL    HW131270   5.822   4.195   3.546
10150SOL    HW231271   5.750   4.341   3.559
10151SOL     OW31272   6.393   4.301   2.228
10151SOL    HW131273   6.403   4.218   2.172
10151SOL    HW231274   6.312   4.351   2.198
10152SOL     OW31275   5.817   5.258   3.581
10152SOL    HW131276   5.798   5.326   3.652
10152SOL    HW231277   5.827   5.168   3.623
10153SOL     OW31278   6.336   4.142   3.094
10153SOL    HW131279   6.272   4.067   3.084
10153SOL    HW231280   6.317   4.213   3.026
10154SOL     OW31281   6.487   5.411   3.298
10154SOL    HW131282   6.474   5.358   3.214
10154SOL    HW231283   6.486   5.508   3.276
10155SOL     OW31284   6.026   4.207   2.032
10155SOL    HW131285   6.095   4.276   2.054
10155SOL    HW231286   5.935   4.248   2.035
10156SOL     OW31287   5.708   4.865   3.349
10156SOL    HW131288   5.716   4.831   3.442
10156SOL    HW231289   5.728   4.792   3.284
10157SOL     OW31290   6.878   4.767   3.043
10157SOL    HW131291   6.884   4.695   2.974
10157SOL    HW231292   6.842   4.851   3.000
10158SOL     OW31293   6.879   4.573   2.157
10158SOL    HW131294   6.811   4.538   2.221
10158SOL    HW231295   6.877   4.519   2.073
10159SOL     OW31296   6.880   5.514   2.961
10159SOL    HW131297   6.961   5.504   2.904
10159SOL    HW231298   6.857   5.426   3.003
10160SOL     OW31299   5.704   4.962   2.870
10160SOL    HW131300   5.678   4.984   2.964
10160SOL    HW231301   5.634   4.905   2.827
10161SOL     OW31302   6.295   5.406   3.629
10161SOL    HW131303   6.250   5.482   3.582
10161SOL    HW231304   6.388   5.396   3.594
10162SOL     OW31305   6.985   5.351   2.390
10162SOL    HW131306   0.071   5.387   2.354
10162SOL    HW231307   6.919   5.425   2.400
10163SOL     OW31308   5.731   5.511   3.705
10163SOL    HW131309   5.678   5.437   3.748
10163SOL    HW231310   5.783   5.559   3.776
10164SOL     OW31311   6.893   4.683   2.528
10164SOL    HW131312   6.968   4.627   2.564
10164SOL    HW231313   6.930   4.763   2.481
10165SOL     OW31314   6.344   4.999   3.275
10165SOL    HW131315   6.323   5.054   3.355
10165SOL    HW231316   6.270   5.008   3.208
10166SOL     OW31317   6.249   5.360   2.030
10166SOL    HW131318   6.267   5.380   1.933
10166SOL    HW231319   6.197   5.275   2.037
10167SOL     OW31320   5.849   4.028   2.576
10167SOL    HW131321   5.767   4.074   2.543
10167SOL    HW231322   5.846   4.023   2.676
10168SOL     OW31323   6.743   5.299   1.887
10168SOL    HW131324   6.748   5.205   1.853
10168SOL    HW231325   6.683   5.353   1.828
10169SOL     OW31326   6.412   4.735   3.257
10169SOL    HW131327   6.462   4.721   3.172
10169SOL    HW231328   6.389   4.832   3.267
10170SOL     OW31329   6.530   4.634   2.092
10170SOL    HW131330   6.606   4.680   2.045
10170SOL    HW231331   6.567   4.570   2.159
10171SOL     OW31332   5.939   5.034   3.344
10171SOL    HW131333   5.934   5.111   3.282
10171SOL    HW231334   5.857   4.977   3.335
10172SOL     OW31335   6.672   4.844   2.596
10172SOL    HW131336   6.594   4.791   2.630
10172SOL    HW231337   6.746   4.783   2.571
10173SOL     OW31338   6.592   3.971   2.814
10173SOL    HW131339   6.580   3.929   2.724
10173SOL    HW231340   6.595   3.899   2.884
10174SOL     OW31341   6.189   5.209   2.326
10174SOL    HW131342   6.250   5.154   2.269
10174SOL    HW231343   6.103   5.224   2.278
10175SOL     OW31344   5.854   5.073   2.161
10175SOL    HW131345   5.763   5.063   2.120
10175SOL    HW231346   5.846   5.125   2.246
10176SOL     OW31347   5.714   4.753   3.600
10176SOL    HW131348   5.631   4.728   3.650
10176SOL    HW231349   5.793   4.709   3.642
10177SOL     OW31350   6.276   3.916   3.357
10177SOL    HW131351   6.358   3.892   3.306
10177SOL    HW231352   6.301   3.947   3.449
10178SOL     OW31353   5.665   4.044   1.863
10178SOL    HW131354   5.586   4.023   1.805
10178SOL    HW231355   5.698   4.135   1.842
10179SOL     OW31356   5.632   3.880   2.108
10179SOL    HW131357   5.614   3.948   2.037
10179SOL    HW231358   5.724   3.842   2.096
10180SOL     OW31359   6.215   4.550   3.299
10180SOL    HW131360   6.277   4.628   3.289
10180SOL    HW231361   6.268   4.465   3.298
10181SOL     OW31362   6.309   4.262   3.563
10181SOL    HW131363   6.355   4.325   3.625
10181SOL    HW231364   6.327   4.168   3.591
10182SOL     OW31365   6.957   4.963   3.495
10182SOL    HW131366   6.968   4.920   3.585
10182SOL    HW231367   0.040   4.946   3.441
10183SOL     OW31368   5.938   5.478   3.444
10183SOL    HW131369   5.853   5.529   3.430
10183SOL    HW231370   5.916   5.386   3.478
10184SOL     OW31371   6.834   4.051   2.286
10184SOL    HW131372   6.908   4.004   2.239
10184SOL    HW231373   6.866   4.082   2.376
10185SOL     OW31374   6.156   4.457   2.540
10185SOL    HW131375   6.208   4.541   2.524
10185SOL    HW231376   6.092   4.443   2.464
10186SOL     OW31377   6.402   5.080   1.928
10186SOL    HW131378   6.393   5.076   2.028
10186SOL    HW231379   6.428   5.173   1.901
10187SOL     OW31380   6.259   5.475   2.803
10187SOL    HW131381   6.232   5.571   2.797
10187SOL    HW231382   6.359   5.468   2.807
10188SOL     OW31383   6.462   4.704   2.722
10188SOL    HW131384   6.513   4.625   2.755
10188SOL    HW231385   6.411   4.746   2.797
10189SOL     OW31386   6.730   4.723   1.904
10189SOL    HW131387   6.667   4.772   1.844
10189SOL    HW231388   6.753   4.634   1.865
10190SOL     OW31389   5.801   5.001   3.699
10190SOL    HW131390   5.773   4.917   3.654
10190SOL    HW231391   5.738   5.020   3.775
10191SOL     OW31392   5.723   4.962   2.534
10191SOL    HW131393   5.750   4.923   2.622
10191SOL    HW231394   5.779   4.922   2.462
10192SOL     OW31395   6.266   5.150   3.490
10192SOL    HW131396   6.189   5.101   3.531
10192SOL    HW231397   6.273   5.240   3.532
10193SOL     OW31398   6.013   4.140   2.378
10193SOL    HW131399   6.049   4.071   2.315
10193SOL    HW231400   5.965   4.096   2.453
10194SOL     OW31401   5.941   4.282   3.145
10194SOL    HW131402   5.992   4.214   3.198
10194SOL    HW231403   5.939   4.254   3.049
10195SOL     OW31404   6.405   5.312   2.541
10195SOL    HW131405   6.368   5.379   2.477
10195SOL    HW231406   6.338   5.240   2.558
10196SOL     OW31407   6.959   3.922   2.961
10196SOL    HW131408   6.932   3.826   2.972
10196SOL    HW231409   6.934   3.973   3.042
10197SOL     OW31410   6.613   3.739   2.969
10197SOL    HW131411   6.567   3.667   2.916
10197SOL    HW231412   6.710   3.718   2.976
10198SOL     OW31413   6.377   5.048   2.200
10198SOL    HW131414   6.359   4.951   2.213
10198SOL    HW231415   6.458   5.075   2.253
10199SOL     OW31416   6.195   5.313   3.149
10199SOL    HW131417   6.187   5.403   3.193
10199SOL    HW231418   6.287   5.301   3.113
10200SOL     OW31419   6.913   3.808   1.985
10200SOL    HW131420   6.970   3.743   1.935
10200SOL    HW231421   6.834   3.760   2.022
10201SOL     OW31422   5.626   4.771   2.160
10201SOL    HW131423   5.725   4.767   2.145
10201SOL    HW231424   5.591   4.680   2.179
10202SOL     OW31425   6.471   5.419   2.195
10202SOL    HW131426   6.390   5.392   2.143
10202SOL    HW231427   6.447   5.490   2.261
10203SOL     OW31428   5.782   4.325   3.877
10203SOL    HW131429   5.691   4.319   3.918
10203SOL    HW231430   5.775   4.319   3.777
10204SOL     OW31431   5.814   4.006   4.720
10204SOL    HW131432   5.850   3.973   4.807
10204SOL    HW231433   5.725   3.964   4.702
10205SOL     OW31434   5.603   4.138   4.367
10205SOL    HW131435   5.524   4.159   4.425
10205SOL    HW231436   5.581   4.059   4.308
10206SOL     OW31437   6.154   5.045   4.938
10206SOL    HW131438   6.070   5.043   4.884
10206SOL    HW231439   6.175   5.139   4.964
10207SOL     OW31440   0.048   5.263   4.501
10207SOL    HW131441   0.095   5.175   4.496
10207SOL    HW231442   0.031   5.298   4.409
10208SOL     OW31443   6.689   4.501   4.395
10208SOL    HW131444   6.766   4.565   4.390
10208SOL    HW231445   6.663   4.488   4.491
10209SOL     OW31446   6.301   4.858   4.778
10209SOL    HW131447   6.243   4.894   4.851
10209SOL    HW231448   6.344   4.934   4.729
10210SOL     OW31449   6.467   4.470   5.565
10210SOL    HW131450   6.459   4.529   5.645
10210SOL    HW231451   6.483   4.526   5.483
10211SOL     OW31452   6.284   4.708   4.362
10211SOL    HW131453   6.352   4.706   4.435
10211SOL    HW231454   6.210   4.770   4.386
10212SOL     OW31455   6.272   4.866   5.551
10212SOL    HW131456   6.321   4.943   5.592
10212SOL    HW231457   6.193   4.899   5.500
10213SOL     OW31458   5.925   5.118   4.791
10213SOL    HW131459   5.847   5.068   4.753
10213SOL    HW231460   5.967   5.174   4.719
10214SOL     OW31461   6.054   4.091   5.175
10214SOL    HW131462   6.134   4.033   5.190
10214SOL    HW231463   5.971   4.043   5.206
10215SOL     OW31464   5.811   5.456   4.195
10215SOL    HW131465   5.833   5.530   4.259
10215SOL    HW231466   5.886   5.445   4.130
10216SOL     OW31467   6.712   5.088   5.411
10216SOL    HW131468   6.802   5.052   5.386
10216SOL    HW231469   6.649   5.012   5.426
10217SOL     OW31470   5.815   5.187   4.262
10217SOL    HW131471   5.802   5.286   4.262
10217SOL    HW231472   5.769   5.148   4.342
10218SOL     OW31473   5.883   4.812   4.603
10218SOL    HW131474   5.891   4.716   4.631
10218SOL    HW231475   5.825   4.861   4.667
10219SOL     OW31476   6.143   5.555   5.133
10219SOL    HW131477   6.067   5.526   5.191
10219SOL    HW231478   6.190   5.632   5.176
10220SOL     OW31479   6.156   4.709   3.883
10220SOL    HW131480   6.200   4.753   3.805
10220SOL    HW231481   6.204   4.734   3.967
10221SOL     OW31482   5.707   4.398   4.300
10221SOL    HW131483   5.678   4.304   4.319
10221SOL    HW231484   5.700   4.452   4.384
10222SOL     OW31485   5.630   5.300   3.837
10222SOL    HW131486   5.607   5.204   3.853
10222SOL    HW231487   5.608   5.354   3.919
10223SOL     OW31488   5.708   4.481   5.299
10223SOL    HW131489   5.796   4.528   5.303
10223SOL    HW231490   5.636   4.547   5.280
10224SOL     OW31491   6.203   5.119   4.439
10224SOL    HW131492   6.162   5.028   4.445
10224SOL    HW231493   6.191   5.155   4.347
10225SOL     OW31494   6.793   4.903   5.135
10225SOL    HW131495   6.835   4.845   5.066
10225SOL    HW231496   6.856   4.916   5.212
10226SOL     OW31497   6.419   3.761   4.236
10226SOL    HW131498   6.466   3.843   4.206
10226SOL    HW231499   6.320   3.778   4.239
10227SOL     OW31500   5.781   4.672   5.028
10227SOL    HW131501   5.872   4.635   5.013
10227SOL    HW231502   5.720   4.641   4.955
10228SOL     OW31503   6.825   5.558   5.322
10228SOL    HW131504   6.786   5.629   5.263
10228SOL    HW231505   6.811   5.468   5.281
10229SOL     OW31506   5.940   3.986   5.603
10229SOL    HW131507   5.979   4.068   5.647
10229SOL    HW231508   5.842   3.998   5.591
10230SOL     OW31509   6.164   4.431   3.995
10230SOL    HW131510   6.167   4.521   3.951
10230SOL    HW231511   6.095   4.432   4.067
10231SOL     OW31512   6.851   4.048   4.606
10231SOL    HW131513   6.752   4.035   4.618
10231SOL    HW231514   6.899   4.005   4.682
10232SOL     OW31515   6.370   4.316   5.167
10232SOL    HW131516   6.341   4.287   5.258
10232SOL    HW231517   6.350   4.244   5.101
10233SOL     OW31518   6.951   4.232   5.466
10233SOL    HW131519   6.918   4.318   5.505
10233SOL    HW231520   0.050   4.237   5.452
10234SOL     OW31521   6.540   4.610   5.328
10234SOL    HW131522   6.591   4.534   5.288
10234SOL    HW231523   6.489   4.658   5.257
10235SOL     OW31524   6.618   4.124   4.920
10235SOL    HW131525   6.523   4.132   4.951
10235SOL    HW231526   6.620   4.080   4.830
10236SOL     OW31527   6.622   4.445   4.138
10236SOL    HW131528   6.642   4.462   4.234
10236SOL    HW231529   6.537   4.394   4.130
10237SOL     OW31530   5.680   4.564   4.518
10237SOL    HW131531   5.770   4.553   4.560
10237SOL    HW231532   5.627   4.632   4.568
10238SOL     OW31533   5.692   5.614   5.324
10238SOL    HW131534   5.705   5.581   5.418
10238SOL    HW231535   5.600   5.590   5.292
10239SOL     OW31536   6.441   4.073   3.928
10239SOL    HW131537   6.495   4.123   3.860
10239SOL    HW231538   6.388   4.002   3.881
10240SOL     OW31539   6.994   4.899   4.258
10240SOL    HW131540   0.022   4.856   4.172
10240SOL    HW231541   6.930   4.973   4.239
10241SOL     OW31542   6.138   3.866   4.656
10241SOL    HW131543   6.148   3.892   4.752
10241SOL    HW231544   6.139   3.947   4.598
10242SOL     OW31545   6.576   5.201   4.200
10242SOL    HW131546   6.552   5.275   4.136
10242SOL    HW231547   6.536   5.221   4.290
10243SOL     OW31548   5.943   5.531   4.606
10243SOL    HW131549   5.985   5.440   4.609
10243SOL    HW231550   6.010   5.599   4.633
10244SOL     OW31551   6.806   5.302   5.214
10244SOL    HW131552   6.768   5.230   5.272
10244SOL    HW231553   6.781   5.285   5.119
10245SOL     OW31554   5.896   4.681   3.998
10245SOL    HW131555   5.983   4.700   3.953
10245SOL    HW231556   5.867   4.587   3.978
10246SOL     OW31557   6.048   5.005   5.458
10246SOL    HW131558   6.024   5.011   5.361
10246SOL    HW231559   5.965   5.001   5.513
10247SOL     OW31560   6.717   5.495   3.949
10247SOL    HW131561   6.629   5.478   3.992
10247SOL    HW231562   6.737   5.422   3.884
10248SOL     OW31563   5.798   3.983   5.220
10248SOL    HW131564   5.732   4.057   5.227
10248SOL    HW231565   5.762   3.901   5.264
10249SOL     OW31566   6.047   5.472   4.044
10249SOL    HW131567   6.092   5.527   4.114
10249SOL    HW231568   6.116   5.429   3.985
10250SOL     OW31569   5.816   5.513   4.932
10250SOL    HW131570   5.869   5.434   4.963
10250SOL    HW231571   5.784   5.496   4.839
10251SOL     OW31572   6.537   5.421   4.616
10251SOL    HW131573   6.629   5.383   4.616
10251SOL    HW231574   6.481   5.375   4.547
10252SOL     OW31575   5.973   4.404   4.194
10252SOL    HW131576   5.991   4.306   4.206
10252SOL    HW231577   5.878   4.423   4.220
10253SOL     OW31578   6.250   3.831   3.830
10253SOL    HW131579   6.304   3.752   3.860
10253SOL    HW231580   6.185   3.802   3.760
10254SOL     OW31581   6.357   3.984   5.478
10254SOL    HW131582   6.446   3.937   5.475
10254SOL    HW231583   6.299   3.940   5.547
10255SOL     OW31584   6.444   5.249   4.914
10255SOL    HW131585   6.418   5.215   4.823
10255SOL    HW231586   6.508   5.185   4.956
10256SOL     OW31587   6.388   5.099   4.666
10256SOL    HW131588   6.481   5.097   4.631
10256SOL    HW231589   6.324   5.109   4.589
10257SOL     OW31590   6.504   4.237   4.603
10257SOL    HW131591   6.484   4.228   4.505
10257SOL    HW231592   6.530   4.148   4.640
10258SOL     OW31593   6.149   3.796   4.219
10258SOL    HW131594   6.071   3.793   4.282
10258SOL    HW231595   6.136   3.870   4.153
10259SOL     OW31596   6.982   4.835   3.743
10259SOL    HW131597   0.026   4.820   3.832
10259SOL    HW231598   6.886   4.807   3.748
10260SOL     OW31599   5.880   3.766   3.905
10260SOL    HW131600   5.928   3.841   3.860
10260SOL    HW231601   5.947   3.708   3.952
10261SOL     OW31602   6.562   3.983   4.159
10261SOL    HW131603   6.521   4.016   4.074
10261SOL    HW231604   6.660   4.001   4.158
10262SOL     OW31605   6.631   4.390   5.187
10262SOL    HW131606   6.537   4.357   5.182
10262SOL    HW231607   6.692   4.315   5.209
10263SOL     OW31608   6.775   5.320   4.504
10263SOL    HW131609   6.773   5.386   4.429
10263SOL    HW231610   6.871   5.297   4.525
10264SOL     OW31611   6.071   4.878   4.418
10264SOL    HW131612   6.011   4.854   4.494
10264SOL    HW231613   6.019   4.878   4.333
10265SOL     OW31614   6.779   5.530   4.304
10265SOL    HW131615   6.763   5.558   4.209
10265SOL    HW231616   6.728   5.589   4.366
10266SOL     OW31617   6.592   4.232   3.759
10266SOL    HW131618   6.550   4.321   3.738
10266SOL    HW231619   6.658   4.243   3.833
10267SOL     OW31620   5.700   4.277   5.118
10267SOL    HW131621   5.794   4.273   5.085
10267SOL    HW231622   5.691   4.351   5.185
10268SOL     OW31623   6.157   3.925   4.922
10268SOL    HW131624   6.197   3.854   4.980
10268SOL    HW231625   6.059   3.933   4.942
10269SOL     OW31626   6.460   4.176   4.339
10269SOL    HW131627   6.415   4.237   4.274
10269SOL    HW231628   6.500   4.099   4.291
10270SOL     OW31629   6.576   3.787   4.465
10270SOL    HW131630   6.514   3.780   4.386
10270SOL    HW231631   6.563   3.708   4.525
10271SOL     OW31632   6.081   5.149   3.897
10271SOL    HW131633   5.994   5.122   3.938
10271SOL    HW231634   6.099   5.091   3.817
10272SOL     OW31635   6.113   3.980   4.023
10272SOL    HW131636   6.165   3.929   3.954
10272SOL    HW231637   6.079   4.066   3.982
10273SOL     OW31638   6.592   5.049   5.033
10273SOL    HW131639   6.504   5.030   5.078
10273SOL    HW231640   6.664   4.999   5.080
10274SOL     OW31641   6.759   5.008   4.813
10274SOL    HW131642   6.693   5.016   4.888
10274SOL    HW231643   6.715   5.031   4.727
10275SOL     OW31644   6.504   3.818   5.080
10275SOL    HW131645   6.531   3.795   4.987
10275SOL    HW231646   6.581   3.860   5.128
10276SOL     OW31647   6.559   4.852   5.459
10276SOL    HW131648   6.466   4.873   5.490
10276SOL    HW231649   6.556   4.771   5.400
10277SOL     OW31650   6.329   4.773   4.092
10277SOL    HW131651   6.318   4.743   4.187
10277SOL    HW231652   6.403   4.722   4.049
10278SOL     OW31653   6.022   4.543   4.989
10278SOL    HW131654   6.094   4.557   5.057
10278SOL    HW231655   5.989   4.449   4.994
10279SOL     OW31656   6.874   4.088   5.027
10279SOL    HW131657   6.935   4.165   5.047
10279SOL    HW231658   6.789   4.122   4.988
10280SOL     OW31659   5.654   5.288   5.079
10280SOL    HW131660   5.616   5.362   5.023
10280SOL    HW231661   5.754   5.290   5.073
10281SOL     OW31662   5.901   4.870   4.200
10281SOL    HW131663   5.895   4.949   4.139
10281SOL    HW231664   5.902   4.786   4.146
10282SOL     OW31665   6.121   4.265   4.589
10282SOL    HW131666   6.133   4.324   4.510
10282SOL    HW231667   6.194   4.281   4.655
10283SOL     OW31668   6.844   5.123   4.184
10283SOL    HW131669   6.892   5.206   4.212
10283SOL    HW231670   6.745   5.138   4.189
10284SOL     OW31671   6.847   5.258   4.922
10284SOL    HW131672   6.933   5.251   4.972
10284SOL    HW231673   6.825   5.171   4.879
10285SOL     OW31674   5.924   5.263   5.018
10285SOL    HW131675   5.915   5.206   4.937
10285SOL    HW231676   6.020   5.287   5.032
10286SOL     OW31677   6.034   4.468   5.351
10286SOL    HW131678   6.093   4.513   5.284
10286SOL    HW231679   6.078   4.384   5.382
10287SOL     OW31680   6.595   3.850   5.475
10287SOL    HW131681   6.652   3.932   5.466
10287SOL    HW231682   6.650   3.769   5.452
10288SOL     OW31683   6.080   3.774   5.488
10288SOL    HW131684   6.028   3.715   5.427
10288SOL    HW231685   6.024   3.853   5.513
10289SOL     OW31686   6.181   4.597   4.767
10289SOL    HW131687   6.219   4.690   4.765
10289SOL    HW231688   6.122   4.587   4.847
10290SOL     OW31689   6.899   4.551   4.719
10290SOL    HW131690   6.806   4.519   4.702
10290SOL    HW231691   6.950   4.480   4.767
10291SOL     OW31692   6.748   4.258   3.980
10291SOL    HW131693   6.785   4.183   4.034
10291SOL    HW231694   6.708   4.327   4.041
10292SOL     OW31695   5.885   3.908   4.966
10292SOL    HW131696   5.852   3.943   5.054
10292SOL    HW231697   5.861   3.812   4.958
10293SOL     OW31698   5.644   5.027   4.991
10293SOL    HW131699   5.671   4.967   5.066
10293SOL    HW231700   5.639   5.122   5.023
10294SOL     OW31701   6.311   4.348   4.773
10294SOL    HW131702   6.383   4.329   4.706
10294SOL    HW231703   6.276   4.441   4.759
10295SOL     OW31704   5.918   3.785   4.369
10295SOL    HW131705   5.886   3.878   4.386
10295SOL    HW231706   5.924   3.736   4.455
10296SOL     OW31707   0.173   4.203   4.046
10296SOL    HW131708   0.129   4.114   4.043
10296SOL    HW231709   0.158   4.245   4.136
10297SOL     OW31710   6.620   4.478   4.675
10297SOL    HW131711   6.600   4.492   4.772
10297SOL    HW231712   6.589   4.386   4.648
10298SOL     OW31713   6.547   5.326   5.408
10298SOL    HW131714   6.531   5.358   5.315
10298SOL    HW231715   6.588   5.234   5.406
10299SOL     OW31716   5.939   4.644   5.539
10299SOL    HW131717   6.011   4.665   5.605
10299SOL    HW231718   5.974   4.579   5.472
10300SOL     OW31719   6.940   4.501   3.710
10300SOL    HW131720   0.011   4.459   3.767
10300SOL    HW231721   6.983   4.561   3.642
10301SOL     OW31722   6.643   5.086   4.575
10301SOL    HW131723   6.658   5.004   4.520
10301SOL    HW231724   6.693   5.163   4.536
10302SOL     OW31725   5.917   4.540   4.661
10302SOL    HW131726   6.016   4.557   4.668
10302SOL    HW231727   5.898   4.446   4.690
10303SOL     OW31728   5.893   4.263   4.727
10303SOL    HW131729   5.854   4.171   4.723
10303SOL    HW231730   5.975   4.267   4.671
10304SOL     OW31731   6.719   4.093   5.421
10304SOL    HW131732   6.659   4.138   5.486
10304SOL    HW231733   6.811   4.132   5.427
10305SOL     OW31734   6.728   3.927   5.197
10305SOL    HW131735   6.717   3.985   5.278
10305SOL    HW231736   6.785   3.975   5.130
10306SOL     OW31737   5.602   5.022   3.898
10306SOL    HW131738   5.509   5.048   3.871
10306SOL    HW231739   5.601   4.930   3.936
10307SOL     OW31740   5.685   5.487   4.682
10307SOL    HW131741   5.643   5.410   4.633
10307SOL    HW231742   5.775   5.505   4.644
10308SOL     OW31743   6.070   5.284   4.619
10308SOL    HW131744   6.143   5.345   4.651
10308SOL    HW231745   6.106   5.222   4.550
10309SOL     OW31746   6.540   4.497   4.936
10309SOL    HW131747   6.595   4.475   5.017
10309SOL    HW231748   6.453   4.449   4.941
10310SOL     OW31749   5.641   4.315   4.849
10310SOL    HW131750   5.724   4.308   4.794
10310SOL    HW231751   5.664   4.303   4.945
10311SOL     OW31752   5.780   4.274   5.467
10311SOL    HW131753   5.860   4.239   5.419
10311SOL    HW231754   5.741   4.350   5.415
10312SOL     OW31755   6.392   4.300   4.090
10312SOL    HW131756   6.403   4.217   4.034
10312SOL    HW231757   6.311   4.350   4.060
10313SOL     OW31758   5.816   5.263   5.440
10313SOL    HW131759   5.797   5.335   5.507
10313SOL    HW231760   5.822   5.175   5.487
10314SOL     OW31761   6.337   4.144   4.956
10314SOL    HW131762   6.273   4.068   4.946
10314SOL    HW231763   6.317   4.214   4.887
10315SOL     OW31764   6.489   5.410   5.157
10315SOL    HW131765   6.475   5.357   5.073
10315SOL    HW231766   6.488   5.508   5.135
10316SOL     OW31767   6.026   4.207   3.892
10316SOL    HW131768   6.094   4.277   3.916
10316SOL    HW231769   5.935   4.246   3.896
10317SOL     OW31770   5.716   4.865   5.206
10317SOL    HW131771   5.720   4.831   5.300
10317SOL    HW231772   5.741   4.791   5.143
10318SOL     OW31773   6.878   4.767   4.905
10318SOL    HW131774   6.884   4.695   4.836
10318SOL    HW231775   6.842   4.851   4.863
10319SOL     OW31776   6.880   4.572   4.020
10319SOL    HW131777   6.812   4.539   4.085
10319SOL    HW231778   6.877   4.517   3.937
10320SOL     OW31779   6.880   5.514   4.823
10320SOL    HW131780   6.962   5.504   4.766
10320SOL    HW231781   6.857   5.426   4.865
10321SOL     OW31782   5.698   4.958   4.735
10321SOL    HW131783   5.672   4.984   4.829
10321SOL    HW231784   5.626   4.901   4.696
10322SOL     OW31785   6.296   5.405   5.491
10322SOL    HW131786   6.252   5.482   5.446
10322SOL    HW231787   6.389   5.395   5.457
10323SOL     OW31788   6.985   5.351   4.252
10323SOL    HW131789   0.071   5.387   4.216
10323SOL    HW231790   6.919   5.425   4.262
10324SOL     OW31791   5.732   5.503   5.569
10324SOL    HW131792   5.677   5.432   5.613
10324SOL    HW231793   5.782   5.554   5.639
10325SOL     OW31794   6.893   4.683   4.390
10325SOL    HW131795   6.967   4.627   4.426
10325SOL    HW231796   6.930   4.762   4.343
10326SOL     OW31797   6.342   5.000   5.139
10326SOL    HW131798   6.321   5.055   5.219
10326SOL    HW231799   6.269   5.008   5.072
10327SOL     OW31800   6.251   5.362   3.892
10327SOL    HW131801   6.267   5.380   3.795
10327SOL    HW231802   6.197   5.278   3.901
10328SOL     OW31803   5.846   4.035   4.442
10328SOL    HW131804   5.761   4.079   4.413
10328SOL    HW231805   5.849   4.031   4.542
10329SOL     OW31806   6.744   5.298   3.749
10329SOL    HW131807   6.752   5.205   3.715
10329SOL    HW231808   6.682   5.351   3.690
10330SOL     OW31809   6.417   4.738   5.121
10330SOL    HW131810   6.467   4.726   5.035
10330SOL    HW231811   6.391   4.834   5.131
10331SOL     OW31812   6.530   4.633   3.953
10331SOL    HW131813   6.606   4.679   3.906
10331SOL    HW231814   6.567   4.569   4.020
10332SOL     OW31815   5.944   5.035   5.210
10332SOL    HW131816   5.937   5.113   5.148
10332SOL    HW231817   5.863   4.977   5.200
10333SOL     OW31818   6.671   4.844   4.458
10333SOL    HW131819   6.593   4.791   4.491
10333SOL    HW231820   6.746   4.783   4.433
10334SOL     OW31821   6.591   3.970   4.676
10334SOL    HW131822   6.579   3.929   4.586
10334SOL    HW231823   6.595   3.899   4.746
10335SOL     OW31824   6.190   5.210   4.185
10335SOL    HW131825   6.253   5.154   4.132
10335SOL    HW231826   6.108   5.229   4.131
10336SOL     OW31827   5.847   5.078   4.022
10336SOL    HW131828   5.757   5.066   3.979
10336SOL    HW231829   5.836   5.127   4.109
10337SOL     OW31830   5.708   4.771   5.464
10337SOL    HW131831   5.625   4.745   5.513
10337SOL    HW231832   5.786   4.719   5.499
10338SOL     OW31833   6.277   3.916   5.219
10338SOL    HW131834   6.360   3.891   5.169
10338SOL    HW231835   6.302   3.945   5.311
10339SOL     OW31836   5.662   4.038   3.737
10339SOL    HW131837   5.584   4.016   3.679
10339SOL    HW231838   5.697   4.128   3.713
10340SOL     OW31839   5.643   3.878   3.969
10340SOL    HW131840   5.629   3.945   3.897
10340SOL    HW231841   5.734   3.837   3.959
10341SOL     OW31842   6.225   4.550   5.167
10341SOL    HW131843   6.286   4.628   5.157
10341SOL    HW231844   6.278   4.465   5.168
10342SOL     OW31845   6.309   4.261   5.425
10342SOL    HW131846   6.355   4.323   5.488
10342SOL    HW231847   6.326   4.166   5.454
10343SOL     OW31848   6.956   4.963   5.357
10343SOL    HW131849   6.967   4.920   5.447
10343SOL    HW231850   0.039   4.947   5.302
10344SOL     OW31851   5.938   5.480   5.304
10344SOL    HW131852   5.853   5.532   5.292
10344SOL    HW231853   5.917   5.388   5.338
10345SOL     OW31854   6.835   4.051   4.149
10345SOL    HW131855   6.909   4.004   4.101
10345SOL    HW231856   6.867   4.081   4.238
10346SOL     OW31857   6.158   4.457   4.396
10346SOL    HW131858   6.208   4.542   4.381
10346SOL    HW231859   6.092   4.444   4.322
10347SOL     OW31860   6.398   5.082   3.790
10347SOL    HW131861   6.392   5.079   3.890
10347SOL    HW231862   6.430   5.172   3.762
10348SOL     OW31863   6.258   5.474   4.666
10348SOL    HW131864   6.231   5.570   4.659
10348SOL    HW231865   6.358   5.468   4.670
10349SOL     OW31866   6.461   4.704   4.583
10349SOL    HW131867   6.512   4.625   4.616
10349SOL    HW231868   6.411   4.746   4.659
10350SOL     OW31869   6.732   4.723   3.767
10350SOL    HW131870   6.668   4.769   3.706
10350SOL    HW231871   6.758   4.634   3.728
10351SOL     OW31872   5.794   5.012   5.564
10351SOL    HW131873   5.767   4.928   5.517
10351SOL    HW231874   5.734   5.028   5.643
10352SOL     OW31875   5.709   4.943   4.397
10352SOL    HW131876   5.748   4.905   4.481
10352SOL    HW231877   5.767   4.918   4.319
10353SOL     OW31878   6.263   5.150   5.354
10353SOL    HW131879   6.186   5.102   5.397
10353SOL    HW231880   6.272   5.241   5.395
10354SOL     OW31881   6.007   4.142   4.237
10354SOL    HW131882   6.044   4.070   4.177
10354SOL    HW231883   5.959   4.099   4.314
10355SOL     OW31884   5.948   4.279   5.007
10355SOL    HW131885   5.999   4.212   5.061
10355SOL    HW231886   5.950   4.254   4.911
10356SOL     OW31887   6.405   5.312   4.403
10356SOL    HW131888   6.369   5.381   4.339
10356SOL    HW231889   6.336   5.242   4.419
10357SOL     OW31890   6.958   3.922   4.822
10357SOL    HW131891   6.932   3.826   4.834
10357SOL    HW231892   6.933   3.973   4.904
10358SOL     OW31893   6.613   3.738   4.831
10358SOL    HW131894   6.567   3.667   4.778
10358SOL    HW231895   6.711   3.718   4.838
10359SOL     OW31896   6.379   5.049   4.063
10359SOL    HW131897   6.361   4.951   4.075
10359SOL    HW231898   6.460   5.075   4.116
10360SOL     OW31899   6.194   5.313   5.010
10360SOL    HW131900   6.187   5.402   5.054
10360SOL    HW231901   6.287   5.300   4.975
10361SOL     OW31902   6.913   3.808   3.845
10361SOL    HW131903   6.971   3.743   3.796
10361SOL    HW231904   6.834   3.761   3.883
10362SOL     OW31905   5.630   4.773   4.021
10362SOL    HW131906   5.729   4.767   4.006
10362SOL    HW231907   5.594   4.682   4.044
10363SOL     OW31908   6.472   5.419   4.058
10363SOL    HW131909   6.392   5.393   4.004
10363SOL    HW231910   6.447   5.490   4.124
10364SOL     OW31911   5.787   4.341   5.736
10364SOL    HW131912   5.696   4.323   5.772
10364SOL    HW231913   5.785   4.334   5.636
10365SOL     OW31914   5.797   4.028   6.570
10365SOL    HW131915   5.837   3.994   6.655
10365SOL    HW231916   5.705   3.990   6.559
10366SOL     OW31917   5.565   4.142   6.223
10366SOL    HW131918   5.481   4.167   6.271
10366SOL    HW231919   5.547   4.065   6.162
10367SOL     OW31920   6.136   4.978   6.774
10367SOL    HW131921   6.061   5.010   6.716
10367SOL    HW231922   6.138   5.031   6.859
10368SOL     OW31923   0.046   5.267   6.350
10368SOL    HW131924   0.092   5.179   6.347
10368SOL    HW231925   0.028   5.299   6.257
10369SOL     OW31926   6.694   4.495   6.259
10369SOL    HW131927   6.771   4.559   6.257
10369SOL    HW231928   6.666   4.480   6.354
10370SOL     OW31929   6.314   4.838   6.627
10370SOL    HW131930   6.246   4.870   6.693
10370SOL    HW231931   6.353   4.916   6.579
10371SOL     OW31932   6.282   4.705   6.223
10371SOL    HW131933   6.352   4.701   6.295
10371SOL    HW231934   6.208   4.766   6.252
10372SOL     OW31935   5.925   5.097   6.636
10372SOL    HW131936   5.837   5.061   6.605
10372SOL    HW231937   5.958   5.165   6.570
10373SOL     OW31938   5.807   5.459   6.058
10373SOL    HW131939   5.830   5.531   6.123
10373SOL    HW231940   5.882   5.446   5.994
10374SOL     OW31941   5.825   5.188   6.125
10374SOL    HW131942   5.805   5.286   6.129
10374SOL    HW231943   5.781   5.142   6.202
10375SOL     OW31944   5.875   4.809   6.472
10375SOL    HW131945   5.889   4.714   6.499
10375SOL    HW231946   5.818   4.856   6.540
10376SOL     OW31947   6.178   5.586   6.947
10376SOL    HW131948   6.102   5.540   6.993
10376SOL    HW231949   6.227   5.643   0.013
10377SOL     OW31950   6.150   4.708   5.747
10377SOL    HW131951   6.193   4.752   5.668
10377SOL    HW231952   6.198   4.734   5.830
10378SOL     OW31953   0.208   3.914   0.086
10378SOL    HW131954   0.166   4.000   0.058
10378SOL    HW231955   0.144   3.862   0.142
10379SOL     OW31956   5.691   4.394   6.161
10379SOL    HW131957   5.655   4.302   6.179
10379SOL    HW231958   5.697   4.445   6.247
10380SOL     OW31959   5.623   5.298   5.703
10380SOL    HW131960   5.601   5.202   5.720
10380SOL    HW231961   5.603   5.352   5.784
10381SOL     OW31962   6.201   5.112   6.303
10381SOL    HW131963   6.158   5.022   6.311
10381SOL    HW231964   6.187   5.147   6.211
10382SOL     OW31965   6.804   4.923   0.008
10382SOL    HW131966   6.861   4.874   6.942
10382SOL    HW231967   6.862   4.963   0.079
10383SOL     OW31968   6.412   3.762   6.089
10383SOL    HW131969   6.458   3.847   6.064
10383SOL    HW231970   6.314   3.779   6.096
10384SOL     OW31971   5.738   4.694   6.856
10384SOL    HW131972   5.821   4.652   6.821
10384SOL    HW231973   5.658   4.644   6.822
10385SOL     OW31974   6.161   4.431   5.861
10385SOL    HW131975   6.162   4.521   5.816
10385SOL    HW231976   6.092   4.431   5.933
10386SOL     OW31977   6.858   4.057   6.475
10386SOL    HW131978   6.760   4.040   6.478
10386SOL    HW231979   6.903   4.005   6.549
10387SOL     OW31980   6.458   4.329   0.006
10387SOL    HW131981   6.398   4.384   0.063
10387SOL    HW231982   6.403   4.269   6.947
10388SOL     OW31983   6.586   4.100   6.760
10388SOL    HW131984   6.494   4.116   6.797
10388SOL    HW231985   6.580   4.048   6.675
10389SOL     OW31986   6.624   4.447   6.001
10389SOL    HW131987   6.645   4.461   6.098
10389SOL    HW231988   6.538   4.396   5.992
10390SOL     OW31989   5.692   4.551   6.384
10390SOL    HW131990   5.782   4.546   6.428
10390SOL    HW231991   5.637   4.622   6.427
10391SOL     OW31992   5.697   5.572   0.091
10391SOL    HW131993   5.652   5.483   0.099
10391SOL    HW231994   5.731   5.583   6.998
10392SOL     OW31995   6.438   4.075   5.789
10392SOL    HW131996   6.493   4.124   5.721
10392SOL    HW231997   6.384   4.004   5.744
10393SOL     OW31998   6.992   4.893   6.115
10393SOL    HW131999   0.019   4.850   6.029
10393SOL    HW232000   6.927   4.967   6.097
10394SOL     OW32001   6.143   3.867   6.519
10394SOL    HW132002   6.151   3.899   6.613
10394SOL    HW232003   6.143   3.945   6.457
10395SOL     OW32004   6.576   5.199   6.056
10395SOL    HW132005   6.552   5.273   5.992
10395SOL    HW232006   6.534   5.218   6.145
10396SOL     OW32007   5.937   5.534   6.474
10396SOL    HW132008   5.975   5.441   6.476
10396SOL    HW232009   6.007   5.599   6.502
10397SOL     OW32010   5.888   4.670   5.859
10397SOL    HW132011   5.975   4.693   5.815
10397SOL    HW232012   5.862   4.576   5.834
10398SOL     OW32013   6.719   5.493   5.819
10398SOL    HW132014   6.627   5.477   5.856
10398SOL    HW232015   6.741   5.422   5.752
10399SOL     OW32016   6.044   5.471   5.906
10399SOL    HW132017   6.089   5.526   5.977
10399SOL    HW232018   6.113   5.426   5.850
10400SOL     OW32019   5.825   5.539   6.846
10400SOL    HW132020   5.894   5.499   6.907
10400SOL    HW232021   5.778   5.466   6.797
10401SOL     OW32022   6.530   5.417   6.467
10401SOL    HW132023   6.623   5.380   6.470
10401SOL    HW232024   6.478   5.369   6.396
10402SOL     OW32025   5.967   4.403   6.059
10402SOL    HW132026   5.983   4.304   6.071
10402SOL    HW232027   5.872   4.424   6.082
10403SOL     OW32028   6.249   3.832   5.693
10403SOL    HW132029   6.298   3.752   5.727
10403SOL    HW232030   6.183   3.803   5.623
10404SOL     OW32031   6.409   5.188   6.771
10404SOL    HW132032   6.402   5.156   6.677
10404SOL    HW232033   6.394   5.112   6.834
10405SOL     OW32034   6.392   5.076   6.517
10405SOL    HW132035   6.486   5.083   6.483
10405SOL    HW232036   6.328   5.092   6.442
10406SOL     OW32037   6.516   4.250   6.466
10406SOL    HW132038   6.493   4.243   6.369
10406SOL    HW232039   6.545   4.161   6.500
10407SOL     OW32040   6.141   3.797   6.083
10407SOL    HW132041   6.063   3.794   6.145
10407SOL    HW232042   6.129   3.871   6.017
10408SOL     OW32043   6.981   4.834   5.603
10408SOL    HW132044   0.025   4.818   5.692
10408SOL    HW232045   6.885   4.807   5.608
10409SOL     OW32046   5.870   3.772   5.768
10409SOL    HW132047   5.919   3.848   5.724
10409SOL    HW232048   5.935   3.714   5.817
10410SOL     OW32049   6.558   3.987   6.021
10410SOL    HW132050   6.517   4.020   5.936
10410SOL    HW232051   6.656   4.004   6.020
10411SOL     OW32052   6.773   5.315   6.358
10411SOL    HW132053   6.767   5.380   6.282
10411SOL    HW232054   6.869   5.294   6.376
10412SOL     OW32055   6.067   4.872   6.287
10412SOL    HW132056   6.006   4.850   6.363
10412SOL    HW232057   6.016   4.870   6.201
10413SOL     OW32058   6.776   5.521   6.148
10413SOL    HW132059   6.755   5.543   6.053
10413SOL    HW232060   6.721   5.579   6.208
10414SOL     OW32061   6.591   4.232   5.620
10414SOL    HW132062   6.549   4.321   5.599
10414SOL    HW232063   6.657   4.243   5.694
10415SOL     OW32064   6.148   3.945   6.785
10415SOL    HW132065   6.174   3.862   6.834
10415SOL    HW232066   6.050   3.961   6.795
10416SOL     OW32067   6.464   4.185   6.203
10416SOL    HW132068   6.415   4.244   6.140
10416SOL    HW232069   6.500   4.106   6.154
10417SOL     OW32070   6.578   3.777   6.309
10417SOL    HW132071   6.512   3.771   6.235
10417SOL    HW232072   6.561   3.705   6.376
10418SOL     OW32073   6.079   5.145   5.753
10418SOL    HW132074   5.994   5.118   5.798
10418SOL    HW232075   6.091   5.092   5.670
10419SOL     OW32076   6.109   3.981   5.885
10419SOL    HW132077   6.161   3.930   5.817
10419SOL    HW232078   6.077   4.067   5.846
10420SOL     OW32079   0.252   5.309   0.171
10420SOL    HW132080   0.289   5.395   0.136
10420SOL    HW232081   0.327   5.246   0.191
10421SOL     OW32082   6.747   4.982   6.685
10421SOL    HW132083   6.673   4.969   6.751
10421SOL    HW232084   6.708   5.014   6.599
10422SOL     OW32085   6.326   4.773   5.954
10422SOL    HW132086   6.314   4.743   6.048
10422SOL    HW232087   6.400   4.721   5.911
10423SOL     OW32088   6.011   4.572   6.857
10423SOL    HW132089   6.044   4.611   6.943
10423SOL    HW232090   5.976   4.480   6.875
10424SOL     OW32091   6.841   4.148   6.842
10424SOL    HW132092   6.824   4.228   6.901
10424SOL    HW232093   6.756   4.120   6.798
10425SOL     OW32094   5.691   5.267   6.892
10425SOL    HW132095   5.657   5.292   6.983
10425SOL    HW232096   5.789   5.248   6.898
10426SOL     OW32097   5.904   4.862   6.062
10426SOL    HW132098   5.898   4.941   6.000
10426SOL    HW232099   5.900   4.777   6.009
10427SOL     OW32100   6.131   4.253   6.445
10427SOL    HW132101   6.142   4.313   6.365
10427SOL    HW232102   6.203   4.272   6.512
10428SOL     OW32103   6.843   5.119   6.043
10428SOL    HW132104   6.891   5.203   6.068
10428SOL    HW232105   6.744   5.135   6.048
10429SOL     OW32106   6.838   5.246   6.776
10429SOL    HW132107   6.933   5.239   6.809
10429SOL    HW232108   6.808   5.157   6.742
10430SOL     OW32109   5.954   5.202   6.881
10430SOL    HW132110   5.932   5.156   6.796
10430SOL    HW232111   6.036   5.259   6.869
10431SOL     OW32112   6.184   4.589   6.641
10431SOL    HW132113   6.230   4.677   6.633
10431SOL    HW232114   6.124   4.590   6.722
10432SOL     OW32115   6.905   4.541   6.585
10432SOL    HW132116   6.808   4.525   6.568
10432SOL    HW232117   6.945   4.460   6.629
10433SOL     OW32118   6.747   4.260   5.840
10433SOL    HW132119   6.784   4.184   5.894
10433SOL    HW232120   6.707   4.329   5.901
10434SOL     OW32121   5.877   3.947   6.819
10434SOL    HW132122   5.814   3.993   6.883
10434SOL    HW232123   5.861   3.848   6.823
10435SOL     OW32124   5.598   5.010   6.875
10435SOL    HW132125   5.655   4.960   6.939
10435SOL    HW232126   5.626   5.106   6.873
10436SOL     OW32127   6.310   4.340   6.635
10436SOL    HW132128   6.387   4.329   6.571
10436SOL    HW232129   6.277   4.434   6.631
10437SOL     OW32130   5.907   3.789   6.229
10437SOL    HW132131   5.867   3.880   6.243
10437SOL    HW232132   5.914   3.742   6.316
10438SOL     OW32133   0.173   4.204   5.907
10438SOL    HW132134   0.129   4.114   5.904
10438SOL    HW232135   0.158   4.245   5.997
10439SOL     OW32136   6.625   4.488   6.554
10439SOL    HW132137   6.601   4.506   6.650
10439SOL    HW232138   6.592   4.397   6.529
10440SOL     OW32139   6.941   4.499   5.573
10440SOL    HW132140   0.013   4.459   5.630
10440SOL    HW232141   6.982   4.560   5.505
10441SOL     OW32142   6.653   5.079   6.443
10441SOL    HW132143   6.668   4.998   6.386
10441SOL    HW232144   6.698   5.158   6.401
10442SOL     OW32145   5.927   4.540   6.532
10442SOL    HW132146   6.024   4.563   6.546
10442SOL    HW232147   5.911   4.445   6.558
10443SOL     OW32148   5.914   4.268   6.602
10443SOL    HW132149   5.864   4.182   6.590
10443SOL    HW232150   5.996   4.266   6.544
10444SOL     OW32151   6.774   4.016   0.085
10444SOL    HW132152   6.787   4.089   0.152
10444SOL    HW232153   6.805   4.049   6.995
10445SOL     OW32154   5.601   5.015   5.767
10445SOL    HW132155   5.509   5.041   5.738
10445SOL    HW232156   5.600   4.922   5.803
10446SOL     OW32157   5.668   5.509   6.539
10446SOL    HW132158   5.631   5.430   6.491
10446SOL    HW232159   5.765   5.519   6.518
10447SOL     OW32160   6.065   5.285   6.479
10447SOL    HW132161   6.137   5.346   6.512
10447SOL    HW232162   6.103   5.221   6.412
10448SOL     OW32163   6.553   4.533   6.820
10448SOL    HW132164   6.589   4.601   6.884
10448SOL    HW232165   6.513   4.457   6.871
10449SOL     OW32166   5.651   4.338   6.715
10449SOL    HW132167   5.703   4.326   6.631
10449SOL    HW232168   5.711   4.326   6.794
10450SOL     OW32169   6.393   4.304   5.950
10450SOL    HW132170   6.402   4.221   5.895
10450SOL    HW232171   6.310   4.353   5.924
10451SOL     OW32172   6.321   4.160   6.837
10451SOL    HW132173   6.260   4.082   6.823
10451SOL    HW232174   6.308   4.226   6.763
10452SOL     OW32175   6.475   5.325   0.005
10452SOL    HW132176   6.457   5.304   6.909
10452SOL    HW232177   6.572   5.343   0.018
10453SOL     OW32178   6.025   4.209   5.755
10453SOL    HW132179   6.094   4.277   5.780
10453SOL    HW232180   5.934   4.250   5.758
10454SOL     OW32181   5.739   4.843   0.080
10454SOL    HW132182   5.792   4.790   0.147
10454SOL    HW232183   5.737   4.794   6.993
10455SOL     OW32184   6.872   4.737   6.784
10455SOL    HW132185   6.893   4.673   6.710
10455SOL    HW232186   6.846   4.825   6.746
10456SOL     OW32187   6.878   4.570   5.881
10456SOL    HW132188   6.809   4.537   5.945
10456SOL    HW232189   6.876   4.515   5.798
10457SOL     OW32190   6.888   5.506   6.680
10457SOL    HW132191   6.965   5.497   6.617
10457SOL    HW232192   6.864   5.417   6.717
10458SOL     OW32193   5.683   4.953   6.609
10458SOL    HW132194   5.648   4.967   6.702
10458SOL    HW232195   5.621   4.893   6.559
10459SOL     OW32196   6.985   5.348   6.100
10459SOL    HW132197   0.070   5.387   6.066
10459SOL    HW232198   6.917   5.421   6.109
10460SOL     OW32199   6.897   4.679   6.256
10460SOL    HW132200   6.974   4.624   6.291
10460SOL    HW232201   6.933   4.756   6.205
10461SOL     OW32202   6.247   5.359   5.754
10461SOL    HW132203   6.264   5.378   5.657
10461SOL    HW232204   6.194   5.275   5.762
10462SOL     OW32205   5.815   4.039   6.291
10462SOL    HW132206   5.728   4.079   6.264
10462SOL    HW232207   5.823   4.040   6.391
10463SOL     OW32208   6.744   5.300   5.612
10463SOL    HW132209   6.749   5.206   5.579
10463SOL    HW232210   6.684   5.354   5.554
10464SOL     OW32211   6.317   4.767   6.974
10464SOL    HW132212   6.385   4.723   6.916
10464SOL    HW232213   6.339   4.864   6.984
10465SOL     OW32214   6.530   4.634   5.817
10465SOL    HW132215   6.605   4.680   5.770
10465SOL    HW232216   6.566   4.570   5.884
10466SOL     OW32217   6.677   4.839   6.323
10466SOL    HW132218   6.598   4.785   6.352
10466SOL    HW232219   6.751   4.777   6.295
10467SOL     OW32220   6.595   3.971   6.513
10467SOL    HW132221   6.578   3.934   6.422
10467SOL    HW232222   6.612   3.897   6.578
10468SOL     OW32223   6.186   5.205   6.050
10468SOL    HW132224   6.246   5.151   5.993
10468SOL    HW232225   6.100   5.222   6.002
10469SOL     OW32226   5.849   5.072   5.887
10469SOL    HW132227   5.759   5.059   5.847
10469SOL    HW232228   5.841   5.123   5.973
10470SOL     OW32229   6.293   3.897   0.123
10470SOL    HW132230   6.384   3.857   0.135
10470SOL    HW232231   6.302   3.996   0.111
10471SOL     OW32232   5.669   4.045   5.579
10471SOL    HW132233   5.587   4.026   5.525
10471SOL    HW232234   5.703   4.136   5.557
10472SOL     OW32235   5.626   3.875   5.829
10472SOL    HW132236   5.608   3.943   5.759
10472SOL    HW232237   5.719   3.839   5.818
10473SOL     OW32238   5.969   5.462   0.073
10473SOL    HW132239   5.897   5.503   0.130
10473SOL    HW232240   5.994   5.373   0.110
10474SOL     OW32241   6.832   4.055   6.010
10474SOL    HW132242   6.907   4.006   5.964
10474SOL    HW232243   6.863   4.087   6.099
10475SOL     OW32244   6.164   4.448   6.252
10475SOL    HW132245   6.211   4.536   6.239
10475SOL    HW232246   6.093   4.438   6.183
10476SOL     OW32247   6.401   5.080   5.651
10476SOL    HW132248   6.391   5.076   5.750
10476SOL    HW232249   6.426   5.172   5.623
10477SOL     OW32250   6.257   5.472   6.527
10477SOL    HW132251   6.231   5.568   6.521
10477SOL    HW232252   6.357   5.464   6.521
10478SOL     OW32253   6.466   4.696   6.439
10478SOL    HW132254   6.519   4.620   6.478
10478SOL    HW232255   6.411   4.739   6.512
10479SOL     OW32256   6.731   4.724   5.630
10479SOL    HW132257   6.667   4.771   5.569
10479SOL    HW232258   6.753   4.635   5.591
10480SOL     OW32259   5.728   4.951   6.264
10480SOL    HW132260   5.760   4.905   6.347
10480SOL    HW232261   5.780   4.918   6.185
10481SOL     OW32262   5.994   4.139   6.099
10481SOL    HW132263   6.031   4.067   6.041
10481SOL    HW232264   5.938   4.099   6.171
10482SOL     OW32265   5.902   4.315   6.880
10482SOL    HW132266   5.941   4.242   6.936
10482SOL    HW232267   5.917   4.294   6.783
10483SOL     OW32268   6.402   5.301   6.256
10483SOL    HW132269   6.362   5.365   6.191
10483SOL    HW232270   6.334   5.231   6.279
10484SOL     OW32271   6.959   3.921   6.690
10484SOL    HW132272   6.936   3.824   6.699
10484SOL    HW232273   6.922   3.972   6.768
10485SOL     OW32274   6.639   3.758   6.671
10485SOL    HW132275   6.573   3.683   6.665
10485SOL    HW232276   6.731   3.721   6.679
10486SOL     OW32277   6.375   5.048   5.922
10486SOL    HW132278   6.357   4.950   5.935
10486SOL    HW232279   6.456   5.074   5.974
10487SOL     OW32280   6.181   5.332   6.840
10487SOL    HW132281   6.198   5.427   6.864
10487SOL    HW232282   6.264   5.293   6.800
10488SOL     OW32283   6.914   3.808   5.711
10488SOL    HW132284   6.971   3.743   5.661
10488SOL    HW232285   6.834   3.760   5.749
10489SOL     OW32286   5.621   4.758   5.888
10489SOL    HW132287   5.719   4.748   5.872
10489SOL    HW232288   5.580   4.668   5.905
10490SOL     OW32289   6.470   5.418   5.916
10490SOL    HW132290   6.389   5.391   5.863
10490SOL    HW232291   6.445   5.490   5.980
10491SOL     OW32292   5.794   6.226   0.142
10491SOL    HW132293   5.702   6.192   0.162
10491SOL    HW232294   5.807   6.233   0.043
10492SOL     OW32295   5.802   5.872   0.993
10492SOL    HW132296   5.839   5.837   1.079
10492SOL    HW232297   5.713   5.830   0.977
10493SOL     OW32298   5.570   6.006   0.648
10493SOL    HW132299   5.491   6.038   0.700
10493SOL    HW232300   5.545   5.924   0.597
10494SOL     OW32301   6.137   6.883   1.223
10494SOL    HW132302   6.077   6.919   1.151
10494SOL    HW232303   6.089   6.885   1.311
10495SOL     OW32304   0.013   0.097   0.630
10495SOL    HW132305   6.948   0.083   0.704
10495SOL    HW232306   0.082   0.024   0.632
10496SOL     OW32307   6.695   6.370   0.677
10496SOL    HW132308   6.758   6.447   0.679
10496SOL    HW232309   6.661   6.351   0.769
10497SOL     OW32310   6.244   6.706   1.010
10497SOL    HW132311   6.218   6.765   1.086
10497SOL    HW232312   6.205   6.742   0.925
10498SOL     OW32313   6.463   6.323   1.846
10498SOL    HW132314   6.463   6.382   1.926
10498SOL    HW232315   6.481   6.378   1.764
10499SOL     OW32316   6.288   6.558   0.643
10499SOL    HW132317   6.364   6.557   0.709
10499SOL    HW232318   6.214   6.614   0.679
10500SOL     OW32319   6.298   6.773   1.843
10500SOL    HW132320   6.314   6.826   1.927
10500SOL    HW232321   6.284   6.836   1.766
10501SOL     OW32322   5.948   6.988   1.053
10501SOL    HW132323   5.862   6.954   1.015
10501SOL    HW232324   5.989   0.053   0.990
10502SOL     OW32325   6.055   5.951   1.451
10502SOL    HW132326   6.135   5.893   1.466
10502SOL    HW232327   5.973   5.902   1.481
10503SOL     OW32328   5.861   6.684   0.893
10503SOL    HW132329   5.863   6.588   0.921
10503SOL    HW232330   5.806   6.737   0.958
10504SOL     OW32331   6.165   6.524   0.166
10504SOL    HW132332   6.220   6.532   0.083
10504SOL    HW232333   6.210   6.573   0.241
10505SOL     OW32334   5.692   6.261   0.564
10505SOL    HW132335   5.655   6.171   0.588
10505SOL    HW232336   5.685   6.322   0.643
10506SOL     OW32337   5.715   6.339   1.571
10506SOL    HW132338   5.807   6.378   1.573
10506SOL    HW232339   5.648   6.410   1.550
10507SOL     OW32340   6.833   6.776   1.408
10507SOL    HW132341   6.889   6.708   1.360
10507SOL    HW232342   6.884   6.811   1.487
10508SOL     OW32343   6.395   5.625   0.523
10508SOL    HW132344   6.439   5.708   0.490
10508SOL    HW232345   6.296   5.636   0.522
10509SOL     OW32346   5.783   6.529   1.304
10509SOL    HW132347   5.872   6.487   1.285
10509SOL    HW232348   5.715   6.494   1.239
10510SOL     OW32349   5.938   5.845   1.879
10510SOL    HW132350   5.977   5.926   1.922
10510SOL    HW232351   5.839   5.857   1.868
10511SOL     OW32352   6.167   6.276   0.289
10511SOL    HW132353   6.171   6.365   0.243
10511SOL    HW232354   6.096   6.278   0.360
10512SOL     OW32355   6.857   5.884   0.859
10512SOL    HW132356   6.759   5.880   0.876
10512SOL    HW232357   6.906   5.851   0.940
10513SOL     OW32358   6.369   6.170   1.447
10513SOL    HW132359   6.340   6.143   1.539
10513SOL    HW232360   6.349   6.097   1.382
10514SOL     OW32361   6.945   6.106   1.736
10514SOL    HW132362   6.914   6.194   1.772
10514SOL    HW232363   0.045   6.108   1.725
10515SOL     OW32364   6.532   6.458   1.606
10515SOL    HW132365   6.587   6.384   1.567
10515SOL    HW232366   6.485   6.507   1.533
10516SOL     OW32367   6.618   5.985   1.197
10516SOL    HW132368   6.523   5.990   1.228
10516SOL    HW232369   6.622   5.939   1.108
10517SOL     OW32370   6.645   6.306   0.416
10517SOL    HW132371   6.666   6.329   0.511
10517SOL    HW232372   6.557   6.260   0.411
10518SOL     OW32373   5.670   6.443   0.780
10518SOL    HW132374   5.757   6.423   0.823
10518SOL    HW232375   5.624   6.518   0.828
10519SOL     OW32376   6.471   5.976   0.199
10519SOL    HW132377   6.488   6.044   0.127
10519SOL    HW232378   6.513   5.889   0.173
10520SOL     OW32379   6.953   6.729   0.499
10520SOL    HW132380   0.005   6.697   0.420
10520SOL    HW232381   6.912   6.818   0.478
10521SOL     OW32382   6.140   5.729   0.930
10521SOL    HW132383   6.149   5.754   1.026
10521SOL    HW232384   6.141   5.811   0.873
10522SOL     OW32385   5.915   6.520   0.286
10522SOL    HW132386   5.999   6.529   0.232
10522SOL    HW232387   5.890   6.423   0.292
10523SOL     OW32388   5.799   5.847   1.495
10523SOL    HW132389   5.728   5.917   1.495
10523SOL    HW232390   5.763   5.764   1.537
10524SOL     OW32391   5.962   6.261   0.475
10524SOL    HW132392   5.981   6.163   0.487
10524SOL    HW232393   5.867   6.280   0.500
10525SOL     OW32394   6.359   5.844   1.757
10525SOL    HW132395   6.448   5.798   1.753
10525SOL    HW232396   6.301   5.799   1.825
10526SOL     OW32397   6.504   6.097   0.892
10526SOL    HW132398   6.481   6.090   0.795
10526SOL    HW232399   6.534   6.008   0.926
10527SOL     OW32400   6.125   5.660   0.494
10527SOL    HW132401   6.045   5.658   0.555
10527SOL    HW232402   6.110   5.728   0.423
10528SOL     OW32403   6.521   5.851   0.448
10528SOL    HW132404   6.492   5.893   0.362
10528SOL    HW232405   6.619   5.865   0.460
10529SOL     OW32406   6.631   6.245   1.461
10529SOL    HW132407   6.537   6.210   1.459
10529SOL    HW232408   6.693   6.170   1.486
10530SOL     OW32409   6.831   0.071   0.823
10530SOL    HW132410   6.734   0.046   0.813
10530SOL    HW232411   6.846   0.104   0.916
10531SOL     OW32412   6.080   6.706   0.735
10531SOL    HW132413   6.005   6.700   0.800
10531SOL    HW232414   6.043   6.716   0.642
10532SOL     OW32415   6.736   6.186   0.020
10532SOL    HW132416   6.637   6.189   0.005
10532SOL    HW232417   6.754   6.157   0.114
10533SOL     OW32418   5.694   6.130   1.397
10533SOL    HW132419   5.788   6.125   1.361
10533SOL    HW232420   5.687   6.205   1.462
10534SOL     OW32421   6.155   5.783   1.197
10534SOL    HW132422   6.190   5.707   1.252
10534SOL    HW232423   6.057   5.795   1.215
10535SOL     OW32424   6.451   6.048   0.632
10535SOL    HW132425   6.417   6.116   0.568
10535SOL    HW232426   6.471   5.963   0.584
10536SOL     OW32427   6.566   5.649   0.740
10536SOL    HW132428   6.498   5.643   0.666
10536SOL    HW232429   6.555   5.571   0.801
10537SOL     OW32430   6.087   5.839   0.293
10537SOL    HW132431   6.154   5.793   0.234
10537SOL    HW232432   6.052   5.920   0.247
10538SOL     OW32433   6.619   6.862   1.268
10538SOL    HW132434   6.533   6.856   1.319
10538SOL    HW232435   6.695   6.834   1.326
10539SOL     OW32436   6.796   6.794   1.057
10539SOL    HW132437   6.730   6.819   1.127
10539SOL    HW232438   6.749   6.778   0.970
10540SOL     OW32439   6.504   5.680   1.359
10540SOL    HW132440   6.531   5.658   1.265
10540SOL    HW232441   6.582   5.722   1.407
10541SOL     OW32442   6.549   6.672   1.773
10541SOL    HW132443   6.458   6.704   1.797
10541SOL    HW232444   6.543   6.602   1.702
10542SOL     OW32445   6.312   6.633   0.374
10542SOL    HW132446   6.301   6.609   0.470
10542SOL    HW232447   6.386   6.578   0.335
10543SOL     OW32448   6.019   6.394   1.262
10543SOL    HW132449   6.091   6.409   1.330
10543SOL    HW232450   5.985   6.301   1.269
10544SOL     OW32451   6.873   5.948   1.303
10544SOL    HW132452   6.934   6.024   1.325
10544SOL    HW232453   6.788   5.983   1.264
10545SOL     OW32454   5.957   6.720   0.481
10545SOL    HW132455   6.006   6.789   0.429
10545SOL    HW232456   5.939   6.641   0.423
10546SOL     OW32457   6.117   6.126   0.875
10546SOL    HW132458   6.132   6.183   0.794
10546SOL    HW232459   6.191   6.141   0.940
10547SOL     OW32460   6.853   6.978   0.436
10547SOL    HW132461   6.910   0.035   0.496
10547SOL    HW232462   6.757   0.005   0.447
10548SOL     OW32463   6.016   6.344   1.622
10548SOL    HW132464   6.083   6.378   1.556
10548SOL    HW232465   6.050   6.260   1.663
10549SOL     OW32466   6.598   5.712   1.753
10549SOL    HW132467   6.654   5.794   1.744
10549SOL    HW232468   6.652   5.632   1.729
10550SOL     OW32469   6.081   5.634   1.767
10550SOL    HW132470   6.030   5.575   1.704
10550SOL    HW232471   6.024   5.713   1.790
10551SOL     OW32472   6.169   6.443   1.036
10551SOL    HW132473   6.196   6.539   1.027
10551SOL    HW232474   6.112   6.432   1.118
10552SOL     OW32475   6.897   6.386   0.998
10552SOL    HW132476   6.802   6.363   0.981
10552SOL    HW232477   6.944   6.308   1.039
10553SOL     OW32478   6.765   6.101   0.276
10553SOL    HW132479   6.774   6.028   0.344
10553SOL    HW232480   6.729   6.183   0.321
10554SOL     OW32481   5.882   5.775   1.238
10554SOL    HW132482   5.850   5.807   1.327
10554SOL    HW232483   5.863   5.677   1.229
10555SOL     OW32484   5.649   6.897   1.287
10555SOL    HW132485   5.693   6.848   1.362
10555SOL    HW232486   5.617   6.986   1.319
10556SOL     OW32487   6.312   6.207   1.059
10556SOL    HW132488   6.383   6.187   0.991
10556SOL    HW232489   6.272   6.296   1.040
10557SOL     OW32490   5.896   5.648   0.645
10557SOL    HW132491   5.861   5.740   0.661
10557SOL    HW232492   5.910   5.602   0.732
10558SOL     OW32493   0.177   6.065   0.364
10558SOL    HW132494   0.263   6.028   0.399
10558SOL    HW232495   0.139   6.129   0.430
10559SOL     OW32496   6.615   6.339   0.957
10559SOL    HW132497   6.597   6.355   1.054
10559SOL    HW232498   6.585   6.247   0.932
10560SOL     OW32499   5.926   6.533   1.801
10560SOL    HW132500   5.997   6.550   1.870
10560SOL    HW232501   5.959   6.465   1.736
10561SOL     OW32502   6.887   6.416   0.021
10561SOL    HW132503   6.846   6.327   6.998
10561SOL    HW232504   6.905   6.466   6.937
10562SOL     OW32505   5.900   6.404   0.932
10562SOL    HW132506   5.999   6.419   0.933
10562SOL    HW232507   5.880   6.311   0.962
10563SOL     OW32508   5.882   6.128   1.002
10563SOL    HW132509   5.843   6.036   0.996
10563SOL    HW232510   5.968   6.131   0.951
10564SOL     OW32511   6.720   5.956   1.697
10564SOL    HW132512   6.659   5.998   1.764
10564SOL    HW232513   6.810   6.000   1.701
10565SOL     OW32514   6.729   5.788   1.474
10565SOL    HW132515   6.719   5.847   1.555
10565SOL    HW232516   6.786   5.835   1.407
10566SOL     OW32517   6.534   6.361   1.219
10566SOL    HW132518   6.589   6.331   1.297
10566SOL    HW232519   6.451   6.305   1.214
10567SOL     OW32520   5.631   6.179   1.129
10567SOL    HW132521   5.713   6.171   1.073
10567SOL    HW232522   5.655   6.165   1.225
10568SOL     OW32523   5.779   6.130   1.739
10568SOL    HW132524   5.848   6.082   1.685
10568SOL    HW232525   5.744   6.208   1.688
10569SOL     OW32526   6.406   6.175   0.382
10569SOL    HW132527   6.423   6.097   0.322
10569SOL    HW232528   6.318   6.217   0.358
10570SOL     OW32529   6.337   5.998   1.236
10570SOL    HW132530   6.273   5.923   1.224
10570SOL    HW232531   6.317   6.070   1.169
10571SOL     OW32532   6.021   6.075   0.166
10571SOL    HW132533   6.089   6.137   0.205
10571SOL    HW232534   5.931   6.117   0.168
10572SOL     OW32535   5.778   6.737   1.478
10572SOL    HW132536   5.749   6.707   1.568
10572SOL    HW232537   5.781   6.659   1.415
10573SOL     OW32538   6.947   6.591   1.179
10573SOL    HW132539   6.931   6.512   1.120
10573SOL    HW232540   6.900   6.671   1.142
10574SOL     OW32541   6.902   6.455   0.292
10574SOL    HW132542   6.830   6.409   0.343
10574SOL    HW232543   6.896   6.429   0.195
10575SOL     OW32544   5.681   6.858   1.021
10575SOL    HW132545   5.668   6.868   1.119
10575SOL    HW232546   5.620   6.787   0.986
10576SOL     OW32547   6.569   5.720   0.151
10576SOL    HW132548   6.650   5.766   0.115
10576SOL    HW232549   6.596   5.635   0.196
10577SOL     OW32550   6.870   6.579   0.703
10577SOL    HW132551   6.948   6.525   0.734
10577SOL    HW232552   6.897   6.635   0.624
10578SOL     OW32553   6.362   6.845   1.385
10578SOL    HW132554   6.335   6.879   1.475
10578SOL    HW232555   6.289   6.862   1.319
10579SOL     OW32556   5.820   5.900   0.714
10579SOL    HW132557   5.734   5.946   0.689
10579SOL    HW232558   5.828   5.896   0.813
10580SOL     OW32559   6.419   6.577   1.389
10580SOL    HW132560   6.470   6.547   1.308
10580SOL    HW232561   6.403   6.676   1.382
10581SOL     OW32562   6.505   6.488   0.256
10581SOL    HW132563   6.557   6.519   0.177
10581SOL    HW232564   6.563   6.430   0.313
10582SOL     OW32565   5.990   6.914   1.453
10582SOL    HW132566   5.999   6.962   1.540
10582SOL    HW232567   5.914   6.849   1.459
10583SOL     OW32568   6.669   6.739   0.815
10583SOL    HW132569   6.590   6.678   0.825
10583SOL    HW232570   6.744   6.689   0.772
10584SOL     OW32571   6.594   5.830   0.953
10584SOL    HW132572   6.576   5.788   0.864
10584SOL    HW232573   6.599   5.759   1.023
10585SOL     OW32574   5.691   6.659   1.741
10585SOL    HW132575   5.614   6.625   1.795
10585SOL    HW232576   5.774   6.610   1.766
10586SOL     OW32577   6.277   5.778   1.498
10586SOL    HW132578   6.360   5.753   1.446
10586SOL    HW232579   6.303   5.807   1.590
10587SOL     OW32580   5.676   5.915   6.971
10587SOL    HW132581   5.613   5.851   6.928
10587SOL    HW232582   5.625   5.988   0.014
10588SOL     OW32583   5.618   5.736   0.290
10588SOL    HW132584   5.639   5.832   0.275
10588SOL    HW232585   5.651   5.682   0.212
10589SOL     OW32586   6.220   6.401   1.444
10589SOL    HW132587   6.283   6.477   1.430
10589SOL    HW232588   6.271   6.315   1.447
10590SOL     OW32589   6.309   6.119   1.706
10590SOL    HW132590   6.354   6.183   1.768
10590SOL    HW232591   6.327   6.025   1.735
10591SOL     OW32592   6.995   6.850   1.622
10591SOL    HW132593   6.981   6.810   1.712
10591SOL    HW232594   0.082   6.817   1.584
10592SOL     OW32595   6.783   5.916   0.477
10592SOL    HW132596   6.868   5.870   0.450
10592SOL    HW232597   6.797   5.963   0.564
10593SOL     OW32598   6.155   6.310   0.675
10593SOL    HW132599   6.208   6.394   0.659
10593SOL    HW232600   6.086   6.301   0.603
10594SOL     OW32601   6.460   6.568   0.866
10594SOL    HW132602   6.507   6.488   0.903
10594SOL    HW232603   6.395   6.604   0.933
10595SOL     OW32604   6.661   6.565   0.041
10595SOL    HW132605   6.689   6.661   0.037
10595SOL    HW232606   6.742   6.507   0.045
10596SOL     OW32607   5.776   6.915   1.801
10596SOL    HW132608   5.748   6.820   1.782
10596SOL    HW232609   5.762   6.935   1.898
10597SOL     OW32610   5.766   6.818   0.661
10597SOL    HW132611   5.790   6.774   0.748
10597SOL    HW232612   5.818   6.776   0.587
10598SOL     OW32613   6.260   6.970   1.632
10598SOL    HW132614   6.169   6.979   1.672
10598SOL    HW232615   6.285   0.055   1.586
10599SOL     OW32616   5.994   5.999   0.513
10599SOL    HW132617   6.025   5.928   0.449
10599SOL    HW232618   5.941   5.956   0.587
10600SOL     OW32619   5.941   6.134   1.283
10600SOL    HW132620   5.995   6.068   1.336
10600SOL    HW232621   5.943   6.109   1.186
10601SOL     OW32622   6.958   5.786   1.094
10601SOL    HW132623   6.931   5.690   1.107
10601SOL    HW232624   6.933   5.839   1.175
10602SOL     OW32625   6.612   5.601   1.110
10602SOL    HW132626   6.565   5.530   1.058
10602SOL    HW232627   6.710   5.579   1.115
10603SOL     OW32628   6.408   6.885   0.301
10603SOL    HW132629   6.372   6.795   0.326
10603SOL    HW232630   6.417   6.941   0.383
10604SOL     OW32631   5.666   6.633   0.263
10604SOL    HW132632   5.761   6.604   0.274
10604SOL    HW232633   5.605   6.566   0.304
10605SOL     OW32634   5.786   6.188   2.009
10605SOL    HW132635   5.694   6.177   2.045
10605SOL    HW232636   5.784   6.186   1.909
10606SOL     OW32637   5.803   5.871   2.852
10606SOL    HW132638   5.841   5.837   2.938
10606SOL    HW232639   5.713   5.830   2.837
10607SOL     OW32640   5.571   6.002   2.502
10607SOL    HW132641   5.488   6.025   2.552
10607SOL    HW232642   5.553   5.926   2.440
10608SOL     OW32643   6.137   6.883   3.085
10608SOL    HW132644   6.076   6.918   3.014
10608SOL    HW232645   6.090   6.885   3.174
10609SOL     OW32646   0.003   0.094   2.488
10609SOL    HW132647   6.941   0.086   2.566
10609SOL    HW232648   0.071   0.021   2.491
10610SOL     OW32649   6.684   6.372   2.537
10610SOL    HW132650   6.751   6.446   2.539
10610SOL    HW232651   6.655   6.352   2.631
10611SOL     OW32652   6.243   6.707   2.870
10611SOL    HW132653   6.216   6.765   2.948
10611SOL    HW232654   6.202   6.743   2.786
10612SOL     OW32655   6.463   6.323   3.707
10612SOL    HW132656   6.463   6.382   3.787
10612SOL    HW232657   6.481   6.378   3.625
10613SOL     OW32658   6.288   6.562   2.492
10613SOL    HW132659   6.363   6.561   2.558
10613SOL    HW232660   6.212   6.615   2.527
10614SOL     OW32661   6.298   6.773   3.704
10614SOL    HW132662   6.314   6.826   3.788
10614SOL    HW232663   6.284   6.836   3.628
10615SOL     OW32664   5.944   6.985   2.919
10615SOL    HW132665   5.859   6.951   2.880
10615SOL    HW232666   5.987   0.049   2.854
10616SOL     OW32667   6.056   5.951   3.312
10616SOL    HW132668   6.136   5.893   3.328
10616SOL    HW232669   5.973   5.902   3.342
10617SOL     OW32670   5.862   6.683   2.760
10617SOL    HW132671   5.865   6.586   2.787
10617SOL    HW232672   5.809   6.734   2.827
10618SOL     OW32673   6.139   6.585   1.998
10618SOL    HW132674   6.183   6.635   1.924
10618SOL    HW232675   6.191   6.596   2.082
10619SOL     OW32676   5.693   6.261   2.437
10619SOL    HW132677   5.657   6.170   2.458
10619SOL    HW232678   5.683   6.320   2.517
10620SOL     OW32679   5.715   6.340   3.434
10620SOL    HW132680   5.807   6.380   3.436
10620SOL    HW232681   5.648   6.411   3.412
10621SOL     OW32682   6.834   6.778   3.270
10621SOL    HW132683   6.890   6.710   3.223
10621SOL    HW232684   6.885   6.814   3.349
10622SOL     OW32685   6.415   5.620   2.377
10622SOL    HW132686   6.463   5.702   2.346
10622SOL    HW232687   6.317   5.637   2.379
10623SOL     OW32688   5.783   6.529   3.166
10623SOL    HW132689   5.872   6.488   3.146
10623SOL    HW232690   5.715   6.493   3.102
10624SOL     OW32691   5.938   5.844   3.742
10624SOL    HW132692   5.977   5.926   3.784
10624SOL    HW232693   5.839   5.857   3.730
10625SOL     OW32694   6.161   6.285   2.141
10625SOL    HW132695   6.165   6.373   2.093
10625SOL    HW232696   6.091   6.288   2.212
10626SOL     OW32697   6.851   5.909   2.743
10626SOL    HW132698   6.753   5.895   2.755
10626SOL    HW232699   6.900   5.868   2.820
10627SOL     OW32700   6.369   6.170   3.309
10627SOL    HW132701   6.339   6.142   3.400
10627SOL    HW232702   6.349   6.097   3.244
10628SOL     OW32703   6.945   6.106   3.597
10628SOL    HW132704   6.914   6.194   3.634
10628SOL    HW232705   0.044   6.108   3.586
10629SOL     OW32706   6.532   6.458   3.467
10629SOL    HW132707   6.586   6.384   3.428
10629SOL    HW232708   6.485   6.508   3.394
10630SOL     OW32709   6.618   5.986   3.057
10630SOL    HW132710   6.523   5.991   3.089
10630SOL    HW232711   6.620   5.942   2.968
10631SOL     OW32712   6.620   6.303   2.281
10631SOL    HW132713   6.641   6.325   2.377
10631SOL    HW232714   6.536   6.249   2.277
10632SOL     OW32715   5.662   6.445   2.647
10632SOL    HW132716   5.750   6.427   2.690
10632SOL    HW232717   5.617   6.521   2.694
10633SOL     OW32718   6.439   5.931   2.069
10633SOL    HW132719   6.494   5.980   2.001
10633SOL    HW232720   6.384   5.861   2.023
10634SOL     OW32721   6.929   6.744   2.362
10634SOL    HW132722   6.976   6.720   2.277
10634SOL    HW232723   6.878   6.829   2.349
10635SOL     OW32724   6.141   5.728   2.792
10635SOL    HW132725   6.150   5.753   2.888
10635SOL    HW232726   6.141   5.811   2.736
10636SOL     OW32727   5.900   6.556   2.146
10636SOL    HW132728   5.977   6.573   2.085
10636SOL    HW232729   5.879   6.459   2.147
10637SOL     OW32730   5.799   5.848   3.355
10637SOL    HW132731   5.728   5.917   3.353
10637SOL    HW232732   5.764   5.764   3.397
10638SOL     OW32733   5.962   6.265   2.336
10638SOL    HW132734   5.982   6.167   2.346
10638SOL    HW232735   5.867   6.283   2.363
10639SOL     OW32736   6.251   5.692   1.971
10639SOL    HW132737   6.303   5.613   2.002
10639SOL    HW232738   6.185   5.664   1.901
10640SOL     OW32739   6.359   5.844   3.619
10640SOL    HW132740   6.448   5.798   3.615
10640SOL    HW232741   6.302   5.799   3.687
10641SOL     OW32742   6.501   6.096   2.742
10641SOL    HW132743   6.483   6.087   2.644
10641SOL    HW232744   6.529   6.007   2.779
10642SOL     OW32745   6.145   5.657   2.359
10642SOL    HW132746   6.065   5.654   2.419
10642SOL    HW232747   6.134   5.731   2.292
10643SOL     OW32748   6.969   6.714   1.866
10643SOL    HW132749   0.011   6.707   1.956
10643SOL    HW232750   6.872   6.690   1.871
10644SOL     OW32751   5.869   5.633   2.046
10644SOL    HW132752   5.917   5.708   2.000
10644SOL    HW232753   5.936   5.575   2.093
10645SOL     OW32754   6.562   5.840   2.298
10645SOL    HW132755   6.520   5.874   2.214
10645SOL    HW232756   6.660   5.859   2.297
10646SOL     OW32757   6.630   6.245   3.321
10646SOL    HW132758   6.536   6.211   3.319
10646SOL    HW232759   6.692   6.171   3.345
10647SOL     OW32760   6.828   0.074   2.687
10647SOL    HW132761   6.732   0.046   2.674
10647SOL    HW232762   6.840   0.108   2.780
10648SOL     OW32763   6.074   6.702   2.589
10648SOL    HW132764   6.002   6.696   2.658
10648SOL    HW232765   6.034   6.722   2.500
10649SOL     OW32766   6.590   6.087   1.899
10649SOL    HW132767   6.548   6.175   1.879
10649SOL    HW232768   6.656   6.098   1.974
10650SOL     OW32769   5.696   6.131   3.259
10650SOL    HW132770   5.789   6.127   3.224
10650SOL    HW232771   5.688   6.206   3.324
10651SOL     OW32772   6.156   5.783   3.059
10651SOL    HW132773   6.190   5.708   3.116
10651SOL    HW232774   6.058   5.795   3.076
10652SOL     OW32775   6.460   6.034   2.479
10652SOL    HW132776   6.415   6.093   2.412
10652SOL    HW232777   6.501   5.955   2.432
10653SOL     OW32778   6.576   5.648   2.602
10653SOL    HW132779   6.513   5.641   2.525
10653SOL    HW232780   6.564   5.570   2.663
10654SOL     OW32781   6.112   5.840   2.162
10654SOL    HW132782   6.164   5.789   2.094
10654SOL    HW232783   6.078   5.925   2.122
10655SOL     OW32784   6.620   6.864   3.128
10655SOL    HW132785   6.535   6.857   3.180
10655SOL    HW232786   6.696   6.836   3.187
10656SOL     OW32787   6.796   6.793   2.916
10656SOL    HW132788   6.730   6.818   2.986
10656SOL    HW232789   6.748   6.777   2.829
10657SOL     OW32790   6.505   5.679   3.221
10657SOL    HW132791   6.531   5.657   3.127
10657SOL    HW232792   6.582   5.722   3.268
10658SOL     OW32793   6.549   6.673   3.634
10658SOL    HW132794   6.458   6.704   3.658
10658SOL    HW232795   6.543   6.603   3.563
10659SOL     OW32796   6.307   6.618   2.212
10659SOL    HW132797   6.301   6.600   2.310
10659SOL    HW232798   6.387   6.570   2.174
10660SOL     OW32799   6.019   6.395   3.123
10660SOL    HW132800   6.091   6.409   3.191
10660SOL    HW232801   5.985   6.301   3.130
10661SOL     OW32802   6.872   5.948   3.166
10661SOL    HW132803   6.933   6.024   3.187
10661SOL    HW232804   6.788   5.984   3.125
10662SOL     OW32805   5.934   6.745   2.349
10662SOL    HW132806   5.968   6.827   2.302
10662SOL    HW232807   5.921   6.672   2.282
10663SOL     OW32808   6.116   6.130   2.736
10663SOL    HW132809   6.129   6.188   2.656
10663SOL    HW232810   6.191   6.143   2.800
10664SOL     OW32811   6.809   6.990   2.320
10664SOL    HW132812   6.872   0.040   2.380
10664SOL    HW232813   6.715   0.015   2.342
10665SOL     OW32814   6.016   6.345   3.483
10665SOL    HW132815   6.083   6.379   3.417
10665SOL    HW232816   6.050   6.260   3.524
10666SOL     OW32817   6.598   5.711   3.616
10666SOL    HW132818   6.654   5.794   3.607
10666SOL    HW232819   6.653   5.631   3.591
10667SOL     OW32820   6.080   5.633   3.628
10667SOL    HW132821   6.029   5.574   3.566
10667SOL    HW232822   6.024   5.713   3.652
10668SOL     OW32823   6.174   6.442   2.899
10668SOL    HW132824   6.198   6.538   2.889
10668SOL    HW232825   6.113   6.431   2.978
10669SOL     OW32826   6.899   6.384   2.850
10669SOL    HW132827   6.803   6.361   2.836
10669SOL    HW232828   6.946   6.308   2.896
10670SOL     OW32829   6.743   6.114   2.121
10670SOL    HW132830   6.782   6.041   2.177
10670SOL    HW232831   6.708   6.186   2.181
10671SOL     OW32832   5.883   5.776   3.098
10671SOL    HW132833   5.851   5.809   3.187
10671SOL    HW232834   5.863   5.679   3.089
10672SOL     OW32835   5.646   6.895   3.150
10672SOL    HW132836   5.691   6.847   3.225
10672SOL    HW232837   5.616   6.985   3.182
10673SOL     OW32838   6.316   6.206   2.918
10673SOL    HW132839   6.383   6.186   2.847
10673SOL    HW232840   6.275   6.295   2.901
10674SOL     OW32841   5.909   5.651   2.500
10674SOL    HW132842   5.871   5.742   2.517
10674SOL    HW232843   5.919   5.603   2.587
10675SOL     OW32844   0.172   6.064   2.186
10675SOL    HW132845   0.127   5.975   2.183
10675SOL    HW232846   0.155   6.108   2.274
10676SOL     OW32847   6.614   6.337   2.814
10676SOL    HW132848   6.595   6.352   2.911
10676SOL    HW232849   6.583   6.245   2.788
10677SOL     OW32850   5.927   6.533   3.663
10677SOL    HW132851   5.997   6.549   3.732
10677SOL    HW232852   5.959   6.464   3.598
10678SOL     OW32853   6.940   6.375   1.843
10678SOL    HW132854   0.001   6.330   1.909
10678SOL    HW232855   6.994   6.432   1.782
10679SOL     OW32856   5.898   6.404   2.793
10679SOL    HW132857   5.997   6.416   2.785
10679SOL    HW232858   5.878   6.311   2.824
10680SOL     OW32859   5.882   6.127   2.865
10680SOL    HW132860   5.843   6.035   2.857
10680SOL    HW232861   5.967   6.132   2.813
10681SOL     OW32862   6.720   5.956   3.559
10681SOL    HW132863   6.659   5.998   3.626
10681SOL    HW232864   6.809   6.000   3.562
10682SOL     OW32865   6.728   5.789   3.337
10682SOL    HW132866   6.718   5.847   3.417
10682SOL    HW232867   6.785   5.836   3.269
10683SOL     OW32868   5.609   6.895   2.052
10683SOL    HW132869   5.516   6.912   2.020
10683SOL    HW232870   5.616   6.802   2.087
10684SOL     OW32871   6.534   6.360   3.077
10684SOL    HW132872   6.588   6.330   3.156
10684SOL    HW232873   6.451   6.303   3.070
10685SOL     OW32874   5.632   6.178   2.992
10685SOL    HW132875   5.714   6.169   2.936
10685SOL    HW232876   5.655   6.164   3.088
10686SOL     OW32877   5.779   6.130   3.601
10686SOL    HW132878   5.847   6.082   3.545
10686SOL    HW232879   5.744   6.209   3.550
10687SOL     OW32880   6.390   6.156   2.234
10687SOL    HW132881   6.402   6.075   2.176
10687SOL    HW232882   6.309   6.205   2.205
10688SOL     OW32883   6.338   5.998   3.097
10688SOL    HW132884   6.273   5.923   3.085
10688SOL    HW232885   6.319   6.070   3.029
10689SOL     OW32886   6.026   6.065   2.031
10689SOL    HW132887   6.094   6.133   2.058
10689SOL    HW232888   5.935   6.106   2.033
10690SOL     OW32889   5.779   6.737   3.340
10690SOL    HW132890   5.749   6.706   3.430
10690SOL    HW232891   5.781   6.659   3.277
10691SOL     OW32892   6.949   6.588   3.034
10691SOL    HW132893   6.933   6.510   2.973
10691SOL    HW232894   6.900   6.668   3.000
10692SOL     OW32895   6.889   6.453   2.163
10692SOL    HW132896   6.833   6.409   2.233
10692SOL    HW232897   6.846   6.441   2.074
10693SOL     OW32898   5.680   6.858   2.884
10693SOL    HW132899   5.665   6.867   2.983
10693SOL    HW232900   5.618   6.788   2.848
10694SOL     OW32901   6.870   6.572   2.558
10694SOL    HW132902   6.950   6.518   2.582
10694SOL    HW232903   6.893   6.635   2.484
10695SOL     OW32904   6.363   6.845   3.246
10695SOL    HW132905   6.336   6.879   3.336
10695SOL    HW232906   6.290   6.862   3.180
10696SOL     OW32907   5.820   5.898   2.572
10696SOL    HW132908   5.734   5.941   2.546
10696SOL    HW232909   5.827   5.895   2.671
10697SOL     OW32910   6.859   0.127   1.885
10697SOL    HW132911   6.878   0.059   1.956
10697SOL    HW232912   6.766   0.116   1.851
10698SOL     OW32913   6.420   6.577   3.249
10698SOL    HW132914   6.469   6.546   3.168
10698SOL    HW232915   6.404   6.676   3.242
10699SOL     OW32916   6.519   6.479   2.092
10699SOL    HW132917   6.596   6.521   2.044
10699SOL    HW232918   6.553   6.418   2.163
10700SOL     OW32919   5.990   6.913   3.316
10700SOL    HW132920   5.999   6.961   3.403
10700SOL    HW232921   5.914   6.848   3.322
10701SOL     OW32922   6.670   6.737   2.673
10701SOL    HW132923   6.589   6.678   2.682
10701SOL    HW232924   6.744   6.686   2.630
10702SOL     OW32925   6.592   5.831   2.814
10702SOL    HW132926   6.580   5.790   2.724
10702SOL    HW232927   6.595   5.760   2.884
10703SOL     OW32928   5.692   6.658   3.602
10703SOL    HW132929   5.615   6.625   3.657
10703SOL    HW232930   5.775   6.609   3.628
10704SOL     OW32931   6.278   5.778   3.360
10704SOL    HW132932   6.360   5.753   3.308
10704SOL    HW232933   6.304   5.807   3.452
10705SOL     OW32934   5.665   5.905   1.858
10705SOL    HW132935   5.585   5.886   1.802
10705SOL    HW232936   5.700   5.996   1.837
10706SOL     OW32937   5.626   5.739   2.106
10706SOL    HW132938   5.609   5.806   2.034
10706SOL    HW232939   5.719   5.702   2.096
10707SOL     OW32940   6.220   6.401   3.305
10707SOL    HW132941   6.283   6.478   3.291
10707SOL    HW232942   6.271   6.316   3.308
10708SOL     OW32943   6.309   6.119   3.568
10708SOL    HW132944   6.355   6.183   3.630
10708SOL    HW232945   6.328   6.025   3.597
10709SOL     OW32946   6.997   6.850   3.484
10709SOL    HW132947   6.982   6.810   3.574
10709SOL    HW232948   0.083   6.817   3.446
10710SOL     OW32949   6.834   5.910   2.289
10710SOL    HW132950   6.908   5.863   2.241
10710SOL    HW232951   6.867   5.942   2.378
10711SOL     OW32952   6.151   6.317   2.538
10711SOL    HW132953   6.206   6.398   2.518
10711SOL    HW232954   6.084   6.304   2.465
10712SOL     OW32955   6.457   6.571   2.722
10712SOL    HW132956   6.502   6.489   2.759
10712SOL    HW232957   6.392   6.606   2.789
10713SOL     OW32958   6.734   6.551   1.927
10713SOL    HW132959   6.670   6.598   1.866
10713SOL    HW232960   6.786   6.483   1.875
10714SOL     OW32961   5.775   6.914   3.664
10714SOL    HW132962   5.749   6.819   3.644
10714SOL    HW232963   5.758   6.933   3.760
10715SOL     OW32964   5.752   6.826   2.541
10715SOL    HW132965   5.780   6.778   2.623
10715SOL    HW232966   5.804   6.791   2.462
10716SOL     OW32967   6.260   6.970   3.494
10716SOL    HW132968   6.169   6.979   3.534
10716SOL    HW232969   6.284   0.055   3.448
10717SOL     OW32970   5.997   6.002   2.376
10717SOL    HW132971   6.035   5.930   2.318
10717SOL    HW232972   5.941   5.960   2.448
10718SOL     OW32973   5.941   6.134   3.145
10718SOL    HW132974   5.996   6.068   3.197
10718SOL    HW232975   5.943   6.109   3.048
10719SOL     OW32976   6.960   5.784   2.960
10719SOL    HW132977   6.933   5.689   2.972
10719SOL    HW232978   6.934   5.837   3.041
10720SOL     OW32979   6.613   5.601   2.970
10720SOL    HW132980   6.568   5.529   2.917
10720SOL    HW232981   6.711   5.580   2.977
10721SOL     OW32982   6.324   6.888   2.125
10721SOL    HW132983   6.312   6.794   2.155
10721SOL    HW232984   6.362   6.942   2.200
10722SOL     OW32985   6.912   5.670   1.983
10722SOL    HW132986   6.969   5.605   1.933
10722SOL    HW232987   6.833   5.623   2.021
10723SOL     OW32988   5.629   6.630   2.165
10723SOL    HW132989   5.728   6.623   2.152
10723SOL    HW232990   5.591   6.538   2.176
10724SOL     OW32991   5.787   6.188   3.871
10724SOL    HW132992   5.694   6.177   3.907
10724SOL    HW232993   5.785   6.185   3.771
10725SOL     OW32994   5.803   5.870   4.714
10725SOL    HW132995   5.840   5.837   4.800
10725SOL    HW232996   5.713   5.830   4.699
10726SOL     OW32997   5.573   6.004   4.365
10726SOL    HW132998   5.489   6.026   4.415
10726SOL    HW232999   5.555   5.928   4.301
10727SOL     OW33000   6.137   6.883   4.948
10727SOL    HW133001   6.076   6.918   4.877
10727SOL    HW233002   6.090   6.885   5.036
10728SOL     OW33003   0.003   0.094   4.350
10728SOL    HW133004   6.941   0.086   4.428
10728SOL    HW233005   0.071   0.021   4.352
10729SOL     OW33006   6.684   6.372   4.400
10729SOL    HW133007   6.751   6.446   4.401
10729SOL    HW233008   6.655   6.352   4.493
10730SOL     OW33009   6.243   6.707   4.732
10730SOL    HW133010   6.216   6.764   4.810
10730SOL    HW233011   6.202   6.743   4.649
10731SOL     OW33012   6.462   6.323   5.568
10731SOL    HW133013   6.462   6.382   5.649
10731SOL    HW233014   6.481   6.378   5.487
10732SOL     OW33015   6.288   6.561   4.354
10732SOL    HW133016   6.363   6.561   4.420
10732SOL    HW233017   6.212   6.615   4.389
10733SOL     OW33018   6.298   6.773   5.569
10733SOL    HW133019   6.315   6.824   5.653
10733SOL    HW233020   6.285   6.836   5.493
10734SOL     OW33021   5.945   6.985   4.781
10734SOL    HW133022   5.859   6.951   4.742
10734SOL    HW233023   5.988   0.048   4.716
10735SOL     OW33024   6.055   5.950   5.173
10735SOL    HW133025   6.135   5.892   5.190
10735SOL    HW233026   5.973   5.902   5.204
10736SOL     OW33027   5.862   6.683   4.622
10736SOL    HW133028   5.864   6.587   4.649
10736SOL    HW233029   5.808   6.735   4.688
10737SOL     OW33030   6.139   6.584   3.859
10737SOL    HW133031   6.183   6.635   3.786
10737SOL    HW233032   6.192   6.596   3.944
10738SOL     OW33033   5.693   6.261   4.299
10738SOL    HW133034   5.657   6.170   4.321
10738SOL    HW233035   5.683   6.321   4.379
10739SOL     OW33036   5.715   6.340   5.296
10739SOL    HW133037   5.806   6.381   5.298
10739SOL    HW233038   5.647   6.411   5.274
10740SOL     OW33039   6.835   6.780   5.134
10740SOL    HW133040   6.891   6.712   5.087
10740SOL    HW233041   6.885   6.815   5.213
10741SOL     OW33042   6.415   5.619   4.239
10741SOL    HW133043   6.463   5.701   4.208
10741SOL    HW233044   6.317   5.637   4.241
10742SOL     OW33045   5.783   6.529   5.028
10742SOL    HW133046   5.872   6.488   5.008
10742SOL    HW233047   5.715   6.494   4.964
10743SOL     OW33048   5.939   5.844   5.603
10743SOL    HW133049   5.978   5.926   5.646
10743SOL    HW233050   5.841   5.857   5.591
10744SOL     OW33051   6.161   6.285   4.003
10744SOL    HW133052   6.165   6.372   3.955
10744SOL    HW233053   6.091   6.288   4.074
10745SOL     OW33054   6.851   5.909   4.605
10745SOL    HW133055   6.753   5.895   4.618
10745SOL    HW233056   6.900   5.868   4.682
10746SOL     OW33057   6.368   6.170   5.171
10746SOL    HW133058   6.339   6.142   5.262
10746SOL    HW233059   6.348   6.097   5.105
10747SOL     OW33060   6.947   6.103   5.463
10747SOL    HW133061   6.915   6.191   5.500
10747SOL    HW233062   0.046   6.107   5.451
10748SOL     OW33063   6.531   6.458   5.329
10748SOL    HW133064   6.586   6.384   5.289
10748SOL    HW233065   6.485   6.508   5.255
10749SOL     OW33066   6.617   5.986   4.920
10749SOL    HW133067   6.523   5.991   4.951
10749SOL    HW233068   6.620   5.942   4.830
10750SOL     OW33069   6.620   6.302   4.143
10750SOL    HW133070   6.641   6.324   4.239
10750SOL    HW233071   6.536   6.249   4.139
10751SOL     OW33072   5.661   6.445   4.509
10751SOL    HW133073   5.750   6.427   4.552
10751SOL    HW233074   5.617   6.521   4.557
10752SOL     OW33075   6.439   5.931   3.931
10752SOL    HW133076   6.494   5.980   3.864
10752SOL    HW233077   6.384   5.861   3.885
10753SOL     OW33078   6.928   6.744   4.224
10753SOL    HW133079   6.976   6.719   4.139
10753SOL    HW233080   6.878   6.829   4.211
10754SOL     OW33081   6.140   5.727   4.654
10754SOL    HW133082   6.149   5.753   4.751
10754SOL    HW233083   6.140   5.810   4.598
10755SOL     OW33084   5.900   6.557   4.008
10755SOL    HW133085   5.978   6.573   3.947
10755SOL    HW233086   5.878   6.459   4.008
10756SOL     OW33087   5.799   5.847   5.218
10756SOL    HW133088   5.729   5.918   5.218
10756SOL    HW233089   5.763   5.764   5.261
10757SOL     OW33090   5.962   6.264   4.198
10757SOL    HW133091   5.982   6.167   4.208
10757SOL    HW233092   5.868   6.283   4.225
10758SOL     OW33093   6.250   5.692   3.832
10758SOL    HW133094   6.304   5.612   3.861
10758SOL    HW233095   6.184   5.663   3.762
10759SOL     OW33096   6.359   5.843   5.480
10759SOL    HW133097   6.448   5.797   5.477
10759SOL    HW233098   6.302   5.799   5.549
10760SOL     OW33099   6.501   6.096   4.604
10760SOL    HW133100   6.483   6.087   4.506
10760SOL    HW233101   6.529   6.007   4.641
10761SOL     OW33102   6.145   5.657   4.221
10761SOL    HW133103   6.065   5.654   4.282
10761SOL    HW233104   6.134   5.731   4.155
10762SOL     OW33105   6.969   6.714   3.727
10762SOL    HW133106   0.011   6.706   3.818
10762SOL    HW233107   6.872   6.690   3.733
10763SOL     OW33108   5.871   5.632   3.908
10763SOL    HW133109   5.918   5.707   3.861
10763SOL    HW233110   5.938   5.575   3.955
10764SOL     OW33111   6.562   5.839   4.160
10764SOL    HW133112   6.520   5.873   4.076
10764SOL    HW233113   6.660   5.858   4.160
10765SOL     OW33114   6.630   6.245   5.183
10765SOL    HW133115   6.536   6.211   5.181
10765SOL    HW233116   6.692   6.170   5.206
10766SOL     OW33117   6.828   0.074   4.549
10766SOL    HW133118   6.733   0.047   4.535
10766SOL    HW233119   6.840   0.108   4.642
10767SOL     OW33120   6.074   6.702   4.451
10767SOL    HW133121   6.002   6.696   4.520
10767SOL    HW233122   6.034   6.722   4.362
10768SOL     OW33123   6.591   6.087   3.761
10768SOL    HW133124   6.548   6.175   3.741
10768SOL    HW233125   6.656   6.098   3.836
10769SOL     OW33126   5.695   6.130   5.122
10769SOL    HW133127   5.788   6.126   5.086
10769SOL    HW233128   5.688   6.206   5.187
10770SOL     OW33129   6.155   5.783   4.921
10770SOL    HW133130   6.190   5.708   4.979
10770SOL    HW233131   6.057   5.795   4.939
10771SOL     OW33132   6.460   6.033   4.341
10771SOL    HW133133   6.415   6.093   4.274
10771SOL    HW233134   6.501   5.955   4.294
10772SOL     OW33135   6.576   5.648   4.465
10772SOL    HW133136   6.513   5.641   4.387
10772SOL    HW233137   6.563   5.570   4.526
10773SOL     OW33138   6.112   5.840   4.025
10773SOL    HW133139   6.164   5.789   3.956
10773SOL    HW233140   6.078   5.925   3.984
10774SOL     OW33141   6.620   6.864   4.991
10774SOL    HW133142   6.535   6.857   5.042
10774SOL    HW233143   6.697   6.837   5.050
10775SOL     OW33144   6.796   6.793   4.778
10775SOL    HW133145   6.730   6.818   4.849
10775SOL    HW233146   6.748   6.777   4.692
10776SOL     OW33147   6.505   5.679   5.082
10776SOL    HW133148   6.531   5.657   4.988
10776SOL    HW233149   6.582   5.722   5.129
10777SOL     OW33150   6.549   6.673   5.496
10777SOL    HW133151   6.457   6.704   5.521
10777SOL    HW233152   6.542   6.603   5.425
10778SOL     OW33153   6.307   6.618   4.074
10778SOL    HW133154   6.301   6.600   4.172
10778SOL    HW233155   6.387   6.570   4.036
10779SOL     OW33156   6.019   6.394   4.985
10779SOL    HW133157   6.091   6.409   5.053
10779SOL    HW233158   5.985   6.301   4.992
10780SOL     OW33159   6.872   5.948   5.027
10780SOL    HW133160   6.934   6.024   5.049
10780SOL    HW233161   6.788   5.984   4.987
10781SOL     OW33162   5.934   6.746   4.210
10781SOL    HW133163   5.968   6.827   4.163
10781SOL    HW233164   5.921   6.672   4.144
10782SOL     OW33165   6.116   6.129   4.598
10782SOL    HW133166   6.129   6.188   4.518
10782SOL    HW233167   6.191   6.143   4.662
10783SOL     OW33168   6.809   6.990   4.182
10783SOL    HW133169   6.872   0.040   4.241
10783SOL    HW233170   6.715   0.015   4.204
10784SOL     OW33171   6.017   6.344   5.347
10784SOL    HW133172   6.084   6.379   5.280
10784SOL    HW233173   6.052   6.260   5.388
10785SOL     OW33174   6.598   5.711   5.477
10785SOL    HW133175   6.654   5.794   5.468
10785SOL    HW233176   6.653   5.631   5.451
10786SOL     OW33177   6.081   5.634   5.490
10786SOL    HW133178   6.030   5.575   5.427
10786SOL    HW233179   6.025   5.713   5.514
10787SOL     OW33180   6.174   6.441   4.761
10787SOL    HW133181   6.198   6.538   4.751
10787SOL    HW233182   6.113   6.431   4.840
10788SOL     OW33183   6.899   6.384   4.712
10788SOL    HW133184   6.803   6.361   4.698
10788SOL    HW233185   6.946   6.308   4.758
10789SOL     OW33186   6.743   6.113   3.983
10789SOL    HW133187   6.782   6.040   4.039
10789SOL    HW233188   6.708   6.186   4.043
10790SOL     OW33189   5.882   5.775   4.960
10790SOL    HW133190   5.850   5.809   5.049
10790SOL    HW233191   5.860   5.678   4.952
10791SOL     OW33192   5.649   6.896   5.012
10791SOL    HW133193   5.693   6.847   5.087
10791SOL    HW233194   5.618   6.986   5.044
10792SOL     OW33195   6.316   6.206   4.780
10792SOL    HW133196   6.383   6.186   4.708
10792SOL    HW233197   6.275   6.295   4.763
10793SOL     OW33198   5.909   5.650   4.363
10793SOL    HW133199   5.871   5.741   4.379
10793SOL    HW233200   5.918   5.602   4.450
10794SOL     OW33201   0.172   6.064   4.048
10794SOL    HW133202   0.127   5.975   4.045
10794SOL    HW233203   0.155   6.107   4.136
10795SOL     OW33204   6.614   6.337   4.676
10795SOL    HW133205   6.595   6.352   4.773
10795SOL    HW233206   6.583   6.245   4.650
10796SOL     OW33207   5.926   6.532   5.526
10796SOL    HW133208   5.996   6.548   5.595
10796SOL    HW233209   5.959   6.464   5.461
10797SOL     OW33210   6.940   6.375   3.706
10797SOL    HW133211   0.001   6.330   3.771
10797SOL    HW233212   6.994   6.433   3.645
10798SOL     OW33213   5.897   6.404   4.654
10798SOL    HW133214   5.996   6.416   4.646
10798SOL    HW233215   5.878   6.311   4.686
10799SOL     OW33216   5.882   6.127   4.727
10799SOL    HW133217   5.844   6.035   4.719
10799SOL    HW233218   5.968   6.132   4.675
10800SOL     OW33219   6.721   5.955   5.421
10800SOL    HW133220   6.660   5.998   5.487
10800SOL    HW233221   6.811   5.998   5.425
10801SOL     OW33222   6.729   5.789   5.198
10801SOL    HW133223   6.718   5.847   5.279
10801SOL    HW233224   6.785   5.836   5.130
10802SOL     OW33225   5.610   6.896   3.914
10802SOL    HW133226   5.517   6.913   3.882
10802SOL    HW233227   5.617   6.803   3.948
10803SOL     OW33228   6.534   6.359   4.939
10803SOL    HW133229   6.588   6.330   5.018
10803SOL    HW233230   6.451   6.304   4.932
10804SOL     OW33231   5.632   6.177   4.854
10804SOL    HW133232   5.714   6.169   4.798
10804SOL    HW233233   5.655   6.164   4.951
10805SOL     OW33234   5.779   6.131   5.463
10805SOL    HW133235   5.849   6.085   5.409
10805SOL    HW233236   5.744   6.210   5.413
10806SOL     OW33237   6.390   6.156   4.096
10806SOL    HW133238   6.402   6.075   4.038
10806SOL    HW233239   6.309   6.205   4.067
10807SOL     OW33240   6.337   5.998   4.959
10807SOL    HW133241   6.272   5.923   4.947
10807SOL    HW233242   6.318   6.070   4.891
10808SOL     OW33243   6.027   6.064   3.893
10808SOL    HW133244   6.094   6.133   3.920
10808SOL    HW233245   5.935   6.105   3.895
10809SOL     OW33246   5.779   6.737   5.203
10809SOL    HW133247   5.749   6.706   5.293
10809SOL    HW233248   5.781   6.659   5.140
10810SOL     OW33249   6.949   6.588   4.897
10810SOL    HW133250   6.933   6.510   4.835
10810SOL    HW233251   6.900   6.668   4.862
10811SOL     OW33252   6.890   6.452   4.025
10811SOL    HW133253   6.833   6.409   4.095
10811SOL    HW233254   6.849   6.438   3.935
10812SOL     OW33255   5.680   6.857   4.746
10812SOL    HW133256   5.666   6.867   4.845
10812SOL    HW233257   5.618   6.788   4.710
10813SOL     OW33258   6.870   6.572   4.420
10813SOL    HW133259   6.950   6.518   4.444
10813SOL    HW233260   6.893   6.635   4.346
10814SOL     OW33261   6.363   6.845   5.108
10814SOL    HW133262   6.336   6.879   5.199
10814SOL    HW233263   6.290   6.863   5.043
10815SOL     OW33264   5.821   5.897   4.434
10815SOL    HW133265   5.735   5.941   4.408
10815SOL    HW233266   5.828   5.894   4.533
10816SOL     OW33267   6.859   0.127   3.747
10816SOL    HW133268   6.877   0.058   3.817
10816SOL    HW233269   6.766   0.116   3.713
10817SOL     OW33270   6.420   6.577   5.111
10817SOL    HW133271   6.469   6.547   5.029
10817SOL    HW233272   6.404   6.676   5.104
10818SOL     OW33273   6.519   6.479   3.954
10818SOL    HW133274   6.596   6.521   3.906
10818SOL    HW233275   6.553   6.418   4.025
10819SOL     OW33276   5.991   6.913   5.179
10819SOL    HW133277   5.999   6.962   5.266
10819SOL    HW233278   5.915   6.848   5.184
10820SOL     OW33279   6.670   6.737   4.535
10820SOL    HW133280   6.589   6.679   4.545
10820SOL    HW233281   6.744   6.686   4.492
10821SOL     OW33282   6.591   5.832   4.677
10821SOL    HW133283   6.580   5.790   4.587
10821SOL    HW233284   6.595   5.760   4.746
10822SOL     OW33285   5.691   6.658   5.465
10822SOL    HW133286   5.614   6.624   5.518
10822SOL    HW233287   5.774   6.609   5.490
10823SOL     OW33288   6.278   5.778   5.221
10823SOL    HW133289   6.361   5.753   5.170
10823SOL    HW233290   6.304   5.807   5.313
10824SOL     OW33291   5.665   5.905   3.720
10824SOL    HW133292   5.584   5.886   3.664
10824SOL    HW233293   5.700   5.996   3.699
10825SOL     OW33294   5.628   5.738   3.967
10825SOL    HW133295   5.610   5.805   3.895
10825SOL    HW233296   5.720   5.702   3.957
10826SOL     OW33297   6.220   6.401   5.167
10826SOL    HW133298   6.283   6.478   5.152
10826SOL    HW233299   6.271   6.316   5.169
10827SOL     OW33300   6.308   6.119   5.429
10827SOL    HW133301   6.354   6.182   5.491
10827SOL    HW233302   6.327   6.025   5.458
10828SOL     OW33303   6.998   6.851   5.349
10828SOL    HW133304   6.982   6.808   5.439
10828SOL    HW233305   0.083   6.816   5.310
10829SOL     OW33306   6.834   5.909   4.152
10829SOL    HW133307   6.908   5.863   4.103
10829SOL    HW233308   6.867   5.941   4.240
10830SOL     OW33309   6.151   6.317   4.400
10830SOL    HW133310   6.206   6.398   4.380
10830SOL    HW233311   6.084   6.303   4.327
10831SOL     OW33312   6.457   6.571   4.584
10831SOL    HW133313   6.502   6.489   4.621
10831SOL    HW233314   6.392   6.606   4.651
10832SOL     OW33315   6.734   6.551   3.789
10832SOL    HW133316   6.670   6.598   3.728
10832SOL    HW233317   6.786   6.484   3.737
10833SOL     OW33318   5.776   6.914   5.525
10833SOL    HW133319   5.748   6.819   5.505
10833SOL    HW233320   5.762   6.934   5.621
10834SOL     OW33321   5.752   6.826   4.402
10834SOL    HW133322   5.780   6.778   4.485
10834SOL    HW233323   5.804   6.791   4.324
10835SOL     OW33324   6.261   6.970   5.357
10835SOL    HW133325   6.169   6.978   5.396
10835SOL    HW233326   6.285   0.055   5.311
10836SOL     OW33327   5.997   6.001   4.238
10836SOL    HW133328   6.035   5.930   4.179
10836SOL    HW233329   5.941   5.959   4.310
10837SOL     OW33330   5.940   6.134   5.007
10837SOL    HW133331   5.995   6.068   5.059
10837SOL    HW233332   5.942   6.109   4.910
10838SOL     OW33333   6.960   5.784   4.822
10838SOL    HW133334   6.933   5.689   4.834
10838SOL    HW233335   6.934   5.837   4.903
10839SOL     OW33336   6.613   5.601   4.832
10839SOL    HW133337   6.568   5.529   4.778
10839SOL    HW233338   6.711   5.580   4.838
10840SOL     OW33339   6.324   6.889   3.987
10840SOL    HW133340   6.312   6.794   4.017
10840SOL    HW233341   6.362   6.943   4.063
10841SOL     OW33342   6.912   5.671   3.844
10841SOL    HW133343   6.969   5.605   3.794
10841SOL    HW233344   6.833   5.624   3.882
10842SOL     OW33345   5.630   6.631   4.026
10842SOL    HW133346   5.729   6.624   4.014
10842SOL    HW233347   5.592   6.539   4.038
10843SOL     OW33348   5.787   6.188   5.733
10843SOL    HW133349   5.695   6.176   5.770
10843SOL    HW233350   5.784   6.186   5.633
10844SOL     OW33351   5.797   5.888   6.568
10844SOL    HW133352   5.837   5.854   6.652
10844SOL    HW233353   5.704   5.852   6.558
10845SOL     OW33354   5.566   6.006   6.223
10845SOL    HW133355   5.482   6.029   6.272
10845SOL    HW233356   5.549   5.929   6.161
10846SOL     OW33357   6.127   6.912   6.789
10846SOL    HW133358   6.054   6.938   6.726
10846SOL    HW233359   6.089   6.898   6.880
10847SOL     OW33360   0.013   0.086   6.209
10847SOL    HW133361   6.954   0.074   6.288
10847SOL    HW233362   0.081   0.013   6.207
10848SOL     OW33363   6.683   6.369   6.269
10848SOL    HW133364   6.752   6.441   6.270
10848SOL    HW233365   6.649   6.354   6.362
10849SOL     OW33366   6.239   6.713   6.587
10849SOL    HW133367   6.211   6.776   6.660
10849SOL    HW233368   6.191   6.737   6.503
10850SOL     OW33369   6.284   6.565   6.220
10850SOL    HW133370   6.360   6.563   6.285
10850SOL    HW233371   6.208   6.617   6.258
10851SOL     OW33372   5.916   0.008   6.646
10851SOL    HW133373   5.832   6.968   6.611
10851SOL    HW233374   5.955   0.070   6.577
10852SOL     OW33375   5.861   6.682   6.501
10852SOL    HW133376   5.866   6.584   6.523
10852SOL    HW233377   5.807   6.729   6.570
10853SOL     OW33378   6.138   6.583   5.724
10853SOL    HW133379   6.182   6.634   5.650
10853SOL    HW233380   6.191   6.595   5.808
10854SOL     OW33381   0.208   5.780   0.084
10854SOL    HW133382   0.163   5.864   0.056
10854SOL    HW233383   0.145   5.726   0.140
10855SOL     OW33384   5.694   6.260   6.160
10855SOL    HW133385   5.655   6.171   6.181
10855SOL    HW233386   5.688   6.319   6.241
10856SOL     OW33387   6.820   6.797   0.008
10856SOL    HW133388   6.877   6.746   6.944
10856SOL    HW233389   6.878   6.844   0.074
10857SOL     OW33390   6.411   5.621   6.091
10857SOL    HW133391   6.458   5.705   6.064
10857SOL    HW233392   6.313   5.638   6.097
10858SOL     OW33393   5.741   6.547   6.830
10858SOL    HW133394   5.819   6.489   6.807
10858SOL    HW233395   5.656   6.496   6.814
10859SOL     OW33396   6.161   6.286   5.863
10859SOL    HW133397   6.163   6.374   5.815
10859SOL    HW233398   6.091   6.289   5.934
10860SOL     OW33399   6.859   5.920   6.478
10860SOL    HW133400   6.760   5.903   6.478
10860SOL    HW233401   6.902   5.866   6.550
10861SOL     OW33402   6.457   6.190   0.005
10861SOL    HW133403   6.396   6.247   0.060
10861SOL    HW233404   6.402   6.131   6.946
10862SOL     OW33405   6.581   5.959   6.761
10862SOL    HW133406   6.489   5.975   6.796
10862SOL    HW233407   6.576   5.908   6.675
10863SOL     OW33408   6.623   6.304   6.009
10863SOL    HW133409   6.642   6.323   6.106
10863SOL    HW233410   6.538   6.250   6.002
10864SOL     OW33411   5.675   6.442   6.371
10864SOL    HW133412   5.762   6.423   6.418
10864SOL    HW233413   5.632   6.522   6.413
10865SOL     OW33414   6.438   5.933   5.792
10865SOL    HW133415   6.493   5.981   5.724
10865SOL    HW233416   6.382   5.863   5.746
10866SOL     OW33417   6.927   6.740   6.091
10866SOL    HW133418   6.973   6.716   6.005
10866SOL    HW233419   6.876   6.825   6.078
10867SOL     OW33420   6.144   5.729   6.517
10867SOL    HW133421   6.151   5.761   6.612
10867SOL    HW233422   6.144   5.807   6.456
10868SOL     OW33423   5.901   6.556   5.877
10868SOL    HW133424   5.977   6.573   5.814
10868SOL    HW233425   5.880   6.458   5.878
10869SOL     OW33426   5.962   6.266   6.058
10869SOL    HW133427   5.982   6.168   6.068
10869SOL    HW233428   5.868   6.283   6.086
10870SOL     OW33429   6.250   5.692   5.694
10870SOL    HW133430   6.301   5.613   5.726
10870SOL    HW233431   6.185   5.664   5.624
10871SOL     OW33432   6.512   6.112   6.467
10871SOL    HW133433   6.490   6.104   6.370
10871SOL    HW233434   6.543   6.024   6.502
10872SOL     OW33435   6.141   5.657   6.084
10872SOL    HW133436   6.062   5.654   6.146
10872SOL    HW233437   6.129   5.731   6.018
10873SOL     OW33438   6.968   6.713   5.592
10873SOL    HW133439   0.009   6.705   5.683
10873SOL    HW233440   6.871   6.691   5.597
10874SOL     OW33441   5.869   5.632   5.768
10874SOL    HW133442   5.917   5.707   5.723
10874SOL    HW233443   5.935   5.574   5.817
10875SOL     OW33444   6.559   5.844   6.023
10875SOL    HW133445   6.517   5.878   5.938
10875SOL    HW233446   6.657   5.862   6.021
10876SOL     OW33447   6.833   0.066   6.404
10876SOL    HW133448   6.740   0.040   6.378
10876SOL    HW233449   6.833   0.161   6.438
10877SOL     OW33450   6.073   6.705   6.330
10877SOL    HW133451   5.999   6.697   6.397
10877SOL    HW233452   6.035   6.723   6.239
10878SOL     OW33453   6.591   6.088   5.622
10878SOL    HW133454   6.548   6.176   5.601
10878SOL    HW233455   6.656   6.100   5.697
10879SOL     OW33456   6.149   5.805   6.783
10879SOL    HW133457   6.175   5.722   6.833
10879SOL    HW233458   6.050   5.820   6.794
10880SOL     OW33459   6.464   6.042   6.205
10880SOL    HW133460   6.415   6.100   6.140
10880SOL    HW233461   6.501   5.962   6.158
10881SOL     OW33462   6.579   5.639   6.310
10881SOL    HW133463   6.512   5.632   6.236
10881SOL    HW233464   6.562   5.567   6.377
10882SOL     OW33465   6.110   5.840   5.886
10882SOL    HW133466   6.163   5.789   5.818
10882SOL    HW233467   6.077   5.925   5.846
10883SOL     OW33468   6.600   6.931   6.916
10883SOL    HW133469   6.522   6.879   6.950
10883SOL    HW233470   6.685   6.889   6.949
10884SOL     OW33471   6.764   6.788   6.651
10884SOL    HW133472   6.715   6.861   6.700
10884SOL    HW233473   6.727   6.779   6.559
10885SOL     OW33474   6.306   6.620   5.938
10885SOL    HW133475   6.298   6.602   6.036
10885SOL    HW233476   6.385   6.572   5.901
10886SOL     OW33477   6.011   6.422   6.856
10886SOL    HW133478   6.047   6.462   6.940
10886SOL    HW233479   5.975   6.330   6.875
10887SOL     OW33480   6.835   6.002   6.845
10887SOL    HW133481   6.819   6.083   6.901
10887SOL    HW233482   6.750   5.975   6.800
10888SOL     OW33483   5.939   6.742   6.083
10888SOL    HW133484   5.976   6.821   6.034
10888SOL    HW233485   5.923   6.668   6.018
10889SOL     OW33486   6.133   6.112   6.443
10889SOL    HW133487   6.143   6.173   6.364
10889SOL    HW233488   6.203   6.133   6.511
10890SOL     OW33489   6.809   6.988   6.049
10890SOL    HW133490   6.875   0.037   6.105
10890SOL    HW233491   6.717   0.015   6.074
10891SOL     OW33492   6.175   6.448   6.636
10891SOL    HW133493   6.202   6.543   6.622
10891SOL    HW233494   6.119   6.441   6.719
10892SOL     OW33495   6.916   6.397   6.589
10892SOL    HW133496   6.819   6.385   6.570
10892SOL    HW233497   6.952   6.313   6.631
10893SOL     OW33498   6.742   6.117   5.844
10893SOL    HW133499   6.780   6.043   5.899
10893SOL    HW233500   6.708   6.189   5.905
10894SOL     OW33501   5.877   5.806   6.816
10894SOL    HW133502   5.815   5.853   6.879
10894SOL    HW233503   5.862   5.708   6.821
10895SOL     OW33504   5.601   6.902   6.882
10895SOL    HW133505   5.667   6.849   6.936
10895SOL    HW233506   5.571   6.981   6.935
10896SOL     OW33507   6.307   6.202   6.635
10896SOL    HW133508   6.383   6.191   6.571
10896SOL    HW233509   6.272   6.295   6.629
10897SOL     OW33510   5.906   5.651   6.229
10897SOL    HW133511   5.868   5.742   6.242
10897SOL    HW233512   5.913   5.604   6.316
10898SOL     OW33513   0.173   6.064   5.909
10898SOL    HW133514   0.128   5.975   5.905
10898SOL    HW233515   0.156   6.107   5.997
10899SOL     OW33516   6.612   6.355   6.558
10899SOL    HW133517   6.591   6.372   6.654
10899SOL    HW233518   6.583   6.263   6.533
10900SOL     OW33519   6.940   6.375   5.572
10900SOL    HW133520   0.004   6.329   5.635
10900SOL    HW233521   6.992   6.433   5.510
10901SOL     OW33522   5.908   6.403   6.529
10901SOL    HW133523   6.006   6.425   6.535
10901SOL    HW233524   5.894   6.308   6.556
10902SOL     OW33525   5.914   6.128   6.598
10902SOL    HW133526   5.867   6.040   6.586
10902SOL    HW233527   5.997   6.129   6.541
10903SOL     OW33528   6.782   5.872   0.088
10903SOL    HW133529   6.803   5.944   0.155
10903SOL    HW233530   6.805   5.904   6.996
10904SOL     OW33531   5.610   6.895   5.777
10904SOL    HW133532   5.517   6.912   5.744
10904SOL    HW233533   5.617   6.801   5.810
10905SOL     OW33534   6.547   6.405   6.831
10905SOL    HW133535   6.595   6.467   6.893
10905SOL    HW233536   6.517   6.324   6.881
10906SOL     OW33537   5.652   6.175   6.715
10906SOL    HW133538   5.708   6.162   6.633
10906SOL    HW233539   5.711   6.173   6.796
10907SOL     OW33540   6.393   6.160   5.956
10907SOL    HW133541   6.403   6.078   5.899
10907SOL    HW233542   6.310   6.209   5.928
10908SOL     OW33543   6.319   6.021   6.836
10908SOL    HW133544   6.257   5.943   6.822
10908SOL    HW233545   6.305   6.087   6.763
10909SOL     OW33546   6.027   6.065   5.754
10909SOL    HW133547   6.095   6.133   5.781
10909SOL    HW233548   5.936   6.105   5.756
10910SOL     OW33549   5.765   6.735   0.023
10910SOL    HW133550   5.728   6.698   0.108
10910SOL    HW233551   5.760   6.665   6.951
10911SOL     OW33552   6.881   6.583   6.794
10911SOL    HW133553   6.911   6.519   6.723
10911SOL    HW233554   6.835   6.661   6.751
10912SOL     OW33555   6.889   6.446   5.890
10912SOL    HW133556   6.826   6.407   5.957
10912SOL    HW233557   6.856   6.426   5.798
10913SOL     OW33558   5.664   6.873   6.612
10913SOL    HW133559   5.637   6.876   6.708
10913SOL    HW233560   5.614   6.799   6.566
10914SOL     OW33561   6.873   6.565   6.285
10914SOL    HW133562   6.955   6.513   6.308
10914SOL    HW233563   6.893   6.629   6.211
10915SOL     OW33564   6.372   6.821   0.028
10915SOL    HW133565   6.384   6.838   0.126
10915SOL    HW233566   6.283   6.856   6.999
10916SOL     OW33567   5.817   5.901   6.289
10916SOL    HW133568   5.730   5.943   6.262
10916SOL    HW233569   5.824   5.901   6.389
10917SOL     OW33570   6.858   0.127   5.609
10917SOL    HW133571   6.876   0.059   5.680
10917SOL    HW233572   6.765   0.116   5.575
10918SOL     OW33573   6.326   6.554   6.949
10918SOL    HW133574   6.391   6.512   6.885
10918SOL    HW233575   6.356   6.647   6.970
10919SOL     OW33576   6.519   6.481   5.820
10919SOL    HW133577   6.596   6.522   5.771
10919SOL    HW233578   6.554   6.419   5.891
10920SOL     OW33579   5.993   6.893   0.032
10920SOL    HW133580   5.981   6.949   0.115
10920SOL    HW233581   5.915   6.831   0.022
10921SOL     OW33582   6.667   6.742   6.391
10921SOL    HW133583   6.587   6.683   6.403
10921SOL    HW233584   6.742   6.688   6.352
10922SOL     OW33585   6.596   5.833   6.514
10922SOL    HW133586   6.578   5.796   6.423
10922SOL    HW233587   6.612   5.758   6.578
10923SOL     OW33588   6.294   5.758   0.121
10923SOL    HW133589   6.387   5.721   0.133
10923SOL    HW233590   6.299   5.857   0.107
10924SOL     OW33591   5.667   5.904   5.581
10924SOL    HW133592   5.586   5.886   5.525
10924SOL    HW233593   5.702   5.996   5.560
10925SOL     OW33594   5.626   5.737   5.829
10925SOL    HW133595   5.609   5.804   5.757
10925SOL    HW233596   5.718   5.700   5.818
10926SOL     OW33597   6.832   5.913   6.013
10926SOL    HW133598   6.907   5.866   5.967
10926SOL    HW233599   6.863   5.947   6.101
10927SOL     OW33600   6.162   6.310   6.252
10927SOL    HW133601   6.211   6.396   6.237
10927SOL    HW233602   6.089   6.300   6.183
10928SOL     OW33603   6.455   6.577   6.448
10928SOL    HW133604   6.500   6.499   6.492
10928SOL    HW233605   6.388   6.615   6.511
10929SOL     OW33606   6.732   6.553   5.653
10929SOL    HW133607   6.668   6.599   5.591
10929SOL    HW233608   6.784   6.485   5.602
10930SOL     OW33609   5.759   6.831   6.274
10930SOL    HW133610   5.779   6.781   6.358
10930SOL    HW233611   5.811   6.791   6.198
10931SOL     OW33612   5.998   6.003   6.098
10931SOL    HW133613   6.035   5.930   6.040
10931SOL    HW233614   5.941   5.962   6.169
10932SOL     OW33615   5.901   6.169   6.877
10932SOL    HW133616   5.938   6.095   6.933
10932SOL    HW233617   5.918   6.149   6.780
10933SOL     OW33618   6.959   5.783   6.691
10933SOL    HW133619   6.937   5.686   6.700
10933SOL    HW233620   6.919   5.834   6.768
10934SOL     OW33621   6.639   5.620   6.670
10934SOL    HW133622   6.574   5.544   6.661
10934SOL    HW233623   6.731   5.583   6.679
10935SOL     OW33624   6.325   6.888   5.845
10935SOL    HW133625   6.312   6.794   5.878
10935SOL    HW233626   6.367   6.943   5.918
10936SOL     OW33627   6.912   5.671   5.710
10936SOL    HW133628   6.969   5.606   5.659
10936SOL    HW233629   6.833   5.623   5.748
10937SOL     OW33630   5.630   6.629   5.887
10937SOL    HW133631   5.730   6.623   5.877
10937SOL    HW233632   5.592   6.537   5.898
   7.00000   7.00000   7.00000
