CNT in water
  824
    1C        C    1   2.242   4.532   3.298
    1C        C    2   2.115   4.520   3.224
    1C        C    3   1.993   4.520   3.300
    1C        C    4   2.746   4.532   3.301
    1C        C    5   2.621   4.517   3.229
    1C        C    6   2.494   4.531   3.300
    1C        C    7   2.369   4.461   3.094
    1C        C    8   2.369   4.516   3.228
    1C        C    9   2.244   4.434   3.026
    1C        C   10   2.116   4.474   3.085
    1C        C   11   2.002   4.400   2.875
    1C        C   12   2.002   4.477   2.994
    1C        C   13   3.250   4.533   3.300
    1C        C   14   3.124   4.518   3.229
    1C        C   15   2.998   4.533   3.301
    1C        C   16   2.873   4.461   3.095
    1C        C   17   2.872   4.517   3.229
    1C        C   18   2.747   4.428   3.030
    1C        C   19   2.621   4.460   3.095
    1C        C   20   2.496   4.353   2.905
    1C        C   21   2.496   4.430   3.028
    1C        C   22   2.370   4.312   2.844
    1C        C   23   2.244   4.355   2.902
    1C        C   24   2.116   4.214   2.742
    1C        C   25   2.119   4.329   2.832
    1C        C   26   1.995   4.140   2.716
    1C        C   27   3.752   4.532   3.300
    1C        C   28   3.626   4.518   3.229
    1C        C   29   3.501   4.533   3.300
    1C        C   30   3.375   4.461   3.095
    1C        C   31   3.375   4.518   3.229
    1C        C   32   3.250   4.429   3.029
    1C        C   33   3.124   4.461   3.095
    1C        C   34   2.998   4.355   2.904
    1C        C   35   2.998   4.431   3.028
    1C        C   36   2.873   4.311   2.846
    1C        C   37   2.747   4.351   2.906
    1C        C   38   2.621   4.213   2.738
    1C        C   39   2.622   4.311   2.845
    1C        C   40   2.495   4.159   2.689
    1C        C   41   2.369   4.212   2.739
    1C        C   42   2.242   4.041   2.602
    1C        C   43   2.243   4.161   2.688
    1C        C   44   2.114   3.974   2.573
    1C        C   45   1.995   4.025   2.635
    1C        C   46   4.255   4.529   3.301
    1C        C   47   4.129   4.516   3.229
    1C        C   48   4.004   4.531   3.300
    1C        C   49   3.878   4.461   3.094
    1C        C   50   3.878   4.517   3.229
    1C        C   51   3.752   4.429   3.029
    1C        C   52   3.626   4.462   3.094
    1C        C   53   3.501   4.355   2.904
    1C        C   54   3.501   4.431   3.028
    1C        C   55   3.375   4.311   2.846
    1C        C   56   3.250   4.352   2.906
    1C        C   57   3.124   4.213   2.738
    1C        C   58   3.124   4.312   2.845
    1C        C   59   2.998   4.159   2.690
    1C        C   60   2.873   4.211   2.739
    1C        C   61   2.747   4.040   2.605
    1C        C   62   2.747   4.160   2.688
    1C        C   63   2.621   3.976   2.570
    1C        C   64   2.495   4.039   2.607
    1C        C   65   2.369   3.842   2.516
    1C        C   66   2.368   3.978   2.568
    1C        C   67   2.243   3.773   2.494
    1C        C   68   2.115   3.842   2.510
    1C        C   69   2.000   3.639   2.421
    1C        C   70   2.000   3.777   2.447
    1C        C   71   4.757   4.533   3.299
    1C        C   72   4.632   4.515   3.229
    1C        C   73   4.506   4.528   3.301
    1C        C   74   4.381   4.459   3.094
    1C        C   75   4.381   4.513   3.229
    1C        C   76   4.255   4.429   3.028
    1C        C   77   4.129   4.461   3.094
    1C        C   78   4.003   4.355   2.904
    1C        C   79   4.003   4.432   3.027
    1C        C   80   3.878   4.311   2.845
    1C        C   81   3.752   4.352   2.906
    1C        C   82   3.627   4.212   2.738
    1C        C   83   3.627   4.312   2.844
    1C        C   84   3.501   4.158   2.690
    1C        C   85   3.375   4.211   2.740
    1C        C   86   3.250   4.039   2.606
    1C        C   87   3.250   4.159   2.688
    1C        C   88   3.124   3.975   2.571
    1C        C   89   2.998   4.038   2.608
    1C        C   90   2.873   3.841   2.514
    1C        C   91   2.873   3.977   2.569
    1C        C   92   2.747   3.772   2.494
    1C        C   93   2.621   3.841   2.517
    1C        C   94   2.495   3.629   2.468
    1C        C   95   2.495   3.772   2.493
    1C        C   96   2.369   3.556   2.460
    1C        C   97   2.243   3.628   2.468
    1C        C   98   2.115   3.415   2.465
    1C        C   99   2.118   3.559   2.440
    1C        C  100   1.994   3.345   2.502
    1C        C  101   5.002   4.572   3.299
    1C        C  102   4.887   4.461   3.096
    1C        C  103   4.884   4.530   3.225
    1C        C  104   4.759   4.429   3.029
    1C        C  105   4.633   4.459   3.095
    1C        C  106   4.507   4.353   2.904
    1C        C  107   4.507   4.429   3.028
    1C        C  108   4.381   4.310   2.846
    1C        C  109   4.255   4.352   2.905
    1C        C  110   4.129   4.211   2.739
    1C        C  111   4.129   4.312   2.844
    1C        C  112   4.003   4.157   2.691
    1C        C  113   3.878   4.210   2.740
    1C        C  114   3.752   4.038   2.607
    1C        C  115   3.752   4.159   2.688
    1C        C  116   3.626   3.974   2.572
    1C        C  117   3.501   4.037   2.609
    1C        C  118   3.375   3.841   2.514
    1C        C  119   3.375   3.976   2.569
    1C        C  120   3.249   3.771   2.492
    1C        C  121   3.124   3.840   2.517
    1C        C  122   2.998   3.629   2.465
    1C        C  123   2.998   3.772   2.491
    1C        C  124   2.872   3.556   2.459
    1C        C  125   2.747   3.628   2.469
    1C        C  126   2.620   3.411   2.462
    1C        C  127   2.621   3.556   2.459
    1C        C  128   2.494   3.339   2.470
    1C        C  129   2.368   3.411   2.464
    1C        C  130   2.241   3.195   2.498
    1C        C  131   2.242   3.339   2.468
    1C        C  132   2.113   3.128   2.528
    1C        C  133   1.994   3.208   2.531
    1C        C  134   5.008   4.331   2.922
    1C        C  135   5.007   4.402   3.043
    1C        C  136   4.887   4.303   2.849
    1C        C  137   4.760   4.352   2.904
    1C        C  138   4.633   4.209   2.741
    1C        C  139   4.633   4.311   2.845
    1C        C  140   4.507   4.154   2.693
    1C        C  141   4.381   4.208   2.742
    1C        C  142   4.255   4.037   2.608
    1C        C  143   4.255   4.157   2.690
    1C        C  144   4.129   3.974   2.571
    1C        C  145   4.003   4.036   2.609
    1C        C  146   3.878   3.840   2.515
    1C        C  147   3.878   3.975   2.570
    1C        C  148   3.752   3.770   2.493
    1C        C  149   3.626   3.839   2.517
    1C        C  150   3.501   3.628   2.464
    1C        C  151   3.501   3.771   2.490
    1C        C  152   3.375   3.556   2.458
    1C        C  153   3.249   3.628   2.467
    1C        C  154   3.124   3.410   2.460
    1C        C  155   3.124   3.556   2.456
    1C        C  156   2.998   3.338   2.469
    1C        C  157   2.872   3.411   2.464
    1C        C  158   2.746   3.196   2.501
    1C        C  159   2.746   3.338   2.468
    1C        C  160   2.620   3.128   2.525
    1C        C  161   2.494   3.197   2.504
    1C        C  162   2.368   2.997   2.589
    1C        C  163   2.368   3.127   2.522
    1C        C  164   2.242   2.935   2.625
    1C        C  165   2.114   2.993   2.584
    1C        C  166   1.999   2.792   2.677
    1C        C  167   1.999   2.903   2.591
    1C        C  168   5.003   4.176   2.659
    1C        C  169   4.885   4.214   2.732
    1C        C  170   4.758   4.038   2.605
    1C        C  171   4.758   4.158   2.688
    1C        C  172   4.632   3.973   2.571
    1C        C  173   4.506   4.034   2.611
    1C        C  174   4.381   3.839   2.515
    1C        C  175   4.381   3.974   2.571
    1C        C  176   4.255   3.770   2.493
    1C        C  177   4.129   3.839   2.517
    1C        C  178   4.003   3.627   2.465
    1C        C  179   4.003   3.771   2.491
    1C        C  180   3.877   3.555   2.458
    1C        C  181   3.752   3.627   2.468
    1C        C  182   3.626   3.410   2.460
    1C        C  183   3.626   3.555   2.456
    1C        C  184   3.500   3.337   2.470
    1C        C  185   3.375   3.410   2.463
    1C        C  186   3.249   3.196   2.502
    1C        C  187   3.249   3.337   2.467
    1C        C  188   3.123   3.127   2.525
    1C        C  189   2.998   3.197   2.504
    1C        C  190   2.872   2.996   2.588
    1C        C  191   2.872   3.126   2.523
    1C        C  192   2.746   2.934   2.626
    1C        C  193   2.620   2.998   2.591
    1C        C  194   2.494   2.820   2.715
    1C        C  195   2.494   2.934   2.625
    1C        C  196   2.368   2.766   2.764
    1C        C  197   2.242   2.820   2.716
    1C        C  198   2.114   2.676   2.875
    1C        C  199   2.117   2.753   2.750
    1C        C  200   1.994   2.659   2.952
    1C        C  201   5.003   4.066   2.571
    1C        C  202   4.887   3.841   2.515
    1C        C  203   4.884   3.983   2.554
    1C        C  204   4.760   3.770   2.493
    1C        C  205   4.633   3.838   2.518
    1C        C  206   4.507   3.627   2.466
    1C        C  207   4.507   3.770   2.492
    1C        C  208   4.381   3.555   2.459
    1C        C  209   4.255   3.627   2.468
    1C        C  210   4.129   3.409   2.462
    1C        C  211   4.129   3.555   2.457
    1C        C  212   4.003   3.337   2.471
    1C        C  213   3.877   3.409   2.464
    1C        C  214   3.752   3.195   2.503
    1C        C  215   3.752   3.337   2.467
    1C        C  216   3.626   3.126   2.526
    1C        C  217   3.500   3.196   2.505
    1C        C  218   3.374   2.994   2.587
    1C        C  219   3.375   3.126   2.524
    1C        C  220   3.249   2.932   2.625
    1C        C  221   3.123   2.996   2.590
    1C        C  222   2.997   2.817   2.713
    1C        C  223   2.997   2.932   2.624
    1C        C  224   2.871   2.764   2.763
    1C        C  225   2.746   2.820   2.716
    1C        C  226   2.619   2.670   2.874
    1C        C  227   2.620   2.764   2.763
    1C        C  228   2.493   2.628   2.933
    1C        C  229   2.367   2.672   2.876
    1C        C  230   2.240   2.555   3.060
    1C        C  231   2.241   2.628   2.932
    1C        C  232   2.113   2.533   3.131
    1C        C  233   1.993   2.590   3.074
    1C        C  234   5.008   3.624   2.497
    1C        C  235   5.006   3.762   2.526
    1C        C  236   4.886   3.552   2.467
    1C        C  237   4.759   3.626   2.467
    1C        C  238   4.632   3.409   2.465
    1C        C  239   4.633   3.554   2.458
    1C        C  240   4.506   3.337   2.475
    1C        C  241   4.380   3.409   2.467
    1C        C  242   4.254   3.195   2.505
    1C        C  243   4.254   3.336   2.470
    1C        C  244   4.128   3.126   2.527
    1C        C  245   4.003   3.196   2.506
    1C        C  246   3.877   2.994   2.588
    1C        C  247   3.877   3.125   2.525
    1C        C  248   3.751   2.932   2.625
    1C        C  249   3.626   2.996   2.590
    1C        C  250   3.500   2.815   2.712
    1C        C  251   3.500   2.931   2.623
    1C        C  252   3.374   2.762   2.762
    1C        C  253   3.248   2.818   2.715
    1C        C  254   3.123   2.667   2.872
    1C        C  255   3.123   2.761   2.761
    1C        C  256   2.997   2.625   2.931
    1C        C  257   2.871   2.670   2.874
    1C        C  258   2.745   2.555   3.059
    1C        C  259   2.745   2.625   2.931
    1C        C  260   2.619   2.527   3.126
    1C        C  261   2.493   2.559   3.061
    1C        C  262   2.367   2.487   3.266
    1C        C  263   2.367   2.526   3.126
    1C        C  264   2.242   2.472   3.338
    1C        C  265   2.113   2.483   3.268
    1C        C  266   1.999   2.412   3.479
    1C        C  267   1.999   2.426   3.338
    1C        C  268   5.002   3.326   2.433
    1C        C  269   4.885   3.406   2.455
    1C        C  270   4.757   3.193   2.503
    1C        C  271   4.757   3.336   2.469
    1C        C  272   4.632   3.125   2.529
    1C        C  273   4.506   3.196   2.509
    1C        C  274   4.380   2.993   2.589
    1C        C  275   4.380   3.125   2.527
    1C        C  276   4.254   2.931   2.625
    1C        C  277   4.128   2.994   2.590
    1C        C  278   4.003   2.815   2.713
    1C        C  279   4.003   2.930   2.623
    1C        C  280   3.877   2.762   2.763
    1C        C  281   3.751   2.817   2.715
    1C        C  282   3.625   2.666   2.872
    1C        C  283   3.625   2.760   2.761
    1C        C  284   3.500   2.625   2.932
    1C        C  285   3.374   2.669   2.874
    1C        C  286   3.248   2.555   3.059
    1C        C  287   3.248   2.623   2.931
    1C        C  288   3.122   2.526   3.126
    1C        C  289   2.997   2.557   3.060
    1C        C  290   2.871   2.484   3.265
    1C        C  291   2.871   2.524   3.125
    1C        C  292   2.745   2.471   3.337
    1C        C  293   2.619   2.488   3.266
    1C        C  294   2.494   2.460   3.482
    1C        C  295   2.493   2.470   3.337
    1C        C  296   2.368   2.461   3.555
    1C        C  297   2.242   2.460   3.484
    1C        C  298   2.116   2.459   3.702
    1C        C  299   2.117   2.436   3.557
    1C        C  300   1.998   2.453   3.784
    1C        C  301   5.001   3.187   2.456
    1C        C  302   4.886   2.995   2.587
    1C        C  303   4.884   3.119   2.509
    1C        C  304   4.759   2.931   2.625
    1C        C  305   4.632   2.995   2.592
    1C        C  306   4.506   2.815   2.714
    1C        C  307   4.506   2.930   2.625
    1C        C  308   4.380   2.762   2.764
    1C        C  309   4.254   2.816   2.715
    1C        C  310   4.128   2.667   2.874
    1C        C  311   4.128   2.760   2.762
    1C        C  312   4.002   2.625   2.933
    1C        C  313   3.877   2.669   2.875
    1C        C  314   3.751   2.554   3.060
    1C        C  315   3.751   2.623   2.931
    1C        C  316   3.625   2.526   3.127
    1C        C  317   3.500   2.557   3.061
    1C        C  318   3.374   2.484   3.266
    1C        C  319   3.374   2.524   3.126
    1C        C  320   3.248   2.471   3.337
    1C        C  321   3.122   2.487   3.266
    1C        C  322   2.997   2.458   3.482
    1C        C  323   2.997   2.469   3.337
    1C        C  324   2.871   2.460   3.555
    1C        C  325   2.746   2.462   3.482
    1C        C  326   2.620   2.480   3.699
    1C        C  327   2.620   2.459   3.555
    1C        C  328   2.494   2.497   3.769
    1C        C  329   2.368   2.484   3.698
    1C        C  330   2.243   2.537   3.909
    1C        C  331   2.243   2.488   3.771
    1C        C  332   2.116   2.553   3.981
    1C        C  333   1.998   2.493   3.919
    1C        C  334   5.007   2.835   2.735
    1C        C  335   5.006   2.948   2.651
    1C        C  336   4.886   2.766   2.771
    1C        C  337   4.759   2.815   2.716
    1C        C  338   4.632   2.669   2.876
    1C        C  339   4.632   2.761   2.763
    1C        C  340   4.505   2.628   2.936
    1C        C  341   4.380   2.670   2.877
    1C        C  342   4.254   2.555   3.061
    1C        C  343   4.254   2.624   2.933
    1C        C  344   4.128   2.526   3.128
    1C        C  345   4.002   2.557   3.062
    1C        C  346   3.876   2.484   3.267
    1C        C  347   3.876   2.524   3.127
    1C        C  348   3.750   2.470   3.338
    1C        C  349   3.625   2.487   3.267
    1C        C  350   3.499   2.458   3.483
    1C        C  351   3.499   2.468   3.338
    1C        C  352   3.374   2.460   3.556
    1C        C  353   3.248   2.461   3.483
    1C        C  354   3.122   2.478   3.700
    1C        C  355   3.122   2.458   3.556
    1C        C  356   2.997   2.494   3.771
    1C        C  357   2.871   2.481   3.699
    1C        C  358   2.745   2.542   3.908
    1C        C  359   2.745   2.493   3.771
    1C        C  360   2.619   2.573   3.974
    1C        C  361   2.494   2.546   3.907
    1C        C  362   2.367   2.648   4.097
    1C        C  363   2.368   2.569   3.975
    1C        C  364   2.240   2.690   4.155
    1C        C  365   2.113   2.645   4.095
    1C        C  366   1.991   2.809   4.235
    1C        C  367   1.993   2.715   4.132
    1C        C  368   5.002   2.591   2.918
    1C        C  369   4.885   2.660   2.872
    1C        C  370   4.757   2.551   3.061
    1C        C  371   4.757   2.622   2.932
    1C        C  372   4.631   2.525   3.129
    1C        C  373   4.505   2.558   3.064
    1C        C  374   4.379   2.484   3.268
    1C        C  375   4.379   2.525   3.128
    1C        C  376   4.253   2.469   3.339
    1C        C  377   4.128   2.486   3.268
    1C        C  378   4.002   2.457   3.483
    1C        C  379   4.002   2.467   3.338
    1C        C  380   3.876   2.458   3.556
    1C        C  381   3.750   2.460   3.483
    1C        C  382   3.625   2.477   3.701
    1C        C  383   3.625   2.457   3.556
    1C        C  384   3.499   2.494   3.771
    1C        C  385   3.374   2.480   3.700
    1C        C  386   3.248   2.540   3.909
    1C        C  387   3.248   2.492   3.772
    1C        C  388   3.122   2.571   3.975
    1C        C  389   2.997   2.543   3.908
    1C        C  390   2.871   2.646   4.100
    1C        C  391   2.871   2.570   3.976
    1C        C  392   2.744   2.690   4.158
    1C        C  393   2.619   2.649   4.098
    1C        C  394   2.492   2.791   4.262
    1C        C  395   2.492   2.690   4.158
    1C        C  396   2.366   2.847   4.310
    1C        C  397   2.239   2.793   4.261
    1C        C  398   2.112   2.969   4.392
    1C        C  399   2.112   2.854   4.301
    1C        C  400   1.991   3.030   4.442
    1C        C  401   5.001   2.515   3.036
    1C        C  402   4.885   2.483   3.266
    1C        C  403   4.883   2.507   3.121
    1C        C  404   4.758   2.468   3.338
    1C        C  405   4.632   2.486   3.268
    1C        C  406   4.505   2.457   3.484
    1C        C  407   4.505   2.468   3.339
    1C        C  408   4.379   2.459   3.557
    1C        C  409   4.253   2.459   3.484
    1C        C  410   4.127   2.477   3.701
    1C        C  411   4.128   2.456   3.557
    1C        C  412   4.002   2.493   3.772
    1C        C  413   3.876   2.479   3.700
    1C        C  414   3.750   2.540   3.910
    1C        C  415   3.750   2.491   3.772
    1C        C  416   3.625   2.571   3.976
    1C        C  417   3.499   2.543   3.908
    1C        C  418   3.373   2.645   4.101
    1C        C  419   3.373   2.569   3.977
    1C        C  420   3.248   2.689   4.159
    1C        C  421   3.122   2.648   4.099
    1C        C  422   2.996   2.789   4.265
    1C        C  423   2.996   2.688   4.160
    1C        C  424   2.870   2.844   4.313
    1C        C  425   2.744   2.791   4.263
    1C        C  426   2.618   2.965   4.393
    1C        C  427   2.618   2.844   4.312
    1C        C  428   2.492   3.030   4.428
    1C        C  429   2.366   2.968   4.390
    1C        C  430   2.241   3.163   4.490
    1C        C  431   2.240   3.030   4.429
    1C        C  432   2.114   3.231   4.522
    1C        C  433   1.992   3.158   4.500
    1C        C  434   5.006   2.488   3.483
    1C        C  435   5.005   2.502   3.344
    1C        C  436   4.885   2.466   3.559
    1C        C  437   4.758   2.458   3.485
    1C        C  438   4.631   2.479   3.701
    1C        C  439   4.631   2.457   3.557
    1C        C  440   4.505   2.496   3.771
    1C        C  441   4.379   2.481   3.700
    1C        C  442   4.253   2.541   3.910
    1C        C  443   4.253   2.492   3.772
    1C        C  444   4.127   2.571   3.976
    1C        C  445   4.002   2.542   3.909
    1C        C  446   3.876   2.645   4.101
    1C        C  447   3.876   2.569   3.977
    1C        C  448   3.750   2.689   4.159
    1C        C  449   3.625   2.648   4.099
    1C        C  450   3.499   2.788   4.266
    1C        C  451   3.499   2.687   4.161
    1C        C  452   3.373   2.844   4.313
    1C        C  453   3.248   2.790   4.264
    1C        C  454   3.122   2.963   4.397
    1C        C  455   3.122   2.842   4.315
    1C        C  456   2.996   3.027   4.432
    1C        C  457   2.870   2.965   4.394
    1C        C  458   2.745   3.162   4.487
    1C        C  459   2.744   3.027   4.432
    1C        C  460   2.619   3.232   4.507
    1C        C  461   2.493   3.164   4.482
    1C        C  462   2.368   3.376   4.533
    1C        C  463   2.367   3.232   4.510
    1C        C  464   2.242   3.448   4.543
    1C        C  465   2.115   3.376   4.546
    1C        C  466   1.999   3.592   4.588
    1C        C  467   1.998   3.451   4.582
    1C        C  468   5.001   2.457   3.787
    1C        C  469   4.884   2.469   3.705
    1C        C  470   4.756   2.539   3.912
    1C        C  471   4.756   2.489   3.773
    1C        C  472   4.630   2.571   3.976
    1C        C  473   4.505   2.545   3.908
    1C        C  474   4.379   2.646   4.101
    1C        C  475   4.379   2.570   3.977
    1C        C  476   4.253   2.688   4.160
    1C        C  477   4.127   2.647   4.100
    1C        C  478   4.002   2.788   4.266
    1C        C  479   4.002   2.687   4.161
    1C        C  480   3.876   2.843   4.313
    1C        C  481   3.750   2.790   4.264
    1C        C  482   3.625   2.963   4.397
    1C        C  483   3.625   2.842   4.315
    1C        C  484   3.499   3.027   4.432
    1C        C  485   3.373   2.964   4.395
    1C        C  486   3.248   3.161   4.489
    1C        C  487   3.248   3.026   4.434
    1C        C  488   3.122   3.231   4.510
    1C        C  489   2.996   3.162   4.486
    1C        C  490   2.871   3.374   4.536
    1C        C  491   2.871   3.231   4.511
    1C        C  492   2.746   3.447   4.541
    1C        C  493   2.620   3.376   4.531
    1C        C  494   2.494   3.594   4.540
    1C        C  495   2.494   3.448   4.542
    1C        C  496   2.369   3.666   4.534
    1C        C  497   2.243   3.594   4.541
    1C        C  498   2.115   3.804   4.495
    1C        C  499   2.117   3.669   4.552
    1C        C  500   1.995   3.863   4.442
    1C        C  501   5.001   2.495   3.923
    1C        C  502   4.885   2.644   4.100
    1C        C  503   4.883   2.553   3.985
    1C        C  504   4.758   2.688   4.160
    1C        C  505   4.631   2.648   4.100
    1C        C  506   4.505   2.788   4.266
    1C        C  507   4.505   2.688   4.161
    1C        C  508   4.379   2.843   4.313
    1C        C  509   4.253   2.790   4.264
    1C        C  510   4.127   2.963   4.396
    1C        C  511   4.127   2.842   4.315
    1C        C  512   4.002   3.027   4.432
    1C        C  513   3.876   2.964   4.394
    1C        C  514   3.751   3.161   4.489
    1C        C  515   3.750   3.026   4.434
    1C        C  516   3.625   3.230   4.511
    1C        C  517   3.499   3.162   4.487
    1C        C  518   3.374   3.374   4.538
    1C        C  519   3.374   3.230   4.512
    1C        C  520   3.248   3.446   4.544
    1C        C  521   3.123   3.374   4.534
    1C        C  522   2.997   3.592   4.541
    1C        C  523   2.997   3.447   4.545
    1C        C  524   2.872   3.665   4.532
    1C        C  525   2.746   3.593   4.537
    1C        C  526   2.620   3.808   4.500
    1C        C  527   2.620   3.666   4.534
    1C        C  528   2.494   3.877   4.477
    1C        C  529   2.368   3.807   4.498
    1C        C  530   2.242   4.011   4.417
    1C        C  531   2.241   3.877   4.477
    1C        C  532   2.114   4.071   4.373
    1C        C  533   1.994   3.992   4.386
    1C        C  534   5.006   2.808   4.243
    1C        C  535   5.005   2.714   4.139
    1C        C  536   4.885   2.849   4.310
    1C        C  537   4.758   2.789   4.266
    1C        C  538   4.631   2.963   4.395
    1C        C  539   4.631   2.842   4.316
    1C        C  540   4.505   3.028   4.429
    1C        C  541   4.379   2.965   4.393
    1C        C  542   4.253   3.161   4.488
    1C        C  543   4.253   3.026   4.433
    1C        C  544   4.128   3.230   4.510
    1C        C  545   4.002   3.162   4.486
    1C        C  546   3.876   3.373   4.538
    1C        C  547   3.876   3.230   4.513
    1C        C  548   3.751   3.446   4.544
    1C        C  549   3.625   3.374   4.535
    1C        C  550   3.500   3.592   4.542
    1C        C  551   3.500   3.446   4.546
    1C        C  552   3.374   3.664   4.532
    1C        C  553   3.249   3.592   4.539
    1C        C  554   3.123   3.807   4.500
    1C        C  555   3.123   3.665   4.534
    1C        C  556   2.998   3.876   4.476
    1C        C  557   2.872   3.806   4.498
    1C        C  558   2.746   4.008   4.415
    1C        C  559   2.746   3.877   4.479
    1C        C  560   2.621   4.071   4.378
    1C        C  561   2.494   4.007   4.413
    1C        C  562   2.369   4.184   4.287
    1C        C  563   2.368   4.072   4.380
    1C        C  564   2.244   4.238   4.238
    1C        C  565   2.116   4.190   4.289
    1C        C  566   2.003   4.376   4.170
    1C        C  567   2.000   4.273   4.267
    1C        C  568   5.001   3.011   4.471
    1C        C  569   4.883   2.960   4.406
    1C        C  570   4.756   3.159   4.494
    1C        C  571   4.756   3.024   4.437
    1C        C  572   4.630   3.230   4.511
    1C        C  573   4.505   3.162   4.484
    1C        C  574   4.380   3.374   4.537
    1C        C  575   4.379   3.230   4.511
    1C        C  576   4.254   3.446   4.544
    1C        C  577   4.128   3.374   4.536
    1C        C  578   4.003   3.592   4.542
    1C        C  579   4.002   3.446   4.547
    1C        C  580   3.877   3.664   4.533
    1C        C  581   3.751   3.592   4.539
    1C        C  582   3.626   3.806   4.499
    1C        C  583   3.626   3.665   4.535
    1C        C  584   3.500   3.875   4.475
    1C        C  585   3.375   3.805   4.497
    1C        C  586   3.249   4.007   4.414
    1C        C  587   3.249   3.876   4.478
    1C        C  588   3.124   4.070   4.377
    1C        C  589   2.998   4.006   4.412
    1C        C  590   2.872   4.185   4.288
    1C        C  591   2.872   4.072   4.379
    1C        C  592   2.747   4.238   4.237
    1C        C  593   2.621   4.183   4.286
    1C        C  594   2.496   4.333   4.128
    1C        C  595   2.495   4.238   4.238
    1C        C  596   2.370   4.378   4.070
    1C        C  597   2.244   4.337   4.129
    1C        C  598   2.116   4.450   3.949
    1C        C  599   2.119   4.400   4.086
    1C        C  600   1.995   4.458   3.873
    1C        C  601   5.000   3.137   4.535
    1C        C  602   4.885   3.369   4.540
    1C        C  603   4.882   3.223   4.533
    1C        C  604   4.758   3.444   4.545
    1C        C  605   4.632   3.373   4.534
    1C        C  606   4.506   3.591   4.539
    1C        C  607   4.506   3.446   4.545
    1C        C  608   4.380   3.663   4.531
    1C        C  609   4.254   3.591   4.539
    1C        C  610   4.129   3.805   4.499
    1C        C  611   4.128   3.664   4.535
    1C        C  612   4.003   3.874   4.475
    1C        C  613   3.877   3.805   4.497
    1C        C  614   3.752   4.007   4.413
    1C        C  615   3.751   3.876   4.477
    1C        C  616   3.626   4.069   4.376
    1C        C  617   3.500   4.005   4.411
    1C        C  618   3.375   4.186   4.288
    1C        C  619   3.375   4.071   4.378
    1C        C  620   3.249   4.239   4.238
    1C        C  621   3.124   4.184   4.286
    1C        C  622   2.998   4.334   4.128
    1C        C  623   2.998   4.240   4.239
    1C        C  624   2.872   4.375   4.068
    1C        C  625   2.747   4.331   4.126
    1C        C  626   2.621   4.447   3.941
    1C        C  627   2.621   4.377   4.069
    1C        C  628   2.495   4.476   3.875
    1C        C  629   2.369   4.446   3.942
    1C        C  630   2.241   4.519   3.736
    1C        C  631   2.242   4.480   3.879
    1C        C  632   2.113   4.526   3.664
    1C        C  633   1.992   4.500   3.739
    1C        C  634   5.007   3.583   4.511
    1C        C  635   5.005   3.443   4.514
    1C        C  636   4.887   3.662   4.521
    1C        C  637   4.759   3.591   4.538
    1C        C  638   4.633   3.805   4.496
    1C        C  639   4.633   3.664   4.532
    1C        C  640   4.506   3.873   4.472
    1C        C  641   4.380   3.804   4.495
    1C        C  642   4.254   4.006   4.412
    1C        C  643   4.254   3.875   4.476
    1C        C  644   4.129   4.068   4.375
    1C        C  645   4.003   4.005   4.411
    1C        C  646   3.877   4.185   4.287
    1C        C  647   3.877   4.070   4.377
    1C        C  648   3.752   4.238   4.238
    1C        C  649   3.626   4.184   4.286
    1C        C  650   3.501   4.334   4.128
    1C        C  651   3.501   4.240   4.240
    1C        C  652   3.375   4.376   4.068
    1C        C  653   3.249   4.332   4.126
    1C        C  654   3.124   4.449   3.942
    1C        C  655   3.124   4.378   4.069
    1C        C  656   2.998   4.478   3.875
    1C        C  657   2.872   4.446   3.941
    1C        C  658   2.746   4.520   3.736
    1C        C  659   2.746   4.479   3.876
    1C        C  660   2.620   4.532   3.664
    1C        C  661   2.494   4.516   3.735
    1C        C  662   2.368   4.536   3.519
    1C        C  663   2.367   4.533   3.664
    1C        C  664   2.242   4.533   3.446
    1C        C  665   2.114   4.529   3.518
    1C        C  666   1.992   4.527   3.440
    1C        C  667   5.007   3.884   4.483
    1C        C  668   4.886   3.806   4.496
    1C        C  669   4.758   4.009   4.415
    1C        C  670   4.758   3.875   4.476
    1C        C  671   4.632   4.069   4.375
    1C        C  672   4.506   4.004   4.409
    1C        C  673   4.380   4.183   4.285
    1C        C  674   4.380   4.069   4.376
    1C        C  675   4.254   4.237   4.236
    1C        C  676   4.129   4.183   4.285
    1C        C  677   4.003   4.334   4.128
    1C        C  678   4.003   4.239   4.239
    1C        C  679   3.877   4.376   4.068
    1C        C  680   3.752   4.332   4.126
    1C        C  681   3.626   4.449   3.942
    1C        C  682   3.626   4.378   4.070
    1C        C  683   3.501   4.478   3.875
    1C        C  684   3.375   4.446   3.941
    1C        C  685   3.249   4.521   3.736
    1C        C  686   3.249   4.480   3.876
    1C        C  687   3.124   4.534   3.664
    1C        C  688   2.998   4.519   3.736
    1C        C  689   2.872   4.538   3.519
    1C        C  690   2.872   4.535   3.664
    1C        C  691   2.746   4.533   3.446
    1C        C  692   2.620   4.533   3.519
    1C        C  693   2.494   4.533   3.446
    1C        C  694   5.007   4.013   4.428
    1C        C  695   4.885   4.192   4.294
    1C        C  696   4.885   4.078   4.386
    1C        C  697   4.758   4.238   4.238
    1C        C  698   4.632   4.181   4.283
    1C        C  699   4.506   4.333   4.127
    1C        C  700   4.506   4.237   4.237
    1C        C  701   4.380   4.376   4.068
    1C        C  702   4.254   4.331   4.126
    1C        C  703   4.129   4.449   3.942
    1C        C  704   4.129   4.378   4.069
    1C        C  705   4.003   4.479   3.876
    1C        C  706   3.877   4.447   3.941
    1C        C  707   3.752   4.521   3.736
    1C        C  708   3.752   4.480   3.876
    1C        C  709   3.626   4.534   3.664
    1C        C  710   3.501   4.518   3.736
    1C        C  711   3.375   4.539   3.519
    1C        C  712   3.375   4.536   3.665
    1C        C  713   3.249   4.534   3.446
    1C        C  714   3.124   4.536   3.519
    1C        C  715   2.998   4.535   3.446
    1C        C  716   5.002   4.367   4.162
    1C        C  717   5.002   4.268   4.262
    1C        C  718   4.884   4.394   4.081
    1C        C  719   4.757   4.336   4.129
    1C        C  720   4.633   4.447   3.942
    1C        C  721   4.632   4.379   4.070
    1C        C  722   4.507   4.477   3.875
    1C        C  723   4.381   4.446   3.941
    1C        C  724   4.255   4.520   3.736
    1C        C  725   4.255   4.480   3.876
    1C        C  726   4.129   4.533   3.664
    1C        C  727   4.003   4.518   3.736
    1C        C  728   3.878   4.538   3.519
    1C        C  729   3.878   4.536   3.665
    1C        C  730   3.752   4.533   3.446
    1C        C  731   3.626   4.535   3.519
    1C        C  732   3.501   4.536   3.446
    1C        C  733   5.006   4.439   3.863
    1C        C  734   4.886   4.441   3.943
    1C        C  735   4.760   4.520   3.736
    1C        C  736   4.760   4.477   3.876
    1C        C  737   4.633   4.532   3.664
    1C        C  738   4.507   4.517   3.735
    1C        C  739   4.381   4.535   3.519
    1C        C  740   4.381   4.534   3.665
    1C        C  741   4.255   4.531   3.446
    1C        C  742   4.129   4.533   3.519
    1C        C  743   4.003   4.534   3.446
    1C        C  744   5.007   4.484   3.730
    1C        C  745   4.886   4.542   3.517
    1C        C  746   4.887   4.527   3.662
    1C        C  747   4.759   4.531   3.446
    1C        C  748   4.633   4.534   3.519
    1C        C  749   4.507   4.531   3.446
    1C        C  750   5.002   4.579   3.440
    1C        O  751   5.111   2.451   3.995
    1C        H  752   5.178   2.408   3.934
    1C        O  753   5.111   3.162   4.616
    1C        H  754   5.178   3.089   4.606
    1C        O  755   5.112   2.431   3.052
    1C        H  756   5.179   2.448   2.980
    1C        O  757   5.112   4.452   4.164
    1C        H  758   5.180   4.420   4.230
    1C        O  759   5.112   4.633   3.239
    1C        H  760   5.181   4.656   3.307
    1C        O  761   5.115   3.119   2.413
    1C        H  762   5.181   3.184   2.373
    1C        O  763   5.113   4.059   2.487
    1C        H  764   5.180   4.129   2.511
    1C        O  765   1.883   2.461   3.990
    1C        H  766   1.819   2.411   3.932
    1C        O  767   1.883   2.381   3.275
    1C        H  768   1.823   2.336   3.342
    1C        O  769   1.885   3.649   4.643
    1C        H  770   1.817   3.580   4.670
    1C        O  771   1.885   2.918   2.513
    1C        H  772   1.822   2.841   2.525
    1C        O  773   1.886   3.846   2.406
    1C        H  774   1.823   3.785   2.357
    1C        O  775   1.888   4.552   3.015
    1C        H  776   1.825   4.547   2.937
    1C        O  777   1.887   4.454   4.163
    1C        H  778   1.821   4.427   4.233
    1C        H  779   5.102   2.692   4.097
    1C        H  780   5.102   2.853   4.264
    1C        H  781   5.088   2.950   4.482
    1C        H  782   5.102   3.397   4.504
    1C        H  783   5.107   3.625   4.514
    1C        H  784   5.089   2.409   3.748
    1C        H  785   5.102   2.501   3.531
    1C        H  786   5.102   2.517   3.299
    1C        H  787   5.088   2.583   2.854
    1C        H  788   5.102   2.812   2.780
    1C        H  789   5.102   2.995   2.639
    1C        H  790   5.090   3.369   2.389
    1C        H  791   5.103   3.576   2.506
    1C        H  792   5.103   3.804   2.546
    1C        H  793   5.090   4.239   2.660
    1C        H  794   5.104   4.290   2.893
    1C        H  795   5.104   4.415   3.089
    1C        H  796   5.089   4.620   3.489
    1C        H  797   5.104   4.482   3.681
    1C        H  798   5.103   4.418   3.904
    1C        H  799   5.090   4.263   4.324
    1C        H  800   5.104   4.050   4.400
    1C        H  801   5.101   3.852   4.525
    1C        H  802   1.915   3.403   4.631
    1C        H  803   1.895   3.201   4.516
    1C        H  804   1.899   2.976   4.454
    1C        H  805   1.892   2.836   4.267
    1C        H  806   1.897   2.694   4.088
    1C        H  807   1.903   2.420   3.745
    1C        H  808   1.901   2.411   3.524
    1C        H  809   1.896   2.582   3.120
    1C        H  810   1.897   2.694   2.918
    1C        H  811   1.912   2.728   2.677
    1C        H  812   1.896   3.167   2.552
    1C        H  813   1.898   3.393   2.503
    1C        H  814   1.913   3.597   2.373
    1C        H  815   1.897   3.982   2.619
    1C        H  816   1.916   4.407   2.811
    1C        H  817   1.899   4.171   2.753
    1C        H  818   1.898   4.495   3.257
    1C        H  819   1.895   4.552   3.481
    1C        H  820   1.897   4.537   3.708
    1C        H  821   1.898   4.433   3.914
    1C        H  822   1.921   4.275   4.339
    1C        H  823   1.898   4.028   4.354
    1C        H  824   1.897   3.819   4.453
   7.00000   7.00000   7.00000
